<LesHouchesEvents version="3.0">
<header>
<!--
#*********************************************************************
#                                                                    *
#                        MadGraph5_aMC@NLO                           *
#                                                                    *
#                           Going Beyond                             *
#                                                                    *
#                   http://madgraph.hep.uiuc.edu                     *
#                   http://madgraph.phys.ucl.ac.be                   *
#                   http://amcatnlo.cern.ch                          *
#                                                                    *
#                     The MadGraph5_aMC@NLO team                     *
#                                                                    *
#....................................................................*
#                                                                    *
# This file contains all the information necessary to reproduce      *
# the events generated:                                              *
#                                                                    *
# 1. software version                                                *
# 2. proc_card          : code generation info including model       *
# 3. param_card         : model primary parameters in the LH format  *
# 4. run_card           : running parameters (collider and cuts)     *
# 5. pythia_card        : present only if pythia has been run        *
# 6. pgs_card           : present only if pgs has been run           *
# 7. delphes_cards      : present only if delphes has been run       *
#                                                                    *
#                                                                    *
#*********************************************************************
-->
<MGVersion>
#5.2.2.3
</MGVersion>
<MG5ProcCard>
#************************************************************
#*                     MadGraph5_aMC@NLO                    *
#*                                                          *
#*                *                       *                 *
#*                  *        * *        *                   *
#*                    * * * * 5 * * * *                     *
#*                  *        * *        *                   *
#*                *                       *                 *
#*                                                          *
#*                                                          *
#*         VERSION 2.2.3                 2015-02-10         *
#*                                                          *
#*    The MadGraph5_aMC@NLO Development Team - Find us at   *
#*    https://server06.fynu.ucl.ac.be/projects/madgraph     *
#*                                                          *
#************************************************************
#*                                                          *
#*               Command File for MadGraph5_aMC@NLO         *
#*                                                          *
#*     run as ./bin/mg5_aMC  filename                       *
#*                                                          *
#************************************************************
set group_subprocesses Auto
set ignore_six_quark_processes False
set loop_optimized_output True
set gauge unitary
set complex_mass_scheme False
import model sm
define p = g u c d s u~ c~ d~ s~
define j = g u c d s u~ c~ d~ s~
define l+ = e+ mu+
define l- = e- mu-
define vl = ve vm vt
define vl~ = ve~ vm~ vt~
import model Zprime_UFO
generate p p > zph, zph > j j
add process p p > zph, zph > b b~
output Dijet_signal
</MG5ProcCard>
<MGProcCard>
#*********************************************************************
#                        MadGraph/MadEvent                           *
#                   http://madgraph.hep.uiuc.edu                     *
#                                                                    *
#                          proc_card.dat                             *
#*********************************************************************
#                                                                    *
#            This Files is generated by MADGRAPH 5                   *
#                                                                    *
# WARNING: This Files is generated for MADEVENT (compatibility issue)*
#          This files is NOT a valid MG4 proc_card.dat               *
#          Running this in MG4 will NEVER reproduce the result of MG5*
#                                                                    *
#*********************************************************************
#*********************************************************************
# Process(es) requested : mg2 input                                  *
#*********************************************************************
# Begin PROCESS # This is TAG. Do not modify this line
p p > zph , zph > j j           #Process
# Be carefull the coupling are here in MG5 convention
          
end_coup           # End the couplings input

done               # this tells MG there are no more procs
# End PROCESS  # This is TAG. Do not modify this line
#*********************************************************************
# Model information                                                  *
#*********************************************************************
# Begin MODEL  # This is TAG. Do not modify this line
Zprime_UFO
# End   MODEL  # This is TAG. Do not modify this line
#*********************************************************************
# Start multiparticle definitions                                    *
#*********************************************************************
# Begin MULTIPARTICLES # This is TAG. Do not modify this line

# End  MULTIPARTICLES # This is TAG. Do not modify this line
</MGProcCard>
<MGRunCard>
#*********************************************************************
#                       MadGraph5_aMC@NLO                            *
#                                                                    *
#                     run_card.dat MadEvent                          *
#                                                                    *
#  This file is used to set the parameters of the run.               *
#                                                                    *
#  Some notation/conventions:                                        *
#                                                                    *
#   Lines starting with a '# ' are info or comments                  *
#                                                                    *
#   mind the format:   value    = variable     ! comment             *
#*********************************************************************
#
#*******************                                                 
# Running parameters
#*******************                                                 
#                                                                    
#*********************************************************************
# Tag name for the run (one word)                                    *
#*********************************************************************
  tag_1     = run_tag ! name of the run 
#*********************************************************************
# Run to generate the grid pack                                      *
#*********************************************************************
  .false.     = gridpack  !True = setting up the grid pack
#*********************************************************************
# Number of events and rnd seed                                      *
# Warning: Do not generate more than 1M events in a single run       *
# If you want to run Pythia, avoid more than 50k events in a run.    *
#*********************************************************************
  2000 = nevents ! Number of unweighted events requested 
 1020 = iseed   ! rnd seed (0=assigned automatically=default))
#*********************************************************************
# Collider type and energy                                           *
# lpp: 0=No PDF, 1=proton, -1=antiproton, 2=photon from proton,      *
#                                         3=photon from electron     *
#*********************************************************************
        1     = lpp1    ! beam 1 type 
        1     = lpp2    ! beam 2 type
     4000     = ebeam1  ! beam 1 total energy in GeV
     4000     = ebeam2  ! beam 2 total energy in GeV
#*********************************************************************
# Beam polarization from -100 (left-handed) to 100 (right-handed)    *
#*********************************************************************
        0     = polbeam1 ! beam polarization for beam 1
        0     = polbeam2 ! beam polarization for beam 2
#*********************************************************************
# PDF CHOICE: this automatically fixes also alpha_s and its evol.    *
#*********************************************************************
 'nn23lo1'    = pdlabel     ! PDF set                                     
 230000    = lhaid     ! if pdlabel=lhapdf, this is the lhapdf number
#*********************************************************************
# Renormalization and factorization scales                           *
#*********************************************************************
 F        = fixed_ren_scale  ! if .true. use fixed ren scale
 F        = fixed_fac_scale  ! if .true. use fixed fac scale
 91.1880  = scale            ! fixed ren scale
 91.1880  = dsqrt_q2fact1    ! fixed fact scale for pdf1
 91.1880  = dsqrt_q2fact2    ! fixed fact scale for pdf2
 1        = scalefact        ! scale factor for event-by-event scales
#*********************************************************************
# Matching - Warning! ickkw > 1 is still beta
#*********************************************************************
 0        = ickkw            ! 0 no matching, 1 MLM, 2 CKKW matching
 1        = highestmult      ! for ickkw=2, highest mult group
 1        = ktscheme         ! for ickkw=1, 1 Durham kT, 2 Pythia pTE
 1        = alpsfact         ! scale factor for QCD emission vx
 F        = chcluster        ! cluster only according to channel diag
 T        = pdfwgt           ! for ickkw=1, perform pdf reweighting
 5        = asrwgtflavor     ! highest quark flavor for a_s reweight
 T        = clusinfo         ! include clustering tag in output
 3.0      = lhe_version       ! Change the way clustering information pass to shower.        
#*********************************************************************
#**********************************************************
#
#**********************************************************
# Automatic ptj and mjj cuts if xqcut > 0
# (turn off for VBF and single top processes)
#**********************************************************
   T  = auto_ptj_mjj  ! Automatic setting of ptj and mjj
#**********************************************************
#                                                                    
#**********************************
# BW cutoff (M+/-bwcutoff*Gamma)
#**********************************
  15  = bwcutoff      ! (M+/-bwcutoff*Gamma)
#**********************************************************
# Apply pt/E/eta/dr/mij cuts on decay products or not
# (note that etmiss/ptll/ptheavy/ht/sorted cuts always apply)
#**********************************************************
   T  = cut_decays    ! Cut decay products 
#*************************************************************
# Number of helicities to sum per event (0 = all helicities)
# 0 gives more stable result, but longer run time (needed for
# long decay chains e.g.).
# Use >=2 if most helicities contribute, e.g. pure QCD.
#*************************************************************
   0  = nhel          ! Number of helicities used per event
#*******************                                                 
# Standard Cuts
#*******************                                                 
#                                                                    
#*********************************************************************
# Minimum and maximum pt's (for max, -1 means no cut)                *
#*********************************************************************
 20  = ptj       ! minimum pt for the jets 
  0  = ptb       ! minimum pt for the b 
 10  = pta       ! minimum pt for the photons 
 10  = ptl       ! minimum pt for the charged leptons 
  0  = misset    ! minimum missing Et (sum of neutrino's momenta)
  0  = ptheavy   ! minimum pt for one heavy final state
 1.0 = ptonium   ! minimum pt for the quarkonium states
 -1  = ptjmax    ! maximum pt for the jets
 -1  = ptbmax    ! maximum pt for the b
 -1  = ptamax    ! maximum pt for the photons
 -1  = ptlmax    ! maximum pt for the charged leptons
 -1  = missetmax ! maximum missing Et (sum of neutrino's momenta)
#*********************************************************************
# Minimum and maximum E's (in the center of mass frame)              *
#*********************************************************************
  0  = ej     ! minimum E for the jets 
  0  = eb     ! minimum E for the b 
  0  = ea     ! minimum E for the photons 
  0  = el     ! minimum E for the charged leptons 
 -1   = ejmax ! maximum E for the jets
 -1   = ebmax ! maximum E for the b
 -1   = eamax ! maximum E for the photons
 -1   = elmax ! maximum E for the charged leptons
#*********************************************************************
# Maximum and minimum absolute rapidity (for max, -1 means no cut)   *
#*********************************************************************
   5  = etaj    ! max rap for the jets 
  -1  = etab    ! max rap for the b
 2.5  = etaa    ! max rap for the photons 
 2.5  = etal    ! max rap for the charged leptons 
 0.6  = etaonium ! max rap for the quarkonium states
   0  = etajmin ! min rap for the jets
   0  = etabmin ! min rap for the b
   0  = etaamin ! min rap for the photons
   0  = etalmin ! main rap for the charged leptons
#*********************************************************************
# Minimum and maximum DeltaR distance                                *
#*********************************************************************
 0.4 = drjj    ! min distance between jets 
 0   = drbb    ! min distance between b's 
 0.4 = drll    ! min distance between leptons 
 0.4 = draa    ! min distance between gammas 
 0   = drbj    ! min distance between b and jet 
 0.4 = draj    ! min distance between gamma and jet 
 0.4 = drjl    ! min distance between jet and lepton 
 0   = drab    ! min distance between gamma and b 
 0   = drbl    ! min distance between b and lepton 
 0.4 = dral    ! min distance between gamma and lepton 
 -1  = drjjmax ! max distance between jets
 -1  = drbbmax ! max distance between b's
 -1  = drllmax ! max distance between leptons
 -1  = draamax ! max distance between gammas
 -1  = drbjmax ! max distance between b and jet
 -1  = drajmax ! max distance between gamma and jet
 -1  = drjlmax ! max distance between jet and lepton
 -1  = drabmax ! max distance between gamma and b
 -1  = drblmax ! max distance between b and lepton
 -1  = dralmax ! maxdistance between gamma and lepton
#*********************************************************************
# Minimum and maximum invariant mass for pairs                       *
# WARNING: for four lepton final state mmll cut require to have      *
#          different lepton masses for each flavor!                  *           
#*********************************************************************
 0   = mmjj    ! min invariant mass of a jet pair 
 0   = mmbb    ! min invariant mass of a b pair 
 0   = mmaa    ! min invariant mass of gamma gamma pair
 0   = mmll    ! min invariant mass of l+l- (same flavour) lepton pair
 -1  = mmjjmax ! max invariant mass of a jet pair
 -1  = mmbbmax ! max invariant mass of a b pair
 -1  = mmaamax ! max invariant mass of gamma gamma pair
 -1  = mmllmax ! max invariant mass of l+l- (same flavour) lepton pair
#*********************************************************************
# Minimum and maximum invariant mass for all letpons                 *
#*********************************************************************
 0   = mmnl    ! min invariant mass for all letpons (l+- and vl) 
 -1  = mmnlmax ! max invariant mass for all letpons (l+- and vl) 
#*********************************************************************
# Minimum and maximum pt for 4-momenta sum of leptons                *
#*********************************************************************
 0   = ptllmin  ! Minimum pt for 4-momenta sum of leptons(l and vl)
 -1  = ptllmax  ! Maximum pt for 4-momenta sum of leptons(l and vl)
#*********************************************************************
# Inclusive cuts                                                     *
#*********************************************************************
 0  = xptj ! minimum pt for at least one jet  
 0  = xptb ! minimum pt for at least one b 
 0  = xpta ! minimum pt for at least one photon 
 0  = xptl ! minimum pt for at least one charged lepton 
#*********************************************************************
# Control the pt's of the jets sorted by pt                          *
#*********************************************************************
 0   = ptj1min ! minimum pt for the leading jet in pt
 0   = ptj2min ! minimum pt for the second jet in pt
 0   = ptj3min ! minimum pt for the third jet in pt
 0   = ptj4min ! minimum pt for the fourth jet in pt
 -1  = ptj1max ! maximum pt for the leading jet in pt 
 -1  = ptj2max ! maximum pt for the second jet in pt
 -1  = ptj3max ! maximum pt for the third jet in pt
 -1  = ptj4max ! maximum pt for the fourth jet in pt
 0   = cutuse  ! reject event if fails any (0) / all (1) jet pt cuts
#*********************************************************************
# Control the pt's of leptons sorted by pt                           *
#*********************************************************************
 0   = ptl1min ! minimum pt for the leading lepton in pt
 0   = ptl2min ! minimum pt for the second lepton in pt
 0   = ptl3min ! minimum pt for the third lepton in pt
 0   = ptl4min ! minimum pt for the fourth lepton in pt
 -1  = ptl1max ! maximum pt for the leading lepton in pt 
 -1  = ptl2max ! maximum pt for the second lepton in pt
 -1  = ptl3max ! maximum pt for the third lepton in pt
 -1  = ptl4max ! maximum pt for the fourth lepton in pt
#*********************************************************************
# Control the Ht(k)=Sum of k leading jets                            *
#*********************************************************************
 0   = htjmin ! minimum jet HT=Sum(jet pt)
 -1  = htjmax ! maximum jet HT=Sum(jet pt)
 0   = ihtmin  !inclusive Ht for all partons (including b)
 -1  = ihtmax  !inclusive Ht for all partons (including b)
 0   = ht2min ! minimum Ht for the two leading jets
 0   = ht3min ! minimum Ht for the three leading jets
 0   = ht4min ! minimum Ht for the four leading jets
 -1  = ht2max ! maximum Ht for the two leading jets
 -1  = ht3max ! maximum Ht for the three leading jets
 -1  = ht4max ! maximum Ht for the four leading jets
#***********************************************************************
# Photon-isolation cuts, according to hep-ph/9801442                   *
# When ptgmin=0, all the other parameters are ignored                  *
# When ptgmin>0, pta and draj are not going to be used                 *
#***********************************************************************
   0 = ptgmin ! Min photon transverse momentum
 0.4 = R0gamma ! Radius of isolation code
 1.0 = xn ! n parameter of eq.(3.4) in hep-ph/9801442
 1.0 = epsgamma ! epsilon_gamma parameter of eq.(3.4) in hep-ph/9801442
 .true. = isoEM ! isolate photons from EM energy (photons and leptons)
#*********************************************************************
# WBF cuts                                                           *
#*********************************************************************
 0   = xetamin ! minimum rapidity for two jets in the WBF case  
 0   = deltaeta ! minimum rapidity for two jets in the WBF case 
#*********************************************************************
# KT DURHAM CUT                                                      *
#*********************************************************************
 -1    =  ktdurham        
 0.4  =  dparameter 
#*********************************************************************
# maximal pdg code for quark to be considered as a light jet         *
# (otherwise b cuts are applied)                                     *
#*********************************************************************
 4 = maxjetflavor    ! Maximum jet pdg code
#*********************************************************************
# Jet measure cuts                                                   *
#*********************************************************************
 0   = xqcut   ! minimum kt jet measure between partons
#*********************************************************************
#
#*********************************************************************
# Store info for systematics studies                                 *
# WARNING: If use_syst is T, matched Pythia output is                *
#          meaningful ONLY if plotted taking matchscale              *
#          reweighting into account!                                 *
#*********************************************************************
   F  = use_syst      ! Enable systematics studies
#
#**************************************
# Parameter of the systematics study
#  will be used by SysCalc (if installed)
#**************************************                                  
#
0.5 1 2 = sys_scalefact  # factorization/renormalization scale factor
0.5 1 2 = sys_alpsfact  # \alpha_s emission scale factors
30 50 = sys_matchscale # variation of merging scale
# PDF sets and number of members (0 or none for all members).
CT10nlo.LHgrid = sys_pdf # matching scales
# MSTW2008nlo68cl.LHgrid 1  = sys_pdf
</MGRunCard>
<slha>
######################################################################
## PARAM_CARD AUTOMATICALY GENERATED BY MG5 FOLLOWING UFO MODEL   ####
######################################################################
##                                                                  ##
##  Width set on Auto will be computed following the information    ##
##        present in the decay.py files of the model.               ##
##        See  arXiv:1402.1178 for more details.                    ##
##                                                                  ##
######################################################################

###################################
## INFORMATION FOR CKMBLOCK
###################################
Block ckmblock 
    1 2.277360e-01 # cabi 

###################################
## INFORMATION FOR FRBLOCK
###################################
Block frblock 
    1 4.000000e-01 # gz 

###################################
## INFORMATION FOR MASS
###################################
Block mass 
    1 5.040000e-03 # MD 
    2 2.550000e-03 # MU 
    3 1.010000e-01 # MS 
    4 1.270000e+00 # MC 
    5 4.700000e+00 # MB 
    6 1.720000e+02 # MT 
   11 5.110000e-04 # Me 
   13 1.056600e-01 # MM 
   15 1.777000e+00 # MTA 
   23 9.118760e+01 # MZ 
   25 1.200000e+02 # MH 
  10030 2.700000e+03 # MZph 
  10031 3.000000e+02 # MZpl 
## Dependent parameters, given by model restrictions.
## Those values should be edited following the 
## analytical expression. MG5 ignores those values 
## but they are important for interfacing the output of MG5
## to external program such as Pythia.
  12 0.000000 # ve : 0.0 
  14 0.000000 # vm : 0.0 
  16 0.000000 # vt : 0.0 
  21 0.000000 # g : 0.0 
  22 0.000000 # a : 0.0 
  24 79.824360 # w+ : cmath.sqrt(MZ__exp__2/2. + cmath.sqrt(MZ__exp__4/4. - (aEW*cmath.pi*MZ__exp__2)/(Gf*sqrt__2))) 

###################################
## INFORMATION FOR SMINPUTS
###################################
Block sminputs 
    1 1.279000e+02 # aEWM1 
    2 1.166370e-05 # Gf 
    3 1.184000e-01 # aS 

###################################
## INFORMATION FOR YUKAWA
###################################
Block yukawa 
    1 5.040000e-03 # ymdo 
    2 2.550000e-03 # ymup 
    3 1.010000e-01 # yms 
    4 1.270000e+00 # ymc 
    5 4.700000e+00 # ymb 
    6 1.720000e+02 # ymt 
   11 5.110000e-04 # yme 
   13 1.056600e-01 # ymm 
   15 1.777000e+00 # ymtau 

###################################
## INFORMATION FOR DECAY
###################################
DECAY   6 1.508336e+00 # WT 
DECAY  23 2.495200e+00 # WZ 
DECAY  24 2.085000e+00 # WW 
DECAY  25 5.753088e-03 # WH 
## Dependent parameters, given by model restrictions.
## Those values should be edited following the 
## analytical expression. MG5 ignores those values 
## but they are important for interfacing the output of MG5
## to external program such as Pythia.
DECAY  1 0.000000 # d : 0.0 
DECAY  2 0.000000 # u : 0.0 
DECAY  3 0.000000 # s : 0.0 
DECAY  4 0.000000 # c : 0.0 
DECAY  5 0.000000 # b : 0.0 
DECAY  11 0.000000 # e- : 0.0 
DECAY  12 0.000000 # ve : 0.0 
DECAY  13 0.000000 # mu- : 0.0 
DECAY  14 0.000000 # vm : 0.0 
DECAY  15 0.000000 # ta- : 0.0 
DECAY  16 0.000000 # vt : 0.0 
DECAY  21 0.000000 # g : 0.0 
DECAY  22 0.000000 # a : 0.0 
DECAY  10030 0.308725 # zph : (gz__exp__2*MZph*(5 + cmath.sqrt(1 - (4*MT__exp__2)/MZph__exp__2)))/(144.*cmath.pi) 
DECAY  10031 0.132629 # zpl : (5*gz__exp__2*MZpl)/(144.*cmath.pi) 
#===========================================================
# QUANTUM NUMBERS OF NEW STATE(S) (NON SM PDG CODE)
#===========================================================

Block QNUMBERS 10030  # zph 
        1 0  # 3 times electric charge
        2 3  # number of spin states (2S+1)
        3 1  # colour rep (1: singlet, 3: triplet, 8: octet)
        4 0  # Particle/Antiparticle distinction (0=own anti)
Block QNUMBERS 10031  # zpl 
        1 0  # 3 times electric charge
        2 3  # number of spin states (2S+1)
        3 1  # colour rep (1: singlet, 3: triplet, 8: octet)
        4 0  # Particle/Antiparticle distinction (0=own anti)
</slha>
## END BANNER##
<MGGenerationInfo>
#  Number of Events        :         3900
#  Integrated weight (pb)  :  0.52495E-03
#  Max wgt                 :  0.20631E-06
#  Average wgt             :  0.13460E-06
</MGGenerationInfo>
</header>
<init>
     2212     2212  0.40000000000E+04  0.40000000000E+04 0 0  247000  247000 2   1
  0.52552129399E-03  0.10376280050E-05  0.20630870000E-06   0
</init>
<event>
 5   0  0.2030645E-06  0.2701550E+04  0.7818609E-02  0.8334502E-01
       -2   -1    0    0    0  501  0.00000000000E+00  0.00000000000E+00  0.17214872628E+04  0.17214872628E+04  0.25500000920E-02 0. -1.
        2   -1    0    0  501    0  0.00000000000E+00  0.00000000000E+00 -0.10598935577E+04  0.10598935577E+04  0.25500000920E-02 0.  1.
    10030    2    1    2    0    0  0.00000000000E+00  0.00000000000E+00  0.66159370510E+03  0.27813808205E+04  0.27015501176E+04 0.  0.
        1    1    3    3  502    0  0.36296775756E+03 -0.10013140769E+04  0.11861402354E+04  0.15941468351E+04  0.50400001928E-02 0. -1.
       -1    1    3    3    0  502 -0.36296775756E+03  0.10013140769E+04 -0.52454653034E+03  0.11872339854E+04  0.50400001928E-02 0.  1.
</event>
<event>
 5   0  0.2030645E-06  0.2727817E+04  0.7818609E-02  0.8326035E-01
       -2   -1    0    0    0  501  0.00000000000E+00  0.00000000000E+00  0.97709850236E+03  0.97709850236E+03  0.25500000920E-02 0. -1.
        2   -1    0    0  501    0  0.00000000000E+00  0.00000000000E+00 -0.19038478658E+04  0.19038478658E+04  0.25500000920E-02 0.  1.
    10030    2    1    2    0    0  0.00000000000E+00  0.00000000000E+00 -0.92674936346E+03  0.28809463682E+04  0.27278173681E+04 0.  0.
        1    1    3    3  502    0  0.61209014082E+03  0.67871340548E+03  0.60585066816E+03  0.10965223479E+04  0.50400001928E-02 0. -1.
       -1    1    3    3    0  502 -0.61209014082E+03 -0.67871340548E+03 -0.15326000316E+04  0.17844240203E+04  0.50400001928E-02 0.  1.
</event>
<event>
 5   0  0.2063087E-06  0.2709387E+04  0.7818609E-02  0.8331966E-01
        2   -1    0    0  501    0  0.00000000000E+00  0.00000000000E+00  0.94036628828E+03  0.94036628828E+03  0.25500000920E-02 0. -1.
       -2   -1    0    0    0  501  0.00000000000E+00  0.00000000000E+00 -0.19515736620E+04  0.19515736620E+04  0.25500000920E-02 0.  1.
    10030    2    1    2    0    0  0.00000000000E+00  0.00000000000E+00 -0.10112073737E+04  0.28919399503E+04  0.27093867061E+04 0.  0.
        3    1    3    3  502    0  0.45480814802E+03 -0.20107449555E+03 -0.18506324810E+04  0.19162781620E+04  0.10100000352E+00 0.  1.
       -3    1    3    3    0  502 -0.45480814802E+03  0.20107449555E+03  0.83942510725E+03  0.97566178830E+03  0.10100000352E+00 0. -1.
</event>
<event>
 5   0  0.2030645E-06  0.2693955E+04  0.7818609E-02  0.8336969E-01
       -2   -1    0    0    0  501  0.00000000000E+00  0.00000000000E+00  0.10356081368E+04  0.10356081368E+04  0.25500000920E-02 0.  1.
        2   -1    0    0  501    0  0.00000000000E+00  0.00000000000E+00 -0.17519641776E+04  0.17519641776E+04  0.25500000920E-02 0. -1.
    10030    2    1    2    0    0  0.00000000000E+00  0.00000000000E+00 -0.71635604080E+03  0.27875723144E+04  0.26939549794E+04 0.  0.
        1    1    3    3  502    0 -0.29940466629E+01  0.74360844601E+02 -0.17498352082E+04  0.17514170707E+04  0.50400001928E-02 0. -1.
       -1    1    3    3    0  502  0.29940466629E+01 -0.74360844601E+02  0.10334791674E+04  0.10361552437E+04  0.50400001928E-02 0.  1.
</event>
<event>
 5   0  0.2063087E-06  0.2703083E+04  0.7818609E-02  0.8334005E-01
        2   -1    0    0  501    0  0.00000000000E+00  0.00000000000E+00  0.15523789270E+04  0.15523789270E+04  0.25500000920E-02 0.  1.
       -2   -1    0    0    0  501  0.00000000000E+00  0.00000000000E+00 -0.11766872862E+04  0.11766872862E+04  0.25500000920E-02 0. -1.
    10030    2    1    2    0    0  0.00000000000E+00  0.00000000000E+00  0.37569164080E+03  0.27290662131E+04  0.27030830891E+04 0.  0.
        3    1    3    3  502    0  0.11439040008E+03  0.13465518339E+04  0.16822888117E+03  0.13618325784E+04  0.10100000352E+00 0.  1.
       -3    1    3    3    0  502 -0.11439040008E+03 -0.13465518339E+04  0.20746275963E+03  0.13672336347E+04  0.10100000352E+00 0. -1.
</event>
<event>
 5   0  0.7566905E-07  0.2703396E+04  0.7818609E-02  0.8333904E-01
       -1   -1    0    0    0  501  0.00000000000E+00  0.00000000000E+00  0.10469631235E+04  0.10469631235E+04  0.50400001928E-02 0.  1.
        1   -1    0    0  501    0  0.00000000000E+00  0.00000000000E+00 -0.17451310572E+04  0.17451310572E+04  0.50400001928E-02 0. -1.
    10030    2    1    2    0    0  0.00000000000E+00  0.00000000000E+00 -0.69816793370E+03  0.27920941807E+04  0.27033962806E+04 0.  0.
        1    1    3    3  502    0 -0.14184553411E+03 -0.12711032299E+03 -0.17312021752E+04  0.17416481164E+04  0.50400001928E-02 0. -1.
       -1    1    3    3    0  502  0.14184553411E+03  0.12711032299E+03  0.10330342415E+04  0.10504460643E+04  0.50400001928E-02 0.  1.
</event>
<event>
 5   0  0.7335091E-07  0.2725129E+04  0.7818609E-02  0.8326897E-01
       -1   -1    0    0    0  501  0.00000000000E+00  0.00000000000E+00  0.90642212714E+03  0.90642212716E+03  0.50400001928E-02 0.  1.
        1   -1    0    0  501    0  0.00000000000E+00  0.00000000000E+00 -0.20482534495E+04  0.20482534495E+04  0.50400001928E-02 0. -1.
    10030    2    1    2    0    0  0.00000000000E+00  0.00000000000E+00 -0.11418313223E+04  0.29546755766E+04  0.27251291702E+04 0.  0.
        3    1    3    3  502    0 -0.66744194969E+03  0.80118147327E+03  0.38000801078E+03  0.11098543183E+04  0.10100000352E+00 0.  1.
       -3    1    3    3    0  502  0.66744194969E+03 -0.80118147327E+03 -0.15218393331E+04  0.18448212584E+04  0.10100000352E+00 0. -1.
</event>
<event>
 5   0  0.2030645E-06  0.2699565E+04  0.7818609E-02  0.8335146E-01
        2   -1    0    0  501    0  0.00000000000E+00  0.00000000000E+00  0.14425011712E+04  0.14425011712E+04  0.25500000920E-02 0.  1.
       -2   -1    0    0    0  501  0.00000000000E+00  0.00000000000E+00 -0.12630237350E+04  0.12630237351E+04  0.25500000920E-02 0. -1.
    10030    2    1    2    0    0  0.00000000000E+00  0.00000000000E+00  0.17947743614E+03  0.27055249062E+04  0.26995653110E+04 0.  0.
        1    1    3    3  502    0 -0.66027748508E+03  0.83073762370E+03 -0.74626215638E+03  0.12973043447E+04  0.50400001928E-02 0. -1.
       -1    1    3    3    0  502  0.66027748508E+03 -0.83073762370E+03  0.92573959252E+03  0.14082205615E+04  0.50400001928E-02 0.  1.
</event>
<event>
 5   0  0.7436613E-07  0.2700042E+04  0.7818609E-02  0.8334991E-01
       -1   -1    0    0    0  501  0.00000000000E+00  0.00000000000E+00  0.11521246921E+04  0.11521246921E+04  0.50400001928E-02 0.  1.
        1   -1    0    0  501    0  0.00000000000E+00  0.00000000000E+00 -0.15819094815E+04  0.15819094815E+04  0.50400001928E-02 0. -1.
    10030    2    1    2    0    0  0.00000000000E+00  0.00000000000E+00 -0.42978478934E+03  0.27340341736E+04  0.27000422028E+04 0.  0.
        2    1    3    3  502    0  0.91258729307E+03 -0.19721788007E+02  0.79229180650E+03  0.12086897133E+04  0.25500000920E-02 0. -1.
       -2    1    3    3    0  502 -0.91258729307E+03  0.19721788007E+02 -0.12220765958E+04  0.15253444603E+04  0.25500000920E-02 0.  1.
</event>
<event>
 5   0  0.2030645E-06  0.2703716E+04  0.7818609E-02  0.8333800E-01
        2   -1    0    0  501    0  0.00000000000E+00  0.00000000000E+00  0.17851041898E+04  0.17851041898E+04  0.25500000920E-02 0.  1.
       -2   -1    0    0    0  501  0.00000000000E+00  0.00000000000E+00 -0.10237609163E+04  0.10237609163E+04  0.25500000920E-02 0. -1.
    10030    2    1    2    0    0  0.00000000000E+00  0.00000000000E+00  0.76134327347E+03  0.28088651062E+04  0.27037158883E+04 0.  0.
        1    1    3    3  502    0 -0.63483143995E+03  0.11830762000E+04  0.21693624736E+03  0.13600520533E+04  0.50400001928E-02 0. -1.
       -1    1    3    3    0  502  0.63483143995E+03 -0.11830762000E+04  0.54440702611E+03  0.14488130529E+04  0.50400001928E-02 0.  1.
</event>
<event>
 5   0  0.7436613E-07  0.2678301E+04  0.7818609E-02  0.8342080E-01
        1   -1    0    0  501    0  0.00000000000E+00  0.00000000000E+00  0.11176766626E+04  0.11176766626E+04  0.50400001928E-02 0. -1.
       -1   -1    0    0    0  501  0.00000000000E+00  0.00000000000E+00 -0.16045109096E+04  0.16045109097E+04  0.50400001928E-02 0.  1.
    10030    2    1    2    0    0  0.00000000000E+00  0.00000000000E+00 -0.48683424702E+03  0.27221875723E+04  0.26783012517E+04 0.  0.
        2    1    3    3  502    0 -0.22734422362E+03 -0.27553899078E+03  0.10683576251E+04  0.11264968471E+04  0.25500000920E-02 0. -1.
       -2    1    3    3    0  502  0.22734422362E+03  0.27553899078E+03 -0.15551918721E+04  0.15956907252E+04  0.25500000920E-02 0.  1.
</event>
<event>
 5   0  0.1991277E-06  0.2700626E+04  0.7818609E-02  0.8334802E-01
        2   -1    0    0  501    0  0.00000000000E+00  0.00000000000E+00  0.25380615593E+04  0.25380615593E+04  0.25500000920E-02 0. -1.
       -2   -1    0    0    0  501  0.00000000000E+00  0.00000000000E+00 -0.71840074426E+03  0.71840074426E+03  0.25500000920E-02 0.  1.
    10030    2    1    2    0    0  0.00000000000E+00  0.00000000000E+00  0.18196608151E+04  0.32564623036E+04  0.27006260853E+04 0.  0.
        5    1    3    3  502    0  0.54702925838E+03 -0.26419628293E+03  0.23639696396E+04  0.24407816847E+04  0.46999998093E+01 0. -1.
       -5    1    3    3    0  502 -0.54702925838E+03  0.26419628293E+03 -0.54430882458E+03  0.81568061884E+03  0.46999998093E+01 0.  1.
</event>
<event>
 5   0  0.7806808E-07  0.2705712E+04  0.7818609E-02  0.8333154E-01
        1   -1    0    0  501    0  0.00000000000E+00  0.00000000000E+00  0.13555103007E+04  0.13555103007E+04  0.50400001928E-02 0.  1.
       -1   -1    0    0    0  501  0.00000000000E+00  0.00000000000E+00 -0.13502067395E+04  0.13502067395E+04  0.50400001928E-02 0. -1.
    10030    2    1    2    0    0  0.00000000000E+00  0.00000000000E+00  0.53035612358E+01  0.27057170402E+04  0.27057118424E+04 0.  0.
        5    1    3    3  502    0 -0.15889729789E+03  0.60637988282E+03 -0.11962050340E+04  0.13505086031E+04  0.46999998093E+01 0. -1.
       -5    1    3    3    0  502  0.15889729789E+03 -0.60637988282E+03  0.12015085953E+04  0.13552084371E+04  0.46999998093E+01 0.  1.
</event>
<event>
 5   0  0.7566905E-07  0.2703741E+04  0.7818609E-02  0.8333792E-01
       -1   -1    0    0    0  501  0.00000000000E+00  0.00000000000E+00  0.22110346723E+04  0.22110346723E+04  0.50400001928E-02 0. -1.
        1   -1    0    0  501    0  0.00000000000E+00  0.00000000000E+00 -0.82656046111E+03  0.82656046112E+03  0.50400001928E-02 0.  1.
    10030    2    1    2    0    0  0.00000000000E+00  0.00000000000E+00  0.13844742112E+04  0.30375951334E+04  0.27037409922E+04 0.  0.
        1    1    3    3  502    0  0.23874908922E+03  0.13272167578E+04  0.79910577897E+03  0.15675061390E+04  0.50400001928E-02 0. -1.
       -1    1    3    3    0  502 -0.23874908922E+03 -0.13272167578E+04  0.58536843219E+03  0.14700889944E+04  0.50400001928E-02 0.  1.
</event>
<event>
 5   0  0.7335091E-07  0.2701060E+04  0.7818609E-02  0.8334661E-01
        1   -1    0    0  501    0  0.00000000000E+00  0.00000000000E+00  0.15319921681E+04  0.15319921681E+04  0.50400001928E-02 0.  1.
       -1   -1    0    0    0  501  0.00000000000E+00  0.00000000000E+00 -0.11905615599E+04  0.11905615599E+04  0.50400001928E-02 0. -1.
    10030    2    1    2    0    0  0.00000000000E+00  0.00000000000E+00  0.34143060824E+03  0.27225537281E+04  0.27010597813E+04 0.  0.
        3    1    3    3  502    0  0.78211872206E+03  0.10403146896E+04  0.53409293218E+03  0.14068474044E+04  0.10100000352E+00 0. -1.
       -3    1    3    3    0  502 -0.78211872206E+03 -0.10403146896E+04 -0.19266232394E+03  0.13157063237E+04  0.10100000352E+00 0.  1.
</event>
<event>
 5   0  0.7335091E-07  0.2697335E+04  0.7818609E-02  0.8335870E-01
       -1   -1    0    0    0  501  0.00000000000E+00  0.00000000000E+00  0.15630091134E+04  0.15630091134E+04  0.50400001928E-02 0. -1.
        1   -1    0    0  501    0  0.00000000000E+00  0.00000000000E+00 -0.11637194020E+04  0.11637194020E+04  0.50400001928E-02 0.  1.
    10030    2    1    2    0    0  0.00000000000E+00  0.00000000000E+00  0.39928971143E+03  0.27267285154E+04  0.26973350039E+04 0.  0.
        3    1    3    3  502    0  0.38410456391E+02 -0.10039193529E+04 -0.70992371626E+03  0.12301711765E+04  0.10100000352E+00 0.  1.
       -3    1    3    3    0  502 -0.38410456391E+02  0.10039193529E+04  0.11092134277E+04  0.14965573389E+04  0.10100000352E+00 0. -1.
</event>
<event>
 5   0  0.2030645E-06  0.2701270E+04  0.7818609E-02  0.8334593E-01
       -2   -1    0    0    0  501  0.00000000000E+00  0.00000000000E+00  0.84287586171E+03  0.84287586171E+03  0.25500000920E-02 0.  1.
        2   -1    0    0  501    0  0.00000000000E+00  0.00000000000E+00 -0.21642740613E+04  0.21642740613E+04  0.25500000920E-02 0. -1.
    10030    2    1    2    0    0  0.00000000000E+00  0.00000000000E+00 -0.13213981996E+04  0.30071499230E+04  0.27012696011E+04 0.  0.
        1    1    3    3  502    0 -0.98287935142E+03 -0.34978995815E+03  0.29422719805E+03  0.10839623971E+04  0.50400001928E-02 0.  1.
       -1    1    3    3    0  502  0.98287935142E+03  0.34978995815E+03 -0.16156253977E+04  0.19231875259E+04  0.50400001928E-02 0. -1.
</event>
<event>
 5   0  0.7768032E-07  0.2700758E+04  0.7818609E-02  0.8334759E-01
       -1   -1    0    0    0  501  0.00000000000E+00  0.00000000000E+00  0.17247633946E+04  0.17247633946E+04  0.50400001928E-02 0.  1.
        1   -1    0    0  501    0  0.00000000000E+00  0.00000000000E+00 -0.10572604219E+04  0.10572604219E+04  0.50400001928E-02 0. -1.
    10030    2    1    2    0    0  0.00000000000E+00  0.00000000000E+00  0.66750297276E+03  0.27820238165E+04  0.27007584670E+04 0.  0.
        4    1    3    3  502    0  0.12622296533E+04 -0.46575768234E+03  0.21465000358E+03  0.13624353758E+04  0.12699999809E+01 0. -1.
       -4    1    3    3    0  502 -0.12622296533E+04  0.46575768234E+03  0.45285296917E+03  0.14195884407E+04  0.12699999809E+01 0.  1.
</event>
<event>
 5   0  0.7566905E-07  0.2696898E+04  0.7818609E-02  0.8336012E-01
       -1   -1    0    0    0  501  0.00000000000E+00  0.00000000000E+00  0.15338148210E+04  0.15338148210E+04  0.50400001928E-02 0. -1.
        1   -1    0    0  501    0  0.00000000000E+00  0.00000000000E+00 -0.11854847318E+04  0.11854847318E+04  0.50400001928E-02 0.  1.
    10030    2    1    2    0    0  0.00000000000E+00  0.00000000000E+00  0.34833008914E+03  0.27192995528E+04  0.26968975151E+04 0.  0.
        1    1    3    3  502    0  0.21600150838E+03  0.10264805856E+04 -0.68021937570E+03  0.12502069602E+04  0.50400001928E-02 0.  1.
       -1    1    3    3    0  502 -0.21600150838E+03 -0.10264805856E+04  0.10285494648E+04  0.14690925927E+04  0.50400001928E-02 0. -1.
</event>
<event>
 5   0  0.1932012E-06  0.2706131E+04  0.7818609E-02  0.8333019E-01
        2   -1    0    0  501    0  0.00000000000E+00  0.00000000000E+00  0.21454293440E+04  0.21454293440E+04  0.25500000920E-02 0.  1.
       -2   -1    0    0    0  501  0.00000000000E+00  0.00000000000E+00 -0.85334237538E+03  0.85334237538E+03  0.25500000920E-02 0. -1.
    10030    2    1    2    0    0  0.00000000000E+00  0.00000000000E+00  0.12920869686E+04  0.29987717194E+04  0.27061306492E+04 0.  0.
        2    1    3    3  502    0 -0.32119538295E+03  0.13080799507E+04  0.50350143206E+03  0.14379684710E+04  0.25500000920E-02 0. -1.
       -2    1    3    3    0  502  0.32119538295E+03 -0.13080799507E+04  0.78858553654E+03  0.15608032483E+04  0.25500000920E-02 0.  1.
</event>
<event>
 5   0  0.7335091E-07  0.2705855E+04  0.7818609E-02  0.8333108E-01
       -1   -1    0    0    0  501  0.00000000000E+00  0.00000000000E+00  0.13471145476E+04  0.13471145476E+04  0.50400001928E-02 0.  1.
        1   -1    0    0  501    0  0.00000000000E+00  0.00000000000E+00 -0.13587654510E+04  0.13587654510E+04  0.50400001928E-02 0. -1.
    10030    2    1    2    0    0  0.00000000000E+00  0.00000000000E+00 -0.11650903392E+02  0.27058799986E+04  0.27058549154E+04 0.  0.
        3    1    3    3  502    0  0.38220244163E+03 -0.12249828695E+04 -0.43449124849E+03  0.13547857367E+04  0.10100000352E+00 0. -1.
       -3    1    3    3    0  502 -0.38220244163E+03  0.12249828695E+04  0.42284034510E+03  0.13510942620E+04  0.10100000352E+00 0.  1.
</event>
<event>
 5   0  0.2063087E-06  0.2698431E+04  0.7818609E-02  0.8335514E-01
        2   -1    0    0  501    0  0.00000000000E+00  0.00000000000E+00  0.10355030233E+04  0.10355030233E+04  0.25500000920E-02 0. -1.
       -2   -1    0    0    0  501  0.00000000000E+00  0.00000000000E+00 -0.17579690173E+04  0.17579690173E+04  0.25500000920E-02 0.  1.
    10030    2    1    2    0    0  0.00000000000E+00  0.00000000000E+00 -0.72246599405E+03  0.27934720406E+04  0.26984308272E+04 0.  0.
        3    1    3    3  502    0  0.10254312672E+04  0.36622951816E+03  0.46353919590E+03  0.11834280460E+04  0.10100000352E+00 0. -1.
       -3    1    3    3    0  502 -0.10254312672E+04 -0.36622951816E+03 -0.11860051900E+04  0.16100439946E+04  0.10100000352E+00 0.  1.
</event>
<event>
 5   0  0.7566905E-07  0.2698643E+04  0.7818609E-02  0.8335445E-01
       -1   -1    0    0    0  501  0.00000000000E+00  0.00000000000E+00  0.90952064858E+03  0.90952064859E+03  0.50400001928E-02 0. -1.
        1   -1    0    0  501    0  0.00000000000E+00  0.00000000000E+00 -0.20017895942E+04  0.20017895942E+04  0.50400001928E-02 0.  1.
    10030    2    1    2    0    0  0.00000000000E+00  0.00000000000E+00 -0.10922689456E+04  0.29113102428E+04  0.26986433407E+04 0.  0.
        1    1    3    3  502    0 -0.77135444481E+03 -0.53494310648E+03 -0.15918061779E+04  0.18479715135E+04  0.50400001928E-02 0. -1.
       -1    1    3    3    0  502  0.77135444481E+03  0.53494310648E+03  0.49953723229E+03  0.10633387293E+04  0.50400001928E-02 0.  1.
</event>
<event>
 5   0  0.1932012E-06  0.2711500E+04  0.7818609E-02  0.8331283E-01
       -2   -1    0    0    0  501  0.00000000000E+00  0.00000000000E+00  0.91952298659E+03  0.91952298659E+03  0.25500000920E-02 0.  1.
        2   -1    0    0  501    0  0.00000000000E+00  0.00000000000E+00 -0.19989251851E+04  0.19989251851E+04  0.25500000920E-02 0. -1.
    10030    2    1    2    0    0  0.00000000000E+00  0.00000000000E+00 -0.10794021985E+04  0.29184481717E+04  0.27114997003E+04 0.  0.
        2    1    3    3  502    0 -0.37417391433E+02 -0.96359012726E+03  0.48600187611E+03  0.10798628701E+04  0.25500000920E-02 0.  1.
       -2    1    3    3    0  502  0.37417391433E+02  0.96359012726E+03 -0.15654040746E+04  0.18385853017E+04  0.25500000920E-02 0. -1.
</event>
<event>
 5   0  0.7436613E-07  0.2707410E+04  0.7818609E-02  0.8332605E-01
       -1   -1    0    0    0  501  0.00000000000E+00  0.00000000000E+00  0.10289123855E+04  0.10289123855E+04  0.50400001928E-02 0.  1.
        1   -1    0    0  501    0  0.00000000000E+00  0.00000000000E+00 -0.17810229577E+04  0.17810229577E+04  0.50400001928E-02 0. -1.
    10030    2    1    2    0    0  0.00000000000E+00  0.00000000000E+00 -0.75211057218E+03  0.28099353433E+04  0.27074095221E+04 0.  0.
        2    1    3    3  502    0 -0.89039293834E+01  0.25295794415E+02  0.10286366741E+04  0.10289861828E+04  0.25500000920E-02 0.  1.
       -2    1    3    3    0  502  0.89039293834E+01 -0.25295794415E+02 -0.17807472462E+04  0.17809491605E+04  0.25500000920E-02 0. -1.
</event>
<event>
 5   0  0.2063087E-06  0.2699491E+04  0.7818609E-02  0.8335170E-01
        2   -1    0    0  501    0  0.00000000000E+00  0.00000000000E+00  0.13078932013E+04  0.13078932013E+04  0.25500000920E-02 0. -1.
       -2   -1    0    0    0  501  0.00000000000E+00  0.00000000000E+00 -0.13929372570E+04  0.13929372570E+04  0.25500000920E-02 0.  1.
    10030    2    1    2    0    0  0.00000000000E+00  0.00000000000E+00 -0.85044055709E+02  0.27008304584E+04  0.26994911879E+04 0.  0.
        3    1    3    3  502    0 -0.80613221084E+03  0.28314869829E+03  0.10028843132E+04  0.13174973558E+04  0.10100000352E+00 0. -1.
       -3    1    3    3    0  502  0.80613221084E+03 -0.28314869829E+03 -0.10879283689E+04  0.13833331026E+04  0.10100000352E+00 0.  1.
</event>
<event>
 5   0  0.1991277E-06  0.2699821E+04  0.7818609E-02  0.8335063E-01
        2   -1    0    0  501    0  0.00000000000E+00  0.00000000000E+00  0.20466378153E+04  0.20466378153E+04  0.25500000920E-02 0.  1.
       -2   -1    0    0    0  501  0.00000000000E+00  0.00000000000E+00 -0.89036710609E+03  0.89036710609E+03  0.25500000920E-02 0. -1.
    10030    2    1    2    0    0  0.00000000000E+00  0.00000000000E+00  0.11562707092E+04  0.29370049214E+04  0.26998214673E+04 0.  0.
        5    1    3    3  502    0 -0.81578916948E+03 -0.37202168573E+03 -0.51963825773E+03  0.10363195031E+04  0.46999998093E+01 0. -1.
       -5    1    3    3    0  502  0.81578916948E+03  0.37202168573E+03  0.16759089669E+04  0.19006854183E+04  0.46999998093E+01 0.  1.
</event>
<event>
 5   0  0.7436613E-07  0.2689201E+04  0.7818609E-02  0.8338517E-01
        1   -1    0    0  501    0  0.00000000000E+00  0.00000000000E+00  0.78974924471E+03  0.78974924472E+03  0.50400001928E-02 0. -1.
       -1   -1    0    0    0  501  0.00000000000E+00  0.00000000000E+00 -0.22892718653E+04  0.22892718653E+04  0.50400001928E-02 0.  1.
    10030    2    1    2    0    0  0.00000000000E+00  0.00000000000E+00 -0.14995226206E+04  0.30790211100E+04  0.26892011651E+04 0.  0.
        2    1    3    3  502    0  0.13387115020E+04 -0.10566538066E+03 -0.67179425692E+03  0.15015396039E+04  0.25500000920E-02 0.  1.
       -2    1    3    3    0  502 -0.13387115020E+04  0.10566538066E+03 -0.82772836367E+03  0.15774815062E+04  0.25500000920E-02 0. -1.
</event>
<event>
 5   0  0.2063087E-06  0.2693652E+04  0.7818609E-02  0.8337068E-01
       -2   -1    0    0    0  501  0.00000000000E+00  0.00000000000E+00  0.98372203553E+03  0.98372203553E+03  0.25500000920E-02 0. -1.
        2   -1    0    0  501    0  0.00000000000E+00  0.00000000000E+00 -0.18439564119E+04  0.18439564119E+04  0.25500000920E-02 0.  1.
    10030    2    1    2    0    0  0.00000000000E+00  0.00000000000E+00 -0.86023437635E+03  0.28276784474E+04  0.26936522084E+04 0.  0.
        3    1    3    3  502    0  0.72107323137E+03 -0.88105665382E+03  0.32522105123E+03  0.11840507483E+04  0.10100000352E+00 0. -1.
       -3    1    3    3    0  502 -0.72107323137E+03  0.88105665382E+03 -0.11854554276E+04  0.16436276991E+04  0.10100000352E+00 0.  1.
</event>
<event>
 5   0  0.2030645E-06  0.2700088E+04  0.7818609E-02  0.8334977E-01
       -2   -1    0    0    0  501  0.00000000000E+00  0.00000000000E+00  0.12029988969E+04  0.12029988969E+04  0.25500000920E-02 0.  1.
        2   -1    0    0  501    0  0.00000000000E+00  0.00000000000E+00 -0.15150623006E+04  0.15150623006E+04  0.25500000920E-02 0. -1.
    10030    2    1    2    0    0  0.00000000000E+00  0.00000000000E+00 -0.31206340372E+03  0.27180611976E+04  0.27000876108E+04 0.  0.
        1    1    3    3  502    0  0.41948256236E+03  0.12527824284E+04 -0.43570991814E+03  0.13911407427E+04  0.50400001928E-02 0. -1.
       -1    1    3    3    0  502 -0.41948256236E+03 -0.12527824284E+04  0.12364651442E+03  0.13269204549E+04  0.50400001928E-02 0.  1.
</event>
<event>
 5   0  0.7806808E-07  0.2705100E+04  0.7818609E-02  0.8333352E-01
       -1   -1    0    0    0  501  0.00000000000E+00  0.00000000000E+00  0.19150127768E+04  0.19150127769E+04  0.50400001928E-02 0.  1.
        1   -1    0    0  501    0  0.00000000000E+00  0.00000000000E+00 -0.95528952990E+03  0.95528952991E+03  0.50400001928E-02 0. -1.
    10030    2    1    2    0    0  0.00000000000E+00  0.00000000000E+00  0.95972324695E+03  0.28703023068E+04  0.27051001130E+04 0.  0.
        5    1    3    3  502    0 -0.86519842354E+03  0.38262992659E+03  0.15055364299E+04  0.17780989862E+04  0.46999998093E+01 0.  1.
       -5    1    3    3    0  502  0.86519842354E+03 -0.38262992659E+03 -0.54581318297E+03  0.10922033206E+04  0.46999998093E+01 0. -1.
</event>
<event>
 5   0  0.2063087E-06  0.2698984E+04  0.7818609E-02  0.8335335E-01
       -2   -1    0    0    0  501  0.00000000000E+00  0.00000000000E+00  0.10974590377E+04  0.10974590377E+04  0.25500000920E-02 0. -1.
        2   -1    0    0  501    0  0.00000000000E+00  0.00000000000E+00 -0.16594045412E+04  0.16594045412E+04  0.25500000920E-02 0.  1.
    10030    2    1    2    0    0  0.00000000000E+00  0.00000000000E+00 -0.56194550350E+03  0.27568635789E+04  0.26989838910E+04 0.  0.
        3    1    3    3  502    0 -0.77870522708E+03  0.59471328457E+03 -0.12288069884E+04  0.15716336553E+04  0.10100000352E+00 0.  1.
       -3    1    3    3    0  502  0.77870522708E+03 -0.59471328457E+03  0.66686148490E+03  0.11852299236E+04  0.10100000352E+00 0. -1.
</event>
<event>
 5   0  0.7768032E-07  0.2699899E+04  0.7818609E-02  0.8335038E-01
        1   -1    0    0  501    0  0.00000000000E+00  0.00000000000E+00  0.82888897144E+03  0.82888897145E+03  0.50400001928E-02 0.  1.
       -1   -1    0    0    0  501  0.00000000000E+00  0.00000000000E+00 -0.21985611809E+04  0.21985611809E+04  0.50400001928E-02 0. -1.
    10030    2    1    2    0    0  0.00000000000E+00  0.00000000000E+00 -0.13696722094E+04  0.30274501523E+04  0.26998986024E+04 0.  0.
        4    1    3    3  502    0 -0.74424348549E+03 -0.11857678462E+03 -0.19407157864E+04  0.20819073457E+04  0.12699999809E+01 0. -1.
       -4    1    3    3    0  502  0.74424348549E+03  0.11857678462E+03  0.57104357695E+03  0.94554280665E+03  0.12699999809E+01 0.  1.
</event>
<event>
 5   0  0.7566905E-07  0.2698330E+04  0.7818609E-02  0.8335547E-01
       -1   -1    0    0    0  501  0.00000000000E+00  0.00000000000E+00  0.62050788117E+03  0.62050788119E+03  0.50400001928E-02 0.  1.
        1   -1    0    0  501    0  0.00000000000E+00  0.00000000000E+00 -0.29334790174E+04  0.29334790174E+04  0.50400001928E-02 0. -1.
    10030    2    1    2    0    0  0.00000000000E+00  0.00000000000E+00 -0.23129711363E+04  0.35539868986E+04  0.26983304835E+04 0.  0.
        1    1    3    3  502    0  0.79430737431E+03  0.37919395511E+03  0.19027342819E+03  0.90050887723E+03  0.50400001928E-02 0.  1.
       -1    1    3    3    0  502 -0.79430737431E+03 -0.37919395511E+03 -0.25032445644E+04  0.26534780214E+04  0.50400001928E-02 0. -1.
</event>
<event>
 5   0  0.7335091E-07  0.2704140E+04  0.7818609E-02  0.8333663E-01
        1   -1    0    0  501    0  0.00000000000E+00  0.00000000000E+00  0.19439871648E+04  0.19439871648E+04  0.50400001928E-02 0.  1.
       -1   -1    0    0    0  501  0.00000000000E+00  0.00000000000E+00 -0.94038330194E+03  0.94038330195E+03  0.50400001928E-02 0. -1.
    10030    2    1    2    0    0  0.00000000000E+00  0.00000000000E+00  0.10036038629E+04  0.28843704668E+04  0.27041398403E+04 0.  0.
        3    1    3    3  502    0  0.45830271291E+03  0.51041937579E+03 -0.74098194585E+03  0.10097641161E+04  0.10100000352E+00 0. -1.
       -3    1    3    3    0  502 -0.45830271291E+03 -0.51041937579E+03  0.17445858087E+04  0.18746063507E+04  0.10100000352E+00 0.  1.
</event>
<event>
 5   0  0.1999104E-06  0.2696181E+04  0.7818609E-02  0.8336245E-01
       -2   -1    0    0    0  501  0.00000000000E+00  0.00000000000E+00  0.13973212988E+04  0.13973212988E+04  0.25500000920E-02 0.  1.
        2   -1    0    0  501    0  0.00000000000E+00  0.00000000000E+00 -0.13005938558E+04  0.13005938558E+04  0.25500000920E-02 0. -1.
    10030    2    1    2    0    0  0.00000000000E+00  0.00000000000E+00  0.96727442987E+02  0.26979151547E+04  0.26961806289E+04 0.  0.
        4    1    3    3  502    0  0.73415377173E+03 -0.74426847843E+03 -0.80331752356E+03  0.13184225366E+04  0.12699999809E+01 0.  1.
       -4    1    3    3    0  502 -0.73415377173E+03  0.74426847843E+03  0.90004496655E+03  0.13794926180E+04  0.12699999809E+01 0. -1.
</event>
<event>
 5   0  0.1999104E-06  0.2699245E+04  0.7818609E-02  0.8335250E-01
        2   -1    0    0  501    0  0.00000000000E+00  0.00000000000E+00  0.18453581174E+04  0.18453581174E+04  0.25500000920E-02 0. -1.
       -2   -1    0    0    0  501  0.00000000000E+00  0.00000000000E+00 -0.98706081852E+03  0.98706081853E+03  0.25500000920E-02 0.  1.
    10030    2    1    2    0    0  0.00000000000E+00  0.00000000000E+00  0.85829729886E+03  0.28324189359E+04  0.26992448528E+04 0.  0.
        4    1    3    3  502    0 -0.13455429165E+04  0.67934466789E+02  0.34534441894E+03  0.13908145860E+04  0.12699999809E+01 0.  1.
       -4    1    3    3    0  502  0.13455429165E+04 -0.67934466789E+02  0.51295287992E+03  0.14416043500E+04  0.12699999809E+01 0. -1.
</event>
<event>
 5   0  0.7436613E-07  0.2699713E+04  0.7818609E-02  0.8335098E-01
       -1   -1    0    0    0  501  0.00000000000E+00  0.00000000000E+00  0.79769296750E+03  0.79769296751E+03  0.50400001928E-02 0. -1.
        1   -1    0    0  501    0  0.00000000000E+00  0.00000000000E+00 -0.22842272423E+04  0.22842272423E+04  0.50400001928E-02 0.  1.
    10030    2    1    2    0    0  0.00000000000E+00  0.00000000000E+00 -0.14865342748E+04  0.30819202098E+04  0.26997125827E+04 0.  0.
        2    1    3    3  502    0 -0.87705885841E+03  0.68234007521E+03  0.13157727868E+03  0.11189873992E+04  0.25500000920E-02 0. -1.
       -2    1    3    3    0  502  0.87705885841E+03 -0.68234007521E+03 -0.16181115534E+04  0.19629328106E+04  0.25500000920E-02 0.  1.
</event>
<event>
 5   0  0.7806808E-07  0.2702015E+04  0.7818609E-02  0.8334352E-01
       -1   -1    0    0    0  501  0.00000000000E+00  0.00000000000E+00  0.16417441640E+04  0.16417441640E+04  0.50400001928E-02 0. -1.
        1   -1    0    0  501    0  0.00000000000E+00  0.00000000000E+00 -0.11117571852E+04  0.11117571852E+04  0.50400001928E-02 0.  1.
    10030    2    1    2    0    0  0.00000000000E+00  0.00000000000E+00  0.52998697880E+03  0.27535013492E+04  0.27020147080E+04 0.  0.
        5    1    3    3  502    0  0.39454466866E+03  0.64765954995E+03 -0.87437661377E+03  0.11574475975E+04  0.46999998093E+01 0.  1.
       -5    1    3    3    0  502 -0.39454466866E+03 -0.64765954995E+03  0.14043635926E+04  0.15960537517E+04  0.46999998093E+01 0. -1.
</event>
<event>
 5   0  0.7806808E-07  0.2691028E+04  0.7818609E-02  0.8337922E-01
        1   -1    0    0  501    0  0.00000000000E+00  0.00000000000E+00  0.15575720120E+04  0.15575720120E+04  0.50400001928E-02 0.  1.
       -1   -1    0    0    0  501  0.00000000000E+00  0.00000000000E+00 -0.11623270582E+04  0.11623270582E+04  0.50400001928E-02 0. -1.
    10030    2    1    2    0    0  0.00000000000E+00  0.00000000000E+00  0.39524495378E+03  0.27198990702E+04  0.26910281267E+04 0.  0.
        5    1    3    3  502    0  0.10792449316E+04  0.77727738747E+03  0.40341497272E+03  0.13898544850E+04  0.46999998093E+01 0.  1.
       -5    1    3    3    0  502 -0.10792449316E+04 -0.77727738747E+03 -0.81700189383E+01  0.13300445852E+04  0.46999998093E+01 0. -1.
</event>
<event>
 5   0  0.1932012E-06  0.2701086E+04  0.7818609E-02  0.8334653E-01
       -2   -1    0    0    0  501  0.00000000000E+00  0.00000000000E+00  0.11359354216E+04  0.11359354216E+04  0.25500000920E-02 0.  1.
        2   -1    0    0  501    0  0.00000000000E+00  0.00000000000E+00 -0.16056954661E+04  0.16056954661E+04  0.25500000920E-02 0. -1.
    10030    2    1    2    0    0  0.00000000000E+00  0.00000000000E+00 -0.46976004446E+03  0.27416308877E+04  0.27010859714E+04 0.  0.
        2    1    3    3  502    0 -0.95696203956E+03  0.95060885835E+03 -0.30321677043E+03  0.13825244868E+04  0.25500000920E-02 0. -1.
       -2    1    3    3    0  502  0.95696203956E+03 -0.95060885835E+03 -0.16654327404E+03  0.13591064009E+04  0.25500000920E-02 0.  1.
</event>
<event>
 5   0  0.2063087E-06  0.2694970E+04  0.7818609E-02  0.8336639E-01
        2   -1    0    0  501    0  0.00000000000E+00  0.00000000000E+00  0.20337560353E+04  0.20337560353E+04  0.25500000920E-02 0. -1.
       -2   -1    0    0    0  501  0.00000000000E+00  0.00000000000E+00 -0.89278967038E+03  0.89278967038E+03  0.25500000920E-02 0.  1.
    10030    2    1    2    0    0  0.00000000000E+00  0.00000000000E+00  0.11409663649E+04  0.29265457056E+04  0.26949704120E+04 0.  0.
        3    1    3    3  502    0 -0.53298666936E+03 -0.10560628823E+04  0.12711998841E+04  0.17364598344E+04  0.10100000352E+00 0. -1.
       -3    1    3    3    0  502  0.53298666936E+03  0.10560628823E+04 -0.13023351920E+03  0.11900858712E+04  0.10100000352E+00 0.  1.
</event>
<event>
 5   0  0.2030645E-06  0.2701758E+04  0.7818609E-02  0.8334435E-01
       -2   -1    0    0    0  501  0.00000000000E+00  0.00000000000E+00  0.87573521474E+03  0.87573521475E+03  0.25500000920E-02 0. -1.
        2   -1    0    0  501    0  0.00000000000E+00  0.00000000000E+00 -0.20838198393E+04  0.20838198393E+04  0.25500000920E-02 0.  1.
    10030    2    1    2    0    0  0.00000000000E+00  0.00000000000E+00 -0.12080846245E+04  0.29595550540E+04  0.27017582530E+04 0.  0.
        1    1    3    3  502    0 -0.11868559831E+04 -0.22014105045E+03  0.60277286847E+02  0.12086035570E+04  0.50400001928E-02 0. -1.
       -1    1    3    3    0  502  0.11868559831E+04  0.22014105045E+03 -0.12683619114E+04  0.17509514970E+04  0.50400001928E-02 0.  1.
</event>
<event>
 5   0  0.1932012E-06  0.2708475E+04  0.7818609E-02  0.8332260E-01
       -2   -1    0    0    0  501  0.00000000000E+00  0.00000000000E+00  0.90756182975E+03  0.90756182976E+03  0.25500000920E-02 0. -1.
        2   -1    0    0  501    0  0.00000000000E+00  0.00000000000E+00 -0.20207538888E+04  0.20207538888E+04  0.25500000920E-02 0.  1.
    10030    2    1    2    0    0  0.00000000000E+00  0.00000000000E+00 -0.11131920591E+04  0.29283157186E+04  0.27084749191E+04 0.  0.
        2    1    3    3  502    0  0.61614973888E+03 -0.91242740302E+03 -0.14091396989E+04  0.17882502503E+04  0.25500000920E-02 0.  1.
       -2    1    3    3    0  502 -0.61614973888E+03  0.91242740302E+03  0.29594763985E+03  0.11400654683E+04  0.25500000920E-02 0. -1.
</event>
<event>
 5   0  0.2063087E-06  0.2697005E+04  0.7818609E-02  0.8335977E-01
       -2   -1    0    0    0  501  0.00000000000E+00  0.00000000000E+00  0.10333435895E+04  0.10333435895E+04  0.25500000920E-02 0. -1.
        2   -1    0    0  501    0  0.00000000000E+00  0.00000000000E+00 -0.17597815870E+04  0.17597815870E+04  0.25500000920E-02 0.  1.
    10030    2    1    2    0    0  0.00000000000E+00  0.00000000000E+00 -0.72643799749E+03  0.27931251764E+04  0.26970050217E+04 0.  0.
        3    1    3    3  502    0 -0.58381634956E+03 -0.41256300229E+03  0.82095200120E+03  0.10885825460E+04  0.10100000352E+00 0. -1.
       -3    1    3    3    0  502  0.58381634956E+03  0.41256300229E+03 -0.15473899987E+04  0.17045426305E+04  0.10100000352E+00 0.  1.
</event>
<event>
 5   0  0.7806808E-07  0.2701176E+04  0.7818609E-02  0.8334624E-01
       -1   -1    0    0    0  501  0.00000000000E+00  0.00000000000E+00  0.78762180085E+03  0.78762180087E+03  0.50400001928E-02 0.  1.
        1   -1    0    0  501    0  0.00000000000E+00  0.00000000000E+00 -0.23159431215E+04  0.23159431215E+04  0.50400001928E-02 0. -1.
    10030    2    1    2    0    0  0.00000000000E+00  0.00000000000E+00 -0.15283213207E+04  0.31035649224E+04  0.27011755160E+04 0.  0.
        5    1    3    3  502    0  0.28311421385E+03 -0.13153519289E+04 -0.62937905740E+03  0.14854105300E+04  0.46999998093E+01 0. -1.
       -5    1    3    3    0  502 -0.28311421385E+03  0.13153519289E+04 -0.89894226326E+03  0.16181543924E+04  0.46999998093E+01 0.  1.
</event>
<event>
 5   0  0.1991277E-06  0.2702154E+04  0.7818609E-02  0.8334306E-01
        2   -1    0    0  501    0  0.00000000000E+00  0.00000000000E+00  0.14856804352E+04  0.14856804352E+04  0.25500000920E-02 0. -1.
       -2   -1    0    0    0  501  0.00000000000E+00  0.00000000000E+00 -0.12286685978E+04  0.12286685978E+04  0.25500000920E-02 0.  1.
    10030    2    1    2    0    0  0.00000000000E+00  0.00000000000E+00  0.25701183746E+03  0.27143490330E+04  0.27021538795E+04 0.  0.
        5    1    3    3  502    0 -0.12985120637E+04 -0.27108263492E+03 -0.12910309752E+03  0.13327824557E+04  0.46999998093E+01 0.  1.
       -5    1    3    3    0  502  0.12985120637E+04  0.27108263492E+03  0.38611493498E+03  0.13815665773E+04  0.46999998093E+01 0. -1.
</event>
<event>
 5   0  0.7806808E-07  0.2696538E+04  0.7818609E-02  0.8336129E-01
        1   -1    0    0  501    0  0.00000000000E+00  0.00000000000E+00  0.15488994053E+04  0.15488994053E+04  0.50400001928E-02 0. -1.
       -1   -1    0    0    0  501  0.00000000000E+00  0.00000000000E+00 -0.11736264760E+04  0.11736264760E+04  0.50400001928E-02 0.  1.
    10030    2    1    2    0    0  0.00000000000E+00  0.00000000000E+00  0.37527292936E+03  0.27225258813E+04  0.26965380403E+04 0.  0.
        5    1    3    3  502    0 -0.35998927173E+03 -0.24329118254E+02  0.14992418575E+04  0.15420546096E+04  0.46999998093E+01 0. -1.
       -5    1    3    3    0  502  0.35998927173E+03  0.24329118254E+02 -0.11239689282E+04  0.11804712717E+04  0.46999998093E+01 0.  1.
</event>
<event>
 5   0  0.7335091E-07  0.2700683E+04  0.7818609E-02  0.8334783E-01
        1   -1    0    0  501    0  0.00000000000E+00  0.00000000000E+00  0.14357447861E+04  0.14357447861E+04  0.50400001928E-02 0.  1.
       -1   -1    0    0    0  501  0.00000000000E+00  0.00000000000E+00 -0.12700187200E+04  0.12700187200E+04  0.50400001928E-02 0. -1.
    10030    2    1    2    0    0  0.00000000000E+00  0.00000000000E+00  0.16572606604E+03  0.27057635061E+04  0.27006834361E+04 0.  0.
        3    1    3    3  502    0 -0.51113542031E+03 -0.10833542101E+04 -0.54161270314E+03  0.13146330640E+04  0.10100000352E+00 0. -1.
       -3    1    3    3    0  502  0.51113542031E+03  0.10833542101E+04  0.70733876917E+03  0.13911304421E+04  0.10100000352E+00 0.  1.
</event>
<event>
 5   0  0.2063087E-06  0.2698987E+04  0.7818609E-02  0.8335334E-01
        2   -1    0    0  501    0  0.00000000000E+00  0.00000000000E+00  0.13823823606E+04  0.13823823606E+04  0.25500000920E-02 0.  1.
       -2   -1    0    0    0  501  0.00000000000E+00  0.00000000000E+00 -0.13173870141E+04  0.13173870141E+04  0.25500000920E-02 0. -1.
    10030    2    1    2    0    0  0.00000000000E+00  0.00000000000E+00  0.64995346548E+02  0.26997693747E+04  0.26989868991E+04 0.  0.
        3    1    3    3  502    0 -0.16287710605E+03 -0.61832174388E+03 -0.11562415035E+04  0.13212664967E+04  0.10100000352E+00 0. -1.
       -3    1    3    3    0  502  0.16287710605E+03  0.61832174388E+03  0.12212368500E+04  0.13785028780E+04  0.10100000352E+00 0.  1.
</event>
<event>
 5   0  0.7566905E-07  0.2693694E+04  0.7818609E-02  0.8337054E-01
       -1   -1    0    0    0  501  0.00000000000E+00  0.00000000000E+00  0.10871296017E+04  0.10871296017E+04  0.50400001928E-02 0. -1.
        1   -1    0    0  501    0  0.00000000000E+00  0.00000000000E+00 -0.16686111349E+04  0.16686111349E+04  0.50400001928E-02 0.  1.
    10030    2    1    2    0    0  0.00000000000E+00  0.00000000000E+00 -0.58148153319E+03  0.27557407367E+04  0.26936937900E+04 0.  0.
        1    1    3    3  502    0 -0.26262543767E+02 -0.13332064089E+04 -0.48449033173E+03  0.14187529494E+04  0.50400001928E-02 0.  1.
       -1    1    3    3    0  502  0.26262543767E+02  0.13332064089E+04 -0.96991201463E+02  0.13369877872E+04  0.50400001928E-02 0. -1.
</event>
<event>
 5   0  0.7335091E-07  0.2703438E+04  0.7818609E-02  0.8333890E-01
       -1   -1    0    0    0  501  0.00000000000E+00  0.00000000000E+00  0.10544393824E+04  0.10544393824E+04  0.50400001928E-02 0.  1.
        1   -1    0    0  501    0  0.00000000000E+00  0.00000000000E+00 -0.17328115813E+04  0.17328115813E+04  0.50400001928E-02 0. -1.
    10030    2    1    2    0    0  0.00000000000E+00  0.00000000000E+00 -0.67837219888E+03  0.27872509636E+04  0.27034383836E+04 0.  0.
        3    1    3    3  502    0  0.68060285977E+03  0.11261873433E+04 -0.20363640514E+02  0.13160292067E+04  0.10100000352E+00 0.  1.
       -3    1    3    3    0  502 -0.68060285977E+03 -0.11261873433E+04 -0.65800855837E+03  0.14712217569E+04  0.10100000352E+00 0. -1.
</event>
<event>
 5   0  0.7768032E-07  0.2699941E+04  0.7818609E-02  0.8335024E-01
        1   -1    0    0  501    0  0.00000000000E+00  0.00000000000E+00  0.18505370815E+04  0.18505370815E+04  0.50400001928E-02 0.  1.
       -1   -1    0    0    0  501  0.00000000000E+00  0.00000000000E+00 -0.98480615390E+03  0.98480615392E+03  0.50400001928E-02 0. -1.
    10030    2    1    2    0    0  0.00000000000E+00  0.00000000000E+00  0.86573092756E+03  0.28353432354E+04  0.26999409667E+04 0.  0.
        4    1    3    3  502    0  0.16349015224E+03 -0.11871217871E+04 -0.21994581112E+03  0.12183451646E+04  0.12699999809E+01 0. -1.
       -4    1    3    3    0  502 -0.16349015224E+03  0.11871217871E+04  0.10856767387E+04  0.16169980708E+04  0.12699999809E+01 0.  1.
</event>
<event>
 5   0  0.7806808E-07  0.2701303E+04  0.7818609E-02  0.8334582E-01
       -1   -1    0    0    0  501  0.00000000000E+00  0.00000000000E+00  0.94086422342E+03  0.94086422344E+03  0.50400001928E-02 0. -1.
        1   -1    0    0  501    0  0.00000000000E+00  0.00000000000E+00 -0.19389183370E+04  0.19389183370E+04  0.50400001928E-02 0.  1.
    10030    2    1    2    0    0  0.00000000000E+00  0.00000000000E+00 -0.99805411361E+03  0.28797825605E+04  0.27013025713E+04 0.  0.
        5    1    3    3  502    0  0.47952414061E+03  0.12105935361E+04 -0.11649188272E+03  0.13073150193E+04  0.46999998093E+01 0. -1.
       -5    1    3    3    0  502 -0.47952414061E+03 -0.12105935361E+04 -0.88156223089E+03  0.15724675411E+04  0.46999998093E+01 0.  1.
</event>
<event>
 5   0  0.1999104E-06  0.2706313E+04  0.7818609E-02  0.8332959E-01
       -2   -1    0    0    0  501  0.00000000000E+00  0.00000000000E+00  0.79859297647E+03  0.79859297648E+03  0.25500000920E-02 0.  1.
        2   -1    0    0  501    0  0.00000000000E+00  0.00000000000E+00 -0.22928238171E+04  0.22928238171E+04  0.25500000920E-02 0. -1.
    10030    2    1    2    0    0  0.00000000000E+00  0.00000000000E+00 -0.14942308406E+04  0.30914167935E+04  0.27063133570E+04 0.  0.
        4    1    3    3  502    0 -0.10504111345E+04  0.85202820301E+03 -0.79443157776E+03  0.15685785778E+04  0.12699999809E+01 0.  1.
       -4    1    3    3    0  502  0.10504111345E+04 -0.85202820301E+03 -0.69979926284E+03  0.15228382157E+04  0.12699999809E+01 0. -1.
</event>
<event>
 5   0  0.2030645E-06  0.2698464E+04  0.7818609E-02  0.8335503E-01
        2   -1    0    0  501    0  0.00000000000E+00  0.00000000000E+00  0.11833517826E+04  0.11833517826E+04  0.25500000920E-02 0. -1.
       -2   -1    0    0    0  501  0.00000000000E+00  0.00000000000E+00 -0.15383653761E+04  0.15383653761E+04  0.25500000920E-02 0.  1.
    10030    2    1    2    0    0  0.00000000000E+00  0.00000000000E+00 -0.35501359346E+03  0.27217171587E+04  0.26984643114E+04 0.  0.
        1    1    3    3  502    0  0.12171235252E+04  0.45057971261E+03 -0.54948780259E+03  0.14093787987E+04  0.50400001928E-02 0. -1.
       -1    1    3    3    0  502 -0.12171235252E+04 -0.45057971261E+03  0.19447420912E+03  0.13123383600E+04  0.50400001928E-02 0.  1.
</event>
<event>
 5   0  0.7768032E-07  0.2708800E+04  0.7818609E-02  0.8332155E-01
        1   -1    0    0  501    0  0.00000000000E+00  0.00000000000E+00  0.19125963817E+04  0.19125963817E+04  0.50400001928E-02 0. -1.
       -1   -1    0    0    0  501  0.00000000000E+00  0.00000000000E+00 -0.95911498909E+03  0.95911498911E+03  0.50400001928E-02 0.  1.
    10030    2    1    2    0    0  0.00000000000E+00  0.00000000000E+00  0.95348139258E+03  0.28717113708E+04  0.27088003675E+04 0.  0.
        4    1    3    3  502    0  0.38529404311E+03  0.11606801168E+04  0.10937834295E+04  0.16407296050E+04  0.12699999809E+01 0. -1.
       -4    1    3    3    0  502 -0.38529404311E+03 -0.11606801168E+04 -0.14030203690E+03  0.12309817658E+04  0.12699999809E+01 0.  1.
</event>
<event>
 5   0  0.1932012E-06  0.2702161E+04  0.7818609E-02  0.8334304E-01
       -2   -1    0    0    0  501  0.00000000000E+00  0.00000000000E+00  0.99348655975E+03  0.99348655975E+03  0.25500000920E-02 0. -1.
        2   -1    0    0  501    0  0.00000000000E+00  0.00000000000E+00 -0.18373860017E+04  0.18373860017E+04  0.25500000920E-02 0.  1.
    10030    2    1    2    0    0  0.00000000000E+00  0.00000000000E+00 -0.84389944196E+03  0.28308725615E+04  0.27021608374E+04 0.  0.
        2    1    3    3  502    0 -0.48592340827E+03 -0.11881302397E+04 -0.86350339844E+03  0.15470659793E+04  0.25500000920E-02 0.  1.
       -2    1    3    3    0  502  0.48592340827E+03  0.11881302397E+04  0.19603956477E+02  0.12838065821E+04  0.25500000920E-02 0. -1.
</event>
<event>
 5   0  0.7806808E-07  0.2699592E+04  0.7818609E-02  0.8335137E-01
       -1   -1    0    0    0  501  0.00000000000E+00  0.00000000000E+00  0.16991445804E+04  0.16991445804E+04  0.50400001928E-02 0. -1.
        1   -1    0    0  501    0  0.00000000000E+00  0.00000000000E+00 -0.10722742120E+04  0.10722742121E+04  0.50400001928E-02 0.  1.
    10030    2    1    2    0    0  0.00000000000E+00  0.00000000000E+00  0.62687036838E+03  0.27714187925E+04  0.26995917589E+04 0.  0.
        5    1    3    3  502    0  0.53406694999E+03  0.56569347654E+03 -0.81894971840E+03  0.11295739674E+04  0.46999998093E+01 0.  1.
       -5    1    3    3    0  502 -0.53406694999E+03 -0.56569347654E+03  0.14458200868E+04  0.16418448251E+04  0.46999998093E+01 0. -1.
</event>
<event>
 5   0  0.1932012E-06  0.2696283E+04  0.7818609E-02  0.8336212E-01
        2   -1    0    0  501    0  0.00000000000E+00  0.00000000000E+00  0.18326401354E+04  0.18326401354E+04  0.25500000920E-02 0. -1.
       -2   -1    0    0    0  501  0.00000000000E+00  0.00000000000E+00 -0.99173050813E+03  0.99173050813E+03  0.25500000920E-02 0.  1.
    10030    2    1    2    0    0  0.00000000000E+00  0.00000000000E+00  0.84090962726E+03  0.28243706435E+04  0.26962827246E+04 0.  0.
        2    1    3    3  502    0  0.28627779092E+03 -0.11109857615E+04  0.11620714533E+04  0.16329894055E+04  0.25500000920E-02 0. -1.
       -2    1    3    3    0  502 -0.28627779092E+03  0.11109857615E+04 -0.32116182607E+03  0.11913812380E+04  0.25500000920E-02 0.  1.
</event>
<event>
 5   0  0.7768032E-07  0.2692369E+04  0.7818609E-02  0.8337485E-01
       -1   -1    0    0    0  501  0.00000000000E+00  0.00000000000E+00  0.11209921329E+04  0.11209921330E+04  0.50400001928E-02 0.  1.
        1   -1    0    0  501    0  0.00000000000E+00  0.00000000000E+00 -0.16166145039E+04  0.16166145039E+04  0.50400001928E-02 0. -1.
    10030    2    1    2    0    0  0.00000000000E+00  0.00000000000E+00 -0.49562237098E+03  0.27376066369E+04  0.26923685787E+04 0.  0.
        4    1    3    3  502    0  0.10249512396E+04  0.50954157086E+02 -0.11337075632E+04  0.15291879615E+04  0.12699999809E+01 0. -1.
       -4    1    3    3    0  502 -0.10249512396E+04 -0.50954157086E+02  0.63808519219E+03  0.12084186754E+04  0.12699999809E+01 0.  1.
</event>
<event>
 5   0  0.7768032E-07  0.2700128E+04  0.7818609E-02  0.8334964E-01
       -1   -1    0    0    0  501  0.00000000000E+00  0.00000000000E+00  0.12508762024E+04  0.12508762024E+04  0.50400001928E-02 0. -1.
        1   -1    0    0  501    0  0.00000000000E+00  0.00000000000E+00 -0.14571165868E+04  0.14571165868E+04  0.50400001928E-02 0.  1.
    10030    2    1    2    0    0  0.00000000000E+00  0.00000000000E+00 -0.20624038432E+03  0.27079927892E+04  0.27001277470E+04 0.  0.
        4    1    3    3  502    0 -0.10656737959E+04 -0.52639893325E+03 -0.74523068272E+03  0.14028994474E+04  0.12699999809E+01 0.  1.
       -4    1    3    3    0  502  0.10656737959E+04  0.52639893325E+03  0.53899029840E+03  0.13050933418E+04  0.12699999809E+01 0. -1.
</event>
<event>
 5   0  0.7768032E-07  0.2721532E+04  0.7818609E-02  0.8328052E-01
       -1   -1    0    0    0  501  0.00000000000E+00  0.00000000000E+00  0.86305214329E+03  0.86305214330E+03  0.50400001928E-02 0. -1.
        1   -1    0    0  501    0  0.00000000000E+00  0.00000000000E+00 -0.21455072868E+04  0.21455072868E+04  0.50400001928E-02 0.  1.
    10030    2    1    2    0    0  0.00000000000E+00  0.00000000000E+00 -0.12824551435E+04  0.30085594301E+04  0.27215324083E+04 0.  0.
        4    1    3    3  502    0  0.45211944553E+03 -0.11817198450E+04 -0.11948540740E+04  0.17402734429E+04  0.12699999809E+01 0.  1.
       -4    1    3    3    0  502 -0.45211944553E+03  0.11817198450E+04 -0.87601069541E+02  0.12682859872E+04  0.12699999809E+01 0. -1.
</event>
<event>
 5   0  0.1932012E-06  0.2696691E+04  0.7818609E-02  0.8336079E-01
       -2   -1    0    0    0  501  0.00000000000E+00  0.00000000000E+00  0.85309067886E+03  0.85309067886E+03  0.25500000920E-02 0.  1.
        2   -1    0    0  501    0  0.00000000000E+00  0.00000000000E+00 -0.21311172360E+04  0.21311172360E+04  0.25500000920E-02 0. -1.
    10030    2    1    2    0    0  0.00000000000E+00  0.00000000000E+00 -0.12780265571E+04  0.29842079148E+04  0.26966914911E+04 0.  0.
        2    1    3    3  502    0 -0.65797230653E+03 -0.98769210116E+03 -0.13472255966E+04  0.17954052609E+04  0.25500000920E-02 0. -1.
       -2    1    3    3    0  502  0.65797230653E+03  0.98769210116E+03  0.69199039479E+02  0.11888026539E+04  0.25500000920E-02 0.  1.
</event>
<event>
 5   0  0.6561875E-07  0.2698676E+04  0.7818609E-02  0.8335435E-01
        3   -1    0    0  501    0  0.00000000000E+00  0.00000000000E+00  0.22191136704E+04  0.22191136727E+04  0.10100000352E+00 0. -1.
       -3   -1    0    0    0  501  0.00000000000E+00  0.00000000000E+00 -0.82046881472E+03  0.82046882094E+03  0.10100000352E+00 0.  1.
    10030    2    1    2    0    0  0.00000000000E+00  0.00000000000E+00  0.13986448557E+04  0.30395824937E+04  0.26986763984E+04 0.  0.
        1    1    3    3  502    0 -0.88733081141E+03 -0.37278362847E+02 -0.44486250464E+03  0.99330171311E+03  0.50400001928E-02 0.  1.
       -1    1    3    3    0  502  0.88733081141E+03  0.37278362847E+02  0.18435073603E+04  0.20462807805E+04  0.50400001928E-02 0. -1.
</event>
<event>
 5   0  0.1991277E-06  0.2657117E+04  0.7818609E-02  0.8349055E-01
       -2   -1    0    0    0  501  0.00000000000E+00  0.00000000000E+00  0.13003208593E+04  0.13003208594E+04  0.25500000920E-02 0.  1.
        2   -1    0    0  501    0  0.00000000000E+00  0.00000000000E+00 -0.13574095396E+04  0.13574095396E+04  0.25500000920E-02 0. -1.
    10030    2    1    2    0    0  0.00000000000E+00  0.00000000000E+00 -0.57088680248E+02  0.26577303990E+04  0.26571171890E+04 0.  0.
        5    1    3    3  502    0 -0.93337865210E+03 -0.94288401142E+03  0.40897050790E+02  0.13273735819E+04  0.46999998093E+01 0.  1.
       -5    1    3    3    0  502  0.93337865210E+03  0.94288401142E+03 -0.97985731038E+02  0.13303568170E+04  0.46999998093E+01 0. -1.
</event>
<event>
 5   0  0.1991277E-06  0.2696166E+04  0.7818609E-02  0.8336250E-01
        2   -1    0    0  501    0  0.00000000000E+00  0.00000000000E+00  0.14568265254E+04  0.14568265254E+04  0.25500000920E-02 0.  1.
       -2   -1    0    0    0  501  0.00000000000E+00  0.00000000000E+00 -0.12474569575E+04  0.12474569575E+04  0.25500000920E-02 0. -1.
    10030    2    1    2    0    0  0.00000000000E+00  0.00000000000E+00  0.20936956798E+03  0.27042834829E+04  0.26961664525E+04 0.  0.
        5    1    3    3  502    0  0.11775161818E+04  0.41667316539E+03 -0.40393693711E+03  0.13127635066E+04  0.46999998093E+01 0. -1.
       -5    1    3    3    0  502 -0.11775161818E+04 -0.41667316539E+03  0.61330650509E+03  0.13915199763E+04  0.46999998093E+01 0.  1.
</event>
<event>
 5   0  0.1999104E-06  0.2696375E+04  0.7818609E-02  0.8336182E-01
        2   -1    0    0  501    0  0.00000000000E+00  0.00000000000E+00  0.15425128290E+04  0.15425128290E+04  0.25500000920E-02 0. -1.
       -2   -1    0    0    0  501  0.00000000000E+00  0.00000000000E+00 -0.11783431103E+04  0.11783431103E+04  0.25500000920E-02 0.  1.
    10030    2    1    2    0    0  0.00000000000E+00  0.00000000000E+00  0.36416971866E+03  0.27208559393E+04  0.26963748735E+04 0.  0.
        4    1    3    3  502    0 -0.32569556484E+03  0.10033194914E+04 -0.66510922856E+03  0.12470362872E+04  0.12699999809E+01 0.  1.
       -4    1    3    3    0  502  0.32569556484E+03 -0.10033194914E+04  0.10292789472E+04  0.14738196521E+04  0.12699999809E+01 0. -1.
</event>
<event>
 5   0  0.7768032E-07  0.2700552E+04  0.7818609E-02  0.8334826E-01
        1   -1    0    0  501    0  0.00000000000E+00  0.00000000000E+00  0.10373032474E+04  0.10373032474E+04  0.50400001928E-02 0. -1.
       -1   -1    0    0    0  501  0.00000000000E+00  0.00000000000E+00 -0.17576778867E+04  0.17576778867E+04  0.50400001928E-02 0.  1.
    10030    2    1    2    0    0  0.00000000000E+00  0.00000000000E+00 -0.72037463935E+03  0.27949811341E+04  0.27005517805E+04 0.  0.
        4    1    3    3  502    0  0.28422830547E+03  0.12638334041E+04 -0.75453918738E+03  0.14991302816E+04  0.12699999809E+01 0. -1.
       -4    1    3    3    0  502 -0.28422830547E+03 -0.12638334041E+04  0.34164548025E+02  0.12958508526E+04  0.12699999809E+01 0.  1.
</event>
<event>
 5   0  0.7436613E-07  0.2702494E+04  0.7818609E-02  0.8334196E-01
        1   -1    0    0  501    0  0.00000000000E+00  0.00000000000E+00  0.23073248686E+04  0.23073248686E+04  0.50400001928E-02 0. -1.
       -1   -1    0    0    0  501  0.00000000000E+00  0.00000000000E+00 -0.79133553561E+03  0.79133553563E+03  0.50400001928E-02 0.  1.
    10030    2    1    2    0    0  0.00000000000E+00  0.00000000000E+00  0.15159893330E+04  0.30986604043E+04  0.27024937823E+04 0.  0.
        2    1    3    3  502    0 -0.46504764403E+03  0.45995052946E+03 -0.59772455980E+03  0.88605781423E+03  0.25500000920E-02 0.  1.
       -2    1    3    3    0  502  0.46504764403E+03 -0.45995052946E+03  0.21137138928E+04  0.22126025900E+04  0.25500000920E-02 0. -1.
</event>
<event>
 5   0  0.1932012E-06  0.2700685E+04  0.7818609E-02  0.8334783E-01
        2   -1    0    0  501    0  0.00000000000E+00  0.00000000000E+00  0.18839859922E+04  0.18839859922E+04  0.25500000920E-02 0. -1.
       -2   -1    0    0    0  501  0.00000000000E+00  0.00000000000E+00 -0.96785484610E+03  0.96785484610E+03  0.25500000920E-02 0.  1.
    10030    2    1    2    0    0  0.00000000000E+00  0.00000000000E+00  0.91613114606E+03  0.28518408383E+04  0.27006850779E+04 0.  0.
        2    1    3    3  502    0  0.50876017994E+03  0.34864432411E+03  0.17265636101E+04  0.18334153063E+04  0.25500000920E-02 0. -1.
       -2    1    3    3    0  502 -0.50876017994E+03 -0.34864432411E+03 -0.81043246406E+03  0.10184255320E+04  0.25500000920E-02 0.  1.
</event>
<event>
 5   0  0.7436613E-07  0.2700628E+04  0.7818609E-02  0.8334801E-01
       -1   -1    0    0    0  501  0.00000000000E+00  0.00000000000E+00  0.12414386469E+04  0.12414386469E+04  0.50400001928E-02 0. -1.
        1   -1    0    0  501    0  0.00000000000E+00  0.00000000000E+00 -0.14687374153E+04  0.14687374153E+04  0.50400001928E-02 0.  1.
    10030    2    1    2    0    0  0.00000000000E+00  0.00000000000E+00 -0.22729876839E+03  0.27101760622E+04  0.27006276230E+04 0.  0.
        2    1    3    3  502    0 -0.86409983464E+03  0.67330645780E+03 -0.90595794793E+03  0.14215378693E+04  0.25500000920E-02 0.  1.
       -2    1    3    3    0  502  0.86409983464E+03 -0.67330645780E+03  0.67865917954E+03  0.12886381929E+04  0.25500000920E-02 0. -1.
</event>
<event>
 5   0  0.2063087E-06  0.2703488E+04  0.7818609E-02  0.8333874E-01
       -2   -1    0    0    0  501  0.00000000000E+00  0.00000000000E+00  0.58290881879E+03  0.58290881880E+03  0.25500000920E-02 0. -1.
        2   -1    0    0  501    0  0.00000000000E+00  0.00000000000E+00 -0.31346447886E+04  0.31346447886E+04  0.25500000920E-02 0.  1.
    10030    2    1    2    0    0  0.00000000000E+00  0.00000000000E+00 -0.25517359698E+04  0.37175536074E+04  0.27034881846E+04 0.  0.
        3    1    3    3  502    0 -0.95695376060E+03  0.67556910223E+03 -0.22034794890E+04  0.24954911301E+04  0.10100000352E+00 0.  1.
       -3    1    3    3    0  502  0.95695376060E+03 -0.67556910223E+03 -0.34825648085E+03  0.12220624773E+04  0.10100000352E+00 0. -1.
</event>
<event>
 5   0  0.1991277E-06  0.2699862E+04  0.7818609E-02  0.8335050E-01
       -2   -1    0    0    0  501  0.00000000000E+00  0.00000000000E+00  0.80033612246E+03  0.80033612246E+03  0.25500000920E-02 0. -1.
        2   -1    0    0  501    0  0.00000000000E+00  0.00000000000E+00 -0.22769346708E+04  0.22769346708E+04  0.25500000920E-02 0.  1.
    10030    2    1    2    0    0  0.00000000000E+00  0.00000000000E+00 -0.14765985483E+04  0.30772707933E+04  0.26998615265E+04 0.  0.
        5    1    3    3  502    0  0.11104176843E+04  0.76379917250E+03 -0.82565768596E+03  0.15805534834E+04  0.46999998093E+01 0. -1.
       -5    1    3    3    0  502 -0.11104176843E+04 -0.76379917250E+03 -0.65094086238E+03  0.14967173099E+04  0.46999998093E+01 0.  1.
</event>
<event>
 5   0  0.7806808E-07  0.2677857E+04  0.7818609E-02  0.8342226E-01
        1   -1    0    0  501    0  0.00000000000E+00  0.00000000000E+00  0.14439988534E+04  0.14439988534E+04  0.50400001928E-02 0. -1.
       -1   -1    0    0    0  501  0.00000000000E+00  0.00000000000E+00 -0.12415034466E+04  0.12415034466E+04  0.50400001928E-02 0.  1.
    10030    2    1    2    0    0  0.00000000000E+00  0.00000000000E+00  0.20249540679E+03  0.26855023001E+04  0.26778570190E+04 0.  0.
        5    1    3    3  502    0  0.11679996227E+04 -0.64696609772E+03  0.13681116985E+01  0.13352199115E+04  0.46999998093E+01 0. -1.
       -5    1    3    3    0  502 -0.11679996227E+04  0.64696609772E+03  0.20112729509E+03  0.13502823886E+04  0.46999998093E+01 0.  1.
</event>
<event>
 5   0  0.7335091E-07  0.2695907E+04  0.7818609E-02  0.8336334E-01
       -1   -1    0    0    0  501  0.00000000000E+00  0.00000000000E+00  0.14067051988E+04  0.14067051988E+04  0.50400001928E-02 0.  1.
        1   -1    0    0  501    0  0.00000000000E+00  0.00000000000E+00 -0.12916553456E+04  0.12916553457E+04  0.50400001928E-02 0. -1.
    10030    2    1    2    0    0  0.00000000000E+00  0.00000000000E+00  0.11504985315E+03  0.26983605445E+04  0.26959067416E+04 0.  0.
        3    1    3    3  502    0 -0.87032740526E+02 -0.10994320085E+04  0.83324830593E+03  0.13822547482E+04  0.10100000352E+00 0.  1.
       -3    1    3    3    0  502  0.87032740526E+02  0.10994320085E+04 -0.71819845278E+03  0.13161057963E+04  0.10100000352E+00 0. -1.
</event>
<event>
 5   0  0.2063087E-06  0.2656561E+04  0.7818609E-02  0.8349239E-01
        2   -1    0    0  501    0  0.00000000000E+00  0.00000000000E+00  0.15498134664E+04  0.15498134664E+04  0.25500000920E-02 0.  1.
       -2   -1    0    0    0  501  0.00000000000E+00  0.00000000000E+00 -0.11384139894E+04  0.11384139894E+04  0.25500000920E-02 0. -1.
    10030    2    1    2    0    0  0.00000000000E+00  0.00000000000E+00  0.41139947704E+03  0.26882274559E+04  0.26565611841E+04 0.  0.
        3    1    3    3  502    0  0.20726848760E+03  0.12440133265E+04  0.62756231316E+03  0.14086745009E+04  0.10100000352E+00 0. -1.
       -3    1    3    3    0  502 -0.20726848760E+03 -0.12440133265E+04 -0.21616283612E+03  0.12795529549E+04  0.10100000352E+00 0.  1.
</event>
<event>
 5   0  0.2030645E-06  0.2699492E+04  0.7818609E-02  0.8335170E-01
        2   -1    0    0  501    0  0.00000000000E+00  0.00000000000E+00  0.13996047092E+04  0.13996047092E+04  0.25500000920E-02 0.  1.
       -2   -1    0    0    0  501  0.00000000000E+00  0.00000000000E+00 -0.13016635184E+04  0.13016635184E+04  0.25500000920E-02 0. -1.
    10030    2    1    2    0    0  0.00000000000E+00  0.00000000000E+00  0.97941190793E+02  0.27012682276E+04  0.26994920930E+04 0.  0.
        1    1    3    3  502    0 -0.39363057146E+03  0.38306325368E+03 -0.11847769115E+04  0.13059015327E+04  0.50400001928E-02 0.  1.
       -1    1    3    3    0  502  0.39363057146E+03 -0.38306325368E+03  0.12827181023E+04  0.13953666948E+04  0.50400001928E-02 0. -1.
</event>
<event>
 5   0  0.2030645E-06  0.2704715E+04  0.7818609E-02  0.8333477E-01
       -2   -1    0    0    0  501  0.00000000000E+00  0.00000000000E+00  0.93477764434E+03  0.93477764435E+03  0.25500000920E-02 0. -1.
        2   -1    0    0  501    0  0.00000000000E+00  0.00000000000E+00 -0.19564762809E+04  0.19564762809E+04  0.25500000920E-02 0.  1.
    10030    2    1    2    0    0  0.00000000000E+00  0.00000000000E+00 -0.10216986366E+04  0.28912539253E+04  0.27047146164E+04 0.  0.
        1    1    3    3  502    0 -0.79087790498E+03  0.33365917288E+02 -0.16829519417E+04  0.18598194491E+04  0.50400001928E-02 0.  1.
       -1    1    3    3    0  502  0.79087790498E+03 -0.33365917288E+02  0.66125330516E+03  0.10314344762E+04  0.50400001928E-02 0. -1.
</event>
<event>
 5   0  0.1932012E-06  0.2709818E+04  0.7818609E-02  0.8331826E-01
       -2   -1    0    0    0  501  0.00000000000E+00  0.00000000000E+00  0.16726419544E+04  0.16726419544E+04  0.25500000920E-02 0.  1.
        2   -1    0    0  501    0  0.00000000000E+00  0.00000000000E+00 -0.10975322121E+04  0.10975322121E+04  0.25500000920E-02 0. -1.
    10030    2    1    2    0    0  0.00000000000E+00  0.00000000000E+00  0.57510974233E+03  0.27701741666E+04  0.27098180192E+04 0.  0.
        2    1    3    3  502    0  0.10670404727E+04 -0.83059722871E+03  0.37496548751E+03  0.14032342083E+04  0.25500000920E-02 0.  1.
       -2    1    3    3    0  502 -0.10670404727E+04  0.83059722871E+03  0.20014425483E+03  0.13669399582E+04  0.25500000920E-02 0. -1.
</event>
<event>
 5   0  0.7566905E-07  0.2664392E+04  0.7818609E-02  0.8346652E-01
       -1   -1    0    0    0  501  0.00000000000E+00  0.00000000000E+00  0.15781768520E+04  0.15781768520E+04  0.50400001928E-02 0.  1.
        1   -1    0    0  501    0  0.00000000000E+00  0.00000000000E+00 -0.11245548660E+04  0.11245548660E+04  0.50400001928E-02 0. -1.
    10030    2    1    2    0    0  0.00000000000E+00  0.00000000000E+00  0.45362198600E+03  0.27027317181E+04  0.26643922072E+04 0.  0.
        1    1    3    3  502    0 -0.50230278355E+02  0.13298712684E+04  0.16539402069E+03  0.13410577368E+04  0.50400001928E-02 0.  1.
       -1    1    3    3    0  502  0.50230278355E+02 -0.13298712684E+04  0.28822796531E+03  0.13616739813E+04  0.50400001928E-02 0. -1.
</event>
<event>
 5   0  0.2030645E-06  0.2706576E+04  0.7818609E-02  0.8332874E-01
        2   -1    0    0  501    0  0.00000000000E+00  0.00000000000E+00  0.10956606661E+04  0.10956606661E+04  0.25500000920E-02 0.  1.
       -2   -1    0    0    0  501  0.00000000000E+00  0.00000000000E+00 -0.16714927736E+04  0.16714927736E+04  0.25500000920E-02 0. -1.
    10030    2    1    2    0    0  0.00000000000E+00  0.00000000000E+00 -0.57583210750E+03  0.27671534397E+04  0.27065763509E+04 0.  0.
        1    1    3    3  502    0  0.15761723147E+02 -0.16982802390E+03 -0.16604603431E+04  0.16691969747E+04  0.50400001928E-02 0. -1.
       -1    1    3    3    0  502 -0.15761723147E+02  0.16982802390E+03  0.10846282356E+04  0.10979564650E+04  0.50400001928E-02 0.  1.
</event>
<event>
 5   0  0.1999104E-06  0.2696986E+04  0.7818609E-02  0.8335983E-01
       -2   -1    0    0    0  501  0.00000000000E+00  0.00000000000E+00  0.13312436117E+04  0.13312436117E+04  0.25500000920E-02 0.  1.
        2   -1    0    0  501    0  0.00000000000E+00  0.00000000000E+00 -0.13659661329E+04  0.13659661329E+04  0.25500000920E-02 0. -1.
    10030    2    1    2    0    0  0.00000000000E+00  0.00000000000E+00 -0.34722521200E+02  0.26972097446E+04  0.26969862352E+04 0.  0.
        4    1    3    3  502    0  0.60023505900E+03 -0.61878000846E+03 -0.10543952426E+04  0.13619551260E+04  0.12699999809E+01 0. -1.
       -4    1    3    3    0  502 -0.60023505900E+03  0.61878000846E+03  0.10196727214E+04  0.13352546186E+04  0.12699999809E+01 0.  1.
</event>
<event>
 5   0  0.2063087E-06  0.2702418E+04  0.7818609E-02  0.8334221E-01
        2   -1    0    0  501    0  0.00000000000E+00  0.00000000000E+00  0.11297185673E+04  0.11297185673E+04  0.25500000920E-02 0. -1.
       -2   -1    0    0    0  501  0.00000000000E+00  0.00000000000E+00 -0.16161241012E+04  0.16161241012E+04  0.25500000920E-02 0.  1.
    10030    2    1    2    0    0  0.00000000000E+00  0.00000000000E+00 -0.48640553394E+03  0.27458426685E+04  0.27024177354E+04 0.  0.
        3    1    3    3  502    0 -0.92025468915E+03  0.30836229697E+03 -0.11984207146E+04  0.15421310640E+04  0.10100000352E+00 0.  1.
       -3    1    3    3    0  502  0.92025468915E+03 -0.30836229697E+03  0.71201518070E+03  0.12037116045E+04  0.10100000352E+00 0. -1.
</event>
<event>
 5   0  0.7806808E-07  0.2679176E+04  0.7818609E-02  0.8341793E-01
        1   -1    0    0  501    0  0.00000000000E+00  0.00000000000E+00  0.17677987951E+04  0.17677987951E+04  0.50400001928E-02 0.  1.
       -1   -1    0    0    0  501  0.00000000000E+00  0.00000000000E+00 -0.10151018306E+04  0.10151018306E+04  0.50400001928E-02 0. -1.
    10030    2    1    2    0    0  0.00000000000E+00  0.00000000000E+00  0.75269696446E+03  0.27829006257E+04  0.26791758382E+04 0.  0.
        5    1    3    3  502    0  0.12985539039E+03  0.87810927197E+03 -0.66575537783E+03  0.11095902978E+04  0.46999998093E+01 0. -1.
       -5    1    3    3    0  502 -0.12985539039E+03 -0.87810927197E+03  0.14184523423E+04  0.16733103278E+04  0.46999998093E+01 0.  1.
</event>
<event>
 5   0  0.7436613E-07  0.2699151E+04  0.7818609E-02  0.8335280E-01
       -1   -1    0    0    0  501  0.00000000000E+00  0.00000000000E+00  0.16079458409E+04  0.16079458409E+04  0.50400001928E-02 0.  1.
        1   -1    0    0  501    0  0.00000000000E+00  0.00000000000E+00 -0.11327212335E+04  0.11327212335E+04  0.50400001928E-02 0. -1.
    10030    2    1    2    0    0  0.00000000000E+00  0.00000000000E+00  0.47522460733E+03  0.27406670744E+04  0.26991512713E+04 0.  0.
        2    1    3    3  502    0  0.10089784900E+04 -0.55655322316E+03 -0.47573557270E+03  0.12466408539E+04  0.25500000920E-02 0.  1.
       -2    1    3    3    0  502 -0.10089784900E+04  0.55655322316E+03  0.95096018003E+03  0.14940262205E+04  0.25500000920E-02 0. -1.
</event>
<event>
 5   0  0.2030645E-06  0.2714547E+04  0.7818609E-02  0.8330300E-01
       -2   -1    0    0    0  501  0.00000000000E+00  0.00000000000E+00  0.79730453251E+03  0.79730453252E+03  0.25500000920E-02 0. -1.
        2   -1    0    0  501    0  0.00000000000E+00  0.00000000000E+00 -0.23105243346E+04  0.23105243346E+04  0.25500000920E-02 0.  1.
    10030    2    1    2    0    0  0.00000000000E+00  0.00000000000E+00 -0.15132198021E+04  0.31078288671E+04  0.27145471258E+04 0.  0.
        1    1    3    3  502    0 -0.36154019140E+03 -0.44464079199E+03  0.65199872478E+03  0.86805476846E+03  0.50400001928E-02 0. -1.
       -1    1    3    3    0  502  0.36154019140E+03  0.44464079199E+03 -0.21652185269E+04  0.22397740987E+04  0.50400001928E-02 0.  1.
</event>
<event>
 5   0  0.1999104E-06  0.2695878E+04  0.7818609E-02  0.8336344E-01
       -2   -1    0    0    0  501  0.00000000000E+00  0.00000000000E+00  0.13726749833E+04  0.13726749833E+04  0.25500000920E-02 0. -1.
        2   -1    0    0  501    0  0.00000000000E+00  0.00000000000E+00 -0.13236484844E+04  0.13236484844E+04  0.25500000920E-02 0.  1.
    10030    2    1    2    0    0  0.00000000000E+00  0.00000000000E+00  0.49026498916E+02  0.26963234677E+04  0.26958777133E+04 0.  0.
        4    1    3    3  502    0 -0.51969888027E+03  0.11832017132E+04 -0.35880503306E+03  0.13411919643E+04  0.12699999809E+01 0.  1.
       -4    1    3    3    0  502  0.51969888027E+03 -0.11832017132E+04  0.40783153197E+03  0.13551315035E+04  0.12699999809E+01 0. -1.
</event>
<event>
 5   0  0.2063087E-06  0.2700353E+04  0.7818609E-02  0.8334891E-01
        2   -1    0    0  501    0  0.00000000000E+00  0.00000000000E+00  0.20778918253E+04  0.20778918254E+04  0.25500000920E-02 0.  1.
       -2   -1    0    0    0  501  0.00000000000E+00  0.00000000000E+00 -0.87732007308E+03  0.87732007308E+03  0.25500000920E-02 0. -1.
    10030    2    1    2    0    0  0.00000000000E+00  0.00000000000E+00  0.12005717523E+04  0.29552118984E+04  0.27003527237E+04 0.  0.
        3    1    3    3  502    0  0.57245932645E+03  0.11664840191E+03 -0.73183109197E+03  0.93642580458E+03  0.10100000352E+00 0. -1.
       -3    1    3    3    0  502 -0.57245932645E+03 -0.11664840191E+03  0.19324028442E+04  0.20187860939E+04  0.10100000352E+00 0.  1.
</event>
<event>
 5   0  0.7335091E-07  0.2702802E+04  0.7818609E-02  0.8334096E-01
        1   -1    0    0  501    0  0.00000000000E+00  0.00000000000E+00  0.13925410729E+04  0.13925410729E+04  0.50400001928E-02 0. -1.
       -1   -1    0    0    0  501  0.00000000000E+00  0.00000000000E+00 -0.13114760533E+04  0.13114760533E+04  0.50400001928E-02 0.  1.
    10030    2    1    2    0    0  0.00000000000E+00  0.00000000000E+00  0.81065019604E+02  0.27040171261E+04  0.27028017095E+04 0.  0.
        3    1    3    3  502    0 -0.10086721297E+04  0.35938955042E+03 -0.78427982781E+03  0.13272811205E+04  0.10100000352E+00 0. -1.
       -3    1    3    3    0  502  0.10086721297E+04 -0.35938955042E+03  0.86534484741E+03  0.13767360057E+04  0.10100000352E+00 0.  1.
</event>
<event>
 5   0  0.1932012E-06  0.2698954E+04  0.7818609E-02  0.8335344E-01
       -2   -1    0    0    0  501  0.00000000000E+00  0.00000000000E+00  0.11703667703E+04  0.11703667703E+04  0.25500000920E-02 0. -1.
        2   -1    0    0  501    0  0.00000000000E+00  0.00000000000E+00 -0.15559976956E+04  0.15559976956E+04  0.25500000920E-02 0.  1.
    10030    2    1    2    0    0  0.00000000000E+00  0.00000000000E+00 -0.38563092522E+03  0.27263644659E+04  0.26989538696E+04 0.  0.
        2    1    3    3  502    0 -0.25858932847E+03 -0.95642482891E+02  0.11416125038E+04  0.11744339208E+04  0.25500000920E-02 0. -1.
       -2    1    3    3    0  502  0.25858932847E+03  0.95642482891E+02 -0.15272434290E+04  0.15519305451E+04  0.25500000920E-02 0.  1.
</event>
<event>
 5   0  0.7566905E-07  0.2706741E+04  0.7818609E-02  0.8332821E-01
       -1   -1    0    0    0  501  0.00000000000E+00  0.00000000000E+00  0.99848418172E+03  0.99848418173E+03  0.50400001928E-02 0.  1.
        1   -1    0    0  501    0  0.00000000000E+00  0.00000000000E+00 -0.18343926588E+04  0.18343926588E+04  0.50400001928E-02 0. -1.
    10030    2    1    2    0    0  0.00000000000E+00  0.00000000000E+00 -0.83590847711E+03  0.28328768406E+04  0.27067412532E+04 0.  0.
        1    1    3    3  502    0 -0.25361523976E+03 -0.88886041836E+03  0.61665605833E+03  0.11111517572E+04  0.50400001928E-02 0.  1.
       -1    1    3    3    0  502  0.25361523976E+03  0.88886041836E+03 -0.14525645354E+04  0.17217250834E+04  0.50400001928E-02 0. -1.
</event>
<event>
 5   0  0.7436613E-07  0.2703467E+04  0.7818609E-02  0.8333881E-01
        1   -1    0    0  501    0  0.00000000000E+00  0.00000000000E+00  0.15008446072E+04  0.15008446072E+04  0.50400001928E-02 0. -1.
       -1   -1    0    0    0  501  0.00000000000E+00  0.00000000000E+00 -0.12174365385E+04  0.12174365385E+04  0.50400001928E-02 0.  1.
    10030    2    1    2    0    0  0.00000000000E+00  0.00000000000E+00  0.28340806868E+03  0.27182811458E+04  0.27034667104E+04 0.  0.
        2    1    3    3  502    0 -0.10784093850E+04 -0.29368116793E+03  0.90611182709E+03  0.14388377508E+04  0.25500000920E-02 0. -1.
       -2    1    3    3    0  502  0.10784093850E+04  0.29368116793E+03 -0.62270375841E+03  0.12794433949E+04  0.25500000920E-02 0.  1.
</event>
<event>
 5   0  0.1991277E-06  0.2699560E+04  0.7818609E-02  0.8335148E-01
        2   -1    0    0  501    0  0.00000000000E+00  0.00000000000E+00  0.14018276659E+04  0.14018276659E+04  0.25500000920E-02 0.  1.
       -2   -1    0    0    0  501  0.00000000000E+00  0.00000000000E+00 -0.12996648273E+04  0.12996648273E+04  0.25500000920E-02 0. -1.
    10030    2    1    2    0    0  0.00000000000E+00  0.00000000000E+00  0.10216283867E+03  0.27014924932E+04  0.26995600466E+04 0.  0.
        5    1    3    3  502    0 -0.16205245196E+03 -0.17124810562E+03  0.13810538925E+04  0.14010420603E+04  0.46999998093E+01 0.  1.
       -5    1    3    3    0  502  0.16205245196E+03  0.17124810562E+03 -0.12788910538E+04  0.13004504329E+04  0.46999998093E+01 0. -1.
</event>
<event>
 5   0  0.7566905E-07  0.2700389E+04  0.7818609E-02  0.8334879E-01
       -1   -1    0    0    0  501  0.00000000000E+00  0.00000000000E+00  0.98661121447E+03  0.98661121448E+03  0.50400001928E-02 0.  1.
        1   -1    0    0  501    0  0.00000000000E+00  0.00000000000E+00 -0.18477638681E+04  0.18477638681E+04  0.50400001928E-02 0. -1.
    10030    2    1    2    0    0  0.00000000000E+00  0.00000000000E+00 -0.86115265367E+03  0.28343750826E+04  0.27003885306E+04 0.  0.
        1    1    3    3  502    0 -0.82000349734E+03 -0.66223231467E+03 -0.13162863331E+04  0.16862879603E+04  0.50400001928E-02 0. -1.
       -1    1    3    3    0  502  0.82000349734E+03  0.66223231467E+03  0.45513367945E+03  0.11480871223E+04  0.50400001928E-02 0.  1.
</event>
<event>
 5   0  0.1999104E-06  0.2696065E+04  0.7818609E-02  0.8336283E-01
        2   -1    0    0  501    0  0.00000000000E+00  0.00000000000E+00  0.18243483093E+04  0.18243483093E+04  0.25500000920E-02 0. -1.
       -2   -1    0    0    0  501  0.00000000000E+00  0.00000000000E+00 -0.99607702585E+03  0.99607702585E+03  0.25500000920E-02 0.  1.
    10030    2    1    2    0    0  0.00000000000E+00  0.00000000000E+00  0.82827128340E+03  0.28204253351E+04  0.26960648642E+04 0.  0.
        4    1    3    3  502    0  0.36829169899E+03 -0.12162655514E+04 -0.56329696173E+02  0.12720516163E+04  0.12699999809E+01 0.  1.
       -4    1    3    3    0  502 -0.36829169899E+03  0.12162655514E+04  0.88460097958E+03  0.15483737188E+04  0.12699999809E+01 0. -1.
</event>
<event>
 5   0  0.6561875E-07  0.2701340E+04  0.7818609E-02  0.8334570E-01
        3   -1    0    0  501    0  0.00000000000E+00  0.00000000000E+00  0.91816399328E+03  0.91816399884E+03  0.10100000352E+00 0.  1.
       -3   -1    0    0    0  501  0.00000000000E+00  0.00000000000E+00 -0.19869101425E+04  0.19869101451E+04  0.10100000352E+00 0. -1.
    10030    2    1    2    0    0  0.00000000000E+00  0.00000000000E+00 -0.10687461492E+04  0.29050741439E+04  0.27013399361E+04 0.  0.
        3    1    3    3  502    0  0.62693363593E+03  0.57400539716E+03  0.59444952250E+03  0.10372551397E+04  0.10100000352E+00 0.  1.
       -3    1    3    3    0  502 -0.62693363593E+03 -0.57400539716E+03 -0.16631956717E+04  0.18678190042E+04  0.10100000352E+00 0. -1.
</event>
<event>
 5   0  0.2063087E-06  0.2698348E+04  0.7818609E-02  0.8335541E-01
        2   -1    0    0  501    0  0.00000000000E+00  0.00000000000E+00  0.11502681032E+04  0.11502681032E+04  0.25500000920E-02 0. -1.
       -2   -1    0    0    0  501  0.00000000000E+00  0.00000000000E+00 -0.15824748202E+04  0.15824748202E+04  0.25500000920E-02 0.  1.
    10030    2    1    2    0    0  0.00000000000E+00  0.00000000000E+00 -0.43220671699E+03  0.27327429234E+04  0.26983478722E+04 0.  0.
        3    1    3    3  502    0  0.29817145784E+03 -0.51857737708E+03  0.10086259304E+04  0.11726700269E+04  0.10100000352E+00 0. -1.
       -3    1    3    3    0  502 -0.29817145784E+03  0.51857737708E+03 -0.14408326474E+04  0.15600728965E+04  0.10100000352E+00 0.  1.
</event>
<event>
 5   0  0.1991277E-06  0.2705420E+04  0.7818609E-02  0.8333249E-01
        2   -1    0    0  501    0  0.00000000000E+00  0.00000000000E+00  0.20843263919E+04  0.20843263919E+04  0.25500000920E-02 0. -1.
       -2   -1    0    0    0  501  0.00000000000E+00  0.00000000000E+00 -0.87789715519E+03  0.87789715519E+03  0.25500000920E-02 0.  1.
    10030    2    1    2    0    0  0.00000000000E+00  0.00000000000E+00  0.12064292367E+04  0.29622235471E+04  0.27054199008E+04 0.  0.
        5    1    3    3  502    0  0.24235493285E+03 -0.23820288910E+03 -0.83039136048E+03  0.89724491161E+03  0.46999998093E+01 0.  1.
       -5    1    3    3    0  502 -0.24235493285E+03  0.23820288910E+03  0.20368205972E+04  0.20649786354E+04  0.46999998093E+01 0. -1.
</event>
<event>
 5   0  0.7335091E-07  0.2694793E+04  0.7818609E-02  0.8336696E-01
       -1   -1    0    0    0  501  0.00000000000E+00  0.00000000000E+00  0.96085629444E+03  0.96085629445E+03  0.50400001928E-02 0.  1.
        1   -1    0    0  501    0  0.00000000000E+00  0.00000000000E+00 -0.18894373937E+04  0.18894373937E+04  0.50400001928E-02 0. -1.
    10030    2    1    2    0    0  0.00000000000E+00  0.00000000000E+00 -0.92858109925E+03  0.28502936881E+04  0.26947933596E+04 0.  0.
        3    1    3    3  502    0 -0.11304146491E+03 -0.11722472134E+04  0.22811054826E+03  0.11995733969E+04  0.10100000352E+00 0.  1.
       -3    1    3    3    0  502  0.11304146491E+03  0.11722472134E+04 -0.11566916475E+04  0.16507202912E+04  0.10100000352E+00 0. -1.
</event>
<event>
 5   0  0.1932012E-06  0.2711107E+04  0.7818609E-02  0.8331410E-01
        2   -1    0    0  501    0  0.00000000000E+00  0.00000000000E+00  0.15639129711E+04  0.15639129711E+04  0.25500000920E-02 0. -1.
       -2   -1    0    0    0  501  0.00000000000E+00  0.00000000000E+00 -0.11749539568E+04  0.11749539568E+04  0.25500000920E-02 0.  1.
    10030    2    1    2    0    0  0.00000000000E+00  0.00000000000E+00  0.38895901430E+03  0.27388669279E+04  0.27111073261E+04 0.  0.
        2    1    3    3  502    0 -0.55090360325E+02 -0.98478479986E+03  0.11338877359E+04  0.15028431214E+04  0.25500000920E-02 0. -1.
       -2    1    3    3    0  502  0.55090360325E+02  0.98478479986E+03 -0.74492872163E+03  0.12360238065E+04  0.25500000920E-02 0.  1.
</event>
<event>
 5   0  0.1999104E-06  0.2698448E+04  0.7818609E-02  0.8335509E-01
        2   -1    0    0  501    0  0.00000000000E+00  0.00000000000E+00  0.14628431190E+04  0.14628431190E+04  0.25500000920E-02 0. -1.
       -2   -1    0    0    0  501  0.00000000000E+00  0.00000000000E+00 -0.12444301447E+04  0.12444301447E+04  0.25500000920E-02 0.  1.
    10030    2    1    2    0    0  0.00000000000E+00  0.00000000000E+00  0.21841297432E+03  0.27072732637E+04  0.26984484981E+04 0.  0.
        4    1    3    3  502    0 -0.12218840116E+04  0.56164553639E+03 -0.50475691955E+00  0.13447855272E+04  0.12699999809E+01 0. -1.
       -4    1    3    3    0  502  0.12218840116E+04 -0.56164553639E+03  0.21891773124E+03  0.13624877366E+04  0.12699999809E+01 0.  1.
</event>
<event>
 5   0  0.1999104E-06  0.2692392E+04  0.7818609E-02  0.8337478E-01
       -2   -1    0    0    0  501  0.00000000000E+00  0.00000000000E+00  0.11834874396E+04  0.11834874396E+04  0.25500000920E-02 0.  1.
        2   -1    0    0  501    0  0.00000000000E+00  0.00000000000E+00 -0.15312745520E+04  0.15312745520E+04  0.25500000920E-02 0. -1.
    10030    2    1    2    0    0  0.00000000000E+00  0.00000000000E+00 -0.34778711244E+03  0.27147619916E+04  0.26923923925E+04 0.  0.
        4    1    3    3  502    0  0.24760612229E+03 -0.59634636361E+03  0.10171508421E+04  0.12047967570E+04  0.12699999809E+01 0.  1.
       -4    1    3    3    0  502 -0.24760612229E+03  0.59634636361E+03 -0.13649379545E+04  0.15099652346E+04  0.12699999809E+01 0. -1.
</event>
<event>
 5   0  0.7768032E-07  0.2695292E+04  0.7818609E-02  0.8336534E-01
        1   -1    0    0  501    0  0.00000000000E+00  0.00000000000E+00  0.90900331244E+03  0.90900331245E+03  0.50400001928E-02 0.  1.
       -1   -1    0    0    0  501  0.00000000000E+00  0.00000000000E+00 -0.19979571379E+04  0.19979571380E+04  0.50400001928E-02 0. -1.
    10030    2    1    2    0    0  0.00000000000E+00  0.00000000000E+00 -0.10889538255E+04  0.29069604504E+04  0.26952919371E+04 0.  0.
        4    1    3    3  502    0 -0.63726339012E+02  0.11342906145E+04 -0.13262991480E+04  0.17463525668E+04  0.12699999809E+01 0. -1.
       -4    1    3    3    0  502  0.63726339012E+02 -0.11342906145E+04  0.23734532253E+03  0.11606078836E+04  0.12699999809E+01 0.  1.
</event>
<event>
 5   0  0.7806808E-07  0.2703137E+04  0.7818609E-02  0.8333988E-01
       -1   -1    0    0    0  501  0.00000000000E+00  0.00000000000E+00  0.12415516064E+04  0.12415516065E+04  0.50400001928E-02 0.  1.
        1   -1    0    0  501    0  0.00000000000E+00  0.00000000000E+00 -0.14713339514E+04  0.14713339514E+04  0.50400001928E-02 0. -1.
    10030    2    1    2    0    0  0.00000000000E+00  0.00000000000E+00 -0.22978234496E+03  0.27128855579E+04  0.27031367195E+04 0.  0.
        5    1    3    3  502    0 -0.13114744912E+04 -0.26644700904E+03 -0.30466461827E+03  0.13725166554E+04  0.46999998093E+01 0. -1.
       -5    1    3    3    0  502  0.13114744912E+04  0.26644700904E+03  0.74882273303E+02  0.13403689025E+04  0.46999998093E+01 0.  1.
</event>
<event>
 5   0  0.7566905E-07  0.2695181E+04  0.7818609E-02  0.8336570E-01
       -1   -1    0    0    0  501  0.00000000000E+00  0.00000000000E+00  0.86254936798E+03  0.86254936800E+03  0.50400001928E-02 0. -1.
        1   -1    0    0  501    0  0.00000000000E+00  0.00000000000E+00 -0.21053870806E+04  0.21053870806E+04  0.50400001928E-02 0.  1.
    10030    2    1    2    0    0  0.00000000000E+00  0.00000000000E+00 -0.12428377127E+04  0.29679364486E+04  0.26951811040E+04 0.  0.
        1    1    3    3  502    0 -0.40616230966E+03  0.12756865293E+02 -0.20363100622E+04  0.20764607458E+04  0.50400001928E-02 0.  1.
       -1    1    3    3    0  502  0.40616230966E+03 -0.12756865293E+02  0.79347234950E+03  0.89147570289E+03  0.50400001928E-02 0. -1.
</event>
<event>
 5   0  0.7768032E-07  0.2698274E+04  0.7818609E-02  0.8335565E-01
       -1   -1    0    0    0  501  0.00000000000E+00  0.00000000000E+00  0.10729717112E+04  0.10729717112E+04  0.50400001928E-02 0.  1.
        1   -1    0    0  501    0  0.00000000000E+00  0.00000000000E+00 -0.16963822004E+04  0.16963822004E+04  0.50400001928E-02 0. -1.
    10030    2    1    2    0    0  0.00000000000E+00  0.00000000000E+00 -0.62341048913E+03  0.27693539116E+04  0.26982736054E+04 0.  0.
        4    1    3    3  502    0 -0.24535727762E+02  0.89815609344E+03 -0.13446377145E+04  0.16172008429E+04  0.12699999809E+01 0. -1.
       -4    1    3    3    0  502  0.24535727762E+02 -0.89815609344E+03  0.72122722538E+03  0.11521530687E+04  0.12699999809E+01 0.  1.
</event>
<event>
 5   0  0.7566905E-07  0.2704407E+04  0.7818609E-02  0.8333577E-01
       -1   -1    0    0    0  501  0.00000000000E+00  0.00000000000E+00  0.14942692643E+04  0.14942692643E+04  0.50400001928E-02 0.  1.
        1   -1    0    0  501    0  0.00000000000E+00  0.00000000000E+00 -0.12236442068E+04  0.12236442068E+04  0.50400001928E-02 0. -1.
    10030    2    1    2    0    0  0.00000000000E+00  0.00000000000E+00  0.27062505746E+03  0.27179134711E+04  0.27044067214E+04 0.  0.
        1    1    3    3  502    0 -0.89266628215E+03  0.23269296189E+03 -0.85828834893E+03  0.12600230140E+04  0.50400001928E-02 0. -1.
       -1    1    3    3    0  502  0.89266628215E+03 -0.23269296189E+03  0.11289134064E+04  0.14578904571E+04  0.50400001928E-02 0.  1.
</event>
<event>
 5   0  0.1932012E-06  0.2701673E+04  0.7818609E-02  0.8334462E-01
       -2   -1    0    0    0  501  0.00000000000E+00  0.00000000000E+00  0.70199736889E+03  0.70199736889E+03  0.25500000920E-02 0. -1.
        2   -1    0    0  501    0  0.00000000000E+00  0.00000000000E+00 -0.25993825183E+04  0.25993825183E+04  0.25500000920E-02 0.  1.
    10030    2    1    2    0    0  0.00000000000E+00  0.00000000000E+00 -0.18973851494E+04  0.33013798872E+04  0.27016733249E+04 0.  0.
        2    1    3    3  502    0  0.53266589267E+03  0.10783294217E+04 -0.19717000642E+03  0.12187712280E+04  0.25500000920E-02 0. -1.
       -2    1    3    3    0  502 -0.53266589267E+03 -0.10783294217E+04 -0.17002151430E+04  0.20826086592E+04  0.25500000920E-02 0.  1.
</event>
<event>
 5   0  0.7768032E-07  0.2696065E+04  0.7818609E-02  0.8336283E-01
       -1   -1    0    0    0  501  0.00000000000E+00  0.00000000000E+00  0.13105284218E+04  0.13105284218E+04  0.50400001928E-02 0.  1.
        1   -1    0    0  501    0  0.00000000000E+00  0.00000000000E+00 -0.13866103303E+04  0.13866103303E+04  0.50400001928E-02 0. -1.
    10030    2    1    2    0    0  0.00000000000E+00  0.00000000000E+00 -0.76081908444E+02  0.26971387521E+04  0.26960654650E+04 0.  0.
        4    1    3    3  502    0  0.92171281888E+03  0.76779044988E+03  0.57712980666E+03  0.13312164069E+04  0.12699999809E+01 0. -1.
       -4    1    3    3    0  502 -0.92171281888E+03 -0.76779044988E+03 -0.65321171510E+03  0.13659223452E+04  0.12699999809E+01 0.  1.
</event>
<event>
 5   0  0.1932012E-06  0.2704183E+04  0.7818609E-02  0.8333649E-01
       -2   -1    0    0    0  501  0.00000000000E+00  0.00000000000E+00  0.11169990536E+04  0.11169990536E+04  0.25500000920E-02 0. -1.
        2   -1    0    0  501    0  0.00000000000E+00  0.00000000000E+00 -0.16366635277E+04  0.16366635277E+04  0.25500000920E-02 0.  1.
    10030    2    1    2    0    0  0.00000000000E+00  0.00000000000E+00 -0.51966447417E+03  0.27536625813E+04  0.27041831384E+04 0.  0.
        2    1    3    3  502    0  0.33924592606E+03  0.39190622034E+03  0.10118060584E+04  0.11368508186E+04  0.25500000920E-02 0. -1.
       -2    1    3    3    0  502 -0.33924592606E+03 -0.39190622034E+03 -0.15314705326E+04  0.16168117627E+04  0.25500000920E-02 0.  1.
</event>
<event>
 5   0  0.7566905E-07  0.2690101E+04  0.7818609E-02  0.8338224E-01
       -1   -1    0    0    0  501  0.00000000000E+00  0.00000000000E+00  0.17087482291E+04  0.17087482291E+04  0.50400001928E-02 0. -1.
        1   -1    0    0  501    0  0.00000000000E+00  0.00000000000E+00 -0.10587634563E+04  0.10587634564E+04  0.50400001928E-02 0.  1.
    10030    2    1    2    0    0  0.00000000000E+00  0.00000000000E+00  0.64998477275E+03  0.27675116855E+04  0.26901005045E+04 0.  0.
        1    1    3    3  502    0  0.11127195885E+04 -0.11729202038E+03  0.10929708950E+04  0.15641252117E+04  0.50400001928E-02 0. -1.
       -1    1    3    3    0  502 -0.11127195885E+04  0.11729202038E+03 -0.44298612228E+03  0.12033864737E+04  0.50400001928E-02 0.  1.
</event>
<event>
 5   0  0.7335091E-07  0.2701306E+04  0.7818609E-02  0.8334581E-01
       -1   -1    0    0    0  501  0.00000000000E+00  0.00000000000E+00  0.13892255581E+04  0.13892255581E+04  0.50400001928E-02 0. -1.
        1   -1    0    0  501    0  0.00000000000E+00  0.00000000000E+00 -0.13131513141E+04  0.13131513142E+04  0.50400001928E-02 0.  1.
    10030    2    1    2    0    0  0.00000000000E+00  0.00000000000E+00  0.76074243949E+02  0.27023768723E+04  0.27013058822E+04 0.  0.
        3    1    3    3  502    0 -0.11467609315E+04  0.67102796307E+03 -0.20480218434E+03  0.13443522998E+04  0.10100000352E+00 0.  1.
       -3    1    3    3    0  502  0.11467609315E+04 -0.67102796307E+03  0.28087642829E+03  0.13580245724E+04  0.10100000352E+00 0. -1.
</event>
<event>
 5   0  0.1932012E-06  0.2697661E+04  0.7818609E-02  0.8335764E-01
       -2   -1    0    0    0  501  0.00000000000E+00  0.00000000000E+00  0.89793651463E+03  0.89793651464E+03  0.25500000920E-02 0. -1.
        2   -1    0    0  501    0  0.00000000000E+00  0.00000000000E+00 -0.20261387394E+04  0.20261387394E+04  0.25500000920E-02 0.  1.
    10030    2    1    2    0    0  0.00000000000E+00  0.00000000000E+00 -0.11282022248E+04  0.29240752540E+04  0.26976611780E+04 0.  0.
        2    1    3    3  502    0 -0.10153787572E+04 -0.42571532933E+03  0.28047175288E+03  0.11361742676E+04  0.25500000920E-02 0. -1.
       -2    1    3    3    0  502  0.10153787572E+04  0.42571532933E+03 -0.14086739776E+04  0.17879009865E+04  0.25500000920E-02 0.  1.
</event>
<event>
 5   0  0.2063087E-06  0.2697930E+04  0.7818609E-02  0.8335677E-01
       -2   -1    0    0    0  501  0.00000000000E+00  0.00000000000E+00  0.85104718553E+03  0.85104718554E+03  0.25500000920E-02 0. -1.
        2   -1    0    0  501    0  0.00000000000E+00  0.00000000000E+00 -0.21381969763E+04  0.21381969763E+04  0.25500000920E-02 0.  1.
    10030    2    1    2    0    0  0.00000000000E+00  0.00000000000E+00 -0.12871497908E+04  0.29892441618E+04  0.26979299611E+04 0.  0.
        3    1    3    3  502    0 -0.12012100312E+04  0.41634275206E+03 -0.11433445693E+04  0.17098197685E+04  0.10100000352E+00 0. -1.
       -3    1    3    3    0  502  0.12012100312E+04 -0.41634275206E+03 -0.14380522144E+03  0.12794243933E+04  0.10100000352E+00 0.  1.
</event>
<event>
 5   0  0.1991277E-06  0.2690636E+04  0.7818609E-02  0.8338050E-01
       -2   -1    0    0    0  501  0.00000000000E+00  0.00000000000E+00  0.14827304869E+04  0.14827304869E+04  0.25500000920E-02 0. -1.
        2   -1    0    0  501    0  0.00000000000E+00  0.00000000000E+00 -0.12206405431E+04  0.12206405431E+04  0.25500000920E-02 0.  1.
    10030    2    1    2    0    0  0.00000000000E+00  0.00000000000E+00  0.26208994382E+03  0.27033710299E+04  0.26906363163E+04 0.  0.
        5    1    3    3  502    0  0.83477119282E+03  0.25701801099E+03 -0.89700733974E+03  0.12520165573E+04  0.46999998093E+01 0.  1.
       -5    1    3    3    0  502 -0.83477119282E+03 -0.25701801099E+03  0.11590972836E+04  0.14513544726E+04  0.46999998093E+01 0. -1.
</event>
<event>
 5   0  0.7768032E-07  0.2702678E+04  0.7818609E-02  0.8334137E-01
       -1   -1    0    0    0  501  0.00000000000E+00  0.00000000000E+00  0.12558070276E+04  0.12558070276E+04  0.50400001928E-02 0. -1.
        1   -1    0    0  501    0  0.00000000000E+00  0.00000000000E+00 -0.14541379986E+04  0.14541379986E+04  0.50400001928E-02 0.  1.
    10030    2    1    2    0    0  0.00000000000E+00  0.00000000000E+00 -0.19833097100E+03  0.27099450263E+04  0.27026777225E+04 0.  0.
        4    1    3    3  502    0  0.36987188378E+03 -0.12339113488E+04 -0.50864169088E+03  0.13849405799E+04  0.12699999809E+01 0.  1.
       -4    1    3    3    0  502 -0.36987188378E+03  0.12339113488E+04  0.31031071988E+03  0.13250044464E+04  0.12699999809E+01 0. -1.
</event>
<event>
 5   0  0.7566905E-07  0.2757938E+04  0.7818609E-02  0.8316447E-01
        1   -1    0    0  501    0  0.00000000000E+00  0.00000000000E+00  0.17982826216E+04  0.17982826216E+04  0.50400001928E-02 0. -1.
       -1   -1    0    0    0  501  0.00000000000E+00  0.00000000000E+00 -0.10574289870E+04  0.10574289870E+04  0.50400001928E-02 0.  1.
    10030    2    1    2    0    0  0.00000000000E+00  0.00000000000E+00  0.74085363463E+03  0.28557116086E+04  0.27579384844E+04 0.  0.
        1    1    3    3  502    0 -0.31810969734E+03 -0.33175256180E+03  0.17166343162E+04  0.17771007055E+04  0.50400001928E-02 0. -1.
       -1    1    3    3    0  502  0.31810969734E+03  0.33175256180E+03 -0.97578068159E+03  0.10786109031E+04  0.50400001928E-02 0.  1.
</event>
<event>
 5   0  0.7806808E-07  0.2700737E+04  0.7818609E-02  0.8334766E-01
        1   -1    0    0  501    0  0.00000000000E+00  0.00000000000E+00  0.11297381107E+04  0.11297381107E+04  0.50400001928E-02 0.  1.
       -1   -1    0    0    0  501  0.00000000000E+00  0.00000000000E+00 -0.16140869387E+04  0.16140869387E+04  0.50400001928E-02 0. -1.
    10030    2    1    2    0    0  0.00000000000E+00  0.00000000000E+00 -0.48434882794E+03  0.27438250494E+04  0.27007373280E+04 0.  0.
        5    1    3    3  502    0 -0.11414168568E+03 -0.13403083643E+04 -0.12188527002E+03  0.13506786979E+04  0.46999998093E+01 0.  1.
       -5    1    3    3    0  502  0.11414168568E+03  0.13403083643E+04 -0.36246355792E+03  0.13931463515E+04  0.46999998093E+01 0. -1.
</event>
<event>
 5   0  0.2063087E-06  0.2698896E+04  0.7818609E-02  0.8335363E-01
       -2   -1    0    0    0  501  0.00000000000E+00  0.00000000000E+00  0.59092363446E+03  0.59092363446E+03  0.25500000920E-02 0. -1.
        2   -1    0    0  501    0  0.00000000000E+00  0.00000000000E+00 -0.30816335912E+04  0.30816335912E+04  0.25500000920E-02 0.  1.
    10030    2    1    2    0    0  0.00000000000E+00  0.00000000000E+00 -0.24907099568E+04  0.36725572257E+04  0.26988961609E+04 0.  0.
        3    1    3    3  502    0 -0.40329195900E+03  0.16631201025E+03 -0.29830367034E+04  0.30147656747E+04  0.10100000352E+00 0.  1.
       -3    1    3    3    0  502  0.40329195900E+03 -0.16631201025E+03  0.49232674665E+03  0.65779155103E+03  0.10100000352E+00 0. -1.
</event>
<event>
 5   0  0.1932012E-06  0.2697539E+04  0.7818609E-02  0.8335804E-01
        2   -1    0    0  501    0  0.00000000000E+00  0.00000000000E+00  0.10947261570E+04  0.10947261570E+04  0.25500000920E-02 0.  1.
       -2   -1    0    0    0  501  0.00000000000E+00  0.00000000000E+00 -0.16617670047E+04  0.16617670047E+04  0.25500000920E-02 0. -1.
    10030    2    1    2    0    0  0.00000000000E+00  0.00000000000E+00 -0.56704084767E+03  0.27564931618E+04  0.26975394766E+04 0.  0.
        2    1    3    3  502    0  0.29919824585E+03 -0.94671970043E+03  0.64932819975E+03  0.11863493973E+04  0.25500000920E-02 0.  1.
       -2    1    3    3    0  502 -0.29919824585E+03  0.94671970043E+03 -0.12163690474E+04  0.15701437644E+04  0.25500000920E-02 0. -1.
</event>
<event>
 5   0  0.7436613E-07  0.2694038E+04  0.7818609E-02  0.8336942E-01
       -1   -1    0    0    0  501  0.00000000000E+00  0.00000000000E+00  0.13714859034E+04  0.13714859034E+04  0.50400001928E-02 0. -1.
        1   -1    0    0  501    0  0.00000000000E+00  0.00000000000E+00 -0.13229888215E+04  0.13229888215E+04  0.50400001928E-02 0.  1.
    10030    2    1    2    0    0  0.00000000000E+00  0.00000000000E+00  0.48497081888E+02  0.26944747250E+04  0.26940382471E+04 0.  0.
        2    1    3    3  502    0  0.12361953298E+03 -0.31575912830E+03  0.13280988517E+04  0.13707049923E+04  0.25500000920E-02 0. -1.
       -2    1    3    3    0  502 -0.12361953298E+03  0.31575912830E+03 -0.12796017698E+04  0.13237697327E+04  0.25500000920E-02 0.  1.
</event>
<event>
 5   0  0.7436613E-07  0.2698695E+04  0.7818609E-02  0.8335429E-01
       -1   -1    0    0    0  501  0.00000000000E+00  0.00000000000E+00  0.11708586842E+04  0.11708586842E+04  0.50400001928E-02 0. -1.
        1   -1    0    0  501    0  0.00000000000E+00  0.00000000000E+00 -0.15550454502E+04  0.15550454502E+04  0.50400001928E-02 0.  1.
    10030    2    1    2    0    0  0.00000000000E+00  0.00000000000E+00 -0.38418676596E+03  0.27259041344E+04  0.26986948473E+04 0.  0.
        2    1    3    3  502    0 -0.45645220728E+03  0.38875686627E+00 -0.14746950683E+04  0.15437209311E+04  0.25500000920E-02 0.  1.
       -2    1    3    3    0  502  0.45645220728E+03 -0.38875686627E+00  0.10905083024E+04  0.11821832033E+04  0.25500000920E-02 0. -1.
</event>
<event>
 5   0  0.2030645E-06  0.2700933E+04  0.7818609E-02  0.8334702E-01
       -2   -1    0    0    0  501  0.00000000000E+00  0.00000000000E+00  0.86284883784E+03  0.86284883785E+03  0.25500000920E-02 0. -1.
        2   -1    0    0  501    0  0.00000000000E+00  0.00000000000E+00 -0.21136487589E+04  0.21136487589E+04  0.25500000920E-02 0.  1.
    10030    2    1    2    0    0  0.00000000000E+00  0.00000000000E+00 -0.12507999210E+04  0.29764975967E+04  0.27009327094E+04 0.  0.
        1    1    3    3  502    0  0.10134207715E+04 -0.68869226353E+03  0.37284647978E+00  0.12252831644E+04  0.50400001928E-02 0.  1.
       -1    1    3    3    0  502 -0.10134207715E+04  0.68869226353E+03 -0.12511727675E+04  0.17512144324E+04  0.50400001928E-02 0. -1.
</event>
<event>
 5   0  0.7335091E-07  0.2700365E+04  0.7818609E-02  0.8334886E-01
        1   -1    0    0  501    0  0.00000000000E+00  0.00000000000E+00  0.15585066574E+04  0.15585066574E+04  0.50400001928E-02 0. -1.
       -1   -1    0    0    0  501  0.00000000000E+00  0.00000000000E+00 -0.11697050372E+04  0.11697050372E+04  0.50400001928E-02 0.  1.
    10030    2    1    2    0    0  0.00000000000E+00  0.00000000000E+00  0.38880162015E+03  0.27282116946E+04  0.27003652255E+04 0.  0.
        3    1    3    3  502    0 -0.74504472193E+03 -0.58365046766E+03  0.11672708224E+04  0.15027510403E+04  0.10100000352E+00 0. -1.
       -3    1    3    3    0  502  0.74504472193E+03  0.58365046766E+03 -0.77846920230E+03  0.12254606543E+04  0.10100000352E+00 0.  1.
</event>
<event>
 5   0  0.2030645E-06  0.2701331E+04  0.7818609E-02  0.8334573E-01
       -2   -1    0    0    0  501  0.00000000000E+00  0.00000000000E+00  0.23190983683E+04  0.23190983683E+04  0.25500000920E-02 0.  1.
        2   -1    0    0  501    0  0.00000000000E+00  0.00000000000E+00 -0.78664081086E+03  0.78664081086E+03  0.25500000920E-02 0. -1.
    10030    2    1    2    0    0  0.00000000000E+00  0.00000000000E+00  0.15324575575E+04  0.31057391792E+04  0.27013310948E+04 0.  0.
        1    1    3    3  502    0  0.62687920277E+02 -0.82396853199E+03 -0.46209928241E+03  0.94677857173E+03  0.50400001928E-02 0. -1.
       -1    1    3    3    0  502 -0.62687920277E+02  0.82396853199E+03  0.19945568399E+04  0.21589606075E+04  0.50400001928E-02 0.  1.
</event>
<event>
 5   0  0.7436613E-07  0.2698923E+04  0.7818609E-02  0.8335354E-01
       -1   -1    0    0    0  501  0.00000000000E+00  0.00000000000E+00  0.84275067132E+03  0.84275067134E+03  0.50400001928E-02 0.  1.
        1   -1    0    0  501    0  0.00000000000E+00  0.00000000000E+00 -0.21608365226E+04  0.21608365227E+04  0.50400001928E-02 0. -1.
    10030    2    1    2    0    0  0.00000000000E+00  0.00000000000E+00 -0.13180858513E+04  0.30035871940E+04  0.26989230668E+04 0.  0.
        2    1    3    3  502    0 -0.95048958591E+03 -0.83209927258E+03 -0.13088992605E+03  0.12700204034E+04  0.25500000920E-02 0.  1.
       -2    1    3    3    0  502  0.95048958591E+03  0.83209927258E+03 -0.11871959253E+04  0.17335667906E+04  0.25500000920E-02 0. -1.
</event>
<event>
 5   0  0.7768032E-07  0.2705400E+04  0.7818609E-02  0.8333255E-01
       -1   -1    0    0    0  501  0.00000000000E+00  0.00000000000E+00  0.16329663772E+04  0.16329663772E+04  0.50400001928E-02 0.  1.
        1   -1    0    0  501    0  0.00000000000E+00  0.00000000000E+00 -0.11205355753E+04  0.11205355753E+04  0.50400001928E-02 0. -1.
    10030    2    1    2    0    0  0.00000000000E+00  0.00000000000E+00  0.51243080187E+03  0.27535019525E+04  0.27053997257E+04 0.  0.
        4    1    3    3  502    0 -0.21058117493E+03  0.39813528895E+03 -0.10419786192E+04  0.11351551415E+04  0.12699999809E+01 0. -1.
       -4    1    3    3    0  502  0.21058117493E+03 -0.39813528895E+03  0.15544094211E+04  0.16183468110E+04  0.12699999809E+01 0.  1.
</event>
<event>
 5   0  0.1999104E-06  0.2700032E+04  0.7818609E-02  0.8334995E-01
       -2   -1    0    0    0  501  0.00000000000E+00  0.00000000000E+00  0.12421332927E+04  0.12421332927E+04  0.25500000920E-02 0. -1.
        2   -1    0    0  501    0  0.00000000000E+00  0.00000000000E+00 -0.14672681591E+04  0.14672681591E+04  0.25500000920E-02 0.  1.
    10030    2    1    2    0    0  0.00000000000E+00  0.00000000000E+00 -0.22513486638E+03  0.27094014518E+04  0.27000315774E+04 0.  0.
        4    1    3    3  502    0 -0.11572597166E+04 -0.11515975745E+02 -0.81007553979E+03  0.14126594290E+04  0.12699999809E+01 0.  1.
       -4    1    3    3    0  502  0.11572597166E+04  0.11515975745E+02  0.58494067340E+03  0.12967420228E+04  0.12699999809E+01 0. -1.
</event>
<event>
 5   0  0.1932012E-06  0.2700906E+04  0.7818609E-02  0.8334711E-01
        2   -1    0    0  501    0  0.00000000000E+00  0.00000000000E+00  0.24000857301E+04  0.24000857301E+04  0.25500000920E-02 0. -1.
       -2   -1    0    0    0  501  0.00000000000E+00  0.00000000000E+00 -0.75985743009E+03  0.75985743009E+03  0.25500000920E-02 0.  1.
    10030    2    1    2    0    0  0.00000000000E+00  0.00000000000E+00  0.16402283000E+04  0.31599431602E+04  0.27009057554E+04 0.  0.
        2    1    3    3  502    0  0.43182090227E+03 -0.12475868986E+04  0.11526384706E+04  0.17525746218E+04  0.25500000920E-02 0. -1.
       -2    1    3    3    0  502 -0.43182090227E+03  0.12475868986E+04  0.48758982940E+03  0.14073685384E+04  0.25500000920E-02 0.  1.
</event>
<event>
 5   0  0.7806808E-07  0.2702836E+04  0.7818609E-02  0.8334085E-01
        1   -1    0    0  501    0  0.00000000000E+00  0.00000000000E+00  0.25173832540E+04  0.25173832540E+04  0.50400001928E-02 0.  1.
       -1   -1    0    0    0  501  0.00000000000E+00  0.00000000000E+00 -0.72548797275E+03  0.72548797277E+03  0.50400001928E-02 0. -1.
    10030    2    1    2    0    0  0.00000000000E+00  0.00000000000E+00  0.17918952812E+04  0.32428712267E+04  0.27028364905E+04 0.  0.
        5    1    3    3  502    0  0.63695532869E+03 -0.37794010467E+02 -0.53336403931E+03  0.83164882396E+03  0.46999998093E+01 0. -1.
       -5    1    3    3    0  502 -0.63695532869E+03  0.37794010467E+02  0.23252593205E+04  0.24112224028E+04  0.46999998093E+01 0.  1.
</event>
<event>
 5   0  0.1991277E-06  0.2699836E+04  0.7818609E-02  0.8335058E-01
       -2   -1    0    0    0  501  0.00000000000E+00  0.00000000000E+00  0.16272182830E+04  0.16272182830E+04  0.25500000920E-02 0. -1.
        2   -1    0    0  501    0  0.00000000000E+00  0.00000000000E+00 -0.11198738892E+04  0.11198738892E+04  0.25500000920E-02 0.  1.
    10030    2    1    2    0    0  0.00000000000E+00  0.00000000000E+00  0.50734439376E+03  0.27470921722E+04  0.26998364892E+04 0.  0.
        5    1    3    3  502    0 -0.10320179608E+04 -0.85273649423E+03  0.77328074303E+02  0.13409781210E+04  0.46999998093E+01 0.  1.
       -5    1    3    3    0  502  0.10320179608E+04  0.85273649423E+03  0.43001631946E+03  0.14061140512E+04  0.46999998093E+01 0. -1.
</event>
<event>
 5   0  0.1932012E-06  0.2701261E+04  0.7818609E-02  0.8334596E-01
        2   -1    0    0  501    0  0.00000000000E+00  0.00000000000E+00  0.90280831738E+03  0.90280831739E+03  0.25500000920E-02 0. -1.
       -2   -1    0    0    0  501  0.00000000000E+00  0.00000000000E+00 -0.20205866514E+04  0.20205866514E+04  0.25500000920E-02 0.  1.
    10030    2    1    2    0    0  0.00000000000E+00  0.00000000000E+00 -0.11177783340E+04  0.29233949688E+04  0.27012607685E+04 0.  0.
        2    1    3    3  502    0 -0.72936091492E+03 -0.42416446706E+03  0.58250533980E+03  0.10252781624E+04  0.25500000920E-02 0. -1.
       -2    1    3    3    0  502  0.72936091492E+03  0.42416446706E+03 -0.17002836738E+04  0.18981168064E+04  0.25500000920E-02 0.  1.
</event>
<event>
 5   0  0.7436613E-07  0.2696453E+04  0.7818609E-02  0.8336157E-01
        1   -1    0    0  501    0  0.00000000000E+00  0.00000000000E+00  0.12590284028E+04  0.12590284028E+04  0.50400001928E-02 0.  1.
       -1   -1    0    0    0  501  0.00000000000E+00  0.00000000000E+00 -0.14437440196E+04  0.14437440196E+04  0.50400001928E-02 0. -1.
    10030    2    1    2    0    0  0.00000000000E+00  0.00000000000E+00 -0.18471561680E+03  0.27027724225E+04  0.26964530236E+04 0.  0.
        2    1    3    3  502    0 -0.68220677818E+02 -0.77558015011E+03  0.10109197885E+04  0.12759848937E+04  0.25500000920E-02 0.  1.
       -2    1    3    3    0  502  0.68220677818E+02  0.77558015011E+03 -0.11956354053E+04  0.14267875288E+04  0.25500000920E-02 0. -1.
</event>
<event>
 5   0  0.7335091E-07  0.2702481E+04  0.7818609E-02  0.8334200E-01
       -1   -1    0    0    0  501  0.00000000000E+00  0.00000000000E+00  0.10872214778E+04  0.10872214778E+04  0.50400001928E-02 0. -1.
        1   -1    0    0  501    0  0.00000000000E+00  0.00000000000E+00 -0.16793731877E+04  0.16793731877E+04  0.50400001928E-02 0.  1.
    10030    2    1    2    0    0  0.00000000000E+00  0.00000000000E+00 -0.59215170996E+03  0.27665946655E+04  0.27024807854E+04 0.  0.
        3    1    3    3  502    0  0.10862297639E+04  0.56358845558E+01  0.52668484478E+03  0.12071966696E+04  0.10100000352E+00 0. -1.
       -3    1    3    3    0  502 -0.10862297639E+04 -0.56358845558E+01 -0.11188365547E+04  0.15593979959E+04  0.10100000352E+00 0.  1.
</event>
<event>
 5   0  0.2030645E-06  0.2701638E+04  0.7818609E-02  0.8334474E-01
       -2   -1    0    0    0  501  0.00000000000E+00  0.00000000000E+00  0.11905631903E+04  0.11905631903E+04  0.25500000920E-02 0.  1.
        2   -1    0    0  501    0  0.00000000000E+00  0.00000000000E+00 -0.15326465138E+04  0.15326465138E+04  0.25500000920E-02 0. -1.
    10030    2    1    2    0    0  0.00000000000E+00  0.00000000000E+00 -0.34208332356E+03  0.27232097041E+04  0.27016384089E+04 0.  0.
        1    1    3    3  502    0 -0.10706016081E+04  0.80023892434E+03 -0.36790179757E+03  0.13863339684E+04  0.50400001928E-02 0.  1.
       -1    1    3    3    0  502  0.10706016081E+04 -0.80023892434E+03  0.25818474012E+02  0.13368757357E+04  0.50400001928E-02 0. -1.
</event>
<event>
 5   0  0.7335091E-07  0.2705504E+04  0.7818609E-02  0.8333221E-01
        1   -1    0    0  501    0  0.00000000000E+00  0.00000000000E+00  0.65942259698E+03  0.65942259700E+03  0.50400001928E-02 0.  1.
       -1   -1    0    0    0  501  0.00000000000E+00  0.00000000000E+00 -0.27750609573E+04  0.27750609573E+04  0.50400001928E-02 0. -1.
    10030    2    1    2    0    0  0.00000000000E+00  0.00000000000E+00 -0.21156383603E+04  0.34344835543E+04  0.27055039481E+04 0.  0.
        3    1    3    3  502    0  0.48046051689E+03  0.12503952728E+04 -0.12973616183E+04  0.18647996743E+04  0.10100000352E+00 0.  1.
       -3    1    3    3    0  502 -0.48046051689E+03 -0.12503952728E+04 -0.81827674202E+03  0.15696838800E+04  0.10100000352E+00 0. -1.
</event>
<event>
 5   0  0.1932012E-06  0.2700846E+04  0.7818609E-02  0.8334730E-01
        2   -1    0    0  501    0  0.00000000000E+00  0.00000000000E+00  0.19128880154E+04  0.19128880154E+04  0.25500000920E-02 0. -1.
       -2   -1    0    0    0  501  0.00000000000E+00  0.00000000000E+00 -0.95334513021E+03  0.95334513021E+03  0.25500000920E-02 0.  1.
    10030    2    1    2    0    0  0.00000000000E+00  0.00000000000E+00  0.95954288516E+03  0.28662331456E+04  0.27008461445E+04 0.  0.
        2    1    3    3  502    0 -0.27597747316E+03 -0.27212117857E+02  0.18823448612E+04  0.19026629343E+04  0.25500000920E-02 0. -1.
       -2    1    3    3    0  502  0.27597747316E+03  0.27212117857E+02 -0.92280197605E+03  0.96357021128E+03  0.25500000920E-02 0.  1.
</event>
<event>
 5   0  0.2063087E-06  0.2696945E+04  0.7818609E-02  0.8335997E-01
       -2   -1    0    0    0  501  0.00000000000E+00  0.00000000000E+00  0.78333503685E+03  0.78333503685E+03  0.25500000920E-02 0.  1.
        2   -1    0    0  501    0  0.00000000000E+00  0.00000000000E+00 -0.23213294945E+04  0.23213294945E+04  0.25500000920E-02 0. -1.
    10030    2    1    2    0    0  0.00000000000E+00  0.00000000000E+00 -0.15379944576E+04  0.31046645313E+04  0.26969454760E+04 0.  0.
        3    1    3    3  502    0  0.21595719631E+03 -0.92215178076E+03 -0.18739946572E+04  0.20997279355E+04  0.10100000352E+00 0. -1.
       -3    1    3    3    0  502 -0.21595719631E+03  0.92215178076E+03  0.33600019960E+03  0.10049365959E+04  0.10100000352E+00 0.  1.
</event>
<event>
 5   0  0.2030645E-06  0.2698126E+04  0.7818609E-02  0.8335613E-01
        2   -1    0    0  501    0  0.00000000000E+00  0.00000000000E+00  0.27636809349E+04  0.27636809349E+04  0.25500000920E-02 0.  1.
       -2   -1    0    0    0  501  0.00000000000E+00  0.00000000000E+00 -0.65853145235E+03  0.65853145235E+03  0.25500000920E-02 0. -1.
    10030    2    1    2    0    0  0.00000000000E+00  0.00000000000E+00  0.21051494826E+04  0.34222123873E+04  0.26981258828E+04 0.  0.
        1    1    3    3  502    0  0.57234222648E+03 -0.35346377523E+03  0.25357819829E+04  0.26234905240E+04  0.50400001928E-02 0.  1.
       -1    1    3    3    0  502 -0.57234222648E+03  0.35346377523E+03 -0.43063250030E+03  0.79872186332E+03  0.50400001928E-02 0. -1.
</event>
<event>
 5   0  0.1991277E-06  0.2699537E+04  0.7818609E-02  0.8335155E-01
        2   -1    0    0  501    0  0.00000000000E+00  0.00000000000E+00  0.12832148359E+04  0.12832148359E+04  0.25500000920E-02 0.  1.
       -2   -1    0    0    0  501  0.00000000000E+00  0.00000000000E+00 -0.14197737620E+04  0.14197737620E+04  0.25500000920E-02 0. -1.
    10030    2    1    2    0    0  0.00000000000E+00  0.00000000000E+00 -0.13655892614E+03  0.27029885979E+04  0.26995368158E+04 0.  0.
        5    1    3    3  502    0 -0.35976746015E+03  0.45890579216E+03  0.11505796059E+04  0.12899157611E+04  0.46999998093E+01 0.  1.
       -5    1    3    3    0  502  0.35976746015E+03 -0.45890579216E+03 -0.12871385320E+04  0.14130728368E+04  0.46999998093E+01 0. -1.
</event>
<event>
 5   0  0.7768032E-07  0.2694276E+04  0.7818609E-02  0.8336865E-01
       -1   -1    0    0    0  501  0.00000000000E+00  0.00000000000E+00  0.17070652921E+04  0.17070652921E+04  0.50400001928E-02 0.  1.
        1   -1    0    0  501    0  0.00000000000E+00  0.00000000000E+00 -0.10630995987E+04  0.10630995987E+04  0.50400001928E-02 0. -1.
    10030    2    1    2    0    0  0.00000000000E+00  0.00000000000E+00  0.64396569341E+03  0.27701648908E+04  0.26942757298E+04 0.  0.
        4    1    3    3  502    0  0.24975365050E+03  0.32733180842E+03 -0.99682128477E+03  0.10785069705E+04  0.12699999809E+01 0. -1.
       -4    1    3    3    0  502 -0.24975365050E+03 -0.32733180842E+03  0.16407869782E+04  0.16916579203E+04  0.12699999809E+01 0.  1.
</event>
<event>
 5   0  0.7806808E-07  0.2703547E+04  0.7818609E-02  0.8333855E-01
        1   -1    0    0  501    0  0.00000000000E+00  0.00000000000E+00  0.14104992740E+04  0.14104992740E+04  0.50400001928E-02 0. -1.
       -1   -1    0    0    0  501  0.00000000000E+00  0.00000000000E+00 -0.12954928595E+04  0.12954928595E+04  0.50400001928E-02 0.  1.
    10030    2    1    2    0    0  0.00000000000E+00  0.00000000000E+00  0.11500641450E+03  0.27059921335E+04  0.27035471054E+04 0.  0.
        5    1    3    3  502    0  0.47854338531E+02  0.62008139766E+03  0.12587880704E+04  0.14040514498E+04  0.46999998093E+01 0. -1.
       -5    1    3    3    0  502 -0.47854338531E+02 -0.62008139766E+03 -0.11437816559E+04  0.13019406837E+04  0.46999998093E+01 0.  1.
</event>
<event>
 5   0  0.1999104E-06  0.2698456E+04  0.7818609E-02  0.8335506E-01
        2   -1    0    0  501    0  0.00000000000E+00  0.00000000000E+00  0.23424108333E+04  0.23424108333E+04  0.25500000920E-02 0. -1.
       -2   -1    0    0    0  501  0.00000000000E+00  0.00000000000E+00 -0.77715522356E+03  0.77715522356E+03  0.25500000920E-02 0.  1.
    10030    2    1    2    0    0  0.00000000000E+00  0.00000000000E+00  0.15652556097E+04  0.31195660569E+04  0.26984564587E+04 0.  0.
        4    1    3    3  502    0 -0.12722955185E+04  0.25613887423E+03  0.35618237639E+03  0.13458122110E+04  0.12699999809E+01 0.  1.
       -4    1    3    3    0  502  0.12722955185E+04 -0.25613887423E+03  0.12090732334E+04  0.17737538459E+04  0.12699999809E+01 0. -1.
</event>
<event>
 5   0  0.7768032E-07  0.2728080E+04  0.7818609E-02  0.8325951E-01
       -1   -1    0    0    0  501  0.00000000000E+00  0.00000000000E+00  0.13662308671E+04  0.13662308671E+04  0.50400001928E-02 0. -1.
        1   -1    0    0  501    0  0.00000000000E+00  0.00000000000E+00 -0.13618525736E+04  0.13618525736E+04  0.50400001928E-02 0.  1.
    10030    2    1    2    0    0  0.00000000000E+00  0.00000000000E+00  0.43782935106E+01  0.27280834407E+04  0.27280799274E+04 0.  0.
        4    1    3    3  502    0 -0.58550163859E+03  0.94742966788E+03  0.78969778966E+03  0.13653055908E+04  0.12699999809E+01 0. -1.
       -4    1    3    3    0  502  0.58550163859E+03 -0.94742966788E+03 -0.78531949615E+03  0.13627778499E+04  0.12699999809E+01 0.  1.
</event>
<event>
 5   0  0.7335091E-07  0.2701413E+04  0.7818609E-02  0.8334547E-01
       -1   -1    0    0    0  501  0.00000000000E+00  0.00000000000E+00  0.13538707314E+04  0.13538707314E+04  0.50400001928E-02 0. -1.
        1   -1    0    0  501    0  0.00000000000E+00  0.00000000000E+00 -0.13475501085E+04  0.13475501085E+04  0.50400001928E-02 0.  1.
    10030    2    1    2    0    0  0.00000000000E+00  0.00000000000E+00  0.63206229094E+01  0.27014208399E+04  0.27014134455E+04 0.  0.
        3    1    3    3  502    0  0.27949092320E+03 -0.13206685725E+04 -0.42969915539E+02  0.13506024872E+04  0.10100000352E+00 0. -1.
       -3    1    3    3    0  502 -0.27949092320E+03  0.13206685725E+04  0.49290538448E+02  0.13508183527E+04  0.10100000352E+00 0.  1.
</event>
<event>
 5   0  0.2030645E-06  0.2745109E+04  0.7818609E-02  0.8320515E-01
       -2   -1    0    0    0  501  0.00000000000E+00  0.00000000000E+00  0.10630193448E+04  0.10630193448E+04  0.25500000920E-02 0.  1.
        2   -1    0    0  501    0  0.00000000000E+00  0.00000000000E+00 -0.17722222346E+04  0.17722222346E+04  0.25500000920E-02 0. -1.
    10030    2    1    2    0    0  0.00000000000E+00  0.00000000000E+00 -0.70920288972E+03  0.28352415794E+04  0.27451094832E+04 0.  0.
        1    1    3    3  502    0 -0.29961229191E+03  0.45454270150E+03 -0.16559431840E+04  0.17431363749E+04  0.50400001928E-02 0. -1.
       -1    1    3    3    0  502  0.29961229191E+03 -0.45454270150E+03  0.94674029424E+03  0.10921052045E+04  0.50400001928E-02 0.  1.
</event>
<event>
 5   0  0.7806808E-07  0.2703690E+04  0.7818609E-02  0.8333809E-01
        1   -1    0    0  501    0  0.00000000000E+00  0.00000000000E+00  0.14215916957E+04  0.14215916957E+04  0.50400001928E-02 0. -1.
       -1   -1    0    0    0  501  0.00000000000E+00  0.00000000000E+00 -0.12855204564E+04  0.12855204564E+04  0.50400001928E-02 0.  1.
    10030    2    1    2    0    0  0.00000000000E+00  0.00000000000E+00  0.13607123936E+03  0.27071121521E+04  0.27036902230E+04 0.  0.
        5    1    3    3  502    0  0.60063093252E+03  0.68090119063E+03 -0.93477037889E+03  0.13031506819E+04  0.46999998093E+01 0.  1.
       -5    1    3    3    0  502 -0.60063093252E+03 -0.68090119063E+03  0.10708416182E+04  0.14039614702E+04  0.46999998093E+01 0. -1.
</event>
<event>
 5   0  0.1999104E-06  0.2696825E+04  0.7818609E-02  0.8336036E-01
       -2   -1    0    0    0  501  0.00000000000E+00  0.00000000000E+00  0.89337831588E+03  0.89337831588E+03  0.25500000920E-02 0.  1.
        2   -1    0    0  501    0  0.00000000000E+00  0.00000000000E+00 -0.20352146464E+04  0.20352146464E+04  0.25500000920E-02 0. -1.
    10030    2    1    2    0    0  0.00000000000E+00  0.00000000000E+00 -0.11418363305E+04  0.29285929623E+04  0.26968252693E+04 0.  0.
        4    1    3    3  502    0  0.24917186545E+03 -0.13026994398E+04 -0.30691484232E+03  0.13613635747E+04  0.12699999809E+01 0. -1.
       -4    1    3    3    0  502 -0.24917186545E+03  0.13026994398E+04 -0.83492148820E+03  0.15672293876E+04  0.12699999809E+01 0.  1.
</event>
<event>
 5   0  0.2030645E-06  0.2713108E+04  0.7818609E-02  0.8330764E-01
       -2   -1    0    0    0  501  0.00000000000E+00  0.00000000000E+00  0.88158992474E+03  0.88158992474E+03  0.25500000920E-02 0.  1.
        2   -1    0    0  501    0  0.00000000000E+00  0.00000000000E+00 -0.20874095808E+04  0.20874095808E+04  0.25500000920E-02 0. -1.
    10030    2    1    2    0    0  0.00000000000E+00  0.00000000000E+00 -0.12058196560E+04  0.29689995055E+04  0.27131083688E+04 0.  0.
        1    1    3    3  502    0  0.67425202607E+03 -0.44704383107E+03  0.58872772018E+03  0.10005320135E+04  0.50400001928E-02 0.  1.
       -1    1    3    3    0  502 -0.67425202607E+03  0.44704383107E+03 -0.17945473762E+04  0.19684674920E+04  0.50400001928E-02 0. -1.
</event>
<event>
 5   0  0.2063087E-06  0.2701005E+04  0.7818609E-02  0.8334679E-01
        2   -1    0    0  501    0  0.00000000000E+00  0.00000000000E+00  0.20153229614E+04  0.20153229614E+04  0.25500000920E-02 0. -1.
       -2   -1    0    0    0  501  0.00000000000E+00  0.00000000000E+00 -0.90499513002E+03  0.90499513003E+03  0.25500000920E-02 0.  1.
    10030    2    1    2    0    0  0.00000000000E+00  0.00000000000E+00  0.11103278314E+04  0.29203180915E+04  0.27010053429E+04 0.  0.
        3    1    3    3  502    0  0.54090580092E+03 -0.40303589775E+03 -0.70980871315E+03  0.97920653583E+03  0.10100000352E+00 0.  1.
       -3    1    3    3    0  502 -0.54090580092E+03  0.40303589775E+03  0.18201365446E+04  0.19411115556E+04  0.10100000352E+00 0. -1.
</event>
<event>
 5   0  0.1932012E-06  0.2729110E+04  0.7818609E-02  0.8325621E-01
        2   -1    0    0  501    0  0.00000000000E+00  0.00000000000E+00  0.12553559749E+04  0.12553559749E+04  0.25500000920E-02 0.  1.
       -2   -1    0    0    0  501  0.00000000000E+00  0.00000000000E+00 -0.14832523853E+04  0.14832523853E+04  0.25500000920E-02 0. -1.
    10030    2    1    2    0    0  0.00000000000E+00  0.00000000000E+00 -0.22789641036E+03  0.27386083602E+04  0.27291095575E+04 0.  0.
        2    1    3    3  502    0  0.82237946312E+03 -0.78084360607E+03  0.64763008551E+03  0.13059285762E+04  0.25500000920E-02 0.  1.
       -2    1    3    3    0  502 -0.82237946312E+03  0.78084360607E+03 -0.87552649587E+03  0.14326797840E+04  0.25500000920E-02 0. -1.
</event>
<event>
 5   0  0.2030645E-06  0.2685486E+04  0.7818609E-02  0.8339730E-01
        2   -1    0    0  501    0  0.00000000000E+00  0.00000000000E+00  0.15694194034E+04  0.15694194034E+04  0.25500000920E-02 0. -1.
       -2   -1    0    0    0  501  0.00000000000E+00  0.00000000000E+00 -0.11488059365E+04  0.11488059365E+04  0.25500000920E-02 0.  1.
    10030    2    1    2    0    0  0.00000000000E+00  0.00000000000E+00  0.42061346686E+03  0.27182253398E+04  0.26854856748E+04 0.  0.
        1    1    3    3  502    0 -0.97327105518E+03  0.61877243244E+03  0.90631061969E+03  0.14668111022E+04  0.50400001928E-02 0. -1.
       -1    1    3    3    0  502  0.97327105518E+03 -0.61877243244E+03 -0.48569715284E+03  0.12514142377E+04  0.50400001928E-02 0.  1.
</event>
<event>
 5   0  0.1991277E-06  0.2698930E+04  0.7818609E-02  0.8335352E-01
       -2   -1    0    0    0  501  0.00000000000E+00  0.00000000000E+00  0.92649233632E+03  0.92649233633E+03  0.25500000920E-02 0.  1.
        2   -1    0    0  501    0  0.00000000000E+00  0.00000000000E+00 -0.19655384615E+04  0.19655384615E+04  0.25500000920E-02 0. -1.
    10030    2    1    2    0    0  0.00000000000E+00  0.00000000000E+00 -0.10390461252E+04  0.28920307979E+04  0.26989303966E+04 0.  0.
        5    1    3    3  502    0  0.15455226957E+03  0.11730697845E+04  0.17579049758E+03  0.11962037921E+04  0.46999998093E+01 0.  1.
       -5    1    3    3    0  502 -0.15455226957E+03 -0.11730697845E+04 -0.12148366228E+04  0.16958270057E+04  0.46999998093E+01 0. -1.
</event>
<event>
 5   0  0.1932012E-06  0.2699884E+04  0.7818609E-02  0.8335043E-01
       -2   -1    0    0    0  501  0.00000000000E+00  0.00000000000E+00  0.72750224347E+03  0.72750224347E+03  0.25500000920E-02 0. -1.
        2   -1    0    0  501    0  0.00000000000E+00  0.00000000000E+00 -0.25049318952E+04  0.25049318952E+04  0.25500000920E-02 0.  1.
    10030    2    1    2    0    0  0.00000000000E+00  0.00000000000E+00 -0.17774296517E+04  0.32324341387E+04  0.26998841260E+04 0.  0.
        2    1    3    3  502    0 -0.67347447608E+02 -0.12200622313E+04 -0.15757064450E+04  0.19939755083E+04  0.25500000920E-02 0.  1.
       -2    1    3    3    0  502  0.67347447608E+02  0.12200622313E+04 -0.20172320676E+03  0.12384586304E+04  0.25500000920E-02 0. -1.
</event>
<event>
 5   0  0.7335091E-07  0.2686883E+04  0.7818609E-02  0.8339274E-01
       -1   -1    0    0    0  501  0.00000000000E+00  0.00000000000E+00  0.11349490192E+04  0.11349490192E+04  0.50400001928E-02 0.  1.
        1   -1    0    0  501    0  0.00000000000E+00  0.00000000000E+00 -0.15902344901E+04  0.15902344901E+04  0.50400001928E-02 0. -1.
    10030    2    1    2    0    0  0.00000000000E+00  0.00000000000E+00 -0.45528547093E+03  0.27251835093E+04  0.26868830082E+04 0.  0.
        3    1    3    3  502    0 -0.13011113586E+03 -0.34521314361E+03  0.10825662040E+04  0.11437004059E+04  0.10100000352E+00 0.  1.
       -3    1    3    3    0  502  0.13011113586E+03  0.34521314361E+03 -0.15378516749E+04  0.15814831035E+04  0.10100000352E+00 0. -1.
</event>
<event>
 5   0  0.7566905E-07  0.2699952E+04  0.7818609E-02  0.8335021E-01
       -1   -1    0    0    0  501  0.00000000000E+00  0.00000000000E+00  0.72493978642E+03  0.72493978644E+03  0.50400001928E-02 0. -1.
        1   -1    0    0  501    0  0.00000000000E+00  0.00000000000E+00 -0.25139122746E+04  0.25139122746E+04  0.50400001928E-02 0.  1.
    10030    2    1    2    0    0  0.00000000000E+00  0.00000000000E+00 -0.17889724882E+04  0.32388520611E+04  0.26999518718E+04 0.  0.
        1    1    3    3  502    0  0.12951821407E+04 -0.87535721754E+02 -0.13389455433E+04  0.18649221024E+04  0.50400001928E-02 0.  1.
       -1    1    3    3    0  502 -0.12951821407E+04  0.87535721754E+02 -0.45002694494E+03  0.13739299587E+04  0.50400001928E-02 0. -1.
</event>
<event>
 5   0  0.1932012E-06  0.2698122E+04  0.7818609E-02  0.8335615E-01
        2   -1    0    0  501    0  0.00000000000E+00  0.00000000000E+00  0.12205521426E+04  0.12205521426E+04  0.25500000920E-02 0. -1.
       -2   -1    0    0    0  501  0.00000000000E+00  0.00000000000E+00 -0.14911002650E+04  0.14911002650E+04  0.25500000920E-02 0.  1.
    10030    2    1    2    0    0  0.00000000000E+00  0.00000000000E+00 -0.27054812247E+03  0.27116524076E+04  0.26981220308E+04 0.  0.
        2    1    3    3  502    0  0.10364182814E+04 -0.71912857960E+03  0.34530466725E+03  0.13078777011E+04  0.25500000920E-02 0. -1.
       -2    1    3    3    0  502 -0.10364182814E+04  0.71912857960E+03 -0.61585278972E+03  0.14037747065E+04  0.25500000920E-02 0.  1.
</event>
<event>
 5   0  0.1991277E-06  0.2697874E+04  0.7818609E-02  0.8335695E-01
       -2   -1    0    0    0  501  0.00000000000E+00  0.00000000000E+00  0.82234936489E+03  0.82234936489E+03  0.25500000920E-02 0. -1.
        2   -1    0    0  501    0  0.00000000000E+00  0.00000000000E+00 -0.22127232521E+04  0.22127232521E+04  0.25500000920E-02 0.  1.
    10030    2    1    2    0    0  0.00000000000E+00  0.00000000000E+00 -0.13903738872E+04  0.30350726170E+04  0.26978743937E+04 0.  0.
        5    1    3    3  502    0  0.13361392296E+04 -0.18416706684E+03 -0.67202418887E+03  0.15069253962E+04  0.46999998093E+01 0.  1.
       -5    1    3    3    0  502 -0.13361392296E+04  0.18416706684E+03 -0.71834969834E+03  0.15281472208E+04  0.46999998093E+01 0. -1.
</event>
<event>
 5   0  0.1991277E-06  0.2667064E+04  0.7818609E-02  0.8345771E-01
        2   -1    0    0  501    0  0.00000000000E+00  0.00000000000E+00  0.14481772748E+04  0.14481772748E+04  0.25500000920E-02 0.  1.
       -2   -1    0    0    0  501  0.00000000000E+00  0.00000000000E+00 -0.12279630792E+04  0.12279630793E+04  0.25500000920E-02 0. -1.
    10030    2    1    2    0    0  0.00000000000E+00  0.00000000000E+00  0.22021419559E+03  0.26761403541E+04  0.26670644730E+04 0.  0.
        5    1    3    3  502    0  0.45516038868E+03  0.11811632657E+04 -0.31080638135E+03  0.13034340553E+04  0.46999998093E+01 0. -1.
       -5    1    3    3    0  502 -0.45516038868E+03 -0.11811632657E+04  0.53102057695E+03  0.13727062988E+04  0.46999998093E+01 0.  1.
</event>
<event>
 5   0  0.7768032E-07  0.2698962E+04  0.7818609E-02  0.8335342E-01
        1   -1    0    0  501    0  0.00000000000E+00  0.00000000000E+00  0.18554538997E+04  0.18554538997E+04  0.50400001928E-02 0.  1.
       -1   -1    0    0    0  501  0.00000000000E+00  0.00000000000E+00 -0.98148470776E+03  0.98148470777E+03  0.50400001928E-02 0. -1.
    10030    2    1    2    0    0  0.00000000000E+00  0.00000000000E+00  0.87396919197E+03  0.28369386075E+04  0.26989624885E+04 0.  0.
        4    1    3    3  502    0 -0.80578406993E+03  0.10773580053E+04  0.54777592020E+03  0.14526005338E+04  0.12699999809E+01 0.  1.
       -4    1    3    3    0  502  0.80578406993E+03 -0.10773580053E+04  0.32619327177E+03  0.13843380738E+04  0.12699999809E+01 0. -1.
</event>
<event>
 5   0  0.7806808E-07  0.2700585E+04  0.7818609E-02  0.8334815E-01
       -1   -1    0    0    0  501  0.00000000000E+00  0.00000000000E+00  0.13613146655E+04  0.13613146655E+04  0.50400001928E-02 0.  1.
        1   -1    0    0  501    0  0.00000000000E+00  0.00000000000E+00 -0.13393593346E+04  0.13393593346E+04  0.50400001928E-02 0. -1.
    10030    2    1    2    0    0  0.00000000000E+00  0.00000000000E+00  0.21955330937E+02  0.27006740002E+04  0.27005847549E+04 0.  0.
        5    1    3    3  502    0  0.12737654449E+03  0.11905949711E+04 -0.61316333687E+03  0.13452629992E+04  0.46999998093E+01 0. -1.
       -5    1    3    3    0  502 -0.12737654449E+03 -0.11905949711E+04  0.63511866780E+03  0.13554110010E+04  0.46999998093E+01 0.  1.
</event>
<event>
 5   0  0.2030645E-06  0.2696638E+04  0.7818609E-02  0.8336097E-01
       -2   -1    0    0    0  501  0.00000000000E+00  0.00000000000E+00  0.13723186545E+04  0.13723186545E+04  0.25500000920E-02 0.  1.
        2   -1    0    0  501    0  0.00000000000E+00  0.00000000000E+00 -0.13247386759E+04  0.13247386759E+04  0.25500000920E-02 0. -1.
    10030    2    1    2    0    0  0.00000000000E+00  0.00000000000E+00  0.47579978611E+02  0.26970573305E+04  0.26966376081E+04 0.  0.
        1    1    3    3  502    0 -0.37155052303E+03  0.78777838077E+03  0.10531824380E+04  0.13666886317E+04  0.50400001928E-02 0.  1.
       -1    1    3    3    0  502  0.37155052303E+03 -0.78777838077E+03 -0.10056024594E+04  0.13303686988E+04  0.50400001928E-02 0. -1.
</event>
<event>
 5   0  0.1999104E-06  0.2697076E+04  0.7818609E-02  0.8335954E-01
       -2   -1    0    0    0  501  0.00000000000E+00  0.00000000000E+00  0.82592539243E+03  0.82592539244E+03  0.25500000920E-02 0.  1.
        2   -1    0    0  501    0  0.00000000000E+00  0.00000000000E+00 -0.22018395567E+04  0.22018395567E+04  0.25500000920E-02 0. -1.
    10030    2    1    2    0    0  0.00000000000E+00  0.00000000000E+00 -0.13759141643E+04  0.30277649491E+04  0.26970763430E+04 0.  0.
        4    1    3    3  502    0  0.43729378078E+02 -0.79090397587E+03  0.53723804041E+03  0.95711424737E+03  0.12699999809E+01 0.  1.
       -4    1    3    3    0  502 -0.43729378078E+02  0.79090397587E+03 -0.19131522047E+04  0.20706507018E+04  0.12699999809E+01 0. -1.
</event>
<event>
 5   0  0.1932012E-06  0.2696711E+04  0.7818609E-02  0.8336073E-01
        2   -1    0    0  501    0  0.00000000000E+00  0.00000000000E+00  0.20174737379E+04  0.20174737379E+04  0.25500000920E-02 0. -1.
       -2   -1    0    0    0  501  0.00000000000E+00  0.00000000000E+00 -0.90115766766E+03  0.90115766766E+03  0.25500000920E-02 0.  1.
    10030    2    1    2    0    0  0.00000000000E+00  0.00000000000E+00  0.11163160702E+04  0.29186314056E+04  0.26967105356E+04 0.  0.
        2    1    3    3  502    0  0.90412703088E+03  0.58840980523E+03  0.14336724349E+04  0.17941818295E+04  0.25500000920E-02 0. -1.
       -2    1    3    3    0  502 -0.90412703088E+03 -0.58840980523E+03 -0.31735636465E+03  0.11244495760E+04  0.25500000920E-02 0.  1.
</event>
<event>
 5   0  0.1932012E-06  0.2700005E+04  0.7818609E-02  0.8335003E-01
       -2   -1    0    0    0  501  0.00000000000E+00  0.00000000000E+00  0.11430203016E+04  0.11430203016E+04  0.25500000920E-02 0. -1.
        2   -1    0    0  501    0  0.00000000000E+00  0.00000000000E+00 -0.15944661308E+04  0.15944661308E+04  0.25500000920E-02 0.  1.
    10030    2    1    2    0    0  0.00000000000E+00  0.00000000000E+00 -0.45144582918E+03  0.27374864323E+04  0.27000053020E+04 0.  0.
        2    1    3    3  502    0  0.11230157716E+04  0.73238149190E+03 -0.38590368759E+03  0.13951590336E+04  0.25500000920E-02 0.  1.
       -2    1    3    3    0  502 -0.11230157716E+04 -0.73238149190E+03 -0.65542141589E+02  0.13423273987E+04  0.25500000920E-02 0. -1.
</event>
<event>
 5   0  0.7436613E-07  0.2696514E+04  0.7818609E-02  0.8336137E-01
        1   -1    0    0  501    0  0.00000000000E+00  0.00000000000E+00  0.17743465349E+04  0.17743465349E+04  0.50400001928E-02 0.  1.
       -1   -1    0    0    0  501  0.00000000000E+00  0.00000000000E+00 -0.10244881380E+04  0.10244881381E+04  0.50400001928E-02 0. -1.
    10030    2    1    2    0    0  0.00000000000E+00  0.00000000000E+00  0.74985839687E+03  0.27988346730E+04  0.26965140295E+04 0.  0.
        2    1    3    3  502    0 -0.14639448305E+03  0.82624886878E+03  0.14702831198E+04  0.16928824502E+04  0.25500000920E-02 0.  1.
       -2    1    3    3    0  502  0.14639448305E+03 -0.82624886878E+03 -0.72042472288E+03  0.11059522228E+04  0.25500000920E-02 0. -1.
</event>
<event>
 5   0  0.7335091E-07  0.2703604E+04  0.7818609E-02  0.8333837E-01
       -1   -1    0    0    0  501  0.00000000000E+00  0.00000000000E+00  0.15230485400E+04  0.15230485400E+04  0.50400001928E-02 0. -1.
        1   -1    0    0  501    0  0.00000000000E+00  0.00000000000E+00 -0.11998094304E+04  0.11998094304E+04  0.50400001928E-02 0.  1.
    10030    2    1    2    0    0  0.00000000000E+00  0.00000000000E+00  0.32323910960E+03  0.27228579704E+04  0.27036035221E+04 0.  0.
        3    1    3    3  502    0 -0.26848733937E+03 -0.36667518452E+03 -0.11205662535E+04  0.12092166394E+04  0.10100000352E+00 0.  1.
       -3    1    3    3    0  502  0.26848733937E+03  0.36667518452E+03  0.14438053631E+04  0.15136413310E+04  0.10100000352E+00 0. -1.
</event>
<event>
 5   0  0.1991277E-06  0.2693996E+04  0.7818609E-02  0.8336956E-01
        2   -1    0    0  501    0  0.00000000000E+00  0.00000000000E+00  0.12232177198E+04  0.12232177198E+04  0.25500000920E-02 0. -1.
       -2   -1    0    0    0  501  0.00000000000E+00  0.00000000000E+00 -0.14833037243E+04  0.14833037243E+04  0.25500000920E-02 0.  1.
    10030    2    1    2    0    0  0.00000000000E+00  0.00000000000E+00 -0.26008600451E+03  0.27065214441E+04  0.26939958422E+04 0.  0.
        5    1    3    3  502    0  0.12918693182E+04 -0.25802125606E+03 -0.41220467240E+03  0.13803753424E+04  0.46999998093E+01 0.  1.
       -5    1    3    3    0  502 -0.12918693182E+04  0.25802125606E+03  0.15211866788E+03  0.13261461017E+04  0.46999998093E+01 0. -1.
</event>
<event>
 5   0  0.2030645E-06  0.2699525E+04  0.7818609E-02  0.8335159E-01
        2   -1    0    0  501    0  0.00000000000E+00  0.00000000000E+00  0.12164523701E+04  0.12164523701E+04  0.25500000920E-02 0. -1.
       -2   -1    0    0    0  501  0.00000000000E+00  0.00000000000E+00 -0.14976821225E+04  0.14976821225E+04  0.25500000920E-02 0.  1.
    10030    2    1    2    0    0  0.00000000000E+00  0.00000000000E+00 -0.28122975241E+03  0.27141344926E+04  0.26995251194E+04 0.  0.
        1    1    3    3  502    0  0.27899408793E+03  0.12103962303E+03  0.11815573700E+04  0.12200680760E+04  0.50400001928E-02 0. -1.
       -1    1    3    3    0  502 -0.27899408793E+03 -0.12103962303E+03 -0.14627871224E+04  0.14940664165E+04  0.50400001928E-02 0.  1.
</event>
<event>
 5   0  0.7768032E-07  0.2689715E+04  0.7818609E-02  0.8338350E-01
       -1   -1    0    0    0  501  0.00000000000E+00  0.00000000000E+00  0.67268812119E+03  0.67268812121E+03  0.50400001928E-02 0.  1.
        1   -1    0    0  501    0  0.00000000000E+00  0.00000000000E+00 -0.26886784063E+04  0.26886784063E+04  0.50400001928E-02 0. -1.
    10030    2    1    2    0    0  0.00000000000E+00  0.00000000000E+00 -0.20159902851E+04  0.33613665275E+04  0.26897152456E+04 0.  0.
        4    1    3    3  502    0 -0.75093039777E+03 -0.49736097958E+03 -0.22560653738E+04  0.24292173616E+04  0.12699999809E+01 0. -1.
       -4    1    3    3    0  502  0.75093039777E+03  0.49736097958E+03  0.24007508870E+03  0.93214916587E+03  0.12699999809E+01 0.  1.
</event>
<event>
 5   0  0.7335091E-07  0.2702221E+04  0.7818609E-02  0.8334285E-01
        1   -1    0    0  501    0  0.00000000000E+00  0.00000000000E+00  0.19504452588E+04  0.19504452588E+04  0.50400001928E-02 0. -1.
       -1   -1    0    0    0  501  0.00000000000E+00  0.00000000000E+00 -0.93593988025E+03  0.93593988027E+03  0.50400001928E-02 0.  1.
    10030    2    1    2    0    0  0.00000000000E+00  0.00000000000E+00  0.10145053785E+04  0.28863851390E+04  0.27022209399E+04 0.  0.
        3    1    3    3  502    0  0.50490785139E+01 -0.12754183451E+04  0.98348844618E+03  0.16105797038E+04  0.10100000352E+00 0. -1.
       -3    1    3    3    0  502 -0.50490785139E+01  0.12754183451E+04  0.31016932343E+02  0.12758054352E+04  0.10100000352E+00 0.  1.
</event>
<event>
 5   0  0.1991277E-06  0.2688138E+04  0.7818609E-02  0.8338864E-01
        2   -1    0    0  501    0  0.00000000000E+00  0.00000000000E+00  0.18047112249E+04  0.18047112249E+04  0.25500000920E-02 0. -1.
       -2   -1    0    0    0  501  0.00000000000E+00  0.00000000000E+00 -0.10010029287E+04  0.10010029287E+04  0.25500000920E-02 0.  1.
    10030    2    1    2    0    0  0.00000000000E+00  0.00000000000E+00  0.80370829613E+03  0.28057141536E+04  0.26881378102E+04 0.  0.
        5    1    3    3  502    0 -0.54300322195E+03  0.10711994276E+04  0.10317213528E+04  0.15832851141E+04  0.46999998093E+01 0. -1.
       -5    1    3    3    0  502  0.54300322195E+03 -0.10711994276E+04 -0.22801305666E+03  0.12224290395E+04  0.46999998093E+01 0.  1.
</event>
<event>
 5   0  0.7436613E-07  0.2692258E+04  0.7818609E-02  0.8337521E-01
       -1   -1    0    0    0  501  0.00000000000E+00  0.00000000000E+00  0.13883477453E+04  0.13883477453E+04  0.50400001928E-02 0. -1.
        1   -1    0    0  501    0  0.00000000000E+00  0.00000000000E+00 -0.13051942974E+04  0.13051942975E+04  0.50400001928E-02 0.  1.
    10030    2    1    2    0    0  0.00000000000E+00  0.00000000000E+00  0.83153447880E+02  0.26935420428E+04  0.26922582046E+04 0.  0.
        2    1    3    3  502    0  0.46687004799E+03  0.94377803773E+03  0.88065355268E+03  0.13726745084E+04  0.25500000920E-02 0. -1.
       -2    1    3    3    0  502 -0.46687004799E+03 -0.94377803773E+03 -0.79750010480E+03  0.13208675344E+04  0.25500000920E-02 0.  1.
</event>
<event>
 5   0  0.1932012E-06  0.2698525E+04  0.7818609E-02  0.8335484E-01
        2   -1    0    0  501    0  0.00000000000E+00  0.00000000000E+00  0.11918126528E+04  0.11918126528E+04  0.25500000920E-02 0.  1.
       -2   -1    0    0    0  501  0.00000000000E+00  0.00000000000E+00 -0.15275125661E+04  0.15275125661E+04  0.25500000920E-02 0. -1.
    10030    2    1    2    0    0  0.00000000000E+00  0.00000000000E+00 -0.33569991325E+03  0.27193252189E+04  0.26985246366E+04 0.  0.
        2    1    3    3  502    0  0.36135753240E+02  0.63075197894E+03  0.10335456416E+04  0.12113506697E+04  0.25500000920E-02 0.  1.
       -2    1    3    3    0  502 -0.36135753240E+02 -0.63075197894E+03 -0.13692455549E+04  0.15079745492E+04  0.25500000920E-02 0. -1.
</event>
<event>
 5   0  0.1999104E-06  0.2699956E+04  0.7818609E-02  0.8335019E-01
       -2   -1    0    0    0  501  0.00000000000E+00  0.00000000000E+00  0.10379920485E+04  0.10379920485E+04  0.25500000920E-02 0.  1.
        2   -1    0    0  501    0  0.00000000000E+00  0.00000000000E+00 -0.17557362569E+04  0.17557362569E+04  0.25500000920E-02 0. -1.
    10030    2    1    2    0    0  0.00000000000E+00  0.00000000000E+00 -0.71774420837E+03  0.27937283054E+04  0.26999557582E+04 0.  0.
        4    1    3    3  502    0 -0.21717554768E+03 -0.14498101065E+03  0.10116112078E+04  0.10447696209E+04  0.12699999809E+01 0.  1.
       -4    1    3    3    0  502  0.21717554768E+03  0.14498101065E+03 -0.17293554162E+04  0.17489586846E+04  0.12699999809E+01 0. -1.
</event>
<event>
 5   0  0.7566905E-07  0.2711995E+04  0.7818609E-02  0.8331123E-01
        1   -1    0    0  501    0  0.00000000000E+00  0.00000000000E+00  0.16442656911E+04  0.16442656911E+04  0.50400001928E-02 0.  1.
       -1   -1    0    0    0  501  0.00000000000E+00  0.00000000000E+00 -0.11182680853E+04  0.11182680853E+04  0.50400001928E-02 0. -1.
    10030    2    1    2    0    0  0.00000000000E+00  0.00000000000E+00  0.52599760577E+03  0.27625337764E+04  0.27119954617E+04 0.  0.
        1    1    3    3  502    0 -0.11840345653E+04  0.16370121691E+03 -0.38924106124E+03  0.12570777797E+04  0.50400001928E-02 0. -1.
       -1    1    3    3    0  502  0.11840345653E+04 -0.16370121691E+03  0.91523866701E+03  0.15054559967E+04  0.50400001928E-02 0.  1.
</event>
<event>
 5   0  0.7566905E-07  0.2698055E+04  0.7818609E-02  0.8335636E-01
        1   -1    0    0  501    0  0.00000000000E+00  0.00000000000E+00  0.18198007532E+04  0.18198007532E+04  0.50400001928E-02 0.  1.
       -1   -1    0    0    0  501  0.00000000000E+00  0.00000000000E+00 -0.10000410699E+04  0.10000410699E+04  0.50400001928E-02 0. -1.
    10030    2    1    2    0    0  0.00000000000E+00  0.00000000000E+00  0.81975968329E+03  0.28198418232E+04  0.26980552199E+04 0.  0.
        1    1    3    3  502    0 -0.18780130641E+03 -0.79521942839E+03  0.15317534247E+04  0.17360621602E+04  0.50400001928E-02 0.  1.
       -1    1    3    3    0  502  0.18780130641E+03  0.79521942839E+03 -0.71199374143E+03  0.10837796630E+04  0.50400001928E-02 0. -1.
</event>
<event>
 5   0  0.7806808E-07  0.2699631E+04  0.7818609E-02  0.8335125E-01
       -1   -1    0    0    0  501  0.00000000000E+00  0.00000000000E+00  0.15855585553E+04  0.15855585553E+04  0.50400001928E-02 0.  1.
        1   -1    0    0  501    0  0.00000000000E+00  0.00000000000E+00 -0.11491233983E+04  0.11491233983E+04  0.50400001928E-02 0. -1.
    10030    2    1    2    0    0  0.00000000000E+00  0.00000000000E+00  0.43643515706E+03  0.27346819536E+04  0.26996314084E+04 0.  0.
        5    1    3    3  502    0 -0.25847833891E+01  0.46733470213E+03  0.15009810274E+04  0.15720606030E+04  0.46999998093E+01 0.  1.
       -5    1    3    3    0  502  0.25847833891E+01 -0.46733470213E+03 -0.10645458703E+04  0.11626213506E+04  0.46999998093E+01 0. -1.
</event>
<event>
 5   0  0.2030645E-06  0.2643670E+04  0.7818609E-02  0.8353517E-01
        2   -1    0    0  501    0  0.00000000000E+00  0.00000000000E+00  0.15574029596E+04  0.15574029596E+04  0.25500000920E-02 0.  1.
       -2   -1    0    0    0  501  0.00000000000E+00  0.00000000000E+00 -0.11218982152E+04  0.11218982152E+04  0.25500000920E-02 0. -1.
    10030    2    1    2    0    0  0.00000000000E+00  0.00000000000E+00  0.43550474438E+03  0.26793011748E+04  0.26436698741E+04 0.  0.
        1    1    3    3  502    0  0.55692003345E+03 -0.84528736819E+03 -0.64374977047E+03  0.11996184500E+04  0.50400001928E-02 0. -1.
       -1    1    3    3    0  502 -0.55692003345E+03  0.84528736819E+03  0.10792545149E+04  0.14796827249E+04  0.50400001928E-02 0.  1.
</event>
<event>
 5   0  0.1999104E-06  0.2682947E+04  0.7818609E-02  0.8340559E-01
        2   -1    0    0  501    0  0.00000000000E+00  0.00000000000E+00  0.18264980464E+04  0.18264980464E+04  0.25500000920E-02 0. -1.
       -2   -1    0    0    0  501  0.00000000000E+00  0.00000000000E+00 -0.98524703028E+03  0.98524703028E+03  0.25500000920E-02 0.  1.
    10030    2    1    2    0    0  0.00000000000E+00  0.00000000000E+00  0.84125101615E+03  0.28117450767E+04  0.26829474658E+04 0.  0.
        4    1    3    3  502    0 -0.11728839499E+04  0.51095814946E+03 -0.22487137334E+01  0.12793520470E+04  0.12699999809E+01 0. -1.
       -4    1    3    3    0  502  0.11728839499E+04 -0.51095814946E+03  0.84349972988E+03  0.15323930298E+04  0.12699999809E+01 0.  1.
</event>
<event>
 5   0  0.7768032E-07  0.2702771E+04  0.7818609E-02  0.8334106E-01
        1   -1    0    0  501    0  0.00000000000E+00  0.00000000000E+00  0.27360713935E+04  0.27360713935E+04  0.50400001928E-02 0. -1.
       -1   -1    0    0    0  501  0.00000000000E+00  0.00000000000E+00 -0.66746902308E+03  0.66746902310E+03  0.50400001928E-02 0.  1.
    10030    2    1    2    0    0  0.00000000000E+00  0.00000000000E+00  0.20686023704E+04  0.34035404166E+04  0.27027710966E+04 0.  0.
        4    1    3    3  502    0 -0.10412565844E+04 -0.58618574637E+03  0.18291563602E+04  0.21848669540E+04  0.12699999809E+01 0. -1.
       -4    1    3    3    0  502  0.10412565844E+04  0.58618574637E+03  0.23944601022E+03  0.12186734626E+04  0.12699999809E+01 0.  1.
</event>
<event>
 5   0  0.7806808E-07  0.2703973E+04  0.7818609E-02  0.8333717E-01
        1   -1    0    0  501    0  0.00000000000E+00  0.00000000000E+00  0.10713787461E+04  0.10713787461E+04  0.50400001928E-02 0.  1.
       -1   -1    0    0    0  501  0.00000000000E+00  0.00000000000E+00 -0.17060888091E+04  0.17060888091E+04  0.50400001928E-02 0. -1.
    10030    2    1    2    0    0  0.00000000000E+00  0.00000000000E+00 -0.63471006301E+03  0.27774675553E+04  0.27039728468E+04 0.  0.
        5    1    3    3  502    0  0.55781096100E+03  0.72177915750E+03  0.70762830617E+03  0.11545034128E+04  0.46999998093E+01 0.  1.
       -5    1    3    3    0  502 -0.55781096100E+03 -0.72177915750E+03 -0.13423383692E+04  0.16229641425E+04  0.46999998093E+01 0. -1.
</event>
<event>
 5   0  0.2030645E-06  0.2698232E+04  0.7818609E-02  0.8335579E-01
        2   -1    0    0  501    0  0.00000000000E+00  0.00000000000E+00  0.87871579094E+03  0.87871579094E+03  0.25500000920E-02 0.  1.
       -2   -1    0    0    0  501  0.00000000000E+00  0.00000000000E+00 -0.20713346542E+04  0.20713346542E+04  0.25500000920E-02 0. -1.
    10030    2    1    2    0    0  0.00000000000E+00  0.00000000000E+00 -0.11926188632E+04  0.29500504451E+04  0.26982323613E+04 0.  0.
        1    1    3    3  502    0  0.42982239034E+03 -0.73183962372E+03 -0.17428847772E+04  0.19385520031E+04  0.50400001928E-02 0. -1.
       -1    1    3    3    0  502 -0.42982239034E+03  0.73183962372E+03  0.55026591397E+03  0.10114984420E+04  0.50400001928E-02 0.  1.
</event>
<event>
 5   0  0.7335091E-07  0.2698804E+04  0.7818609E-02  0.8335393E-01
        1   -1    0    0  501    0  0.00000000000E+00  0.00000000000E+00  0.16430938581E+04  0.16430938581E+04  0.50400001928E-02 0. -1.
       -1   -1    0    0    0  501  0.00000000000E+00  0.00000000000E+00 -0.11082052181E+04  0.11082052181E+04  0.50400001928E-02 0.  1.
    10030    2    1    2    0    0  0.00000000000E+00  0.00000000000E+00  0.53488864002E+03  0.27512990761E+04  0.26988035774E+04 0.  0.
        3    1    3    3  502    0  0.91458086756E+03 -0.24655115148E+03  0.12471999870E+04  0.15661268950E+04  0.10100000352E+00 0. -1.
       -3    1    3    3    0  502 -0.91458086756E+03  0.24655115148E+03 -0.71231134699E+03  0.11851721811E+04  0.10100000352E+00 0.  1.
</event>
<event>
 5   0  0.1932012E-06  0.2693179E+04  0.7818609E-02  0.8337221E-01
       -2   -1    0    0    0  501  0.00000000000E+00  0.00000000000E+00  0.99148871832E+03  0.99148871833E+03  0.25500000920E-02 0. -1.
        2   -1    0    0  501    0  0.00000000000E+00  0.00000000000E+00 -0.18288695249E+04  0.18288695249E+04  0.25500000920E-02 0.  1.
    10030    2    1    2    0    0  0.00000000000E+00  0.00000000000E+00 -0.83738080656E+03  0.28203582432E+04  0.26931791632E+04 0.  0.
        2    1    3    3  502    0  0.41926317083E+03  0.48692493695E+03  0.82058866115E+03  0.10422299417E+04  0.25500000920E-02 0. -1.
       -2    1    3    3    0  502 -0.41926317083E+03 -0.48692493695E+03 -0.16579694677E+04  0.17781283015E+04  0.25500000920E-02 0.  1.
</event>
<event>
 5   0  0.1932012E-06  0.2675281E+04  0.7818609E-02  0.8343070E-01
       -2   -1    0    0    0  501  0.00000000000E+00  0.00000000000E+00  0.11482186690E+04  0.11482186690E+04  0.25500000920E-02 0.  1.
        2   -1    0    0  501    0  0.00000000000E+00  0.00000000000E+00 -0.15583118595E+04  0.15583118595E+04  0.25500000920E-02 0. -1.
    10030    2    1    2    0    0  0.00000000000E+00  0.00000000000E+00 -0.41009319050E+03  0.27065305285E+04  0.26752814948E+04 0.  0.
        2    1    3    3  502    0  0.54039765627E+03 -0.26175288921E+03 -0.14143069884E+04  0.15364922582E+04  0.25500000920E-02 0. -1.
       -2    1    3    3    0  502 -0.54039765627E+03  0.26175288921E+03  0.10042137979E+04  0.11700382703E+04  0.25500000920E-02 0.  1.
</event>
<event>
 5   0  0.1999104E-06  0.2701396E+04  0.7818609E-02  0.8334552E-01
       -2   -1    0    0    0  501  0.00000000000E+00  0.00000000000E+00  0.12690850695E+04  0.12690850695E+04  0.25500000920E-02 0. -1.
        2   -1    0    0  501    0  0.00000000000E+00  0.00000000000E+00 -0.14375588460E+04  0.14375588460E+04  0.25500000920E-02 0.  1.
    10030    2    1    2    0    0  0.00000000000E+00  0.00000000000E+00 -0.16847377650E+03  0.27066439156E+04  0.27013955416E+04 0.  0.
        4    1    3    3  502    0  0.93381646797E+03  0.96723231293E+03 -0.21422449053E+03  0.13614129749E+04  0.12699999809E+01 0.  1.
       -4    1    3    3    0  502 -0.93381646797E+03 -0.96723231293E+03  0.45750714027E+02  0.13452309407E+04  0.12699999809E+01 0. -1.
</event>
<event>
 5   0  0.1991277E-06  0.2707205E+04  0.7818609E-02  0.8332671E-01
        2   -1    0    0  501    0  0.00000000000E+00  0.00000000000E+00  0.16657916838E+04  0.16657916838E+04  0.25500000920E-02 0. -1.
       -2   -1    0    0    0  501  0.00000000000E+00  0.00000000000E+00 -0.10999214649E+04  0.10999214649E+04  0.25500000920E-02 0.  1.
    10030    2    1    2    0    0  0.00000000000E+00  0.00000000000E+00  0.56587021891E+03  0.27657131487E+04  0.27072052225E+04 0.  0.
        5    1    3    3  502    0 -0.56316101437E+03  0.75920399722E+03  0.12727272953E+04  0.15853699555E+04  0.46999998093E+01 0. -1.
       -5    1    3    3    0  502  0.56316101437E+03 -0.75920399722E+03 -0.70685707639E+03  0.11803431933E+04  0.46999998093E+01 0.  1.
</event>
<event>
 5   0  0.2030645E-06  0.2689794E+04  0.7818609E-02  0.8338324E-01
        2   -1    0    0  501    0  0.00000000000E+00  0.00000000000E+00  0.11949079174E+04  0.11949079174E+04  0.25500000920E-02 0. -1.
       -2   -1    0    0    0  501  0.00000000000E+00  0.00000000000E+00 -0.15137134533E+04  0.15137134533E+04  0.25500000920E-02 0.  1.
    10030    2    1    2    0    0  0.00000000000E+00  0.00000000000E+00 -0.31880553582E+03  0.27086213707E+04  0.26897941855E+04 0.  0.
        1    1    3    3  502    0 -0.64545060946E+03  0.27873934213E+03  0.99511504510E+03  0.12184235976E+04  0.50400001928E-02 0. -1.
       -1    1    3    3    0  502  0.64545060946E+03 -0.27873934213E+03 -0.13139205809E+04  0.14901977731E+04  0.50400001928E-02 0.  1.
</event>
<event>
 5   0  0.1991277E-06  0.2703034E+04  0.7818609E-02  0.8334021E-01
       -2   -1    0    0    0  501  0.00000000000E+00  0.00000000000E+00  0.94956694741E+03  0.94956694741E+03  0.25500000920E-02 0. -1.
        2   -1    0    0  501    0  0.00000000000E+00  0.00000000000E+00 -0.19236115304E+04  0.19236115304E+04  0.25500000920E-02 0.  1.
    10030    2    1    2    0    0  0.00000000000E+00  0.00000000000E+00 -0.97404458295E+03  0.28731784778E+04  0.27030337985E+04 0.  0.
        5    1    3    3  502    0  0.10282107001E+03  0.27124630079E+02 -0.19191491673E+04  0.19220987317E+04  0.46999998093E+01 0.  1.
       -5    1    3    3    0  502 -0.10282107001E+03 -0.27124630079E+02  0.94510458437E+03  0.95107974607E+03  0.46999998093E+01 0. -1.
</event>
<event>
 5   0  0.7768032E-07  0.2712201E+04  0.7818609E-02  0.8331057E-01
       -1   -1    0    0    0  501  0.00000000000E+00  0.00000000000E+00  0.11957644417E+04  0.11957644417E+04  0.50400001928E-02 0.  1.
        1   -1    0    0  501    0  0.00000000000E+00  0.00000000000E+00 -0.15379350864E+04  0.15379350865E+04  0.50400001928E-02 0. -1.
    10030    2    1    2    0    0  0.00000000000E+00  0.00000000000E+00 -0.34217064478E+03  0.27336995281E+04  0.27122006489E+04 0.  0.
        4    1    3    3  502    0  0.44219159242E+03  0.78430972915E+02 -0.14608068981E+04  0.15282811352E+04  0.12699999809E+01 0. -1.
       -4    1    3    3    0  502 -0.44219159242E+03 -0.78430972915E+02  0.11186362533E+04  0.12054183929E+04  0.12699999809E+01 0.  1.
</event>
<event>
 5   0  0.7806808E-07  0.2702561E+04  0.7818609E-02  0.8334175E-01
       -1   -1    0    0    0  501  0.00000000000E+00  0.00000000000E+00  0.20363592645E+04  0.20363592645E+04  0.50400001928E-02 0.  1.
        1   -1    0    0  501    0  0.00000000000E+00  0.00000000000E+00 -0.89667809549E+03  0.89667809550E+03  0.50400001928E-02 0. -1.
    10030    2    1    2    0    0  0.00000000000E+00  0.00000000000E+00  0.11396811690E+04  0.29330373600E+04  0.27025608204E+04 0.  0.
        5    1    3    3  502    0 -0.32511188246E+03  0.10276800986E+04  0.14542695501E+04  0.18101784817E+04  0.46999998093E+01 0.  1.
       -5    1    3    3    0  502  0.32511188246E+03 -0.10276800986E+04 -0.31458838108E+03  0.11228588783E+04  0.46999998093E+01 0. -1.
</event>
<event>
 5   0  0.1999104E-06  0.2698946E+04  0.7818609E-02  0.8335347E-01
        2   -1    0    0  501    0  0.00000000000E+00  0.00000000000E+00  0.22456470392E+04  0.22456470392E+04  0.25500000920E-02 0.  1.
       -2   -1    0    0    0  501  0.00000000000E+00  0.00000000000E+00 -0.81093635822E+03  0.81093635822E+03  0.25500000920E-02 0. -1.
    10030    2    1    2    0    0  0.00000000000E+00  0.00000000000E+00  0.14347106810E+04  0.30565833974E+04  0.26989455955E+04 0.  0.
        4    1    3    3  502    0 -0.10222429458E+02  0.19244276055E+03 -0.79527154684E+03  0.81828916666E+03  0.12699999809E+01 0. -1.
       -4    1    3    3    0  502  0.10222429458E+02 -0.19244276055E+03  0.22299822278E+04  0.22382942308E+04  0.12699999809E+01 0.  1.
</event>
<event>
 5   0  0.1932012E-06  0.2742227E+04  0.7818609E-02  0.8321432E-01
       -2   -1    0    0    0  501  0.00000000000E+00  0.00000000000E+00  0.84361411267E+03  0.84361411268E+03  0.25500000920E-02 0.  1.
        2   -1    0    0  501    0  0.00000000000E+00  0.00000000000E+00 -0.22284500367E+04  0.22284500367E+04  0.25500000920E-02 0. -1.
    10030    2    1    2    0    0  0.00000000000E+00  0.00000000000E+00 -0.13848359241E+04  0.30720641494E+04  0.27422267597E+04 0.  0.
        2    1    3    3  502    0  0.86630795305E+03 -0.46210363508E+03  0.37973393359E+03  0.10527236577E+04  0.25500000920E-02 0.  1.
       -2    1    3    3    0  502 -0.86630795305E+03  0.46210363508E+03 -0.17645698577E+04  0.20193404918E+04  0.25500000920E-02 0. -1.
</event>
<event>
 5   0  0.7806808E-07  0.2707022E+04  0.7818609E-02  0.8332730E-01
       -1   -1    0    0    0  501  0.00000000000E+00  0.00000000000E+00  0.59983713114E+03  0.59983713117E+03  0.50400001928E-02 0.  1.
        1   -1    0    0  501    0  0.00000000000E+00  0.00000000000E+00 -0.30541493332E+04  0.30541493332E+04  0.50400001928E-02 0. -1.
    10030    2    1    2    0    0  0.00000000000E+00  0.00000000000E+00 -0.24543122020E+04  0.36539864643E+04  0.27070221086E+04 0.  0.
        5    1    3    3  502    0  0.35559833852E+03 -0.10487186499E+04 -0.22776830080E+04  0.25326118850E+04  0.46999998093E+01 0. -1.
       -5    1    3    3    0  502 -0.35559833852E+03  0.10487186499E+04 -0.17662919400E+03  0.11213745793E+04  0.46999998093E+01 0.  1.
</event>
<event>
 5   0  0.7768032E-07  0.2696585E+04  0.7818609E-02  0.8336114E-01
       -1   -1    0    0    0  501  0.00000000000E+00  0.00000000000E+00  0.13461473915E+04  0.13461473915E+04  0.50400001928E-02 0.  1.
        1   -1    0    0  501    0  0.00000000000E+00  0.00000000000E+00 -0.13504415077E+04  0.13504415077E+04  0.50400001928E-02 0. -1.
    10030    2    1    2    0    0  0.00000000000E+00  0.00000000000E+00 -0.42941162121E+01  0.26965888991E+04  0.26965854801E+04 0.  0.
        4    1    3    3  502    0 -0.88777629472E+03  0.38612920094E+03 -0.94057735593E+03  0.13497888297E+04  0.12699999809E+01 0. -1.
       -4    1    3    3    0  502  0.88777629472E+03 -0.38612920094E+03  0.93628323972E+03  0.13468000695E+04  0.12699999809E+01 0.  1.
</event>
<event>
 5   0  0.1991277E-06  0.2695615E+04  0.7818609E-02  0.8336429E-01
        2   -1    0    0  501    0  0.00000000000E+00  0.00000000000E+00  0.58745441751E+03  0.58745441751E+03  0.25500000920E-02 0. -1.
       -2   -1    0    0    0  501  0.00000000000E+00  0.00000000000E+00 -0.30922987591E+04  0.30922987591E+04  0.25500000920E-02 0.  1.
    10030    2    1    2    0    0  0.00000000000E+00  0.00000000000E+00 -0.25048443416E+04  0.36797531766E+04  0.26956146359E+04 0.  0.
        5    1    3    3  502    0  0.11682170523E+04 -0.14175851648E+03 -0.21493757635E+04  0.24504417603E+04  0.46999998093E+01 0.  1.
       -5    1    3    3    0  502 -0.11682170523E+04  0.14175851648E+03 -0.35546857812E+03  0.12293114163E+04  0.46999998093E+01 0. -1.
</event>
<event>
 5   0  0.7436613E-07  0.2697890E+04  0.7818609E-02  0.8335690E-01
        1   -1    0    0  501    0  0.00000000000E+00  0.00000000000E+00  0.84323561166E+03  0.84323561167E+03  0.50400001928E-02 0. -1.
       -1   -1    0    0    0  501  0.00000000000E+00  0.00000000000E+00 -0.21579409859E+04  0.21579409859E+04  0.50400001928E-02 0.  1.
    10030    2    1    2    0    0  0.00000000000E+00  0.00000000000E+00 -0.13147053743E+04  0.30011765976E+04  0.26978900550E+04 0.  0.
        2    1    3    3  502    0  0.11086911416E+04  0.48390740358E+03 -0.13213545257E+04  0.17914631465E+04  0.25500000920E-02 0.  1.
       -2    1    3    3    0  502 -0.11086911416E+04 -0.48390740358E+03  0.66491514433E+01  0.12097134511E+04  0.25500000920E-02 0. -1.
</event>
<event>
 5   0  0.7335091E-07  0.2698798E+04  0.7818609E-02  0.8335395E-01
       -1   -1    0    0    0  501  0.00000000000E+00  0.00000000000E+00  0.10846652824E+04  0.10846652824E+04  0.50400001928E-02 0.  1.
        1   -1    0    0  501    0  0.00000000000E+00  0.00000000000E+00 -0.16787460495E+04  0.16787460495E+04  0.50400001928E-02 0. -1.
    10030    2    1    2    0    0  0.00000000000E+00  0.00000000000E+00 -0.59408076711E+03  0.27634113319E+04  0.26987979234E+04 0.  0.
        3    1    3    3  502    0  0.81510401945E+03 -0.10270312319E+03  0.79907221399E+03  0.11460623488E+04  0.10100000352E+00 0.  1.
       -3    1    3    3    0  502 -0.81510401945E+03  0.10270312319E+03 -0.13931529811E+04  0.16173489831E+04  0.10100000352E+00 0. -1.
</event>
<event>
 5   0  0.7566905E-07  0.2716510E+04  0.7818609E-02  0.8329668E-01
        1   -1    0    0  501    0  0.00000000000E+00  0.00000000000E+00  0.13420131031E+04  0.13420131031E+04  0.50400001928E-02 0. -1.
       -1   -1    0    0    0  501  0.00000000000E+00  0.00000000000E+00 -0.13746932437E+04  0.13746932437E+04  0.50400001928E-02 0.  1.
    10030    2    1    2    0    0  0.00000000000E+00  0.00000000000E+00 -0.32680140597E+02  0.27167063468E+04  0.27165097797E+04 0.  0.
        1    1    3    3  502    0 -0.31393070825E+03 -0.13169861529E+04 -0.12521175799E+03  0.13596628262E+04  0.50400001928E-02 0.  1.
       -1    1    3    3    0  502  0.31393070825E+03  0.13169861529E+04  0.92531617390E+02  0.13570435206E+04  0.50400001928E-02 0. -1.
</event>
<event>
 5   0  0.2030645E-06  0.2679974E+04  0.7818609E-02  0.8341532E-01
        2   -1    0    0  501    0  0.00000000000E+00  0.00000000000E+00  0.20842980210E+04  0.20842980210E+04  0.25500000920E-02 0.  1.
       -2   -1    0    0    0  501  0.00000000000E+00  0.00000000000E+00 -0.86147263342E+03  0.86147263342E+03  0.25500000920E-02 0. -1.
    10030    2    1    2    0    0  0.00000000000E+00  0.00000000000E+00  0.12228253876E+04  0.29457706544E+04  0.26799744066E+04 0.  0.
        1    1    3    3  502    0 -0.90423146334E+03 -0.75623350875E+03 -0.88999645524E+02  0.11821356081E+04  0.50400001928E-02 0. -1.
       -1    1    3    3    0  502  0.90423146334E+03  0.75623350875E+03  0.13118250331E+04  0.17636350463E+04  0.50400001928E-02 0.  1.
</event>
<event>
 5   0  0.2063087E-06  0.2707647E+04  0.7818609E-02  0.8332528E-01
       -2   -1    0    0    0  501  0.00000000000E+00  0.00000000000E+00  0.11291010031E+04  0.11291010031E+04  0.25500000920E-02 0.  1.
        2   -1    0    0  501    0  0.00000000000E+00  0.00000000000E+00 -0.16232717862E+04  0.16232717862E+04  0.25500000920E-02 0. -1.
    10030    2    1    2    0    0  0.00000000000E+00  0.00000000000E+00 -0.49417078312E+03  0.27523727894E+04  0.27076468028E+04 0.  0.
        3    1    3    3  502    0  0.97777770767E+03 -0.70337950941E+03 -0.87539393475E+03  0.14889951414E+04  0.10100000352E+00 0. -1.
       -3    1    3    3    0  502 -0.97777770767E+03  0.70337950941E+03  0.38122315163E+03  0.12633776480E+04  0.10100000352E+00 0.  1.
</event>
<event>
 5   0  0.1991277E-06  0.2705468E+04  0.7818609E-02  0.8333233E-01
        2   -1    0    0  501    0  0.00000000000E+00  0.00000000000E+00  0.24249850227E+04  0.24249850227E+04  0.25500000920E-02 0. -1.
       -2   -1    0    0    0  501  0.00000000000E+00  0.00000000000E+00 -0.75459796351E+03  0.75459796351E+03  0.25500000920E-02 0.  1.
    10030    2    1    2    0    0  0.00000000000E+00  0.00000000000E+00  0.16703870592E+04  0.31795829862E+04  0.27054676192E+04 0.  0.
        5    1    3    3  502    0 -0.60911647311E+03  0.38699560068E+03 -0.50946068943E+03  0.88338030136E+03  0.46999998093E+01 0.  1.
       -5    1    3    3    0  502  0.60911647311E+03 -0.38699560068E+03  0.21798477487E+04  0.22962026849E+04  0.46999998093E+01 0. -1.
</event>
<event>
 5   0  0.1999104E-06  0.2701488E+04  0.7818609E-02  0.8334522E-01
       -2   -1    0    0    0  501  0.00000000000E+00  0.00000000000E+00  0.72784060153E+03  0.72784060153E+03  0.25500000920E-02 0.  1.
        2   -1    0    0  501    0  0.00000000000E+00  0.00000000000E+00 -0.25067435711E+04  0.25067435711E+04  0.25500000920E-02 0. -1.
    10030    2    1    2    0    0  0.00000000000E+00  0.00000000000E+00 -0.17789029696E+04  0.32345841727E+04  0.27014882926E+04 0.  0.
        4    1    3    3  502    0 -0.40197046806E+03 -0.53405385107E+03  0.51593237114E+03  0.84438237637E+03  0.12699999809E+01 0.  1.
       -4    1    3    3    0  502  0.40197046806E+03  0.53405385107E+03 -0.22948353407E+04  0.23902017963E+04  0.12699999809E+01 0. -1.
</event>
<event>
 5   0  0.2030645E-06  0.2698799E+04  0.7818609E-02  0.8335395E-01
        2   -1    0    0  501    0  0.00000000000E+00  0.00000000000E+00  0.13148979928E+04  0.13148979928E+04  0.25500000920E-02 0. -1.
       -2   -1    0    0    0  501  0.00000000000E+00  0.00000000000E+00 -0.13848064556E+04  0.13848064556E+04  0.25500000920E-02 0.  1.
    10030    2    1    2    0    0  0.00000000000E+00  0.00000000000E+00 -0.69908462842E+02  0.26997044483E+04  0.26987991617E+04 0.  0.
        1    1    3    3  502    0 -0.36040612618E+03 -0.76027183854E+03  0.10203751875E+04  0.13225246189E+04  0.50400001928E-02 0. -1.
       -1    1    3    3    0  502  0.36040612618E+03  0.76027183854E+03 -0.10902836504E+04  0.13771798294E+04  0.50400001928E-02 0.  1.
</event>
<event>
 5   0  0.7436613E-07  0.2710673E+04  0.7818609E-02  0.8331550E-01
        1   -1    0    0  501    0  0.00000000000E+00  0.00000000000E+00  0.11418000749E+04  0.11418000750E+04  0.50400001928E-02 0. -1.
       -1   -1    0    0    0  501  0.00000000000E+00  0.00000000000E+00 -0.16088076785E+04  0.16088076785E+04  0.50400001928E-02 0.  1.
    10030    2    1    2    0    0  0.00000000000E+00  0.00000000000E+00 -0.46700760358E+03  0.27506077535E+04  0.27106727784E+04 0.  0.
        2    1    3    3  502    0  0.48246358447E+03  0.75882513344E+03  0.79551201882E+03  0.12005940470E+04  0.25500000920E-02 0. -1.
       -2    1    3    3    0  502 -0.48246358447E+03 -0.75882513344E+03 -0.12625196224E+04  0.15500137065E+04  0.25500000920E-02 0.  1.
</event>
<event>
 5   0  0.7335091E-07  0.2701886E+04  0.7818609E-02  0.8334393E-01
        1   -1    0    0  501    0  0.00000000000E+00  0.00000000000E+00  0.14721148056E+04  0.14721148056E+04  0.50400001928E-02 0. -1.
       -1   -1    0    0    0  501  0.00000000000E+00  0.00000000000E+00 -0.12397446344E+04  0.12397446344E+04  0.50400001928E-02 0.  1.
    10030    2    1    2    0    0  0.00000000000E+00  0.00000000000E+00  0.23237017116E+03  0.27118594400E+04  0.27018855871E+04 0.  0.
        3    1    3    3  502    0 -0.58905747401E+02  0.19059341502E+03 -0.12248799049E+04  0.12410183434E+04  0.10100000352E+00 0.  1.
       -3    1    3    3    0  502  0.58905747401E+02 -0.19059341502E+03  0.14572500761E+04  0.14708410966E+04  0.10100000352E+00 0. -1.
</event>
<event>
 5   0  0.1991277E-06  0.2698460E+04  0.7818609E-02  0.8335505E-01
        2   -1    0    0  501    0  0.00000000000E+00  0.00000000000E+00  0.14080162275E+04  0.14080162275E+04  0.25500000920E-02 0.  1.
       -2   -1    0    0    0  501  0.00000000000E+00  0.00000000000E+00 -0.12928986271E+04  0.12928986271E+04  0.25500000920E-02 0. -1.
    10030    2    1    2    0    0  0.00000000000E+00  0.00000000000E+00  0.11511760043E+03  0.27009148546E+04  0.26984604852E+04 0.  0.
        5    1    3    3  502    0  0.11202258965E+04  0.71679043586E+02  0.80680910165E+03  0.13823917538E+04  0.46999998093E+01 0. -1.
       -5    1    3    3    0  502 -0.11202258965E+04 -0.71679043586E+02 -0.69169150122E+03  0.13185231008E+04  0.46999998093E+01 0.  1.
</event>
<event>
 5   0  0.2063087E-06  0.2698003E+04  0.7818609E-02  0.8335653E-01
       -2   -1    0    0    0  501  0.00000000000E+00  0.00000000000E+00  0.10630061816E+04  0.10630061816E+04  0.25500000920E-02 0.  1.
        2   -1    0    0  501    0  0.00000000000E+00  0.00000000000E+00 -0.17119422512E+04  0.17119422512E+04  0.25500000920E-02 0. -1.
    10030    2    1    2    0    0  0.00000000000E+00  0.00000000000E+00 -0.64893606965E+03  0.27749484328E+04  0.26980031101E+04 0.  0.
        3    1    3    3  502    0 -0.52574818191E+03  0.91545224900E+03 -0.11882658508E+04  0.15894778115E+04  0.10100000352E+00 0. -1.
       -3    1    3    3    0  502  0.52574818191E+03 -0.91545224900E+03  0.53932978111E+03  0.11854706213E+04  0.10100000352E+00 0.  1.
</event>
<event>
 5   0  0.7768032E-07  0.2664127E+04  0.7818609E-02  0.8346739E-01
       -1   -1    0    0    0  501  0.00000000000E+00  0.00000000000E+00  0.78724303828E+03  0.78724303830E+03  0.50400001928E-02 0.  1.
        1   -1    0    0  501    0  0.00000000000E+00  0.00000000000E+00 -0.22539329333E+04  0.22539329333E+04  0.50400001928E-02 0. -1.
    10030    2    1    2    0    0  0.00000000000E+00  0.00000000000E+00 -0.14666898950E+04  0.30411759716E+04  0.26641268817E+04 0.  0.
        4    1    3    3  502    0  0.12783639108E+04 -0.37435820033E+03 -0.72678268605E+03  0.15174231566E+04  0.12699999809E+01 0. -1.
       -4    1    3    3    0  502 -0.12783639108E+04  0.37435820033E+03 -0.73990720894E+03  0.15237528150E+04  0.12699999809E+01 0.  1.
</event>
<event>
 5   0  0.7566905E-07  0.2696525E+04  0.7818609E-02  0.8336133E-01
        1   -1    0    0  501    0  0.00000000000E+00  0.00000000000E+00  0.15317286128E+04  0.15317286128E+04  0.50400001928E-02 0. -1.
       -1   -1    0    0    0  501  0.00000000000E+00  0.00000000000E+00 -0.11867715042E+04  0.11867715042E+04  0.50400001928E-02 0.  1.
    10030    2    1    2    0    0  0.00000000000E+00  0.00000000000E+00  0.34495710861E+03  0.27185001170E+04  0.26965250748E+04 0.  0.
        1    1    3    3  502    0 -0.29657270025E+01 -0.68946460689E+03 -0.99560147443E+03  0.12110295354E+04  0.50400001928E-02 0.  1.
       -1    1    3    3    0  502  0.29657270025E+01  0.68946460689E+03  0.13405585830E+04  0.15074705816E+04  0.50400001928E-02 0. -1.
</event>
<event>
 5   0  0.1991277E-06  0.2711420E+04  0.7818609E-02  0.8331309E-01
       -2   -1    0    0    0  501  0.00000000000E+00  0.00000000000E+00  0.84863413086E+03  0.84863413087E+03  0.25500000920E-02 0. -1.
        2   -1    0    0  501    0  0.00000000000E+00  0.00000000000E+00 -0.21657737902E+04  0.21657737902E+04  0.25500000920E-02 0.  1.
    10030    2    1    2    0    0  0.00000000000E+00  0.00000000000E+00 -0.13171396593E+04  0.30144079211E+04  0.27114199661E+04 0.  0.
        5    1    3    3  502    0 -0.10955319561E+03 -0.51262538413E+03  0.73139649772E+03  0.89986088591E+03  0.46999998093E+01 0. -1.
       -5    1    3    3    0  502  0.10955319561E+03  0.51262538413E+03 -0.20485361570E+04  0.21145470351E+04  0.46999998093E+01 0.  1.
</event>
<event>
 5   0  0.7566905E-07  0.2700526E+04  0.7818609E-02  0.8334834E-01
        1   -1    0    0  501    0  0.00000000000E+00  0.00000000000E+00  0.11153677987E+04  0.11153677987E+04  0.50400001928E-02 0. -1.
       -1   -1    0    0    0  501  0.00000000000E+00  0.00000000000E+00 -0.16346264566E+04  0.16346264566E+04  0.50400001928E-02 0.  1.
    10030    2    1    2    0    0  0.00000000000E+00  0.00000000000E+00 -0.51925865793E+03  0.27499942553E+04  0.27005256619E+04 0.  0.
        1    1    3    3  502    0  0.78870688814E+03  0.21159552338E+03  0.83541948897E+03  0.11682281213E+04  0.50400001928E-02 0. -1.
       -1    1    3    3    0  502 -0.78870688814E+03 -0.21159552338E+03 -0.13546781469E+04  0.15817661340E+04  0.50400001928E-02 0.  1.
</event>
<event>
 5   0  0.7566905E-07  0.2700552E+04  0.7818609E-02  0.8334826E-01
        1   -1    0    0  501    0  0.00000000000E+00  0.00000000000E+00  0.22139892867E+04  0.22139892867E+04  0.50400001928E-02 0. -1.
       -1   -1    0    0    0  501  0.00000000000E+00  0.00000000000E+00 -0.82351116893E+03  0.82351116894E+03  0.50400001928E-02 0.  1.
    10030    2    1    2    0    0  0.00000000000E+00  0.00000000000E+00  0.13904781178E+04  0.30375004556E+04  0.27005517255E+04 0.  0.
        1    1    3    3  502    0  0.21691039969E+02 -0.18077627909E+03 -0.80964073717E+03  0.82986064349E+03  0.50400001928E-02 0.  1.
       -1    1    3    3    0  502 -0.21691039969E+02  0.18077627909E+03  0.22001188549E+04  0.22076398121E+04  0.50400001928E-02 0. -1.
</event>
<event>
 5   0  0.1999104E-06  0.2705518E+04  0.7818609E-02  0.8333217E-01
       -2   -1    0    0    0  501  0.00000000000E+00  0.00000000000E+00  0.12576795949E+04  0.12576795949E+04  0.25500000920E-02 0. -1.
        2   -1    0    0  501    0  0.00000000000E+00  0.00000000000E+00 -0.14550260190E+04  0.14550260191E+04  0.25500000920E-02 0.  1.
    10030    2    1    2    0    0  0.00000000000E+00  0.00000000000E+00 -0.19734642414E+03  0.27127056140E+04  0.27055177207E+04 0.  0.
        4    1    3    3  502    0  0.78287045390E+02 -0.10723375086E+04  0.72443307135E+03  0.12964727076E+04  0.12699999809E+01 0. -1.
       -4    1    3    3    0  502 -0.78287045390E+02  0.10723375086E+04 -0.92177949548E+03  0.14162329063E+04  0.12699999809E+01 0.  1.
</event>
<event>
 5   0  0.7335091E-07  0.2702436E+04  0.7818609E-02  0.8334215E-01
        1   -1    0    0  501    0  0.00000000000E+00  0.00000000000E+00  0.13483494347E+04  0.13483494347E+04  0.50400001928E-02 0. -1.
       -1   -1    0    0    0  501  0.00000000000E+00  0.00000000000E+00 -0.13540926995E+04  0.13540926996E+04  0.50400001928E-02 0.  1.
    10030    2    1    2    0    0  0.00000000000E+00  0.00000000000E+00 -0.57432648278E+01  0.27024421343E+04  0.27024360314E+04 0.  0.
        3    1    3    3  502    0  0.91424793425E+02 -0.88794320143E+03 -0.10172646240E+04  0.13533768682E+04  0.10100000352E+00 0.  1.
       -3    1    3    3    0  502 -0.91424793425E+02  0.88794320143E+03  0.10115213592E+04  0.13490652661E+04  0.10100000352E+00 0. -1.
</event>
<event>
 5   0  0.7335091E-07  0.2699631E+04  0.7818609E-02  0.8335125E-01
       -1   -1    0    0    0  501  0.00000000000E+00  0.00000000000E+00  0.12494426005E+04  0.12494426005E+04  0.50400001928E-02 0. -1.
        1   -1    0    0  501    0  0.00000000000E+00  0.00000000000E+00 -0.14582521640E+04  0.14582521640E+04  0.50400001928E-02 0.  1.
    10030    2    1    2    0    0  0.00000000000E+00  0.00000000000E+00 -0.20880956345E+03  0.27076947645E+04  0.26996313644E+04 0.  0.
        3    1    3    3  502    0  0.12651748148E+04  0.39590528576E+03 -0.35931751319E+03  0.13735055124E+04  0.10100000352E+00 0.  1.
       -3    1    3    3    0  502 -0.12651748148E+04 -0.39590528576E+03  0.15050794975E+03  0.13341892521E+04  0.10100000352E+00 0. -1.
</event>
<event>
 5   0  0.7566905E-07  0.2709371E+04  0.7818609E-02  0.8331971E-01
        1   -1    0    0  501    0  0.00000000000E+00  0.00000000000E+00  0.15560492133E+04  0.15560492133E+04  0.50400001928E-02 0.  1.
       -1   -1    0    0    0  501  0.00000000000E+00  0.00000000000E+00 -0.11793797396E+04  0.11793797396E+04  0.50400001928E-02 0. -1.
    10030    2    1    2    0    0  0.00000000000E+00  0.00000000000E+00  0.37666947368E+03  0.27354289529E+04  0.27093710827E+04 0.  0.
        1    1    3    3  502    0  0.75751919475E+03  0.83130690621E+03  0.95075748381E+03  0.14727003415E+04  0.50400001928E-02 0.  1.
       -1    1    3    3    0  502 -0.75751919475E+03 -0.83130690621E+03 -0.57408801014E+03  0.12627286114E+04  0.50400001928E-02 0. -1.
</event>
<event>
 5   0  0.7806808E-07  0.2701487E+04  0.7818609E-02  0.8334523E-01
        1   -1    0    0  501    0  0.00000000000E+00  0.00000000000E+00  0.95272116180E+03  0.95272116182E+03  0.50400001928E-02 0.  1.
       -1   -1    0    0    0  501  0.00000000000E+00  0.00000000000E+00 -0.19150498425E+04  0.19150498425E+04  0.50400001928E-02 0. -1.
    10030    2    1    2    0    0  0.00000000000E+00  0.00000000000E+00 -0.96232868071E+03  0.28677710043E+04  0.27014873762E+04 0.  0.
        5    1    3    3  502    0  0.19016354393E+03 -0.88185497570E+03  0.58602927116E+03  0.10757707787E+04  0.46999998093E+01 0.  1.
       -5    1    3    3    0  502 -0.19016354393E+03  0.88185497570E+03 -0.15483579519E+04  0.17920002257E+04  0.46999998093E+01 0. -1.
</event>
<event>
 5   0  0.7806808E-07  0.2703218E+04  0.7818609E-02  0.8333962E-01
        1   -1    0    0  501    0  0.00000000000E+00  0.00000000000E+00  0.76509272009E+03  0.76509272011E+03  0.50400001928E-02 0. -1.
       -1   -1    0    0    0  501  0.00000000000E+00  0.00000000000E+00 -0.23877456198E+04  0.23877456198E+04  0.50400001928E-02 0.  1.
    10030    2    1    2    0    0  0.00000000000E+00  0.00000000000E+00 -0.16226528997E+04  0.31528383399E+04  0.27032179277E+04 0.  0.
        5    1    3    3  502    0 -0.15098912805E+03 -0.64790006224E+03  0.56090794728E+03  0.87017930495E+03  0.46999998093E+01 0. -1.
       -5    1    3    3    0  502  0.15098912805E+03  0.64790006224E+03 -0.21835608470E+04  0.22826590349E+04  0.46999998093E+01 0.  1.
</event>
<event>
 5   0  0.7436613E-07  0.2707871E+04  0.7818609E-02  0.8332456E-01
        1   -1    0    0  501    0  0.00000000000E+00  0.00000000000E+00  0.13607325680E+04  0.13607325680E+04  0.50400001928E-02 0. -1.
       -1   -1    0    0    0  501  0.00000000000E+00  0.00000000000E+00 -0.13471720933E+04  0.13471720934E+04  0.50400001928E-02 0.  1.
    10030    2    1    2    0    0  0.00000000000E+00  0.00000000000E+00  0.13560474689E+02  0.27079046614E+04  0.27078707075E+04 0.  0.
        2    1    3    3  502    0  0.21579800819E+03  0.12190938816E+04  0.55485851893E+03  0.13566969627E+04  0.25500000920E-02 0. -1.
       -2    1    3    3    0  502 -0.21579800819E+03 -0.12190938816E+04 -0.54129804425E+03  0.13512076987E+04  0.25500000920E-02 0.  1.
</event>
<event>
 5   0  0.7436613E-07  0.2702493E+04  0.7818609E-02  0.8334196E-01
        1   -1    0    0  501    0  0.00000000000E+00  0.00000000000E+00  0.16579498106E+04  0.16579498106E+04  0.50400001928E-02 0.  1.
       -1   -1    0    0    0  501  0.00000000000E+00  0.00000000000E+00 -0.11012804609E+04  0.11012804610E+04  0.50400001928E-02 0. -1.
    10030    2    1    2    0    0  0.00000000000E+00  0.00000000000E+00  0.55666934969E+03  0.27592302716E+04  0.27024934647E+04 0.  0.
        2    1    3    3  502    0  0.35132266151E+03  0.13022536717E+04  0.36112650468E+03  0.13963182267E+04  0.25500000920E-02 0. -1.
       -2    1    3    3    0  502 -0.35132266151E+03 -0.13022536717E+04  0.19554284501E+03  0.13629120449E+04  0.25500000920E-02 0.  1.
</event>
<event>
 5   0  0.7436613E-07  0.2696499E+04  0.7818609E-02  0.8336142E-01
       -1   -1    0    0    0  501  0.00000000000E+00  0.00000000000E+00  0.66964914146E+03  0.66964914148E+03  0.50400001928E-02 0.  1.
        1   -1    0    0  501    0  0.00000000000E+00  0.00000000000E+00 -0.27145209196E+04  0.27145209196E+04  0.50400001928E-02 0. -1.
    10030    2    1    2    0    0  0.00000000000E+00  0.00000000000E+00 -0.20448717781E+04  0.33841700611E+04  0.26964989177E+04 0.  0.
        2    1    3    3  502    0 -0.65811280872E+02  0.76186681473E+03  0.37115162996E+03  0.85001511780E+03  0.25500000920E-02 0.  1.
       -2    1    3    3    0  502  0.65811280872E+02 -0.76186681473E+03 -0.24160234081E+04  0.25341549432E+04  0.25500000920E-02 0. -1.
</event>
<event>
 5   0  0.1991277E-06  0.2699003E+04  0.7818609E-02  0.8335329E-01
        2   -1    0    0  501    0  0.00000000000E+00  0.00000000000E+00  0.28874876190E+04  0.28874876190E+04  0.25500000920E-02 0. -1.
       -2   -1    0    0    0  501  0.00000000000E+00  0.00000000000E+00 -0.63070552813E+03  0.63070552814E+03  0.25500000920E-02 0.  1.
    10030    2    1    2    0    0  0.00000000000E+00  0.00000000000E+00  0.22567820909E+04  0.35181931472E+04  0.26990030780E+04 0.  0.
        5    1    3    3  502    0 -0.11117605407E+04  0.22792510849E+03  0.17658262746E+03  0.11485490278E+04  0.46999998093E+01 0.  1.
       -5    1    3    3    0  502  0.11117605407E+04 -0.22792510849E+03  0.20801994634E+04  0.23696441194E+04  0.46999998093E+01 0. -1.
</event>
<event>
 5   0  0.7566905E-07  0.2703116E+04  0.7818609E-02  0.8333995E-01
        1   -1    0    0  501    0  0.00000000000E+00  0.00000000000E+00  0.15543582797E+04  0.15543582797E+04  0.50400001928E-02 0.  1.
       -1   -1    0    0    0  501  0.00000000000E+00  0.00000000000E+00 -0.11752174284E+04  0.11752174284E+04  0.50400001928E-02 0. -1.
    10030    2    1    2    0    0  0.00000000000E+00  0.00000000000E+00  0.37914085123E+03  0.27295757081E+04  0.27031159356E+04 0.  0.
        1    1    3    3  502    0  0.55128550360E+03  0.12208193289E+04  0.78269878857E+01  0.13395435051E+04  0.50400001928E-02 0. -1.
       -1    1    3    3    0  502 -0.55128550360E+03 -0.12208193289E+04  0.37131386334E+03  0.13900322030E+04  0.50400001928E-02 0.  1.
</event>
<event>
 5   0  0.6561875E-07  0.2683748E+04  0.7818609E-02  0.8340297E-01
        3   -1    0    0  501    0  0.00000000000E+00  0.00000000000E+00  0.22526489411E+04  0.22526489434E+04  0.10100000352E+00 0.  1.
       -3   -1    0    0    0  501  0.00000000000E+00  0.00000000000E+00 -0.79933713319E+03  0.79933713957E+03  0.10100000352E+00 0. -1.
    10030    2    1    2    0    0  0.00000000000E+00  0.00000000000E+00  0.14533118079E+04  0.30519860830E+04  0.26837480954E+04 0.  0.
        5    1    3    3  502    0  0.48589726095E+03  0.45394772100E+03  0.20520984298E+04  0.21571496789E+04  0.46999998093E+01 0.  1.
       -5    1    3    3    0  502 -0.48589726095E+03 -0.45394772100E+03 -0.59878662184E+03  0.89483640409E+03  0.46999998093E+01 0. -1.
</event>
<event>
 5   0  0.1991277E-06  0.2703480E+04  0.7818609E-02  0.8333877E-01
        2   -1    0    0  501    0  0.00000000000E+00  0.00000000000E+00  0.20630817443E+04  0.20630817443E+04  0.25500000920E-02 0.  1.
       -2   -1    0    0    0  501  0.00000000000E+00  0.00000000000E+00 -0.88566584617E+03  0.88566584618E+03  0.25500000920E-02 0. -1.
    10030    2    1    2    0    0  0.00000000000E+00  0.00000000000E+00  0.11774158981E+04  0.29487475905E+04  0.27034800083E+04 0.  0.
        5    1    3    3  502    0 -0.79822541044E+03  0.18267558284E+03  0.17617523115E+04  0.19427628449E+04  0.46999998093E+01 0.  1.
       -5    1    3    3    0  502  0.79822541044E+03 -0.18267558284E+03 -0.58433641334E+03  0.10059847456E+04  0.46999998093E+01 0. -1.
</event>
<event>
 5   0  0.7768032E-07  0.2698927E+04  0.7818609E-02  0.8335353E-01
        1   -1    0    0  501    0  0.00000000000E+00  0.00000000000E+00  0.13251246755E+04  0.13251246755E+04  0.50400001928E-02 0. -1.
       -1   -1    0    0    0  501  0.00000000000E+00  0.00000000000E+00 -0.13742496818E+04  0.13742496818E+04  0.50400001928E-02 0.  1.
    10030    2    1    2    0    0  0.00000000000E+00  0.00000000000E+00 -0.49125006279E+02  0.26993743573E+04  0.26989273156E+04 0.  0.
        4    1    3    3  502    0 -0.74770839220E+02 -0.22567539479E+03 -0.13531388387E+04  0.13738654927E+04  0.12699999809E+01 0.  1.
       -4    1    3    3    0  502  0.74770839220E+02  0.22567539479E+03  0.13040138324E+04  0.13255088646E+04  0.12699999809E+01 0. -1.
</event>
<event>
 5   0  0.1999104E-06  0.2700047E+04  0.7818609E-02  0.8334990E-01
       -2   -1    0    0    0  501  0.00000000000E+00  0.00000000000E+00  0.99083462250E+03  0.99083462250E+03  0.25500000920E-02 0.  1.
        2   -1    0    0  501    0  0.00000000000E+00  0.00000000000E+00 -0.18394220448E+04  0.18394220448E+04  0.25500000920E-02 0. -1.
    10030    2    1    2    0    0  0.00000000000E+00  0.00000000000E+00 -0.84858742225E+03  0.28302566673E+04  0.27000467013E+04 0.  0.
        4    1    3    3  502    0  0.97127821687E+03 -0.84573297872E+03  0.96091351594E-01  0.12878848039E+04  0.12699999809E+01 0.  1.
       -4    1    3    3    0  502 -0.97127821687E+03  0.84573297872E+03 -0.84868351360E+03  0.15423718634E+04  0.12699999809E+01 0. -1.
</event>
<event>
 5   0  0.2030645E-06  0.2687640E+04  0.7818609E-02  0.8339026E-01
        2   -1    0    0  501    0  0.00000000000E+00  0.00000000000E+00  0.15345594605E+04  0.15345594605E+04  0.25500000920E-02 0.  1.
       -2   -1    0    0    0  501  0.00000000000E+00  0.00000000000E+00 -0.11767890008E+04  0.11767890008E+04  0.25500000920E-02 0. -1.
    10030    2    1    2    0    0  0.00000000000E+00  0.00000000000E+00  0.35777045962E+03  0.27113484613E+04  0.26876403734E+04 0.  0.
        1    1    3    3  502    0  0.96997038495E+03  0.11399186964E+03  0.11100746979E+04  0.14785474389E+04  0.50400001928E-02 0.  1.
       -1    1    3    3    0  502 -0.96997038495E+03 -0.11399186964E+03 -0.75230423828E+03  0.12328010225E+04  0.50400001928E-02 0. -1.
</event>
<event>
 5   0  0.7335091E-07  0.2700701E+04  0.7818609E-02  0.8334778E-01
        1   -1    0    0  501    0  0.00000000000E+00  0.00000000000E+00  0.11611792737E+04  0.11611792737E+04  0.50400001928E-02 0. -1.
       -1   -1    0    0    0  501  0.00000000000E+00  0.00000000000E+00 -0.15703397241E+04  0.15703397241E+04  0.50400001928E-02 0.  1.
    10030    2    1    2    0    0  0.00000000000E+00  0.00000000000E+00 -0.40916045038E+03  0.27315189978E+04  0.27007006056E+04 0.  0.
        3    1    3    3  502    0  0.32990901556E+03 -0.11745626102E+04 -0.78998436797E+03  0.14534485184E+04  0.10100000352E+00 0. -1.
       -3    1    3    3    0  502 -0.32990901556E+03  0.11745626102E+04  0.38082391759E+03  0.12780704794E+04  0.10100000352E+00 0.  1.
</event>
<event>
 5   0  0.2063087E-06  0.2701120E+04  0.7818609E-02  0.8334642E-01
       -2   -1    0    0    0  501  0.00000000000E+00  0.00000000000E+00  0.72462423049E+03  0.72462423050E+03  0.25500000920E-02 0. -1.
        2   -1    0    0  501    0  0.00000000000E+00  0.00000000000E+00 -0.25171845715E+04  0.25171845716E+04  0.25500000920E-02 0.  1.
    10030    2    1    2    0    0  0.00000000000E+00  0.00000000000E+00 -0.17925603411E+04  0.32418088020E+04  0.27011204588E+04 0.  0.
        3    1    3    3  502    0  0.39586845350E+03  0.78445895887E+03 -0.21272173263E+04  0.23015519230E+04  0.10100000352E+00 0.  1.
       -3    1    3    3    0  502 -0.39586845350E+03 -0.78445895887E+03  0.33465698526E+03  0.94025687906E+03  0.10100000352E+00 0. -1.
</event>
<event>
 5   0  0.7768032E-07  0.2699070E+04  0.7818609E-02  0.8335307E-01
       -1   -1    0    0    0  501  0.00000000000E+00  0.00000000000E+00  0.11893829405E+04  0.11893829405E+04  0.50400001928E-02 0.  1.
        1   -1    0    0  501    0  0.00000000000E+00  0.00000000000E+00 -0.15312516165E+04  0.15312516165E+04  0.50400001928E-02 0. -1.
    10030    2    1    2    0    0  0.00000000000E+00  0.00000000000E+00 -0.34186867608E+03  0.27206345570E+04  0.26990698770E+04 0.  0.
        4    1    3    3  502    0  0.62168436264E+03 -0.11726451293E+04 -0.41712927184E+03  0.13912535672E+04  0.12699999809E+01 0. -1.
       -4    1    3    3    0  502 -0.62168436264E+03  0.11726451293E+04  0.75260595761E+02  0.13293809898E+04  0.12699999809E+01 0.  1.
</event>
<event>
 5   0  0.1932012E-06  0.2700803E+04  0.7818609E-02  0.8334744E-01
       -2   -1    0    0    0  501  0.00000000000E+00  0.00000000000E+00  0.12780583990E+04  0.12780583990E+04  0.25500000920E-02 0. -1.
        2   -1    0    0  501    0  0.00000000000E+00  0.00000000000E+00 -0.14268400129E+04  0.14268400129E+04  0.25500000920E-02 0.  1.
    10030    2    1    2    0    0  0.00000000000E+00  0.00000000000E+00 -0.14878161390E+03  0.27048984120E+04  0.27008034824E+04 0.  0.
        2    1    3    3  502    0 -0.80778060099E+03 -0.37065603672E+02  0.10087763876E+04  0.12928701243E+04  0.25500000920E-02 0. -1.
       -2    1    3    3    0  502  0.80778060099E+03  0.37065603672E+02 -0.11575580015E+04  0.14120282876E+04  0.25500000920E-02 0.  1.
</event>
<event>
 5   0  0.7768032E-07  0.2699270E+04  0.7818609E-02  0.8335242E-01
        1   -1    0    0  501    0  0.00000000000E+00  0.00000000000E+00  0.18626321937E+04  0.18626321937E+04  0.50400001928E-02 0. -1.
       -1   -1    0    0    0  501  0.00000000000E+00  0.00000000000E+00 -0.97792470126E+03  0.97792470127E+03  0.50400001928E-02 0.  1.
    10030    2    1    2    0    0  0.00000000000E+00  0.00000000000E+00  0.88470749247E+03  0.28405568950E+04  0.26992695543E+04 0.  0.
        4    1    3    3  502    0 -0.11255838960E+04 -0.57274064297E+03  0.94323074803E+03  0.15762794194E+04  0.12699999809E+01 0.  1.
       -4    1    3    3    0  502  0.11255838960E+04  0.57274064297E+03 -0.58523255564E+02  0.12642774756E+04  0.12699999809E+01 0. -1.
</event>
<event>
 5   0  0.7566905E-07  0.2699771E+04  0.7818609E-02  0.8335079E-01
        1   -1    0    0  501    0  0.00000000000E+00  0.00000000000E+00  0.13117283805E+04  0.13117283805E+04  0.50400001928E-02 0.  1.
       -1   -1    0    0    0  501  0.00000000000E+00  0.00000000000E+00 -0.13891528325E+04  0.13891528325E+04  0.50400001928E-02 0. -1.
    10030    2    1    2    0    0  0.00000000000E+00  0.00000000000E+00 -0.77424451960E+02  0.27008812130E+04  0.26997712461E+04 0.  0.
        1    1    3    3  502    0 -0.82679833879E+02  0.13275064628E+04  0.19177744415E+03  0.13438333051E+04  0.50400001928E-02 0. -1.
       -1    1    3    3    0  502  0.82679833879E+02 -0.13275064628E+04 -0.26920189611E+03  0.13570479080E+04  0.50400001928E-02 0.  1.
</event>
<event>
 5   0  0.7436613E-07  0.2785507E+04  0.7818609E-02  0.8307782E-01
        1   -1    0    0  501    0  0.00000000000E+00  0.00000000000E+00  0.14066682622E+04  0.14066682622E+04  0.50400001928E-02 0. -1.
       -1   -1    0    0    0  501  0.00000000000E+00  0.00000000000E+00 -0.13789762712E+04  0.13789762712E+04  0.50400001928E-02 0.  1.
    10030    2    1    2    0    0  0.00000000000E+00  0.00000000000E+00  0.27691991011E+02  0.27856445334E+04  0.27855068874E+04 0.  0.
        2    1    3    3  502    0  0.93706145702E+03 -0.43974432572E+03  0.94571976663E+03  0.14020859900E+04  0.25500000920E-02 0. -1.
       -2    1    3    3    0  502 -0.93706145702E+03  0.43974432572E+03 -0.91802777562E+03  0.13835585434E+04  0.25500000920E-02 0.  1.
</event>
<event>
 5   0  0.1932012E-06  0.2701330E+04  0.7818609E-02  0.8334573E-01
        2   -1    0    0  501    0  0.00000000000E+00  0.00000000000E+00  0.27444657382E+04  0.27444657382E+04  0.25500000920E-02 0. -1.
       -2   -1    0    0    0  501  0.00000000000E+00  0.00000000000E+00 -0.66471820985E+03  0.66471820985E+03  0.25500000920E-02 0.  1.
    10030    2    1    2    0    0  0.00000000000E+00  0.00000000000E+00  0.20797475284E+04  0.34091839481E+04  0.27013303038E+04 0.  0.
        2    1    3    3  502    0  0.42025550689E+03 -0.12789430963E+04  0.90170374234E+03  0.16203023711E+04  0.25500000920E-02 0.  1.
       -2    1    3    3    0  502 -0.42025550689E+03  0.12789430963E+04  0.11780437860E+04  0.17888815770E+04  0.25500000920E-02 0. -1.
</event>
<event>
 5   0  0.2030645E-06  0.2702534E+04  0.7818609E-02  0.8334183E-01
        2   -1    0    0  501    0  0.00000000000E+00  0.00000000000E+00  0.18566283813E+04  0.18566283813E+04  0.25500000920E-02 0. -1.
       -2   -1    0    0    0  501  0.00000000000E+00  0.00000000000E+00 -0.98346124607E+03  0.98346124607E+03  0.25500000920E-02 0.  1.
    10030    2    1    2    0    0  0.00000000000E+00  0.00000000000E+00  0.87316713521E+03  0.28400896274E+04  0.27025336715E+04 0.  0.
        1    1    3    3  502    0 -0.26804863726E+03  0.70951135520E+02  0.18264099308E+04  0.18473379147E+04  0.50400001928E-02 0. -1.
       -1    1    3    3    0  502  0.26804863726E+03 -0.70951135520E+02 -0.95324279562E+03  0.99275171267E+03  0.50400001928E-02 0.  1.
</event>
<event>
 5   0  0.7436613E-07  0.2687705E+04  0.7818609E-02  0.8339005E-01
        1   -1    0    0  501    0  0.00000000000E+00  0.00000000000E+00  0.22080514230E+04  0.22080514231E+04  0.50400001928E-02 0. -1.
       -1   -1    0    0    0  501  0.00000000000E+00  0.00000000000E+00 -0.81788850475E+03  0.81788850476E+03  0.50400001928E-02 0.  1.
    10030    2    1    2    0    0  0.00000000000E+00  0.00000000000E+00  0.13901629183E+04  0.30259399278E+04  0.26877052493E+04 0.  0.
        2    1    3    3  502    0  0.90610728087E+03  0.60363423040E+03 -0.19179243105E+03  0.11055265828E+04  0.25500000920E-02 0.  1.
       -2    1    3    3    0  502 -0.90610728087E+03 -0.60363423040E+03  0.15819553494E+04  0.19204133451E+04  0.25500000920E-02 0. -1.
</event>
<event>
 5   0  0.2030645E-06  0.2699023E+04  0.7818609E-02  0.8335322E-01
       -2   -1    0    0    0  501  0.00000000000E+00  0.00000000000E+00  0.28098535986E+04  0.28098535986E+04  0.25500000920E-02 0.  1.
        2   -1    0    0  501    0  0.00000000000E+00  0.00000000000E+00 -0.64814076238E+03  0.64814076239E+03  0.25500000920E-02 0. -1.
    10030    2    1    2    0    0  0.00000000000E+00  0.00000000000E+00  0.21617128362E+04  0.34579943610E+04  0.26990225294E+04 0.  0.
        1    1    3    3  502    0 -0.10330097177E+04 -0.58515260709E+03  0.19028933458E+04  0.22428811239E+04  0.50400001928E-02 0.  1.
       -1    1    3    3    0  502  0.10330097177E+04  0.58515260709E+03  0.25881949043E+03  0.12151132371E+04  0.50400001928E-02 0. -1.
</event>
<event>
 5   0  0.7566905E-07  0.2700986E+04  0.7818609E-02  0.8334685E-01
       -1   -1    0    0    0  501  0.00000000000E+00  0.00000000000E+00  0.99985227399E+03  0.99985227400E+03  0.50400001928E-02 0.  1.
        1   -1    0    0  501    0  0.00000000000E+00  0.00000000000E+00 -0.18241003571E+04  0.18241003571E+04  0.50400001928E-02 0. -1.
    10030    2    1    2    0    0  0.00000000000E+00  0.00000000000E+00 -0.82424808309E+03  0.28239526311E+04  0.27009856646E+04 0.  0.
        1    1    3    3  502    0  0.87857048050E+03 -0.97386768409E+03 -0.75720184126E+02  0.13137876166E+04  0.50400001928E-02 0.  1.
       -1    1    3    3    0  502 -0.87857048050E+03  0.97386768409E+03 -0.74852789897E+03  0.15101650145E+04  0.50400001928E-02 0. -1.
</event>
<event>
 5   0  0.1991277E-06  0.2700964E+04  0.7818609E-02  0.8334692E-01
        2   -1    0    0  501    0  0.00000000000E+00  0.00000000000E+00  0.56549866282E+03  0.56549866283E+03  0.25500000920E-02 0. -1.
       -2   -1    0    0    0  501  0.00000000000E+00  0.00000000000E+00 -0.32251221754E+04  0.32251221754E+04  0.25500000920E-02 0.  1.
    10030    2    1    2    0    0  0.00000000000E+00  0.00000000000E+00 -0.26596235126E+04  0.37906208382E+04  0.27009644778E+04 0.  0.
        5    1    3    3  502    0  0.28108678070E+03 -0.17468935834E+03 -0.31673190164E+04  0.31845655892E+04  0.46999998093E+01 0.  1.
       -5    1    3    3    0  502 -0.28108678070E+03  0.17468935834E+03  0.50769550387E+03  0.60605524900E+03  0.46999998093E+01 0. -1.
</event>
<event>
 5   0  0.1999104E-06  0.2703471E+04  0.7818609E-02  0.8333880E-01
        2   -1    0    0  501    0  0.00000000000E+00  0.00000000000E+00  0.16764229596E+04  0.16764229596E+04  0.25500000920E-02 0. -1.
       -2   -1    0    0    0  501  0.00000000000E+00  0.00000000000E+00 -0.10899331139E+04  0.10899331139E+04  0.25500000920E-02 0.  1.
    10030    2    1    2    0    0  0.00000000000E+00  0.00000000000E+00  0.58648984569E+03  0.27663560735E+04  0.27034710256E+04 0.  0.
        4    1    3    3  502    0  0.12532847365E+04  0.43806431255E+03  0.33239371475E+02  0.13280547585E+04  0.12699999809E+01 0.  1.
       -4    1    3    3    0  502 -0.12532847365E+04 -0.43806431255E+03  0.55325047422E+03  0.14383013150E+04  0.12699999809E+01 0. -1.
</event>
<event>
 5   0  0.1999104E-06  0.2700455E+04  0.7818609E-02  0.8334857E-01
        2   -1    0    0  501    0  0.00000000000E+00  0.00000000000E+00  0.15832864696E+04  0.15832864696E+04  0.25500000920E-02 0. -1.
       -2   -1    0    0    0  501  0.00000000000E+00  0.00000000000E+00 -0.11514749273E+04  0.11514749273E+04  0.25500000920E-02 0.  1.
    10030    2    1    2    0    0  0.00000000000E+00  0.00000000000E+00  0.43181154224E+03  0.27347613969E+04  0.27004552746E+04 0.  0.
        4    1    3    3  502    0 -0.29728069414E+03 -0.66518920506E+03 -0.93531203594E+03  0.11856064723E+04  0.12699999809E+01 0.  1.
       -4    1    3    3    0  502  0.29728069414E+03  0.66518920506E+03  0.13671235782E+04  0.15491549247E+04  0.12699999809E+01 0. -1.
</event>
<event>
 5   0  0.7436613E-07  0.2701429E+04  0.7818609E-02  0.8334542E-01
       -1   -1    0    0    0  501  0.00000000000E+00  0.00000000000E+00  0.18159719517E+04  0.18159719517E+04  0.50400001928E-02 0. -1.
        1   -1    0    0  501    0  0.00000000000E+00  0.00000000000E+00 -0.10046571561E+04  0.10046571561E+04  0.50400001928E-02 0.  1.
    10030    2    1    2    0    0  0.00000000000E+00  0.00000000000E+00  0.81131479562E+03  0.28206291078E+04  0.27014286713E+04 0.  0.
        2    1    3    3  502    0  0.11182900281E+04 -0.51097896862E+03 -0.17826627636E+03  0.12423570174E+04  0.25500000920E-02 0.  1.
       -2    1    3    3    0  502 -0.11182900281E+04  0.51097896862E+03  0.98958107198E+03  0.15782720904E+04  0.25500000920E-02 0. -1.
</event>
<event>
 5   0  0.7335091E-07  0.2701198E+04  0.7818609E-02  0.8334617E-01
        1   -1    0    0  501    0  0.00000000000E+00  0.00000000000E+00  0.11442486375E+04  0.11442486375E+04  0.50400001928E-02 0. -1.
       -1   -1    0    0    0  501  0.00000000000E+00  0.00000000000E+00 -0.15941614223E+04  0.15941614223E+04  0.50400001928E-02 0.  1.
    10030    2    1    2    0    0  0.00000000000E+00  0.00000000000E+00 -0.44991278475E+03  0.27384100598E+04  0.27011975384E+04 0.  0.
        3    1    3    3  502    0  0.13442393899E+04  0.64338346498E+02 -0.34053607325E+03  0.13881944343E+04  0.10100000352E+00 0. -1.
       -3    1    3    3    0  502 -0.13442393899E+04 -0.64338346498E+02 -0.10937671150E+03  0.13502156255E+04  0.10100000352E+00 0.  1.
</event>
<event>
 5   0  0.7806808E-07  0.2698832E+04  0.7818609E-02  0.8335384E-01
       -1   -1    0    0    0  501  0.00000000000E+00  0.00000000000E+00  0.96397502279E+03  0.96397502280E+03  0.50400001928E-02 0. -1.
        1   -1    0    0  501    0  0.00000000000E+00  0.00000000000E+00 -0.18889732763E+04  0.18889732763E+04  0.50400001928E-02 0.  1.
    10030    2    1    2    0    0  0.00000000000E+00  0.00000000000E+00 -0.92499825347E+03  0.28529482991E+04  0.26988316413E+04 0.  0.
        5    1    3    3  502    0  0.10187997957E+04 -0.25725116482E+02 -0.13974761367E+04  0.17296174282E+04  0.46999998093E+01 0.  1.
       -5    1    3    3    0  502 -0.10187997957E+04  0.25725116482E+02  0.47247788327E+03  0.11233308709E+04  0.46999998093E+01 0. -1.
</event>
<event>
 5   0  0.1999104E-06  0.2717079E+04  0.7818609E-02  0.8329485E-01
        2   -1    0    0  501    0  0.00000000000E+00  0.00000000000E+00  0.14812865214E+04  0.14812865214E+04  0.25500000920E-02 0. -1.
       -2   -1    0    0    0  501  0.00000000000E+00  0.00000000000E+00 -0.12459638224E+04  0.12459638224E+04  0.25500000920E-02 0.  1.
    10030    2    1    2    0    0  0.00000000000E+00  0.00000000000E+00  0.23532269899E+03  0.27272503438E+04  0.27170788846E+04 0.  0.
        4    1    3    3  502    0  0.79648792704E+03 -0.51792511993E+03 -0.85704977498E+03  0.12795215424E+04  0.12699999809E+01 0.  1.
       -4    1    3    3    0  502 -0.79648792704E+03  0.51792511993E+03  0.10923724740E+04  0.14477288014E+04  0.12699999809E+01 0. -1.
</event>
<event>
 5   0  0.1991277E-06  0.2701161E+04  0.7818609E-02  0.8334628E-01
        2   -1    0    0  501    0  0.00000000000E+00  0.00000000000E+00  0.23107349295E+04  0.23107349295E+04  0.25500000920E-02 0.  1.
       -2   -1    0    0    0  501  0.00000000000E+00  0.00000000000E+00 -0.78938830568E+03  0.78938830568E+03  0.25500000920E-02 0. -1.
    10030    2    1    2    0    0  0.00000000000E+00  0.00000000000E+00  0.15213466238E+04  0.31001232352E+04  0.27011605883E+04 0.  0.
        5    1    3    3  502    0  0.82751506936E+03 -0.97669142313E+03  0.26657831574E+03  0.13075906907E+04  0.46999998093E+01 0. -1.
       -5    1    3    3    0  502 -0.82751506936E+03  0.97669142313E+03  0.12547683081E+04  0.17925325445E+04  0.46999998093E+01 0.  1.
</event>
<event>
 5   0  0.2030645E-06  0.2694661E+04  0.7818609E-02  0.8336739E-01
       -2   -1    0    0    0  501  0.00000000000E+00  0.00000000000E+00  0.85035051344E+03  0.85035051344E+03  0.25500000920E-02 0.  1.
        2   -1    0    0  501    0  0.00000000000E+00  0.00000000000E+00 -0.21347655656E+04  0.21347655657E+04  0.25500000920E-02 0. -1.
    10030    2    1    2    0    0  0.00000000000E+00  0.00000000000E+00 -0.12844150522E+04  0.29851160791E+04  0.26946606427E+04 0.  0.
        1    1    3    3  502    0 -0.13366924540E+02  0.80614186082E+03  0.55361780183E+03  0.97802660749E+03  0.50400001928E-02 0.  1.
       -1    1    3    3    0  502  0.13366924540E+02 -0.80614186082E+03 -0.18380328540E+04  0.20070894716E+04  0.50400001928E-02 0. -1.
</event>
<event>
 5   0  0.2030645E-06  0.2700449E+04  0.7818609E-02  0.8334859E-01
       -2   -1    0    0    0  501  0.00000000000E+00  0.00000000000E+00  0.12120900240E+04  0.12120900240E+04  0.25500000920E-02 0.  1.
        2   -1    0    0  501    0  0.00000000000E+00  0.00000000000E+00 -0.15041015073E+04  0.15041015073E+04  0.25500000920E-02 0. -1.
    10030    2    1    2    0    0  0.00000000000E+00  0.00000000000E+00 -0.29201148327E+03  0.27161915313E+04  0.27004491716E+04 0.  0.
        1    1    3    3  502    0  0.64385425938E+03  0.11580519056E+03 -0.13340549035E+04  0.14858201893E+04  0.50400001928E-02 0. -1.
       -1    1    3    3    0  502 -0.64385425938E+03 -0.11580519056E+03  0.10420434202E+04  0.12303713420E+04  0.50400001928E-02 0.  1.
</event>
<event>
 5   0  0.6561875E-07  0.2714822E+04  0.7818609E-02  0.8330212E-01
       -3   -1    0    0    0  501  0.00000000000E+00  0.00000000000E+00  0.16692370694E+04  0.16692370725E+04  0.10100000352E+00 0. -1.
        3   -1    0    0  501    0  0.00000000000E+00  0.00000000000E+00 -0.11038365145E+04  0.11038365192E+04  0.10100000352E+00 0.  1.
    10030    2    1    2    0    0  0.00000000000E+00  0.00000000000E+00  0.56540055490E+03  0.27730735917E+04  0.27148221594E+04 0.  0.
        4    1    3    3  502    0  0.11286399756E+04 -0.61797761773E+03 -0.15882281544E+03  0.12965148785E+04  0.12699999809E+01 0.  1.
       -4    1    3    3    0  502 -0.11286399756E+04  0.61797761773E+03  0.72422337034E+03  0.14765587132E+04  0.12699999809E+01 0. -1.
</event>
<event>
 5   0  0.6561875E-07  0.2699547E+04  0.7818609E-02  0.8335152E-01
        3   -1    0    0  501    0  0.00000000000E+00  0.00000000000E+00  0.83705082131E+03  0.83705082740E+03  0.10100000352E+00 0. -1.
       -3   -1    0    0    0  501  0.00000000000E+00  0.00000000000E+00 -0.21765564949E+04  0.21765564972E+04  0.10100000352E+00 0.  1.
    10030    2    1    2    0    0  0.00000000000E+00  0.00000000000E+00 -0.13395056735E+04  0.30136073246E+04  0.26995469356E+04 0.  0.
        1    1    3    3  502    0  0.99933945696E+03 -0.13897458956E+03  0.33115820024E+03  0.10619129156E+04  0.50400001928E-02 0. -1.
       -1    1    3    3    0  502 -0.99933945696E+03  0.13897458956E+03 -0.16706638738E+04  0.19516944090E+04  0.50400001928E-02 0.  1.
</event>
<event>
 5   0  0.1999104E-06  0.2664723E+04  0.7818609E-02  0.8346543E-01
       -2   -1    0    0    0  501  0.00000000000E+00  0.00000000000E+00  0.29488471840E+04  0.29488471840E+04  0.25500000920E-02 0.  1.
        2   -1    0    0  501    0  0.00000000000E+00  0.00000000000E+00 -0.60199354652E+03  0.60199354653E+03  0.25500000920E-02 0. -1.
    10030    2    1    2    0    0  0.00000000000E+00  0.00000000000E+00  0.23468536375E+04  0.35508407305E+04  0.26647228557E+04 0.  0.
        4    1    3    3  502    0  0.21536797554E+03  0.59949663218E+03  0.27327826367E+04  0.28060438574E+04  0.12699999809E+01 0.  1.
       -4    1    3    3    0  502 -0.21536797554E+03 -0.59949663218E+03 -0.38592899927E+03  0.74479687315E+03  0.12699999809E+01 0. -1.
</event>
<event>
 5   0  0.7768032E-07  0.2709879E+04  0.7818609E-02  0.8331807E-01
        1   -1    0    0  501    0  0.00000000000E+00  0.00000000000E+00  0.13024553876E+04  0.13024553876E+04  0.50400001928E-02 0.  1.
       -1   -1    0    0    0  501  0.00000000000E+00  0.00000000000E+00 -0.14095385856E+04  0.14095385856E+04  0.50400001928E-02 0. -1.
    10030    2    1    2    0    0  0.00000000000E+00  0.00000000000E+00 -0.10708319794E+03  0.27119939732E+04  0.27098790562E+04 0.  0.
        4    1    3    3  502    0 -0.12289000581E+04 -0.30381063401E+03 -0.53699548022E+03  0.13750861838E+04  0.12699999809E+01 0.  1.
       -4    1    3    3    0  502  0.12289000581E+04  0.30381063401E+03  0.42991228227E+03  0.13369077894E+04  0.12699999809E+01 0. -1.
</event>
<event>
 5   0  0.1999104E-06  0.2702910E+04  0.7818609E-02  0.8334061E-01
        2   -1    0    0  501    0  0.00000000000E+00  0.00000000000E+00  0.10090125598E+04  0.10090125598E+04  0.25500000920E-02 0.  1.
       -2   -1    0    0    0  501  0.00000000000E+00  0.00000000000E+00 -0.18101169252E+04  0.18101169252E+04  0.25500000920E-02 0. -1.
    10030    2    1    2    0    0  0.00000000000E+00  0.00000000000E+00 -0.80110436544E+03  0.28191294850E+04  0.27029100704E+04 0.  0.
        4    1    3    3  502    0  0.94023212029E+03  0.88692126047E+03  0.11086375868E+02  0.12925905318E+04  0.12699999809E+01 0. -1.
       -4    1    3    3    0  502 -0.94023212029E+03 -0.88692126047E+03 -0.81219074130E+03  0.15265389531E+04  0.12699999809E+01 0.  1.
</event>
<event>
 5   0  0.7335091E-07  0.2676365E+04  0.7818609E-02  0.8342715E-01
       -1   -1    0    0    0  501  0.00000000000E+00  0.00000000000E+00  0.74435711122E+03  0.74435711124E+03  0.50400001928E-02 0. -1.
        1   -1    0    0  501    0  0.00000000000E+00  0.00000000000E+00 -0.24057430775E+04  0.24057430775E+04  0.50400001928E-02 0.  1.
    10030    2    1    2    0    0  0.00000000000E+00  0.00000000000E+00 -0.16613859663E+04  0.31501001888E+04  0.26763646744E+04 0.  0.
        3    1    3    3  502    0 -0.25699975207E+03 -0.11587047214E+04 -0.10314792020E+03  0.11913374868E+04  0.10100000352E+00 0.  1.
       -3    1    3    3    0  502  0.25699975207E+03  0.11587047214E+04 -0.15582380461E+04  0.19587627019E+04  0.10100000352E+00 0. -1.
</event>
<event>
 5   0  0.7768032E-07  0.2700413E+04  0.7818609E-02  0.8334871E-01
        1   -1    0    0  501    0  0.00000000000E+00  0.00000000000E+00  0.16556606117E+04  0.16556606117E+04  0.50400001928E-02 0. -1.
       -1   -1    0    0    0  501  0.00000000000E+00  0.00000000000E+00 -0.11011058406E+04  0.11011058406E+04  0.50400001928E-02 0.  1.
    10030    2    1    2    0    0  0.00000000000E+00  0.00000000000E+00  0.55455477114E+03  0.27567664523E+04  0.27004129829E+04 0.  0.
        4    1    3    3  502    0 -0.26638294216E+03 -0.73869067704E+03 -0.84402111701E+03  0.11528213422E+04  0.12699999809E+01 0.  1.
       -4    1    3    3    0  502  0.26638294216E+03  0.73869067704E+03  0.13985758881E+04  0.16039451100E+04  0.12699999809E+01 0. -1.
</event>
<event>
 5   0  0.7436613E-07  0.2700893E+04  0.7818609E-02  0.8334715E-01
       -1   -1    0    0    0  501  0.00000000000E+00  0.00000000000E+00  0.13984066839E+04  0.13984066839E+04  0.50400001928E-02 0. -1.
        1   -1    0    0  501    0  0.00000000000E+00  0.00000000000E+00 -0.13041312480E+04  0.13041312480E+04  0.50400001928E-02 0.  1.
    10030    2    1    2    0    0  0.00000000000E+00  0.00000000000E+00  0.94275435916E+02  0.27025379319E+04  0.27008930774E+04 0.  0.
        2    1    3    3  502    0  0.41464443012E+03  0.19351965152E+03 -0.12241973502E+04  0.13069196651E+04  0.25500000920E-02 0.  1.
       -2    1    3    3    0  502 -0.41464443012E+03 -0.19351965152E+03  0.13184727861E+04  0.13956182668E+04  0.25500000920E-02 0. -1.
</event>
<event>
 5   0  0.2030645E-06  0.2701596E+04  0.7818609E-02  0.8334487E-01
       -2   -1    0    0    0  501  0.00000000000E+00  0.00000000000E+00  0.92882360553E+03  0.92882360554E+03  0.25500000920E-02 0. -1.
        2   -1    0    0  501    0  0.00000000000E+00  0.00000000000E+00 -0.19644805522E+04  0.19644805522E+04  0.25500000920E-02 0.  1.
    10030    2    1    2    0    0  0.00000000000E+00  0.00000000000E+00 -0.10356569467E+04  0.28933041577E+04  0.27015964980E+04 0.  0.
        1    1    3    3  502    0  0.27842429767E+03 -0.96965016356E+03 -0.14798556352E+04  0.17910092770E+04  0.50400001928E-02 0.  1.
       -1    1    3    3    0  502 -0.27842429767E+03  0.96965016356E+03  0.44419868853E+03  0.11022948808E+04  0.50400001928E-02 0. -1.
</event>
<event>
 5   0  0.7335091E-07  0.2700218E+04  0.7818609E-02  0.8334934E-01
        1   -1    0    0  501    0  0.00000000000E+00  0.00000000000E+00  0.12300256565E+04  0.12300256565E+04  0.50400001928E-02 0. -1.
       -1   -1    0    0    0  501  0.00000000000E+00  0.00000000000E+00 -0.14819152538E+04  0.14819152538E+04  0.50400001928E-02 0.  1.
    10030    2    1    2    0    0  0.00000000000E+00  0.00000000000E+00 -0.25188959737E+03  0.27119409103E+04  0.27002176082E+04 0.  0.
        3    1    3    3  502    0  0.87821421011E+03  0.80849871284E+03  0.50755787955E+03  0.12971296692E+04  0.10100000352E+00 0. -1.
       -3    1    3    3    0  502 -0.87821421011E+03 -0.80849871284E+03 -0.75944747692E+03  0.14148112411E+04  0.10100000352E+00 0.  1.
</event>
<event>
 5   0  0.2063087E-06  0.2698973E+04  0.7818609E-02  0.8335338E-01
        2   -1    0    0  501    0  0.00000000000E+00  0.00000000000E+00  0.20755333060E+04  0.20755333060E+04  0.25500000920E-02 0.  1.
       -2   -1    0    0    0  501  0.00000000000E+00  0.00000000000E+00 -0.87741989435E+03  0.87741989435E+03  0.25500000920E-02 0. -1.
    10030    2    1    2    0    0  0.00000000000E+00  0.00000000000E+00  0.11981134116E+04  0.29529532003E+04  0.26989732967E+04 0.  0.
        3    1    3    3  502    0 -0.73294419363E+03 -0.10471256449E+03  0.18334749568E+04  0.19773220121E+04  0.10100000352E+00 0.  1.
       -3    1    3    3    0  502  0.73294419363E+03  0.10471256449E+03 -0.63536154518E+03  0.97563118822E+03  0.10100000352E+00 0. -1.
</event>
<event>
 5   0  0.1932012E-06  0.2705175E+04  0.7818609E-02  0.8333328E-01
        2   -1    0    0  501    0  0.00000000000E+00  0.00000000000E+00  0.22875915119E+04  0.22875915119E+04  0.25500000920E-02 0.  1.
       -2   -1    0    0    0  501  0.00000000000E+00  0.00000000000E+00 -0.79974622926E+03  0.79974622926E+03  0.25500000920E-02 0. -1.
    10030    2    1    2    0    0  0.00000000000E+00  0.00000000000E+00  0.14878452826E+04  0.30873377411E+04  0.27051748082E+04 0.  0.
        2    1    3    3  502    0 -0.97781483932E+03 -0.27249665472E+03  0.17641426320E+04  0.20353317943E+04  0.25500000920E-02 0.  1.
       -2    1    3    3    0  502  0.97781483932E+03  0.27249665472E+03 -0.27629734943E+03  0.10520059468E+04  0.25500000920E-02 0. -1.
</event>
<event>
 5   0  0.1999104E-06  0.2694116E+04  0.7818609E-02  0.8336917E-01
       -2   -1    0    0    0  501  0.00000000000E+00  0.00000000000E+00  0.21584167018E+04  0.21584167018E+04  0.25500000920E-02 0.  1.
        2   -1    0    0  501    0  0.00000000000E+00  0.00000000000E+00 -0.84069254043E+03  0.84069254043E+03  0.25500000920E-02 0. -1.
    10030    2    1    2    0    0  0.00000000000E+00  0.00000000000E+00  0.13177241614E+04  0.29991092422E+04  0.26941156771E+04 0.  0.
        4    1    3    3  502    0  0.12136464409E+04  0.50180741734E+03  0.32524360326E+03  0.13529720551E+04  0.12699999809E+01 0. -1.
       -4    1    3    3    0  502 -0.12136464409E+04 -0.50180741734E+03  0.99248055812E+03  0.16461371871E+04  0.12699999809E+01 0.  1.
</event>
<event>
 5   0  0.7768032E-07  0.2701559E+04  0.7818609E-02  0.8334499E-01
        1   -1    0    0  501    0  0.00000000000E+00  0.00000000000E+00  0.21118048229E+04  0.21118048229E+04  0.50400001928E-02 0.  1.
       -1   -1    0    0    0  501  0.00000000000E+00  0.00000000000E+00 -0.86400250512E+03  0.86400250514E+03  0.50400001928E-02 0. -1.
    10030    2    1    2    0    0  0.00000000000E+00  0.00000000000E+00  0.12478023178E+04  0.29758073281E+04  0.27015585556E+04 0.  0.
        4    1    3    3  502    0 -0.51019598945E+03  0.11654931985E+04  0.12404060771E+03  0.12783043568E+04  0.12699999809E+01 0. -1.
       -4    1    3    3    0  502  0.51019598945E+03 -0.11654931985E+04  0.11237617101E+04  0.16975029712E+04  0.12699999809E+01 0.  1.
</event>
<event>
 5   0  0.7566905E-07  0.2703507E+04  0.7818609E-02  0.8333868E-01
        1   -1    0    0  501    0  0.00000000000E+00  0.00000000000E+00  0.13879333861E+04  0.13879333861E+04  0.50400001928E-02 0.  1.
       -1   -1    0    0    0  501  0.00000000000E+00  0.00000000000E+00 -0.13165164623E+04  0.13165164623E+04  0.50400001928E-02 0. -1.
    10030    2    1    2    0    0  0.00000000000E+00  0.00000000000E+00  0.71416923846E+02  0.27044498484E+04  0.27035067238E+04 0.  0.
        1    1    3    3  502    0  0.73740569614E+03 -0.85367212996E+03  0.78075945293E+03  0.13718996281E+04  0.50400001928E-02 0. -1.
       -1    1    3    3    0  502 -0.73740569614E+03  0.85367212996E+03 -0.70934252908E+03  0.13325502203E+04  0.50400001928E-02 0.  1.
</event>
<event>
 5   0  0.1999104E-06  0.2714984E+04  0.7818609E-02  0.8330160E-01
       -2   -1    0    0    0  501  0.00000000000E+00  0.00000000000E+00  0.13506950430E+04  0.13506950430E+04  0.25500000920E-02 0.  1.
        2   -1    0    0  501    0  0.00000000000E+00  0.00000000000E+00 -0.13643226821E+04  0.13643226821E+04  0.25500000920E-02 0. -1.
    10030    2    1    2    0    0  0.00000000000E+00  0.00000000000E+00 -0.13627639058E+02  0.27150177251E+04  0.27149835239E+04 0.  0.
        4    1    3    3  502    0 -0.13050215856E+04  0.33562292949E+03 -0.17130960340E+03  0.13583345254E+04  0.12699999809E+01 0. -1.
       -4    1    3    3    0  502  0.13050215856E+04 -0.33562292949E+03  0.15768196434E+03  0.13566831997E+04  0.12699999809E+01 0.  1.
</event>
<event>
 5   0  0.1991277E-06  0.2701461E+04  0.7818609E-02  0.8334531E-01
        2   -1    0    0  501    0  0.00000000000E+00  0.00000000000E+00  0.10379234540E+04  0.10379234540E+04  0.25500000920E-02 0.  1.
       -2   -1    0    0    0  501  0.00000000000E+00  0.00000000000E+00 -0.17578104820E+04  0.17578104820E+04  0.25500000920E-02 0. -1.
    10030    2    1    2    0    0  0.00000000000E+00  0.00000000000E+00 -0.71988702803E+03  0.27957339359E+04  0.27014608839E+04 0.  0.
        5    1    3    3  502    0 -0.12209076880E+04 -0.46096359124E+03  0.56272838041E+00  0.13050384752E+04  0.46999998093E+01 0.  1.
       -5    1    3    3    0  502  0.12209076880E+04  0.46096359124E+03 -0.72044975641E+03  0.14906954607E+04  0.46999998093E+01 0. -1.
</event>
<event>
 5   0  0.7436613E-07  0.2676333E+04  0.7818609E-02  0.8342725E-01
        1   -1    0    0  501    0  0.00000000000E+00  0.00000000000E+00  0.98875000346E+03  0.98875000348E+03  0.50400001928E-02 0.  1.
       -1   -1    0    0    0  501  0.00000000000E+00  0.00000000000E+00 -0.18110636588E+04  0.18110636588E+04  0.50400001928E-02 0. -1.
    10030    2    1    2    0    0  0.00000000000E+00  0.00000000000E+00 -0.82231365531E+03  0.27998136623E+04  0.26763327139E+04 0.  0.
        2    1    3    3  502    0  0.11471875101E+04 -0.68836651375E+03 -0.44077488756E+03  0.14086057440E+04  0.25500000920E-02 0. -1.
       -2    1    3    3    0  502 -0.11471875101E+04  0.68836651375E+03 -0.38153876774E+03  0.13912079183E+04  0.25500000920E-02 0.  1.
</event>
<event>
 5   0  0.7335091E-07  0.2700302E+04  0.7818609E-02  0.8334907E-01
       -1   -1    0    0    0  501  0.00000000000E+00  0.00000000000E+00  0.80973021288E+03  0.80973021290E+03  0.50400001928E-02 0.  1.
        1   -1    0    0  501    0  0.00000000000E+00  0.00000000000E+00 -0.22512527372E+04  0.22512527372E+04  0.50400001928E-02 0. -1.
    10030    2    1    2    0    0  0.00000000000E+00  0.00000000000E+00 -0.14415225243E+04  0.30609829501E+04  0.27003017299E+04 0.  0.
        3    1    3    3  502    0  0.70690584744E+03 -0.10898444489E+04 -0.30359715561E+03  0.13340344984E+04  0.10100000352E+00 0.  1.
       -3    1    3    3    0  502 -0.70690584744E+03  0.10898444489E+04 -0.11379253687E+04  0.17269484517E+04  0.10100000352E+00 0. -1.
</event>
<event>
 5   0  0.1932012E-06  0.2707852E+04  0.7818609E-02  0.8332462E-01
       -2   -1    0    0    0  501  0.00000000000E+00  0.00000000000E+00  0.86043181630E+03  0.86043181630E+03  0.25500000920E-02 0.  1.
        2   -1    0    0  501    0  0.00000000000E+00  0.00000000000E+00 -0.21304598718E+04  0.21304598718E+04  0.25500000920E-02 0. -1.
    10030    2    1    2    0    0  0.00000000000E+00  0.00000000000E+00 -0.12700280555E+04  0.29908916881E+04  0.27078518844E+04 0.  0.
        2    1    3    3  502    0  0.11681532182E+04 -0.37267817197E+03 -0.85424733325E+00  0.12261613641E+04  0.25500000920E-02 0.  1.
       -2    1    3    3    0  502 -0.11681532182E+04  0.37267817197E+03 -0.12691738081E+04  0.17647303240E+04  0.25500000920E-02 0. -1.
</event>
<event>
 5   0  0.1999104E-06  0.2697393E+04  0.7818609E-02  0.8335851E-01
       -2   -1    0    0    0  501  0.00000000000E+00  0.00000000000E+00  0.87347927604E+03  0.87347927604E+03  0.25500000920E-02 0. -1.
        2   -1    0    0  501    0  0.00000000000E+00  0.00000000000E+00 -0.20824568516E+04  0.20824568516E+04  0.25500000920E-02 0.  1.
    10030    2    1    2    0    0  0.00000000000E+00  0.00000000000E+00 -0.12089775755E+04  0.29559361276E+04  0.26973934849E+04 0.  0.
        4    1    3    3  502    0 -0.34715709850E+03 -0.98333576865E+03  0.33277548792E+03  0.10946270704E+04  0.12699999809E+01 0. -1.
       -4    1    3    3    0  502  0.34715709850E+03  0.98333576865E+03 -0.15417530634E+04  0.18613090572E+04  0.12699999809E+01 0.  1.
</event>
<event>
 5   0  0.7566905E-07  0.2752214E+04  0.7818609E-02  0.8318260E-01
       -1   -1    0    0    0  501  0.00000000000E+00  0.00000000000E+00  0.94924494227E+03  0.94924494228E+03  0.50400001928E-02 0.  1.
        1   -1    0    0  501    0  0.00000000000E+00  0.00000000000E+00 -0.19949223375E+04  0.19949223375E+04  0.50400001928E-02 0. -1.
    10030    2    1    2    0    0  0.00000000000E+00  0.00000000000E+00 -0.10456773952E+04  0.29441672798E+04  0.27522136103E+04 0.  0.
        1    1    3    3  502    0 -0.37490429120E+03  0.48821989557E+03 -0.18394330188E+04  0.19396973281E+04  0.50400001928E-02 0. -1.
       -1    1    3    3    0  502  0.37490429120E+03 -0.48821989557E+03  0.79375562353E+03  0.10044699517E+04  0.50400001928E-02 0.  1.
</event>
<event>
 5   0  0.7566905E-07  0.2720594E+04  0.7818609E-02  0.8328354E-01
        1   -1    0    0  501    0  0.00000000000E+00  0.00000000000E+00  0.79482533726E+03  0.79482533727E+03  0.50400001928E-02 0. -1.
       -1   -1    0    0    0  501  0.00000000000E+00  0.00000000000E+00 -0.23280686268E+04  0.23280686268E+04  0.50400001928E-02 0.  1.
    10030    2    1    2    0    0  0.00000000000E+00  0.00000000000E+00 -0.15332432895E+04  0.31228939640E+04  0.27205940024E+04 0.  0.
        1    1    3    3  502    0 -0.92449857332E+03  0.28663862352E+03  0.33051149801E+03  0.10227889141E+04  0.50400001928E-02 0.  1.
       -1    1    3    3    0  502  0.92449857332E+03 -0.28663862352E+03 -0.18637547875E+04  0.21001050499E+04  0.50400001928E-02 0. -1.
</event>
<event>
 5   0  0.2063087E-06  0.2739183E+04  0.7818609E-02  0.8322402E-01
        2   -1    0    0  501    0  0.00000000000E+00  0.00000000000E+00  0.14731177613E+04  0.14731177613E+04  0.25500000920E-02 0.  1.
       -2   -1    0    0    0  501  0.00000000000E+00  0.00000000000E+00 -0.12733404400E+04  0.12733404400E+04  0.25500000920E-02 0. -1.
    10030    2    1    2    0    0  0.00000000000E+00  0.00000000000E+00  0.19977732129E+03  0.27464582014E+04  0.27391826653E+04 0.  0.
        3    1    3    3  502    0  0.10083916232E+04 -0.69891646899E+03  0.71014515441E+03  0.14176191473E+04  0.10100000352E+00 0.  1.
       -3    1    3    3    0  502 -0.10083916232E+04  0.69891646899E+03 -0.51036783312E+03  0.13288390541E+04  0.10100000352E+00 0. -1.
</event>
<event>
 5   0  0.7768032E-07  0.2705738E+04  0.7818609E-02  0.8333146E-01
        1   -1    0    0  501    0  0.00000000000E+00  0.00000000000E+00  0.22294061281E+04  0.22294061281E+04  0.50400001928E-02 0.  1.
       -1   -1    0    0    0  501  0.00000000000E+00  0.00000000000E+00 -0.82096033244E+03  0.82096033245E+03  0.50400001928E-02 0. -1.
    10030    2    1    2    0    0  0.00000000000E+00  0.00000000000E+00  0.14084457956E+04  0.30503664605E+04  0.27057376045E+04 0.  0.
        4    1    3    3  502    0 -0.60718322693E+03  0.73121404304E+03  0.17896093726E+04  0.20263387592E+04  0.12699999809E+01 0.  1.
       -4    1    3    3    0  502  0.60718322693E+03 -0.73121404304E+03 -0.38116357692E+03  0.10240277013E+04  0.12699999809E+01 0. -1.
</event>
<event>
 5   0  0.7335091E-07  0.2699698E+04  0.7818609E-02  0.8335103E-01
        1   -1    0    0  501    0  0.00000000000E+00  0.00000000000E+00  0.21957435537E+04  0.21957435538E+04  0.50400001928E-02 0.  1.
       -1   -1    0    0    0  501  0.00000000000E+00  0.00000000000E+00 -0.82982908774E+03  0.82982908776E+03  0.50400001928E-02 0. -1.
    10030    2    1    2    0    0  0.00000000000E+00  0.00000000000E+00  0.13659144660E+04  0.30255726415E+04  0.26996976647E+04 0.  0.
        3    1    3    3  502    0 -0.77387057181E+03  0.10611045752E+03  0.19167323807E+04  0.20697821433E+04  0.10100000352E+00 0.  1.
       -3    1    3    3    0  502  0.77387057181E+03 -0.10611045752E+03 -0.55081791473E+03  0.95579049822E+03  0.10100000352E+00 0. -1.
</event>
<event>
 5   0  0.7566905E-07  0.2701404E+04  0.7818609E-02  0.8334550E-01
       -1   -1    0    0    0  501  0.00000000000E+00  0.00000000000E+00  0.11235366396E+04  0.11235366396E+04  0.50400001928E-02 0. -1.
        1   -1    0    0  501    0  0.00000000000E+00  0.00000000000E+00 -0.16237975054E+04  0.16237975054E+04  0.50400001928E-02 0.  1.
    10030    2    1    2    0    0  0.00000000000E+00  0.00000000000E+00 -0.50026086584E+03  0.27473341451E+04  0.27014040739E+04 0.  0.
        1    1    3    3  502    0  0.62072364113E+03  0.12083665998E+03  0.96368498686E+03  0.11526439567E+04  0.50400001928E-02 0. -1.
       -1    1    3    3    0  502 -0.62072364113E+03 -0.12083665998E+03 -0.14639458527E+04  0.15946901883E+04  0.50400001928E-02 0.  1.
</event>
<event>
 5   0  0.7335091E-07  0.2660372E+04  0.7818609E-02  0.8347979E-01
       -1   -1    0    0    0  501  0.00000000000E+00  0.00000000000E+00  0.93671168644E+03  0.93671168645E+03  0.50400001928E-02 0.  1.
        1   -1    0    0  501    0  0.00000000000E+00  0.00000000000E+00 -0.18889421710E+04  0.18889421710E+04  0.50400001928E-02 0. -1.
    10030    2    1    2    0    0  0.00000000000E+00  0.00000000000E+00 -0.95223048454E+03  0.28256538574E+04  0.26603715580E+04 0.  0.
        3    1    3    3  502    0 -0.14457627103E+03  0.13215531504E+04 -0.42874424811E+03  0.13968631529E+04  0.10100000352E+00 0. -1.
       -3    1    3    3    0  502  0.14457627103E+03 -0.13215531504E+04 -0.52348623644E+03  0.14287907045E+04  0.10100000352E+00 0.  1.
</event>
<event>
 5   0  0.7436613E-07  0.2712092E+04  0.7818609E-02  0.8331092E-01
        1   -1    0    0  501    0  0.00000000000E+00  0.00000000000E+00  0.15623063670E+04  0.15623063670E+04  0.50400001928E-02 0. -1.
       -1   -1    0    0    0  501  0.00000000000E+00  0.00000000000E+00 -0.11770165433E+04  0.11770165433E+04  0.50400001928E-02 0.  1.
    10030    2    1    2    0    0  0.00000000000E+00  0.00000000000E+00  0.38528982367E+03  0.27393229103E+04  0.27120917681E+04 0.  0.
        2    1    3    3  502    0 -0.87916060903E+03 -0.34408582633E+03 -0.79054652080E+03  0.12313741243E+04  0.25500000920E-02 0.  1.
       -2    1    3    3    0  502  0.87916060903E+03  0.34408582633E+03  0.11758363445E+04  0.15079487860E+04  0.25500000920E-02 0. -1.
</event>
<event>
 5   0  0.7768032E-07  0.2703624E+04  0.7818609E-02  0.8333830E-01
       -1   -1    0    0    0  501  0.00000000000E+00  0.00000000000E+00  0.11068592822E+04  0.11068592822E+04  0.50400001928E-02 0.  1.
        1   -1    0    0  501    0  0.00000000000E+00  0.00000000000E+00 -0.16509739431E+04  0.16509739431E+04  0.50400001928E-02 0. -1.
    10030    2    1    2    0    0  0.00000000000E+00  0.00000000000E+00 -0.54411466090E+03  0.27578332254E+04  0.27036241112E+04 0.  0.
        4    1    3    3  502    0  0.46640159455E+03 -0.93330988683E+03 -0.11488241022E+04  0.15519008419E+04  0.12699999809E+01 0. -1.
       -4    1    3    3    0  502 -0.46640159455E+03  0.93330988683E+03  0.60470944134E+03  0.12059323835E+04  0.12699999809E+01 0.  1.
</event>
<event>
 5   0  0.7566905E-07  0.2698902E+04  0.7818609E-02  0.8335361E-01
       -1   -1    0    0    0  501  0.00000000000E+00  0.00000000000E+00  0.10046737544E+04  0.10046737544E+04  0.50400001928E-02 0.  1.
        1   -1    0    0  501    0  0.00000000000E+00  0.00000000000E+00 -0.18125466066E+04  0.18125466066E+04  0.50400001928E-02 0. -1.
    10030    2    1    2    0    0  0.00000000000E+00  0.00000000000E+00 -0.80787285224E+03  0.28172203610E+04  0.26989020022E+04 0.  0.
        1    1    3    3  502    0  0.31408981149E+03 -0.57771203350E+03 -0.16339914397E+04  0.17613436997E+04  0.50400001928E-02 0. -1.
       -1    1    3    3    0  502 -0.31408981149E+03  0.57771203350E+03  0.82611858749E+03  0.10558766613E+04  0.50400001928E-02 0.  1.
</event>
<event>
 5   0  0.7335091E-07  0.2698300E+04  0.7818609E-02  0.8335557E-01
        1   -1    0    0  501    0  0.00000000000E+00  0.00000000000E+00  0.17675317696E+04  0.17675317696E+04  0.50400001928E-02 0.  1.
       -1   -1    0    0    0  501  0.00000000000E+00  0.00000000000E+00 -0.10298007209E+04  0.10298007209E+04  0.50400001928E-02 0. -1.
    10030    2    1    2    0    0  0.00000000000E+00  0.00000000000E+00  0.73773104868E+03  0.27973324905E+04  0.26982998281E+04 0.  0.
        3    1    3    3  502    0  0.45540945691E+03  0.88224036864E+03  0.13158798565E+04  0.16484191362E+04  0.10100000352E+00 0.  1.
       -3    1    3    3    0  502 -0.45540945691E+03 -0.88224036864E+03 -0.57814880786E+03  0.11489133543E+04  0.10100000352E+00 0. -1.
</event>
<event>
 5   0  0.1991277E-06  0.2702732E+04  0.7818609E-02  0.8334119E-01
        2   -1    0    0  501    0  0.00000000000E+00  0.00000000000E+00  0.17660692436E+04  0.17660692437E+04  0.25500000920E-02 0.  1.
       -2   -1    0    0    0  501  0.00000000000E+00  0.00000000000E+00 -0.10340421118E+04  0.10340421118E+04  0.25500000920E-02 0. -1.
    10030    2    1    2    0    0  0.00000000000E+00  0.00000000000E+00  0.73202713182E+03  0.28001113555E+04  0.27027319293E+04 0.  0.
        5    1    3    3  502    0  0.23582668108E+03 -0.22985291464E+03 -0.99182669081E+03  0.10450783992E+04  0.46999998093E+01 0. -1.
       -5    1    3    3    0  502 -0.23582668108E+03  0.22985291464E+03  0.17238538226E+04  0.17550329563E+04  0.46999998093E+01 0.  1.
</event>
<event>
 5   0  0.1999104E-06  0.2701130E+04  0.7818609E-02  0.8334638E-01
       -2   -1    0    0    0  501  0.00000000000E+00  0.00000000000E+00  0.78232893620E+03  0.78232893620E+03  0.25500000920E-02 0. -1.
        2   -1    0    0  501    0  0.00000000000E+00  0.00000000000E+00 -0.23315339270E+04  0.23315339270E+04  0.25500000920E-02 0.  1.
    10030    2    1    2    0    0  0.00000000000E+00  0.00000000000E+00 -0.15492049908E+04  0.31138628632E+04  0.27011304721E+04 0.  0.
        4    1    3    3  502    0  0.10381245750E+04  0.66526266251E+03 -0.14099487742E+04  0.18730280837E+04  0.12699999809E+01 0.  1.
       -4    1    3    3    0  502 -0.10381245750E+04 -0.66526266251E+03 -0.13925621661E+03  0.12408347796E+04  0.12699999809E+01 0. -1.
</event>
<event>
 5   0  0.7806808E-07  0.2697038E+04  0.7818609E-02  0.8335967E-01
        1   -1    0    0  501    0  0.00000000000E+00  0.00000000000E+00  0.15358201486E+04  0.15358201487E+04  0.50400001928E-02 0.  1.
       -1   -1    0    0    0  501  0.00000000000E+00  0.00000000000E+00 -0.11840600070E+04  0.11840600070E+04  0.50400001928E-02 0. -1.
    10030    2    1    2    0    0  0.00000000000E+00  0.00000000000E+00  0.35176014165E+03  0.27198801557E+04  0.26970377943E+04 0.  0.
        5    1    3    3  502    0 -0.78486677657E+03 -0.35104421001E+03  0.12235401387E+04  0.14954331999E+04  0.46999998093E+01 0.  1.
       -5    1    3    3    0  502  0.78486677657E+03  0.35104421001E+03 -0.87177999703E+03  0.12244469558E+04  0.46999998093E+01 0. -1.
</event>
<event>
 5   0  0.1999104E-06  0.2700757E+04  0.7818609E-02  0.8334760E-01
        2   -1    0    0  501    0  0.00000000000E+00  0.00000000000E+00  0.11190738883E+04  0.11190738883E+04  0.25500000920E-02 0. -1.
       -2   -1    0    0    0  501  0.00000000000E+00  0.00000000000E+00 -0.16294915994E+04  0.16294915994E+04  0.25500000920E-02 0.  1.
    10030    2    1    2    0    0  0.00000000000E+00  0.00000000000E+00 -0.51041771112E+03  0.27485654876E+04  0.27007565607E+04 0.  0.
        4    1    3    3  502    0  0.10203021573E+04  0.88202369544E+03 -0.18665473812E+03  0.13615520172E+04  0.12699999809E+01 0. -1.
       -4    1    3    3    0  502 -0.10203021573E+04 -0.88202369544E+03 -0.32376297300E+03  0.13870134704E+04  0.12699999809E+01 0.  1.
</event>
<event>
 5   0  0.7335091E-07  0.2754800E+04  0.7818609E-02  0.8317440E-01
        1   -1    0    0  501    0  0.00000000000E+00  0.00000000000E+00  0.19813880727E+04  0.19813880727E+04  0.50400001928E-02 0. -1.
       -1   -1    0    0    0  501  0.00000000000E+00  0.00000000000E+00 -0.95752579820E+03  0.95752579821E+03  0.50400001928E-02 0.  1.
    10030    2    1    2    0    0  0.00000000000E+00  0.00000000000E+00  0.10238622745E+04  0.29389138710E+04  0.27547995905E+04 0.  0.
        3    1    3    3  502    0  0.92295054680E+03 -0.76926168788E+03 -0.20660269288E+03  0.12191332738E+04  0.10100000352E+00 0.  1.
       -3    1    3    3    0  502 -0.92295054680E+03  0.76926168788E+03  0.12304649674E+04  0.17197805972E+04  0.10100000352E+00 0. -1.
</event>
<event>
 5   0  0.1932012E-06  0.2698656E+04  0.7818609E-02  0.8335441E-01
       -2   -1    0    0    0  501  0.00000000000E+00  0.00000000000E+00  0.10674512853E+04  0.10674512853E+04  0.25500000920E-02 0. -1.
        2   -1    0    0  501    0  0.00000000000E+00  0.00000000000E+00 -0.17056379637E+04  0.17056379637E+04  0.25500000920E-02 0.  1.
    10030    2    1    2    0    0  0.00000000000E+00  0.00000000000E+00 -0.63818667841E+03  0.27730892489E+04  0.26986555442E+04 0.  0.
        2    1    3    3  502    0 -0.10254499935E+04  0.40498714454E+02  0.58113961275E+03  0.11793689349E+04  0.25500000920E-02 0. -1.
       -2    1    3    3    0  502  0.10254499935E+04 -0.40498714454E+02 -0.12193262912E+04  0.15937203140E+04  0.25500000920E-02 0.  1.
</event>
<event>
 5   0  0.2030645E-06  0.2698414E+04  0.7818609E-02  0.8335520E-01
       -2   -1    0    0    0  501  0.00000000000E+00  0.00000000000E+00  0.96739335870E+03  0.96739335871E+03  0.25500000920E-02 0.  1.
        2   -1    0    0  501    0  0.00000000000E+00  0.00000000000E+00 -0.18817153571E+04  0.18817153571E+04  0.25500000920E-02 0. -1.
    10030    2    1    2    0    0  0.00000000000E+00  0.00000000000E+00 -0.91432199839E+03  0.28491087158E+04  0.26984135631E+04 0.  0.
        1    1    3    3  502    0 -0.11171412087E+03 -0.65888187196E+03 -0.16946886966E+04  0.18216956783E+04  0.50400001928E-02 0. -1.
       -1    1    3    3    0  502  0.11171412087E+03  0.65888187196E+03  0.78036669818E+03  0.10274130375E+04  0.50400001928E-02 0.  1.
</event>
<event>
 5   0  0.7768032E-07  0.2713061E+04  0.7818609E-02  0.8330780E-01
        1   -1    0    0  501    0  0.00000000000E+00  0.00000000000E+00  0.26832566334E+04  0.26832566334E+04  0.50400001928E-02 0.  1.
       -1   -1    0    0    0  501  0.00000000000E+00  0.00000000000E+00 -0.68579907487E+03  0.68579907489E+03  0.50400001928E-02 0. -1.
    10030    2    1    2    0    0  0.00000000000E+00  0.00000000000E+00  0.19974575585E+04  0.33690557082E+04  0.27130609406E+04 0.  0.
        4    1    3    3  502    0  0.10515737044E+03 -0.10433700452E+04 -0.69857191339E+02  0.10509808580E+04  0.12699999809E+01 0. -1.
       -4    1    3    3    0  502 -0.10515737044E+03  0.10433700452E+04  0.20673147498E+04  0.23180748503E+04  0.12699999809E+01 0.  1.
</event>
<event>
 5   0  0.2030645E-06  0.2705696E+04  0.7818609E-02  0.8333159E-01
        2   -1    0    0  501    0  0.00000000000E+00  0.00000000000E+00  0.89243378907E+03  0.89243378907E+03  0.25500000920E-02 0.  1.
       -2   -1    0    0    0  501  0.00000000000E+00  0.00000000000E+00 -0.20507932202E+04  0.20507932202E+04  0.25500000920E-02 0. -1.
    10030    2    1    2    0    0  0.00000000000E+00  0.00000000000E+00 -0.11583594311E+04  0.29432270093E+04  0.27056955957E+04 0.  0.
        1    1    3    3  502    0 -0.12123581592E+02 -0.13466524051E+04 -0.71923648898E+03  0.15267353433E+04  0.50400001928E-02 0. -1.
       -1    1    3    3    0  502  0.12123581592E+02  0.13466524051E+04 -0.43912294215E+03  0.14164916660E+04  0.50400001928E-02 0.  1.
</event>
<event>
 5   0  0.7436613E-07  0.2697077E+04  0.7818609E-02  0.8335954E-01
        1   -1    0    0  501    0  0.00000000000E+00  0.00000000000E+00  0.24292117275E+04  0.24292117275E+04  0.50400001928E-02 0. -1.
       -1   -1    0    0    0  501  0.00000000000E+00  0.00000000000E+00 -0.74861982337E+03  0.74861982339E+03  0.50400001928E-02 0.  1.
    10030    2    1    2    0    0  0.00000000000E+00  0.00000000000E+00  0.16805919041E+04  0.31778315509E+04  0.26970769766E+04 0.  0.
        2    1    3    3  502    0 -0.10487161053E+03  0.59187083712E+03 -0.58204627160E+03  0.83671202024E+03  0.25500000920E-02 0.  1.
       -2    1    3    3    0  502  0.10487161053E+03 -0.59187083712E+03  0.22626381757E+04  0.23411195307E+04  0.25500000920E-02 0. -1.
</event>
<event>
 5   0  0.1999104E-06  0.2700194E+04  0.7818609E-02  0.8334942E-01
        2   -1    0    0  501    0  0.00000000000E+00  0.00000000000E+00  0.12540738082E+04  0.12540738082E+04  0.25500000920E-02 0. -1.
       -2   -1    0    0    0  501  0.00000000000E+00  0.00000000000E+00 -0.14534722454E+04  0.14534722454E+04  0.25500000920E-02 0.  1.
    10030    2    1    2    0    0  0.00000000000E+00  0.00000000000E+00 -0.19939843724E+03  0.27075460536E+04  0.27001936774E+04 0.  0.
        4    1    3    3  502    0  0.94055992937E+03 -0.58840393710E+02  0.86970344230E+03  0.12823809353E+04  0.12699999809E+01 0. -1.
       -4    1    3    3    0  502 -0.94055992937E+03  0.58840393710E+02 -0.10691018795E+04  0.14251651183E+04  0.12699999809E+01 0.  1.
</event>
<event>
 5   0  0.2063087E-06  0.2704190E+04  0.7818609E-02  0.8333647E-01
       -2   -1    0    0    0  501  0.00000000000E+00  0.00000000000E+00  0.71397048648E+03  0.71397048648E+03  0.25500000920E-02 0. -1.
        2   -1    0    0  501    0  0.00000000000E+00  0.00000000000E+00 -0.25605560494E+04  0.25605560494E+04  0.25500000920E-02 0.  1.
    10030    2    1    2    0    0  0.00000000000E+00  0.00000000000E+00 -0.18465855629E+04  0.32745265359E+04  0.27041904136E+04 0.  0.
        3    1    3    3  502    0  0.12386226463E+04 -0.54165996770E+03 -0.89413383206E+03  0.16208198235E+04  0.10100000352E+00 0.  1.
       -3    1    3    3    0  502 -0.12386226463E+04  0.54165996770E+03 -0.95245173083E+03  0.16537067123E+04  0.10100000352E+00 0. -1.
</event>
<event>
 5   0  0.7436613E-07  0.2714876E+04  0.7818609E-02  0.8330194E-01
       -1   -1    0    0    0  501  0.00000000000E+00  0.00000000000E+00  0.72455731275E+03  0.72455731276E+03  0.50400001928E-02 0.  1.
        1   -1    0    0  501    0  0.00000000000E+00  0.00000000000E+00 -0.25431220168E+04  0.25431220168E+04  0.50400001928E-02 0. -1.
    10030    2    1    2    0    0  0.00000000000E+00  0.00000000000E+00 -0.18185647040E+04  0.32676793295E+04  0.27148758016E+04 0.  0.
        2    1    3    3  502    0 -0.29783641818E+03  0.98084282432E+03 -0.19803545189E+04  0.22299244827E+04  0.25500000920E-02 0. -1.
       -2    1    3    3    0  502  0.29783641818E+03 -0.98084282432E+03  0.16178981484E+03  0.10377548469E+04  0.25500000920E-02 0.  1.
</event>
<event>
 5   0  0.7768032E-07  0.2701235E+04  0.7818609E-02  0.8334604E-01
        1   -1    0    0  501    0  0.00000000000E+00  0.00000000000E+00  0.21028707569E+04  0.21028707569E+04  0.50400001928E-02 0.  1.
       -1   -1    0    0    0  501  0.00000000000E+00  0.00000000000E+00 -0.86746545650E+03  0.86746545651E+03  0.50400001928E-02 0. -1.
    10030    2    1    2    0    0  0.00000000000E+00  0.00000000000E+00  0.12354053004E+04  0.29703362134E+04  0.27012350813E+04 0.  0.
        4    1    3    3  502    0 -0.10493869716E+04 -0.24055159025E+03 -0.27907091806E+03  0.11121871578E+04  0.12699999809E+01 0. -1.
       -4    1    3    3    0  502  0.10493869716E+04  0.24055159025E+03  0.15144762185E+04  0.18581490556E+04  0.12699999809E+01 0.  1.
</event>
<event>
 5   0  0.7335091E-07  0.2703364E+04  0.7818609E-02  0.8333914E-01
       -1   -1    0    0    0  501  0.00000000000E+00  0.00000000000E+00  0.21847536631E+04  0.21847536631E+04  0.50400001928E-02 0. -1.
        1   -1    0    0  501    0  0.00000000000E+00  0.00000000000E+00 -0.83627035030E+03  0.83627035031E+03  0.50400001928E-02 0.  1.
    10030    2    1    2    0    0  0.00000000000E+00  0.00000000000E+00  0.13484833128E+04  0.30210240134E+04  0.27033643566E+04 0.  0.
        3    1    3    3  502    0  0.96564799148E+03  0.63166631461E+02 -0.38035339689E+03  0.10397763142E+04  0.10100000352E+00 0.  1.
       -3    1    3    3    0  502 -0.96564799148E+03 -0.63166631461E+02  0.17288367096E+04  0.19812476992E+04  0.10100000352E+00 0. -1.
</event>
<event>
 5   0  0.7335091E-07  0.2670748E+04  0.7818609E-02  0.8344559E-01
       -1   -1    0    0    0  501  0.00000000000E+00  0.00000000000E+00  0.12627460407E+04  0.12627460407E+04  0.50400001928E-02 0.  1.
        1   -1    0    0  501    0  0.00000000000E+00  0.00000000000E+00 -0.14121787591E+04  0.14121787591E+04  0.50400001928E-02 0. -1.
    10030    2    1    2    0    0  0.00000000000E+00  0.00000000000E+00 -0.14943271839E+03  0.26749247998E+04  0.26707475633E+04 0.  0.
        3    1    3    3  502    0 -0.69717216188E+03  0.86944686546E+03 -0.81155463068E+03  0.13786253312E+04  0.10100000352E+00 0. -1.
       -3    1    3    3    0  502  0.69717216188E+03 -0.86944686546E+03  0.66212191229E+03  0.12962994685E+04  0.10100000352E+00 0.  1.
</event>
<event>
 5   0  0.2063087E-06  0.2700522E+04  0.7818609E-02  0.8334836E-01
        2   -1    0    0  501    0  0.00000000000E+00  0.00000000000E+00  0.22234838157E+04  0.22234838157E+04  0.25500000920E-02 0. -1.
       -2   -1    0    0    0  501  0.00000000000E+00  0.00000000000E+00 -0.81997652143E+03  0.81997652143E+03  0.25500000920E-02 0.  1.
    10030    2    1    2    0    0  0.00000000000E+00  0.00000000000E+00  0.14035072942E+04  0.30434603371E+04  0.27005218197E+04 0.  0.
        3    1    3    3  502    0 -0.24099546496E+03 -0.69307666497E+03  0.19791707399E+04  0.21108175917E+04  0.10100000352E+00 0. -1.
       -3    1    3    3    0  502  0.24099546496E+03  0.69307666497E+03 -0.57566344565E+03  0.93264274538E+03  0.10100000352E+00 0.  1.
</event>
<event>
 5   0  0.1991277E-06  0.2696844E+04  0.7818609E-02  0.8336030E-01
       -2   -1    0    0    0  501  0.00000000000E+00  0.00000000000E+00  0.68674331935E+03  0.68674331936E+03  0.25500000920E-02 0.  1.
        2   -1    0    0  501    0  0.00000000000E+00  0.00000000000E+00 -0.26476296513E+04  0.26476296513E+04  0.25500000920E-02 0. -1.
    10030    2    1    2    0    0  0.00000000000E+00  0.00000000000E+00 -0.19608863319E+04  0.33343729706E+04  0.26968440631E+04 0.  0.
        5    1    3    3  502    0  0.45505629963E+03 -0.12275981324E+04 -0.58143606189E+03  0.14325373973E+04  0.46999998093E+01 0. -1.
       -5    1    3    3    0  502 -0.45505629963E+03  0.12275981324E+04 -0.13794502700E+04  0.19018355734E+04  0.46999998093E+01 0.  1.
</event>
<event>
 5   0  0.1932012E-06  0.2696843E+04  0.7818609E-02  0.8336030E-01
        2   -1    0    0  501    0  0.00000000000E+00  0.00000000000E+00  0.18014403421E+04  0.18014403421E+04  0.25500000920E-02 0.  1.
       -2   -1    0    0    0  501  0.00000000000E+00  0.00000000000E+00 -0.10093259816E+04  0.10093259816E+04  0.25500000920E-02 0. -1.
    10030    2    1    2    0    0  0.00000000000E+00  0.00000000000E+00  0.79211436049E+03  0.28107663238E+04  0.26968430000E+04 0.  0.
        2    1    3    3  502    0 -0.12614620635E+04 -0.80294401102E+02  0.88547534438E+03  0.15433082369E+04  0.25500000920E-02 0.  1.
       -2    1    3    3    0  502  0.12614620635E+04  0.80294401102E+02 -0.93360983889E+02  0.12674580869E+04  0.25500000920E-02 0. -1.
</event>
<event>
 5   0  0.7335091E-07  0.2702629E+04  0.7818609E-02  0.8334152E-01
        1   -1    0    0  501    0  0.00000000000E+00  0.00000000000E+00  0.10421007451E+04  0.10421007451E+04  0.50400001928E-02 0. -1.
       -1   -1    0    0    0  501  0.00000000000E+00  0.00000000000E+00 -0.17522791481E+04  0.17522791481E+04  0.50400001928E-02 0.  1.
    10030    2    1    2    0    0  0.00000000000E+00  0.00000000000E+00 -0.71017840302E+03  0.27943798932E+04  0.27026293906E+04 0.  0.
        3    1    3    3  502    0  0.70510237028E+03  0.11159879401E+04 -0.56399790347E+02  0.13212794487E+04  0.10100000352E+00 0.  1.
       -3    1    3    3    0  502 -0.70510237028E+03 -0.11159879401E+04 -0.65377861267E+03  0.14731004445E+04  0.10100000352E+00 0. -1.
</event>
<event>
 5   0  0.1932012E-06  0.2697039E+04  0.7818609E-02  0.8335966E-01
        2   -1    0    0  501    0  0.00000000000E+00  0.00000000000E+00  0.10123806538E+04  0.10123806538E+04  0.25500000920E-02 0. -1.
       -2   -1    0    0    0  501  0.00000000000E+00  0.00000000000E+00 -0.17962659758E+04  0.17962659758E+04  0.25500000920E-02 0.  1.
    10030    2    1    2    0    0  0.00000000000E+00  0.00000000000E+00 -0.78388532201E+03  0.28086466295E+04  0.26970390601E+04 0.  0.
        2    1    3    3  502    0 -0.22809172580E+02 -0.69193966717E+03  0.81318557126E+03  0.10679754373E+04  0.25500000920E-02 0. -1.
       -2    1    3    3    0  502  0.22809172580E+02  0.69193966717E+03 -0.15970708933E+04  0.17406711922E+04  0.25500000920E-02 0.  1.
</event>
<event>
 5   0  0.7566905E-07  0.2697770E+04  0.7818609E-02  0.8335729E-01
        1   -1    0    0  501    0  0.00000000000E+00  0.00000000000E+00  0.11273924878E+04  0.11273924878E+04  0.50400001928E-02 0. -1.
       -1   -1    0    0    0  501  0.00000000000E+00  0.00000000000E+00 -0.16138931538E+04  0.16138931538E+04  0.50400001928E-02 0.  1.
    10030    2    1    2    0    0  0.00000000000E+00  0.00000000000E+00 -0.48650066593E+03  0.27412856416E+04  0.26977702035E+04 0.  0.
        1    1    3    3  502    0  0.25560100308E+03 -0.12520949551E+04 -0.68197547587E+03  0.14485041246E+04  0.50400001928E-02 0.  1.
       -1    1    3    3    0  502 -0.25560100308E+03  0.12520949551E+04  0.19547480994E+03  0.12927815170E+04  0.50400001928E-02 0. -1.
</event>
<event>
 5   0  0.7806808E-07  0.2697843E+04  0.7818609E-02  0.8335705E-01
       -1   -1    0    0    0  501  0.00000000000E+00  0.00000000000E+00  0.15259333451E+04  0.15259333451E+04  0.50400001928E-02 0. -1.
        1   -1    0    0  501    0  0.00000000000E+00  0.00000000000E+00 -0.11924436770E+04  0.11924436770E+04  0.50400001928E-02 0.  1.
    10030    2    1    2    0    0  0.00000000000E+00  0.00000000000E+00  0.33348966812E+03  0.27183770221E+04  0.26978432637E+04 0.  0.
        5    1    3    3  502    0  0.56448169515E+03 -0.66275208440E+03  0.12049694984E+04  0.14865575978E+04  0.46999998093E+01 0. -1.
       -5    1    3    3    0  502 -0.56448169515E+03  0.66275208440E+03 -0.87147983024E+03  0.12318194243E+04  0.46999998093E+01 0.  1.
</event>
<event>
 5   0  0.1999104E-06  0.2701488E+04  0.7818609E-02  0.8334522E-01
        2   -1    0    0  501    0  0.00000000000E+00  0.00000000000E+00  0.14036598605E+04  0.14036598605E+04  0.25500000920E-02 0.  1.
       -2   -1    0    0    0  501  0.00000000000E+00  0.00000000000E+00 -0.12998230852E+04  0.12998230852E+04  0.25500000920E-02 0. -1.
    10030    2    1    2    0    0  0.00000000000E+00  0.00000000000E+00  0.10383677532E+03  0.27034829456E+04  0.27014881013E+04 0.  0.
        4    1    3    3  502    0 -0.53722476278E+03 -0.12020230325E+04  0.35386633032E+03  0.13633388460E+04  0.12699999809E+01 0. -1.
       -4    1    3    3    0  502  0.53722476278E+03  0.12020230325E+04 -0.25002955500E+03  0.13401440996E+04  0.12699999809E+01 0.  1.
</event>
<event>
 5   0  0.7335091E-07  0.2705298E+04  0.7818609E-02  0.8333288E-01
       -1   -1    0    0    0  501  0.00000000000E+00  0.00000000000E+00  0.11662545517E+04  0.11662545517E+04  0.50400001928E-02 0. -1.
        1   -1    0    0  501    0  0.00000000000E+00  0.00000000000E+00 -0.15688336502E+04  0.15688336502E+04  0.50400001928E-02 0.  1.
    10030    2    1    2    0    0  0.00000000000E+00  0.00000000000E+00 -0.40257909850E+03  0.27350882019E+04  0.27052980504E+04 0.  0.
        3    1    3    3  502    0 -0.89762966608E+03  0.85182409960E+03 -0.75348717456E+03  0.14488223654E+04  0.10100000352E+00 0.  1.
       -3    1    3    3    0  502  0.89762966608E+03 -0.85182409960E+03  0.35090807606E+03  0.12862658365E+04  0.10100000352E+00 0. -1.
</event>
<event>
 5   0  0.6561875E-07  0.2700809E+04  0.7818609E-02  0.8334742E-01
        3   -1    0    0  501    0  0.00000000000E+00  0.00000000000E+00  0.18039780296E+04  0.18039780324E+04  0.10100000352E+00 0. -1.
       -3   -1    0    0    0  501  0.00000000000E+00  0.00000000000E+00 -0.10108729082E+04  0.10108729132E+04  0.10100000352E+00 0.  1.
    10030    2    1    2    0    0  0.00000000000E+00  0.00000000000E+00  0.79310512143E+03  0.28148509456E+04  0.27008091589E+04 0.  0.
        5    1    3    3  502    0  0.10308862856E+03  0.12302112284E+04  0.96694920333E+03  0.15681389554E+04  0.46999998093E+01 0. -1.
       -5    1    3    3    0  502 -0.10308862856E+03 -0.12302112284E+04 -0.17384408190E+03  0.12467119902E+04  0.46999998093E+01 0.  1.
</event>
<event>
 5   0  0.7566905E-07  0.2698921E+04  0.7818609E-02  0.8335355E-01
        1   -1    0    0  501    0  0.00000000000E+00  0.00000000000E+00  0.16964877369E+04  0.16964877369E+04  0.50400001928E-02 0. -1.
       -1   -1    0    0    0  501  0.00000000000E+00  0.00000000000E+00 -0.10734195110E+04  0.10734195110E+04  0.50400001928E-02 0.  1.
    10030    2    1    2    0    0  0.00000000000E+00  0.00000000000E+00  0.62306822597E+03  0.27699072479E+04  0.26989205523E+04 0.  0.
        1    1    3    3  502    0 -0.54565983892E+03 -0.11090527565E+04 -0.24428237350E+03  0.12599272021E+04  0.50400001928E-02 0.  1.
       -1    1    3    3    0  502  0.54565983892E+03  0.11090527565E+04  0.86735059947E+03  0.15099800459E+04  0.50400001928E-02 0. -1.
</event>
<event>
 5   0  0.7436613E-07  0.2694510E+04  0.7818609E-02  0.8336788E-01
       -1   -1    0    0    0  501  0.00000000000E+00  0.00000000000E+00  0.17460904408E+04  0.17460904408E+04  0.50400001928E-02 0.  1.
        1   -1    0    0  501    0  0.00000000000E+00  0.00000000000E+00 -0.10395201253E+04  0.10395201253E+04  0.50400001928E-02 0. -1.
    10030    2    1    2    0    0  0.00000000000E+00  0.00000000000E+00  0.70657031544E+03  0.27856105661E+04  0.26945100882E+04 0.  0.
        2    1    3    3  502    0  0.45798273421E+03  0.12470773375E+04  0.12178083955E+03  0.13340841965E+04  0.25500000920E-02 0.  1.
       -2    1    3    3    0  502 -0.45798273421E+03 -0.12470773375E+04  0.58478947589E+03  0.14515263696E+04  0.25500000920E-02 0. -1.
</event>
<event>
 5   0  0.7768032E-07  0.2697256E+04  0.7818609E-02  0.8335896E-01
       -1   -1    0    0    0  501  0.00000000000E+00  0.00000000000E+00  0.13115737781E+04  0.13115737781E+04  0.50400001928E-02 0. -1.
        1   -1    0    0  501    0  0.00000000000E+00  0.00000000000E+00 -0.13867291706E+04  0.13867291706E+04  0.50400001928E-02 0.  1.
    10030    2    1    2    0    0  0.00000000000E+00  0.00000000000E+00 -0.75155392437E+02  0.26983029487E+04  0.26972561002E+04 0.  0.
        4    1    3    3  502    0 -0.92497143510E+03 -0.11147989453E+03  0.93788848142E+03  0.13219819738E+04  0.12699999809E+01 0. -1.
       -4    1    3    3    0  502  0.92497143510E+03  0.11147989453E+03 -0.10130438739E+04  0.13763209749E+04  0.12699999809E+01 0.  1.
</event>
<event>
 5   0  0.6561875E-07  0.2705034E+04  0.7818609E-02  0.8333374E-01
        3   -1    0    0  501    0  0.00000000000E+00  0.00000000000E+00  0.17933837292E+04  0.17933837321E+04  0.10100000352E+00 0.  1.
       -3   -1    0    0    0  501  0.00000000000E+00  0.00000000000E+00 -0.10200281034E+04  0.10200281084E+04  0.10100000352E+00 0. -1.
    10030    2    1    2    0    0  0.00000000000E+00  0.00000000000E+00  0.77335562589E+03  0.28134118404E+04  0.27050336892E+04 0.  0.
        4    1    3    3  502    0  0.68889690763E+03  0.81942564546E+03  0.12463928861E+04  0.16430259211E+04  0.12699999809E+01 0.  1.
       -4    1    3    3    0  502 -0.68889690763E+03 -0.81942564546E+03 -0.47303726026E+03  0.11703859194E+04  0.12699999809E+01 0. -1.
</event>
<event>
 5   0  0.2030645E-06  0.2698447E+04  0.7818609E-02  0.8335509E-01
       -2   -1    0    0    0  501  0.00000000000E+00  0.00000000000E+00  0.93462924559E+03  0.93462924560E+03  0.25500000920E-02 0. -1.
        2   -1    0    0  501    0  0.00000000000E+00  0.00000000000E+00 -0.19477281510E+04  0.19477281510E+04  0.25500000920E-02 0.  1.
    10030    2    1    2    0    0  0.00000000000E+00  0.00000000000E+00 -0.10130989054E+04  0.28823573966E+04  0.26984467328E+04 0.  0.
        1    1    3    3  502    0 -0.11734234371E+04 -0.34813547773E+03 -0.11129401877E+04  0.16543145817E+04  0.50400001928E-02 0.  1.
       -1    1    3    3    0  502  0.11734234371E+04  0.34813547773E+03  0.99841282314E+02  0.12280428149E+04  0.50400001928E-02 0. -1.
</event>
<event>
 5   0  0.7436613E-07  0.2700902E+04  0.7818609E-02  0.8334712E-01
       -1   -1    0    0    0  501  0.00000000000E+00  0.00000000000E+00  0.22896801158E+04  0.22896801158E+04  0.50400001928E-02 0. -1.
        1   -1    0    0  501    0  0.00000000000E+00  0.00000000000E+00 -0.79649485157E+03  0.79649485159E+03  0.50400001928E-02 0.  1.
    10030    2    1    2    0    0  0.00000000000E+00  0.00000000000E+00  0.14931852642E+04  0.30861749674E+04  0.27009023855E+04 0.  0.
        2    1    3    3  502    0  0.12475705591E+04 -0.40089845527E+03  0.11196040400E+04  0.17235617418E+04  0.25500000920E-02 0. -1.
       -2    1    3    3    0  502 -0.12475705591E+04  0.40089845527E+03  0.37358122424E+03  0.13626132256E+04  0.25500000920E-02 0.  1.
</event>
<event>
 5   0  0.2063087E-06  0.2697446E+04  0.7818609E-02  0.8335834E-01
       -2   -1    0    0    0  501  0.00000000000E+00  0.00000000000E+00  0.17248889704E+04  0.17248889704E+04  0.25500000920E-02 0. -1.
        2   -1    0    0  501    0  0.00000000000E+00  0.00000000000E+00 -0.10545919858E+04  0.10545919858E+04  0.25500000920E-02 0.  1.
    10030    2    1    2    0    0  0.00000000000E+00  0.00000000000E+00  0.67029698461E+03  0.27794809561E+04  0.26974462623E+04 0.  0.
        3    1    3    3  502    0 -0.13124822254E+03  0.12074814740E+04 -0.26904248959E+03  0.12440343554E+04  0.10100000352E+00 0.  1.
       -3    1    3    3    0  502  0.13124822254E+03 -0.12074814740E+04  0.93933947420E+03  0.15354466008E+04  0.10100000352E+00 0. -1.
</event>
<event>
 5   0  0.7768032E-07  0.2700864E+04  0.7818609E-02  0.8334725E-01
       -1   -1    0    0    0  501  0.00000000000E+00  0.00000000000E+00  0.19833031251E+04  0.19833031251E+04  0.50400001928E-02 0. -1.
        1   -1    0    0  501    0  0.00000000000E+00  0.00000000000E+00 -0.91950959754E+03  0.91950959755E+03  0.50400001928E-02 0.  1.
    10030    2    1    2    0    0  0.00000000000E+00  0.00000000000E+00  0.10637935276E+04  0.29028127227E+04  0.27008637570E+04 0.  0.
        4    1    3    3  502    0 -0.41430076513E+03  0.56299107944E+03 -0.70994661159E+03  0.99630812690E+03  0.12699999809E+01 0.  1.
       -4    1    3    3    0  502  0.41430076513E+03 -0.56299107944E+03  0.17737401392E+04  0.19065045958E+04  0.12699999809E+01 0. -1.
</event>
<event>
 5   0  0.2030645E-06  0.2692179E+04  0.7818609E-02  0.8337547E-01
       -2   -1    0    0    0  501  0.00000000000E+00  0.00000000000E+00  0.12757394182E+04  0.12757394182E+04  0.25500000920E-02 0. -1.
        2   -1    0    0  501    0  0.00000000000E+00  0.00000000000E+00 -0.14203185353E+04  0.14203185353E+04  0.25500000920E-02 0.  1.
    10030    2    1    2    0    0  0.00000000000E+00  0.00000000000E+00 -0.14457911714E+03  0.26960579535E+04  0.26921785541E+04 0.  0.
        1    1    3    3  502    0 -0.47652222345E+03  0.11132072159E+04 -0.66105902768E+03  0.13796023967E+04  0.50400001928E-02 0. -1.
       -1    1    3    3    0  502  0.47652222345E+03 -0.11132072159E+04  0.51647991054E+03  0.13164555568E+04  0.50400001928E-02 0.  1.
</event>
<event>
 5   0  0.7335091E-07  0.2702173E+04  0.7818609E-02  0.8334300E-01
        1   -1    0    0  501    0  0.00000000000E+00  0.00000000000E+00  0.19043949088E+04  0.19043949088E+04  0.50400001928E-02 0.  1.
       -1   -1    0    0    0  501  0.00000000000E+00  0.00000000000E+00 -0.95853821521E+03  0.95853821522E+03  0.50400001928E-02 0. -1.
    10030    2    1    2    0    0  0.00000000000E+00  0.00000000000E+00  0.94585669359E+03  0.28629331240E+04  0.27021734193E+04 0.  0.
        3    1    3    3  502    0 -0.75391633458E+03 -0.77344816907E+03  0.13328967329E+04  0.17155831722E+04  0.10100000352E+00 0.  1.
       -3    1    3    3    0  502  0.75391633458E+03  0.77344816907E+03 -0.38704003933E+03  0.11473499519E+04  0.10100000352E+00 0. -1.
</event>
<event>
 5   0  0.1999104E-06  0.2706420E+04  0.7818609E-02  0.8332925E-01
        2   -1    0    0  501    0  0.00000000000E+00  0.00000000000E+00  0.17059692735E+04  0.17059692735E+04  0.25500000920E-02 0.  1.
       -2   -1    0    0    0  501  0.00000000000E+00  0.00000000000E+00 -0.10733937154E+04  0.10733937154E+04  0.25500000920E-02 0. -1.
    10030    2    1    2    0    0  0.00000000000E+00  0.00000000000E+00  0.63257555813E+03  0.27793629889E+04  0.27064195513E+04 0.  0.
        4    1    3    3  502    0 -0.13055467104E+04  0.11647097873E+03  0.66174286709E+03  0.14683061455E+04  0.12699999809E+01 0. -1.
       -4    1    3    3    0  502  0.13055467104E+04 -0.11647097873E+03 -0.29167308964E+02  0.13110568434E+04  0.12699999809E+01 0.  1.
</event>
<event>
 5   0  0.1999104E-06  0.2697591E+04  0.7818609E-02  0.8335787E-01
       -2   -1    0    0    0  501  0.00000000000E+00  0.00000000000E+00  0.14080331985E+04  0.14080331985E+04  0.25500000920E-02 0. -1.
        2   -1    0    0  501    0  0.00000000000E+00  0.00000000000E+00 -0.12920500877E+04  0.12920500877E+04  0.25500000920E-02 0.  1.
    10030    2    1    2    0    0  0.00000000000E+00  0.00000000000E+00  0.11598311079E+03  0.27000832862E+04  0.26975910866E+04 0.  0.
        4    1    3    3  502    0 -0.49586745552E+03 -0.12418904209E+04  0.23442537223E+03  0.13576204252E+04  0.12699999809E+01 0. -1.
       -4    1    3    3    0  502  0.49586745552E+03  0.12418904209E+04 -0.11844226144E+03  0.13424628610E+04  0.12699999809E+01 0.  1.
</event>
<event>
 5   0  0.1991277E-06  0.2701125E+04  0.7818609E-02  0.8334640E-01
       -2   -1    0    0    0  501  0.00000000000E+00  0.00000000000E+00  0.73293935955E+03  0.73293935956E+03  0.25500000920E-02 0. -1.
        2   -1    0    0  501    0  0.00000000000E+00  0.00000000000E+00 -0.24886358464E+04  0.24886358464E+04  0.25500000920E-02 0.  1.
    10030    2    1    2    0    0  0.00000000000E+00  0.00000000000E+00 -0.17556964869E+04  0.32215752060E+04  0.27011250719E+04 0.  0.
        5    1    3    3  502    0  0.20199637446E+03  0.20641207718E+03  0.69566950752E+03  0.75325071165E+03  0.46999998093E+01 0. -1.
       -5    1    3    3    0  502 -0.20199637446E+03 -0.20641207718E+03 -0.24513659944E+04  0.24683244943E+04  0.46999998093E+01 0.  1.
</event>
<event>
 5   0  0.1932012E-06  0.2707078E+04  0.7818609E-02  0.8332712E-01
        2   -1    0    0  501    0  0.00000000000E+00  0.00000000000E+00  0.27935468128E+04  0.27935468128E+04  0.25500000920E-02 0. -1.
       -2   -1    0    0    0  501  0.00000000000E+00  0.00000000000E+00 -0.65582138471E+03  0.65582138472E+03  0.25500000920E-02 0.  1.
    10030    2    1    2    0    0  0.00000000000E+00  0.00000000000E+00  0.21377254281E+04  0.34493681975E+04  0.27070779369E+04 0.  0.
        2    1    3    3  502    0 -0.23549457522E+03 -0.44374535187E+02  0.27663011986E+04  0.27766615054E+04  0.25500000920E-02 0. -1.
       -2    1    3    3    0  502  0.23549457522E+03  0.44374535187E+02 -0.62857577050E+03  0.67270669210E+03  0.25500000920E-02 0.  1.
</event>
<event>
 5   0  0.2063087E-06  0.2701141E+04  0.7818609E-02  0.8334635E-01
       -2   -1    0    0    0  501  0.00000000000E+00  0.00000000000E+00  0.53935683230E+03  0.53935683230E+03  0.25500000920E-02 0. -1.
        2   -1    0    0  501    0  0.00000000000E+00  0.00000000000E+00 -0.33818812428E+04  0.33818812428E+04  0.25500000920E-02 0.  1.
    10030    2    1    2    0    0  0.00000000000E+00  0.00000000000E+00 -0.28425244105E+04  0.39212380751E+04  0.27011410584E+04 0.  0.
        3    1    3    3  502    0 -0.71903375250E+03 -0.11485483437E+03  0.23000046050E+03  0.76361075965E+03  0.10100000352E+00 0. -1.
       -3    1    3    3    0  502  0.71903375250E+03  0.11485483437E+03 -0.30725248710E+04  0.31576273155E+04  0.10100000352E+00 0.  1.
</event>
<event>
 5   0  0.2063087E-06  0.2704290E+04  0.7818609E-02  0.8333614E-01
       -2   -1    0    0    0  501  0.00000000000E+00  0.00000000000E+00  0.96489778221E+03  0.96489778222E+03  0.25500000920E-02 0.  1.
        2   -1    0    0  501    0  0.00000000000E+00  0.00000000000E+00 -0.18948083418E+04  0.18948083418E+04  0.25500000920E-02 0. -1.
    10030    2    1    2    0    0  0.00000000000E+00  0.00000000000E+00 -0.92991055962E+03  0.28597061240E+04  0.27042901965E+04 0.  0.
        3    1    3    3  502    0 -0.30964782070E+03 -0.62718336644E+03  0.75872346956E+03  0.10319409196E+04  0.10100000352E+00 0.  1.
       -3    1    3    3    0  502  0.30964782070E+03  0.62718336644E+03 -0.16886340292E+04  0.18277652045E+04  0.10100000352E+00 0. -1.
</event>
<event>
 5   0  0.1932012E-06  0.2705495E+04  0.7818609E-02  0.8333224E-01
       -2   -1    0    0    0  501  0.00000000000E+00  0.00000000000E+00  0.15205661518E+04  0.15205661518E+04  0.25500000920E-02 0.  1.
        2   -1    0    0  501    0  0.00000000000E+00  0.00000000000E+00 -0.12034500683E+04  0.12034500683E+04  0.25500000920E-02 0. -1.
    10030    2    1    2    0    0  0.00000000000E+00  0.00000000000E+00  0.31711608344E+03  0.27240162201E+04  0.27054947343E+04 0.  0.
        2    1    3    3  502    0 -0.11072633747E+04 -0.54557707116E+03 -0.39861896631E+03  0.12971444028E+04  0.25500000920E-02 0. -1.
       -2    1    3    3    0  502  0.11072633747E+04  0.54557707116E+03  0.71573504975E+03  0.14268718173E+04  0.25500000920E-02 0.  1.
</event>
<event>
 5   0  0.7436613E-07  0.2700740E+04  0.7818609E-02  0.8334765E-01
       -1   -1    0    0    0  501  0.00000000000E+00  0.00000000000E+00  0.10903287583E+04  0.10903287583E+04  0.50400001928E-02 0. -1.
        1   -1    0    0  501    0  0.00000000000E+00  0.00000000000E+00 -0.16724305953E+04  0.16724305953E+04  0.50400001928E-02 0.  1.
    10030    2    1    2    0    0  0.00000000000E+00  0.00000000000E+00 -0.58210183699E+03  0.27627593536E+04  0.27007400277E+04 0.  0.
        2    1    3    3  502    0 -0.59703363913E+03 -0.39370486161E+03 -0.14628007201E+04  0.16282624576E+04  0.25500000920E-02 0.  1.
       -2    1    3    3    0  502  0.59703363913E+03  0.39370486161E+03  0.88069888309E+03  0.11344968960E+04  0.25500000920E-02 0. -1.
</event>
<event>
 5   0  0.2063087E-06  0.2700146E+04  0.7818609E-02  0.8334958E-01
       -2   -1    0    0    0  501  0.00000000000E+00  0.00000000000E+00  0.11157195057E+04  0.11157195057E+04  0.25500000920E-02 0.  1.
        2   -1    0    0  501    0  0.00000000000E+00  0.00000000000E+00 -0.16336511856E+04  0.16336511856E+04  0.25500000920E-02 0. -1.
    10030    2    1    2    0    0  0.00000000000E+00  0.00000000000E+00 -0.51793167990E+03  0.27493706914E+04  0.27001455467E+04 0.  0.
        3    1    3    3  502    0  0.12101202401E+04 -0.58803078775E+03 -0.14500914302E+03  0.13532179664E+04  0.10100000352E+00 0. -1.
       -3    1    3    3    0  502 -0.12101202401E+04  0.58803078775E+03 -0.37292253688E+03  0.13961527250E+04  0.10100000352E+00 0.  1.
</event>
<event>
 5   0  0.7566905E-07  0.2694700E+04  0.7818609E-02  0.8336727E-01
        1   -1    0    0  501    0  0.00000000000E+00  0.00000000000E+00  0.16586696035E+04  0.16586696035E+04  0.50400001928E-02 0. -1.
       -1   -1    0    0    0  501  0.00000000000E+00  0.00000000000E+00 -0.10944623699E+04  0.10944623700E+04  0.50400001928E-02 0.  1.
    10030    2    1    2    0    0  0.00000000000E+00  0.00000000000E+00  0.56420723355E+03  0.27531319735E+04  0.26946995864E+04 0.  0.
        1    1    3    3  502    0 -0.11608388178E+04  0.33192061012E+03  0.89309588985E+03  0.15017783861E+04  0.50400001928E-02 0.  1.
       -1    1    3    3    0  502  0.11608388178E+04 -0.33192061012E+03 -0.32888865631E+03  0.12513535874E+04  0.50400001928E-02 0. -1.
</event>
<event>
 5   0  0.2030645E-06  0.2692225E+04  0.7818609E-02  0.8337532E-01
        2   -1    0    0  501    0  0.00000000000E+00  0.00000000000E+00  0.17214562573E+04  0.17214562573E+04  0.25500000920E-02 0.  1.
       -2   -1    0    0    0  501  0.00000000000E+00  0.00000000000E+00 -0.10526082834E+04  0.10526082834E+04  0.25500000920E-02 0. -1.
    10030    2    1    2    0    0  0.00000000000E+00  0.00000000000E+00  0.66884797391E+03  0.27740645407E+04  0.26922251882E+04 0.  0.
        1    1    3    3  502    0 -0.64702681745E+03  0.96047936767E+03  0.10414716284E+04  0.15575068125E+04  0.50400001928E-02 0.  1.
       -1    1    3    3    0  502  0.64702681745E+03 -0.96047936767E+03 -0.37262365448E+03  0.12165577282E+04  0.50400001928E-02 0. -1.
</event>
<event>
 5   0  0.1932012E-06  0.2707106E+04  0.7818609E-02  0.8332703E-01
        2   -1    0    0  501    0  0.00000000000E+00  0.00000000000E+00  0.18098783438E+04  0.18098783438E+04  0.25500000920E-02 0. -1.
       -2   -1    0    0    0  501  0.00000000000E+00  0.00000000000E+00 -0.10122807949E+04  0.10122807949E+04  0.25500000920E-02 0.  1.
    10030    2    1    2    0    0  0.00000000000E+00  0.00000000000E+00  0.79759754886E+03  0.28221591387E+04  0.27071055307E+04 0.  0.
        2    1    3    3  502    0 -0.64921155851E+03 -0.70357654049E+03  0.13963413868E+04  0.16930046854E+04  0.25500000920E-02 0. -1.
       -2    1    3    3    0  502  0.64921155851E+03  0.70357654049E+03 -0.59874383797E+03  0.11291544534E+04  0.25500000920E-02 0.  1.
</event>
<event>
 5   0  0.7436613E-07  0.2695901E+04  0.7818609E-02  0.8336336E-01
       -1   -1    0    0    0  501  0.00000000000E+00  0.00000000000E+00  0.13187963696E+04  0.13187963696E+04  0.50400001928E-02 0. -1.
        1   -1    0    0  501    0  0.00000000000E+00  0.00000000000E+00 -0.13777491921E+04  0.13777491921E+04  0.50400001928E-02 0.  1.
    10030    2    1    2    0    0  0.00000000000E+00  0.00000000000E+00 -0.58952822477E+02  0.26965455618E+04  0.26959010611E+04 0.  0.
        2    1    3    3  502    0  0.10354712520E+03  0.97364459748E+03  0.89717089920E+03  0.13280140932E+04  0.25500000920E-02 0. -1.
       -2    1    3    3    0  502 -0.10354712520E+03 -0.97364459748E+03 -0.95612372168E+03  0.13685314686E+04  0.25500000920E-02 0.  1.
</event>
<event>
 5   0  0.1991277E-06  0.2693358E+04  0.7818609E-02  0.8337163E-01
        2   -1    0    0  501    0  0.00000000000E+00  0.00000000000E+00  0.98128836026E+03  0.98128836026E+03  0.25500000920E-02 0. -1.
       -2   -1    0    0    0  501  0.00000000000E+00  0.00000000000E+00 -0.18481256692E+04  0.18481256693E+04  0.25500000920E-02 0.  1.
    10030    2    1    2    0    0  0.00000000000E+00  0.00000000000E+00 -0.86683730899E+03  0.28294140295E+04  0.26933579098E+04 0.  0.
        5    1    3    3  502    0 -0.62766663977E+03  0.11904101644E+04 -0.48573756517E+03  0.14307357696E+04  0.46999998093E+01 0. -1.
       -5    1    3    3    0  502  0.62766663977E+03 -0.11904101644E+04 -0.38109974382E+03  0.13986782599E+04  0.46999998093E+01 0.  1.
</event>
<event>
 5   0  0.7335091E-07  0.2705537E+04  0.7818609E-02  0.8333211E-01
        1   -1    0    0  501    0  0.00000000000E+00  0.00000000000E+00  0.14694528373E+04  0.14694528373E+04  0.50400001928E-02 0.  1.
       -1   -1    0    0    0  501  0.00000000000E+00  0.00000000000E+00 -0.12453499895E+04  0.12453499895E+04  0.50400001928E-02 0. -1.
    10030    2    1    2    0    0  0.00000000000E+00  0.00000000000E+00  0.22410284780E+03  0.27148028267E+04  0.27055373406E+04 0.  0.
        3    1    3    3  502    0 -0.16925985743E+02 -0.52236026579E+02  0.14683341410E+04  0.14693604906E+04  0.10100000352E+00 0.  1.
       -3    1    3    3    0  502  0.16925985743E+02  0.52236026579E+02 -0.12442312932E+04  0.12454423361E+04  0.10100000352E+00 0. -1.
</event>
<event>
 5   0  0.7335091E-07  0.2696964E+04  0.7818609E-02  0.8335991E-01
        1   -1    0    0  501    0  0.00000000000E+00  0.00000000000E+00  0.19146300798E+04  0.19146300798E+04  0.50400001928E-02 0. -1.
       -1   -1    0    0    0  501  0.00000000000E+00  0.00000000000E+00 -0.94974140502E+03  0.94974140503E+03  0.50400001928E-02 0.  1.
    10030    2    1    2    0    0  0.00000000000E+00  0.00000000000E+00  0.96488867480E+03  0.28643714849E+04  0.26969638204E+04 0.  0.
        3    1    3    3  502    0 -0.44363781480E+03  0.48685819657E+03 -0.76726727040E+03  0.10112094188E+04  0.10100000352E+00 0.  1.
       -3    1    3    3    0  502  0.44363781480E+03 -0.48685819657E+03  0.17321559452E+04  0.18531620660E+04  0.10100000352E+00 0. -1.
</event>
<event>
 5   0  0.7768032E-07  0.2700190E+04  0.7818609E-02  0.8334943E-01
        1   -1    0    0  501    0  0.00000000000E+00  0.00000000000E+00  0.17355180549E+04  0.17355180550E+04  0.50400001928E-02 0.  1.
       -1   -1    0    0    0  501  0.00000000000E+00  0.00000000000E+00 -0.10502663506E+04  0.10502663506E+04  0.50400001928E-02 0. -1.
    10030    2    1    2    0    0  0.00000000000E+00  0.00000000000E+00  0.68525170439E+03  0.27857844055E+04  0.27001897814E+04 0.  0.
        4    1    3    3  502    0  0.15819182512E+03  0.38863020780E+03  0.16665405266E+04  0.17185508522E+04  0.12699999809E+01 0.  1.
       -4    1    3    3    0  502 -0.15819182512E+03 -0.38863020780E+03 -0.98128882218E+03  0.10672335533E+04  0.12699999809E+01 0. -1.
</event>
<event>
 5   0  0.1999104E-06  0.2699936E+04  0.7818609E-02  0.8335026E-01
       -2   -1    0    0    0  501  0.00000000000E+00  0.00000000000E+00  0.90318731568E+03  0.90318731568E+03  0.25500000920E-02 0. -1.
        2   -1    0    0  501    0  0.00000000000E+00  0.00000000000E+00 -0.20177575292E+04  0.20177575292E+04  0.25500000920E-02 0.  1.
    10030    2    1    2    0    0  0.00000000000E+00  0.00000000000E+00 -0.11145702135E+04  0.29209448449E+04  0.26999355596E+04 0.  0.
        4    1    3    3  502    0  0.10973928249E+04  0.18669184770E+03  0.26896386736E+03  0.11451934479E+04  0.12699999809E+01 0. -1.
       -4    1    3    3    0  502 -0.10973928249E+04 -0.18669184770E+03 -0.13835340809E+04  0.17757513970E+04  0.12699999809E+01 0.  1.
</event>
<event>
 5   0  0.1932012E-06  0.2693492E+04  0.7818609E-02  0.8337120E-01
       -2   -1    0    0    0  501  0.00000000000E+00  0.00000000000E+00  0.73804667845E+03  0.73804667846E+03  0.25500000920E-02 0. -1.
        2   -1    0    0  501    0  0.00000000000E+00  0.00000000000E+00 -0.24574663620E+04  0.24574663620E+04  0.25500000920E-02 0.  1.
    10030    2    1    2    0    0  0.00000000000E+00  0.00000000000E+00 -0.17194196835E+04  0.31955130404E+04  0.26934920723E+04 0.  0.
        2    1    3    3  502    0  0.29403361436E+03  0.24194176821E+03 -0.23922729211E+04  0.24223875236E+04  0.25500000920E-02 0.  1.
       -2    1    3    3    0  502 -0.29403361436E+03 -0.24194176821E+03  0.67285323752E+03  0.77312551686E+03  0.25500000920E-02 0. -1.
</event>
<event>
 5   0  0.1999104E-06  0.2698388E+04  0.7818609E-02  0.8335528E-01
       -2   -1    0    0    0  501  0.00000000000E+00  0.00000000000E+00  0.12075599114E+04  0.12075599114E+04  0.25500000920E-02 0. -1.
        2   -1    0    0  501    0  0.00000000000E+00  0.00000000000E+00 -0.15074407298E+04  0.15074407298E+04  0.25500000920E-02 0.  1.
    10030    2    1    2    0    0  0.00000000000E+00  0.00000000000E+00 -0.29988081840E+03  0.27150006412E+04  0.26983884035E+04 0.  0.
        4    1    3    3  502    0  0.10973910740E+04  0.63856550075E+03 -0.60913843389E+03  0.14082202642E+04  0.12699999809E+01 0.  1.
       -4    1    3    3    0  502 -0.10973910740E+04 -0.63856550075E+03  0.30925761549E+03  0.13067803770E+04  0.12699999809E+01 0. -1.
</event>
<event>
 5   0  0.2030645E-06  0.2728421E+04  0.7818609E-02  0.8325842E-01
       -2   -1    0    0    0  501  0.00000000000E+00  0.00000000000E+00  0.16557966616E+04  0.16557966616E+04  0.25500000920E-02 0.  1.
        2   -1    0    0  501    0  0.00000000000E+00  0.00000000000E+00 -0.11239723541E+04  0.11239723541E+04  0.25500000920E-02 0. -1.
    10030    2    1    2    0    0  0.00000000000E+00  0.00000000000E+00  0.53182430749E+03  0.27797690156E+04  0.27284205479E+04 0.  0.
        1    1    3    3  502    0  0.30332967658E+02  0.10650876232E+04  0.11338473724E+04  0.15559375302E+04  0.50400001928E-02 0.  1.
       -1    1    3    3    0  502 -0.30332967658E+02 -0.10650876232E+04 -0.60202306495E+03  0.12238314854E+04  0.50400001928E-02 0. -1.
</event>
<event>
 5   0  0.2063087E-06  0.2692005E+04  0.7818609E-02  0.8337604E-01
       -2   -1    0    0    0  501  0.00000000000E+00  0.00000000000E+00  0.96658883240E+03  0.96658883241E+03  0.25500000920E-02 0. -1.
        2   -1    0    0  501    0  0.00000000000E+00  0.00000000000E+00 -0.18743470128E+04  0.18743470128E+04  0.25500000920E-02 0.  1.
    10030    2    1    2    0    0  0.00000000000E+00  0.00000000000E+00 -0.90775818043E+03  0.28409358452E+04  0.26920051194E+04 0.  0.
        3    1    3    3  502    0  0.12899740273E+04 -0.38391141019E+03 -0.43554200188E+03  0.14146087118E+04  0.10100000352E+00 0. -1.
       -3    1    3    3    0  502 -0.12899740273E+04  0.38391141019E+03 -0.47221617855E+03  0.14263271334E+04  0.10100000352E+00 0.  1.
</event>
<event>
 5   0  0.7566905E-07  0.2705607E+04  0.7818609E-02  0.8333188E-01
        1   -1    0    0  501    0  0.00000000000E+00  0.00000000000E+00  0.13985938779E+04  0.13985938779E+04  0.50400001928E-02 0. -1.
       -1   -1    0    0    0  501  0.00000000000E+00  0.00000000000E+00 -0.13085121513E+04  0.13085121513E+04  0.50400001928E-02 0.  1.
    10030    2    1    2    0    0  0.00000000000E+00  0.00000000000E+00  0.90081726517E+02  0.27071060292E+04  0.27056068332E+04 0.  0.
        1    1    3    3  502    0  0.10011880492E+04 -0.35067011652E+02 -0.86456676549E+03  0.13232848889E+04  0.50400001928E-02 0.  1.
       -1    1    3    3    0  502 -0.10011880492E+04  0.35067011652E+02  0.95464849201E+03  0.13838211403E+04  0.50400001928E-02 0. -1.
</event>
<event>
 5   0  0.1932012E-06  0.2706831E+04  0.7818609E-02  0.8332792E-01
       -2   -1    0    0    0  501  0.00000000000E+00  0.00000000000E+00  0.18943329352E+04  0.18943329352E+04  0.25500000920E-02 0. -1.
        2   -1    0    0  501    0  0.00000000000E+00  0.00000000000E+00 -0.96695419058E+03  0.96695419058E+03  0.25500000920E-02 0.  1.
    10030    2    1    2    0    0  0.00000000000E+00  0.00000000000E+00  0.92737874458E+03  0.28612871257E+04  0.27068307446E+04 0.  0.
        2    1    3    3  502    0 -0.78021574472E+03  0.77827950138E+03  0.12941911982E+04  0.16998195340E+04  0.25500000920E-02 0. -1.
       -2    1    3    3    0  502  0.78021574472E+03 -0.77827950138E+03 -0.36681245361E+03  0.11614675918E+04  0.25500000920E-02 0.  1.
</event>
<event>
 5   0  0.7768032E-07  0.2694958E+04  0.7818609E-02  0.8336643E-01
        1   -1    0    0  501    0  0.00000000000E+00  0.00000000000E+00  0.21517111915E+04  0.21517111916E+04  0.50400001928E-02 0. -1.
       -1   -1    0    0    0  501  0.00000000000E+00  0.00000000000E+00 -0.84383989644E+03  0.84383989646E+03  0.50400001928E-02 0.  1.
    10030    2    1    2    0    0  0.00000000000E+00  0.00000000000E+00  0.13078712951E+04  0.29955510880E+04  0.26949580695E+04 0.  0.
        4    1    3    3  502    0  0.11151987502E+04  0.59943658389E+03  0.11665777218E+04  0.17215974165E+04  0.12699999809E+01 0. -1.
       -4    1    3    3    0  502 -0.11151987502E+04 -0.59943658389E+03  0.14129357327E+03  0.12739536715E+04  0.12699999809E+01 0.  1.
</event>
<event>
 5   0  0.1932012E-06  0.2701697E+04  0.7818609E-02  0.8334455E-01
        2   -1    0    0  501    0  0.00000000000E+00  0.00000000000E+00  0.99252896567E+03  0.99252896567E+03  0.25500000920E-02 0.  1.
       -2   -1    0    0    0  501  0.00000000000E+00  0.00000000000E+00 -0.18385271791E+04  0.18385271791E+04  0.25500000920E-02 0. -1.
    10030    2    1    2    0    0  0.00000000000E+00  0.00000000000E+00 -0.84599821339E+03  0.28310561447E+04  0.27016968589E+04 0.  0.
        2    1    3    3  502    0  0.12053687114E+03  0.10232770180E+04  0.49242323952E+03  0.11419744479E+04  0.25500000920E-02 0.  1.
       -2    1    3    3    0  502 -0.12053687114E+03 -0.10232770180E+04 -0.13384214529E+04  0.16890816968E+04  0.25500000920E-02 0. -1.
</event>
<event>
 5   0  0.1999104E-06  0.2704353E+04  0.7818609E-02  0.8333594E-01
       -2   -1    0    0    0  501  0.00000000000E+00  0.00000000000E+00  0.92088252604E+03  0.92088252604E+03  0.25500000920E-02 0.  1.
        2   -1    0    0  501    0  0.00000000000E+00  0.00000000000E+00 -0.19854656573E+04  0.19854656573E+04  0.25500000920E-02 0. -1.
    10030    2    1    2    0    0  0.00000000000E+00  0.00000000000E+00 -0.10645831313E+04  0.29063481833E+04  0.27043525139E+04 0.  0.
        4    1    3    3  502    0  0.23428965720E+03  0.58821087438E+03  0.75172814403E+03  0.98284306562E+03  0.12699999809E+01 0.  1.
       -4    1    3    3    0  502 -0.23428965720E+03 -0.58821087438E+03 -0.18163112753E+04  0.19235051177E+04  0.12699999809E+01 0. -1.
</event>
<event>
 5   0  0.7566905E-07  0.2692705E+04  0.7818609E-02  0.8337376E-01
        1   -1    0    0  501    0  0.00000000000E+00  0.00000000000E+00  0.10700589794E+04  0.10700589794E+04  0.50400001928E-02 0.  1.
       -1   -1    0    0    0  501  0.00000000000E+00  0.00000000000E+00 -0.16939856841E+04  0.16939856841E+04  0.50400001928E-02 0. -1.
    10030    2    1    2    0    0  0.00000000000E+00  0.00000000000E+00 -0.62392670469E+03  0.27640446635E+04  0.26927046568E+04 0.  0.
        1    1    3    3  502    0 -0.16866876743E+03  0.32273709984E+03 -0.16424736503E+04  0.16823578931E+04  0.50400001928E-02 0. -1.
       -1    1    3    3    0  502  0.16866876743E+03 -0.32273709984E+03  0.10185469456E+04  0.10816867703E+04  0.50400001928E-02 0.  1.
</event>
<event>
 5   0  0.7335091E-07  0.2676416E+04  0.7818609E-02  0.8342698E-01
       -1   -1    0    0    0  501  0.00000000000E+00  0.00000000000E+00  0.12955774546E+04  0.12955774546E+04  0.50400001928E-02 0. -1.
        1   -1    0    0  501    0  0.00000000000E+00  0.00000000000E+00 -0.13822416504E+04  0.13822416504E+04  0.50400001928E-02 0.  1.
    10030    2    1    2    0    0  0.00000000000E+00  0.00000000000E+00 -0.86664195777E+02  0.26778191051E+04  0.26764163496E+04 0.  0.
        3    1    3    3  502    0  0.63401595244E+03 -0.90554516822E+03  0.71126000025E+03  0.13144881429E+04  0.10100000352E+00 0. -1.
       -3    1    3    3    0  502 -0.63401595244E+03  0.90554516822E+03 -0.79792419603E+03  0.13633309622E+04  0.10100000352E+00 0.  1.
</event>
<event>
 5   0  0.2063087E-06  0.2703041E+04  0.7818609E-02  0.8334019E-01
        2   -1    0    0  501    0  0.00000000000E+00  0.00000000000E+00  0.23072525407E+04  0.23072525407E+04  0.25500000920E-02 0. -1.
       -2   -1    0    0    0  501  0.00000000000E+00  0.00000000000E+00 -0.79168105374E+03  0.79168105375E+03  0.25500000920E-02 0.  1.
    10030    2    1    2    0    0  0.00000000000E+00  0.00000000000E+00  0.15155714870E+04  0.30989335945E+04  0.27030413409E+04 0.  0.
        3    1    3    3  502    0 -0.79518987085E+02 -0.61992886100E+03 -0.61604340580E+03  0.87757879991E+03  0.10100000352E+00 0.  1.
       -3    1    3    3    0  502  0.79518987085E+02  0.61992886100E+03  0.21316148928E+04  0.22213547946E+04  0.10100000352E+00 0. -1.
</event>
<event>
 5   0  0.7806808E-07  0.2703704E+04  0.7818609E-02  0.8333804E-01
        1   -1    0    0  501    0  0.00000000000E+00  0.00000000000E+00  0.99632416383E+03  0.99632416384E+03  0.50400001928E-02 0.  1.
       -1   -1    0    0    0  501  0.00000000000E+00  0.00000000000E+00 -0.18342462548E+04  0.18342462548E+04  0.50400001928E-02 0. -1.
    10030    2    1    2    0    0  0.00000000000E+00  0.00000000000E+00 -0.83792209094E+03  0.28305704186E+04  0.27037040267E+04 0.  0.
        5    1    3    3  502    0  0.95446198422E+03 -0.52532446671E+03 -0.12568386598E+04  0.16633186650E+04  0.46999998093E+01 0. -1.
       -5    1    3    3    0  502 -0.95446198422E+03  0.52532446671E+03  0.41891656884E+03  0.11672517536E+04  0.46999998093E+01 0.  1.
</event>
<event>
 5   0  0.7768032E-07  0.2701627E+04  0.7818609E-02  0.8334477E-01
       -1   -1    0    0    0  501  0.00000000000E+00  0.00000000000E+00  0.10234273515E+04  0.10234273516E+04  0.50400001928E-02 0.  1.
        1   -1    0    0  501    0  0.00000000000E+00  0.00000000000E+00 -0.17829277228E+04  0.17829277228E+04  0.50400001928E-02 0. -1.
    10030    2    1    2    0    0  0.00000000000E+00  0.00000000000E+00 -0.75950037127E+03  0.28063550744E+04  0.27016269153E+04 0.  0.
        4    1    3    3  502    0 -0.43574973014E+03  0.11876121425E+04 -0.87181667565E+03  0.15363483841E+04  0.12699999809E+01 0. -1.
       -4    1    3    3    0  502  0.43574973014E+03 -0.11876121425E+04  0.11231630439E+03  0.12700066903E+04  0.12699999809E+01 0.  1.
</event>
<event>
 5   0  0.1999104E-06  0.2711186E+04  0.7818609E-02  0.8331385E-01
       -2   -1    0    0    0  501  0.00000000000E+00  0.00000000000E+00  0.12010287484E+04  0.12010287484E+04  0.25500000920E-02 0. -1.
        2   -1    0    0  501    0  0.00000000000E+00  0.00000000000E+00 -0.15300483486E+04  0.15300483486E+04  0.25500000920E-02 0.  1.
    10030    2    1    2    0    0  0.00000000000E+00  0.00000000000E+00 -0.32901960017E+03  0.27310770971E+04  0.27111857577E+04 0.  0.
        4    1    3    3  502    0  0.33628207549E+02 -0.87227528370E+03 -0.12092474162E+04  0.14914006683E+04  0.12699999809E+01 0.  1.
       -4    1    3    3    0  502 -0.33628207549E+02  0.87227528370E+03  0.88022781606E+03  0.12396764287E+04  0.12699999809E+01 0. -1.
</event>
<event>
 5   0  0.2030645E-06  0.2700764E+04  0.7818609E-02  0.8334757E-01
       -2   -1    0    0    0  501  0.00000000000E+00  0.00000000000E+00  0.71186319398E+03  0.71186319399E+03  0.25500000920E-02 0. -1.
        2   -1    0    0  501    0  0.00000000000E+00  0.00000000000E+00 -0.25616325968E+04  0.25616325969E+04  0.25500000920E-02 0.  1.
    10030    2    1    2    0    0  0.00000000000E+00  0.00000000000E+00 -0.18497694029E+04  0.32734957908E+04  0.27007643083E+04 0.  0.
        1    1    3    3  502    0 -0.12472652732E+04 -0.30174501742E+03 -0.14345441056E+04  0.19247434915E+04  0.50400001928E-02 0. -1.
       -1    1    3    3    0  502  0.12472652732E+04  0.30174501742E+03 -0.41522529727E+03  0.13487522993E+04  0.50400001928E-02 0.  1.
</event>
<event>
 5   0  0.7436613E-07  0.2699628E+04  0.7818609E-02  0.8335126E-01
        1   -1    0    0  501    0  0.00000000000E+00  0.00000000000E+00  0.15643432604E+04  0.15643432604E+04  0.50400001928E-02 0.  1.
       -1   -1    0    0    0  501  0.00000000000E+00  0.00000000000E+00 -0.11647042326E+04  0.11647042327E+04  0.50400001928E-02 0. -1.
    10030    2    1    2    0    0  0.00000000000E+00  0.00000000000E+00  0.39963902773E+03  0.27290474930E+04  0.26996275422E+04 0.  0.
        2    1    3    3  502    0 -0.98745158391E+03  0.87960368926E+03 -0.73747311960E+02  0.13244628899E+04  0.25500000920E-02 0. -1.
       -2    1    3    3    0  502  0.98745158391E+03 -0.87960368926E+03  0.47338633969E+03  0.14045846031E+04  0.25500000920E-02 0.  1.
</event>
<event>
 5   0  0.1932012E-06  0.2662560E+04  0.7818609E-02  0.8347256E-01
       -2   -1    0    0    0  501  0.00000000000E+00  0.00000000000E+00  0.14967565495E+04  0.14967565495E+04  0.25500000920E-02 0. -1.
        2   -1    0    0  501    0  0.00000000000E+00  0.00000000000E+00 -0.11840981339E+04  0.11840981339E+04  0.25500000920E-02 0.  1.
    10030    2    1    2    0    0  0.00000000000E+00  0.00000000000E+00  0.31265841566E+03  0.26808546834E+04  0.26625601493E+04 0.  0.
        2    1    3    3  502    0  0.14303060659E+03  0.50401880124E+03  0.13885904208E+04  0.14841415239E+04  0.25500000920E-02 0. -1.
       -2    1    3    3    0  502 -0.14303060659E+03 -0.50401880124E+03 -0.10759320051E+04  0.11967131595E+04  0.25500000920E-02 0.  1.
</event>
<event>
 5   0  0.2030645E-06  0.2694657E+04  0.7818609E-02  0.8336741E-01
       -2   -1    0    0    0  501  0.00000000000E+00  0.00000000000E+00  0.14414301553E+04  0.14414301553E+04  0.25500000920E-02 0.  1.
        2   -1    0    0  501    0  0.00000000000E+00  0.00000000000E+00 -0.12593705393E+04  0.12593705393E+04  0.25500000920E-02 0. -1.
    10030    2    1    2    0    0  0.00000000000E+00  0.00000000000E+00  0.18205961606E+03  0.27008006946E+04  0.26946574343E+04 0.  0.
        1    1    3    3  502    0  0.88996391543E+03 -0.84363641916E+03 -0.46839721127E+03  0.13126896534E+04  0.50400001928E-02 0. -1.
       -1    1    3    3    0  502 -0.88996391543E+03  0.84363641916E+03  0.65045682733E+03  0.13881110412E+04  0.50400001928E-02 0.  1.
</event>
<event>
 5   0  0.2063087E-06  0.2695749E+04  0.7818609E-02  0.8336386E-01
       -2   -1    0    0    0  501  0.00000000000E+00  0.00000000000E+00  0.10182847837E+04  0.10182847837E+04  0.25500000920E-02 0. -1.
        2   -1    0    0  501    0  0.00000000000E+00  0.00000000000E+00 -0.17841425557E+04  0.17841425557E+04  0.25500000920E-02 0.  1.
    10030    2    1    2    0    0  0.00000000000E+00  0.00000000000E+00 -0.76585777193E+03  0.28024273394E+04  0.26957486652E+04 0.  0.
        3    1    3    3  502    0  0.49266541463E+03  0.49606412220E+03 -0.15809059484E+04  0.17286012993E+04  0.10100000352E+00 0.  1.
       -3    1    3    3    0  502 -0.49266541463E+03 -0.49606412220E+03  0.81504817649E+03  0.10738260401E+04  0.10100000352E+00 0. -1.
</event>
<event>
 5   0  0.1932012E-06  0.2688606E+04  0.7818609E-02  0.8338711E-01
       -2   -1    0    0    0  501  0.00000000000E+00  0.00000000000E+00  0.10962333640E+04  0.10962333640E+04  0.25500000920E-02 0. -1.
        2   -1    0    0  501    0  0.00000000000E+00  0.00000000000E+00 -0.16485091018E+04  0.16485091018E+04  0.25500000920E-02 0.  1.
    10030    2    1    2    0    0  0.00000000000E+00  0.00000000000E+00 -0.55227573780E+03  0.27447424657E+04  0.26886060910E+04 0.  0.
        2    1    3    3  502    0  0.13122340974E+04 -0.14768571850E+03 -0.19124965595E+02  0.13206570948E+04  0.25500000920E-02 0. -1.
       -2    1    3    3    0  502 -0.13122340974E+04  0.14768571850E+03 -0.53315077221E+03  0.14240853709E+04  0.25500000920E-02 0.  1.
</event>
<event>
 5   0  0.7806808E-07  0.2694165E+04  0.7818609E-02  0.8336901E-01
        1   -1    0    0  501    0  0.00000000000E+00  0.00000000000E+00  0.12902064677E+04  0.12902064677E+04  0.50400001928E-02 0.  1.
       -1   -1    0    0    0  501  0.00000000000E+00  0.00000000000E+00 -0.14064654739E+04  0.14064654739E+04  0.50400001928E-02 0. -1.
    10030    2    1    2    0    0  0.00000000000E+00  0.00000000000E+00 -0.11625900617E+03  0.26966719416E+04  0.26941646950E+04 0.  0.
        5    1    3    3  502    0 -0.41305529404E+02  0.17845566896E+03 -0.13939336459E+04  0.14059252013E+04  0.46999998093E+01 0. -1.
       -5    1    3    3    0  502  0.41305529404E+02 -0.17845566896E+03  0.12776746397E+04  0.12907467403E+04  0.46999998093E+01 0.  1.
</event>
<event>
 5   0  0.1999104E-06  0.2702857E+04  0.7818609E-02  0.8334079E-01
       -2   -1    0    0    0  501  0.00000000000E+00  0.00000000000E+00  0.12226314856E+04  0.12226314856E+04  0.25500000920E-02 0.  1.
        2   -1    0    0  501    0  0.00000000000E+00  0.00000000000E+00 -0.14937933631E+04  0.14937933631E+04  0.25500000920E-02 0. -1.
    10030    2    1    2    0    0  0.00000000000E+00  0.00000000000E+00 -0.27116187755E+03  0.27164248487E+04  0.27028568580E+04 0.  0.
        4    1    3    3  502    0 -0.12901667972E+04 -0.15852782888E+03 -0.50716078643E+03  0.13953046668E+04  0.12699999809E+01 0. -1.
       -4    1    3    3    0  502  0.12901667972E+04  0.15852782888E+03  0.23599890888E+03  0.13211201819E+04  0.12699999809E+01 0.  1.
</event>
<event>
 5   0  0.7335091E-07  0.2699413E+04  0.7818609E-02  0.8335196E-01
       -1   -1    0    0    0  501  0.00000000000E+00  0.00000000000E+00  0.11721954356E+04  0.11721954356E+04  0.50400001928E-02 0.  1.
        1   -1    0    0  501    0  0.00000000000E+00  0.00000000000E+00 -0.15540987101E+04  0.15540987102E+04  0.50400001928E-02 0. -1.
    10030    2    1    2    0    0  0.00000000000E+00  0.00000000000E+00 -0.38190327453E+03  0.27262941458E+04  0.26994128358E+04 0.  0.
        3    1    3    3  502    0  0.11848478884E+04 -0.42660694753E+03 -0.68143105591E+03  0.14318541478E+04  0.10100000352E+00 0. -1.
       -3    1    3    3    0  502 -0.11848478884E+04  0.42660694753E+03  0.29952778138E+03  0.12944399980E+04  0.10100000352E+00 0.  1.
</event>
<event>
 5   0  0.7335091E-07  0.2702694E+04  0.7818609E-02  0.8334131E-01
        1   -1    0    0  501    0  0.00000000000E+00  0.00000000000E+00  0.18643635278E+04  0.18643635278E+04  0.50400001928E-02 0.  1.
       -1   -1    0    0    0  501  0.00000000000E+00  0.00000000000E+00 -0.97949711308E+03  0.97949711309E+03  0.50400001928E-02 0. -1.
    10030    2    1    2    0    0  0.00000000000E+00  0.00000000000E+00  0.88486641471E+03  0.28438606409E+04  0.27026939843E+04 0.  0.
        3    1    3    3  502    0 -0.10829711604E+04  0.72811764292E+03  0.81170039275E+03  0.15368276982E+04  0.10100000352E+00 0.  1.
       -3    1    3    3    0  502  0.10829711604E+04 -0.72811764292E+03  0.73166021959E+02  0.13070329427E+04  0.10100000352E+00 0. -1.
</event>
<event>
 5   0  0.2063087E-06  0.2701326E+04  0.7818609E-02  0.8334575E-01
        2   -1    0    0  501    0  0.00000000000E+00  0.00000000000E+00  0.18774865254E+04  0.18774865254E+04  0.25500000920E-02 0.  1.
       -2   -1    0    0    0  501  0.00000000000E+00  0.00000000000E+00 -0.97166603336E+03  0.97166603337E+03  0.25500000920E-02 0. -1.
    10030    2    1    2    0    0  0.00000000000E+00  0.00000000000E+00  0.90582049208E+03  0.28491525588E+04  0.27013255153E+04 0.  0.
        3    1    3    3  502    0 -0.12796976561E+04  0.37144431113E+03  0.68565057109E+03  0.14985705466E+04  0.10100000352E+00 0.  1.
       -3    1    3    3    0  502  0.12796976561E+04 -0.37144431113E+03  0.22016992099E+03  0.13505820122E+04  0.10100000352E+00 0. -1.
</event>
<event>
 5   0  0.6561875E-07  0.2698133E+04  0.7818609E-02  0.8335611E-01
        3   -1    0    0  501    0  0.00000000000E+00  0.00000000000E+00  0.12043400939E+04  0.12043400981E+04  0.10100000352E+00 0. -1.
       -3   -1    0    0    0  501  0.00000000000E+00  0.00000000000E+00 -0.15111846965E+04  0.15111846999E+04  0.10100000352E+00 0.  1.
    10030    2    1    2    0    0  0.00000000000E+00  0.00000000000E+00 -0.30684460263E+03  0.27155247981E+04  0.26981329320E+04 0.  0.
        5    1    3    3  502    0 -0.27256648200E+03  0.13191664811E+04 -0.79016418037E+02  0.13493548000E+04  0.46999998093E+01 0. -1.
       -5    1    3    3    0  502  0.27256648200E+03 -0.13191664811E+04 -0.22782818459E+03  0.13661699981E+04  0.46999998093E+01 0.  1.
</event>
<event>
 5   0  0.7335091E-07  0.2700475E+04  0.7818609E-02  0.8334851E-01
        1   -1    0    0  501    0  0.00000000000E+00  0.00000000000E+00  0.20971605975E+04  0.20971605975E+04  0.50400001928E-02 0. -1.
       -1   -1    0    0    0  501  0.00000000000E+00  0.00000000000E+00 -0.86933771895E+03  0.86933771896E+03  0.50400001928E-02 0.  1.
    10030    2    1    2    0    0  0.00000000000E+00  0.00000000000E+00  0.12278228785E+04  0.29664983164E+04  0.27004746324E+04 0.  0.
        3    1    3    3  502    0 -0.10617027300E+04 -0.83306309678E+03  0.66222077753E+03  0.15032442179E+04  0.10100000352E+00 0. -1.
       -3    1    3    3    0  502  0.10617027300E+04  0.83306309678E+03  0.56560210098E+03  0.14632540986E+04  0.10100000352E+00 0.  1.
</event>
<event>
 5   0  0.7768032E-07  0.2696980E+04  0.7818609E-02  0.8335986E-01
       -1   -1    0    0    0  501  0.00000000000E+00  0.00000000000E+00  0.16479272221E+04  0.16479272221E+04  0.50400001928E-02 0.  1.
        1   -1    0    0  501    0  0.00000000000E+00  0.00000000000E+00 -0.11034621097E+04  0.11034621097E+04  0.50400001928E-02 0. -1.
    10030    2    1    2    0    0  0.00000000000E+00  0.00000000000E+00  0.54446511236E+03  0.27513893318E+04  0.26969799770E+04 0.  0.
        4    1    3    3  502    0 -0.51980305696E+03  0.39614983614E+03  0.14755597742E+04  0.16138178866E+04  0.12699999809E+01 0.  1.
       -4    1    3    3    0  502  0.51980305696E+03 -0.39614983614E+03 -0.93109466189E+03  0.11375714452E+04  0.12699999809E+01 0. -1.
</event>
<event>
 5   0  0.7806808E-07  0.2685865E+04  0.7818609E-02  0.8339606E-01
       -1   -1    0    0    0  501  0.00000000000E+00  0.00000000000E+00  0.10241536128E+04  0.10241536128E+04  0.50400001928E-02 0.  1.
        1   -1    0    0  501    0  0.00000000000E+00  0.00000000000E+00 -0.17609341815E+04  0.17609341815E+04  0.50400001928E-02 0. -1.
    10030    2    1    2    0    0  0.00000000000E+00  0.00000000000E+00 -0.73678056876E+03  0.27850877943E+04  0.26858645564E+04 0.  0.
        5    1    3    3  502    0 -0.71218429615E+02 -0.20741699506E+03 -0.17422322699E+04  0.17559866876E+04  0.46999998093E+01 0. -1.
       -5    1    3    3    0  502  0.71218429615E+02  0.20741699506E+03  0.10054517012E+04  0.10291011067E+04  0.46999998093E+01 0.  1.
</event>
<event>
 5   0  0.7768032E-07  0.2704449E+04  0.7818609E-02  0.8333563E-01
       -1   -1    0    0    0  501  0.00000000000E+00  0.00000000000E+00  0.13398602184E+04  0.13398602184E+04  0.50400001928E-02 0. -1.
        1   -1    0    0  501    0  0.00000000000E+00  0.00000000000E+00 -0.13647031893E+04  0.13647031893E+04  0.50400001928E-02 0.  1.
    10030    2    1    2    0    0  0.00000000000E+00  0.00000000000E+00 -0.24842970927E+02  0.27045634077E+04  0.27044493068E+04 0.  0.
        4    1    3    3  502    0  0.57978289980E+03 -0.11848526537E+04 -0.30989979559E+03  0.13550142133E+04  0.12699999809E+01 0.  1.
       -4    1    3    3    0  502 -0.57978289980E+03  0.11848526537E+04  0.28505682466E+03  0.13495491944E+04  0.12699999809E+01 0. -1.
</event>
<event>
 5   0  0.2063087E-06  0.2722958E+04  0.7818609E-02  0.8327594E-01
        2   -1    0    0  501    0  0.00000000000E+00  0.00000000000E+00  0.19601328386E+04  0.19601328386E+04  0.25500000920E-02 0. -1.
       -2   -1    0    0    0  501  0.00000000000E+00  0.00000000000E+00 -0.94566299370E+03  0.94566299371E+03  0.25500000920E-02 0.  1.
    10030    2    1    2    0    0  0.00000000000E+00  0.00000000000E+00  0.10144698449E+04  0.29057958323E+04  0.27229580153E+04 0.  0.
        3    1    3    3  502    0 -0.16524530384E+03  0.13395336153E+04  0.69803873775E+03  0.15195112394E+04  0.10100000352E+00 0. -1.
       -3    1    3    3    0  502  0.16524530384E+03 -0.13395336153E+04  0.31643110717E+03  0.13862845930E+04  0.10100000352E+00 0.  1.
</event>
<event>
 5   0  0.7566905E-07  0.2698978E+04  0.7818609E-02  0.8335336E-01
        1   -1    0    0  501    0  0.00000000000E+00  0.00000000000E+00  0.18258442884E+04  0.18258442884E+04  0.50400001928E-02 0.  1.
       -1   -1    0    0    0  501  0.00000000000E+00  0.00000000000E+00 -0.99741319066E+03  0.99741319067E+03  0.50400001928E-02 0. -1.
    10030    2    1    2    0    0  0.00000000000E+00  0.00000000000E+00  0.82843109771E+03  0.28232574790E+04  0.26989784566E+04 0.  0.
        1    1    3    3  502    0 -0.27227758556E+03  0.13047343471E+04  0.19316933158E+03  0.13467669401E+04  0.50400001928E-02 0. -1.
       -1    1    3    3    0  502  0.27227758556E+03 -0.13047343471E+04  0.63526176613E+03  0.14764905390E+04  0.50400001928E-02 0.  1.
</event>
<event>
 5   0  0.2063087E-06  0.2700768E+04  0.7818609E-02  0.8334756E-01
       -2   -1    0    0    0  501  0.00000000000E+00  0.00000000000E+00  0.11360406546E+04  0.11360406546E+04  0.25500000920E-02 0.  1.
        2   -1    0    0  501    0  0.00000000000E+00  0.00000000000E+00 -0.16051683718E+04  0.16051683718E+04  0.25500000920E-02 0. -1.
    10030    2    1    2    0    0  0.00000000000E+00  0.00000000000E+00 -0.46912771722E+03  0.27412090264E+04  0.27007676892E+04 0.  0.
        3    1    3    3  502    0  0.82614456225E+02 -0.62295354863E+03 -0.14477190585E+04  0.15782226569E+04  0.10100000352E+00 0. -1.
       -3    1    3    3    0  502 -0.82614456225E+02  0.62295354863E+03  0.97859134129E+03  0.11629863695E+04  0.10100000352E+00 0.  1.
</event>
<event>
 5   0  0.1999104E-06  0.2700126E+04  0.7818609E-02  0.8334964E-01
        2   -1    0    0  501    0  0.00000000000E+00  0.00000000000E+00  0.10212279757E+04  0.10212279757E+04  0.25500000920E-02 0. -1.
       -2   -1    0    0    0  501  0.00000000000E+00  0.00000000000E+00 -0.17847829027E+04  0.17847829027E+04  0.25500000920E-02 0.  1.
    10030    2    1    2    0    0  0.00000000000E+00  0.00000000000E+00 -0.76355492705E+03  0.28060108784E+04  0.27001260939E+04 0.  0.
        4    1    3    3  502    0 -0.11529477957E+04 -0.51134852083E+03 -0.88222458586E+03  0.15391841222E+04  0.12699999809E+01 0.  1.
       -4    1    3    3    0  502  0.11529477957E+04  0.51134852083E+03  0.11866965881E+03  0.12668267562E+04  0.12699999809E+01 0. -1.
</event>
<event>
 5   0  0.7566905E-07  0.2700355E+04  0.7818609E-02  0.8334890E-01
       -1   -1    0    0    0  501  0.00000000000E+00  0.00000000000E+00  0.90791000685E+03  0.90791000686E+03  0.50400001928E-02 0. -1.
        1   -1    0    0  501    0  0.00000000000E+00  0.00000000000E+00 -0.20078855828E+04  0.20078855828E+04  0.50400001928E-02 0.  1.
    10030    2    1    2    0    0  0.00000000000E+00  0.00000000000E+00 -0.10999755760E+04  0.29157955897E+04  0.27003550976E+04 0.  0.
        1    1    3    3  502    0 -0.10808396221E+03  0.74322659354E+03 -0.17615167415E+04  0.19149436396E+04  0.50400001928E-02 0.  1.
       -1    1    3    3    0  502  0.10808396221E+03 -0.74322659354E+03  0.66154116555E+03  0.10008519501E+04  0.50400001928E-02 0. -1.
</event>
<event>
 5   0  0.7566905E-07  0.2705634E+04  0.7818609E-02  0.8333179E-01
       -1   -1    0    0    0  501  0.00000000000E+00  0.00000000000E+00  0.98784133815E+03  0.98784133816E+03  0.50400001928E-02 0. -1.
        1   -1    0    0  501    0  0.00000000000E+00  0.00000000000E+00 -0.18526388378E+04  0.18526388378E+04  0.50400001928E-02 0.  1.
    10030    2    1    2    0    0  0.00000000000E+00  0.00000000000E+00 -0.86479749961E+03  0.28404801759E+04  0.27056335514E+04 0.  0.
        1    1    3    3  502    0  0.42537930119E+02 -0.12295131057E+03 -0.18460557648E+04  0.18506345904E+04  0.50400001928E-02 0.  1.
       -1    1    3    3    0  502 -0.42537930119E+02  0.12295131057E+03  0.98125826518E+03  0.98984558557E+03  0.50400001928E-02 0. -1.
</event>
<event>
 5   0  0.1932012E-06  0.2696674E+04  0.7818609E-02  0.8336085E-01
        2   -1    0    0  501    0  0.00000000000E+00  0.00000000000E+00  0.18563073792E+04  0.18563073792E+04  0.25500000920E-02 0.  1.
       -2   -1    0    0    0  501  0.00000000000E+00  0.00000000000E+00 -0.97937042779E+03  0.97937042779E+03  0.25500000920E-02 0. -1.
    10030    2    1    2    0    0  0.00000000000E+00  0.00000000000E+00  0.87693695144E+03  0.28356778070E+04  0.26966739158E+04 0.  0.
        2    1    3    3  502    0 -0.89297365775E+03  0.99052135979E+03  0.64740107675E+03  0.14824515749E+04  0.25500000920E-02 0. -1.
       -2    1    3    3    0  502  0.89297365775E+03 -0.99052135979E+03  0.22953587469E+03  0.13532262322E+04  0.25500000920E-02 0.  1.
</event>
<event>
 5   0  0.2063087E-06  0.2702354E+04  0.7818609E-02  0.8334242E-01
       -2   -1    0    0    0  501  0.00000000000E+00  0.00000000000E+00  0.10993893240E+04  0.10993893240E+04  0.25500000920E-02 0.  1.
        2   -1    0    0  501    0  0.00000000000E+00  0.00000000000E+00 -0.16606300475E+04  0.16606300475E+04  0.25500000920E-02 0. -1.
    10030    2    1    2    0    0  0.00000000000E+00  0.00000000000E+00 -0.56124072347E+03  0.27600193715E+04  0.27023537483E+04 0.  0.
        3    1    3    3  502    0  0.69662507572E+03  0.89657696346E+03 -0.10287414016E+04  0.15321376012E+04  0.10100000352E+00 0. -1.
       -3    1    3    3    0  502 -0.69662507572E+03 -0.89657696346E+03  0.46750067809E+03  0.12278817703E+04  0.10100000352E+00 0.  1.
</event>
<event>
 5   0  0.7768032E-07  0.2695220E+04  0.7818609E-02  0.8336558E-01
        1   -1    0    0  501    0  0.00000000000E+00  0.00000000000E+00  0.89460290257E+03  0.89460290258E+03  0.50400001928E-02 0. -1.
       -1   -1    0    0    0  501  0.00000000000E+00  0.00000000000E+00 -0.20300098649E+04  0.20300098649E+04  0.50400001928E-02 0.  1.
    10030    2    1    2    0    0  0.00000000000E+00  0.00000000000E+00 -0.11354069624E+04  0.29246127675E+04  0.26952200040E+04 0.  0.
        4    1    3    3  502    0  0.14000810962E+03 -0.12977217279E+04 -0.93144580273E+03  0.16035201434E+04  0.12699999809E+01 0.  1.
       -4    1    3    3    0  502 -0.14000810962E+03  0.12977217279E+04 -0.20396115962E+03  0.13210926241E+04  0.12699999809E+01 0. -1.
</event>
<event>
 5   0  0.7436613E-07  0.2702029E+04  0.7818609E-02  0.8334347E-01
       -1   -1    0    0    0  501  0.00000000000E+00  0.00000000000E+00  0.14750835507E+04  0.14750835507E+04  0.50400001928E-02 0.  1.
        1   -1    0    0  501    0  0.00000000000E+00  0.00000000000E+00 -0.12373808107E+04  0.12373808107E+04  0.50400001928E-02 0. -1.
    10030    2    1    2    0    0  0.00000000000E+00  0.00000000000E+00  0.23770274004E+03  0.27124643614E+04  0.27020289264E+04 0.  0.
        2    1    3    3  502    0  0.46567317407E+03  0.13111869627E+03 -0.11474467118E+04  0.12452620503E+04  0.25500000920E-02 0. -1.
       -2    1    3    3    0  502 -0.46567317407E+03 -0.13111869627E+03  0.13851494519E+04  0.14672023110E+04  0.25500000920E-02 0.  1.
</event>
<event>
 5   0  0.7566905E-07  0.2692546E+04  0.7818609E-02  0.8337428E-01
        1   -1    0    0  501    0  0.00000000000E+00  0.00000000000E+00  0.17219515504E+04  0.17219515504E+04  0.50400001928E-02 0. -1.
       -1   -1    0    0    0  501  0.00000000000E+00  0.00000000000E+00 -0.10525560833E+04  0.10525560833E+04  0.50400001928E-02 0.  1.
    10030    2    1    2    0    0  0.00000000000E+00  0.00000000000E+00  0.66939546710E+03  0.27745076336E+04  0.26925456946E+04 0.  0.
        1    1    3    3  502    0  0.90914773831E+02  0.37904117633E+03 -0.99313681635E+03  0.10668919559E+04  0.50400001928E-02 0.  1.
       -1    1    3    3    0  502 -0.90914773831E+02 -0.37904117633E+03  0.16625322835E+04  0.17076156778E+04  0.50400001928E-02 0. -1.
</event>
<event>
 5   0  0.1932012E-06  0.2700016E+04  0.7818609E-02  0.8335000E-01
       -2   -1    0    0    0  501  0.00000000000E+00  0.00000000000E+00  0.19165387705E+04  0.19165387705E+04  0.25500000920E-02 0. -1.
        2   -1    0    0  501    0  0.00000000000E+00  0.00000000000E+00 -0.95094449311E+03  0.95094449311E+03  0.25500000920E-02 0.  1.
    10030    2    1    2    0    0  0.00000000000E+00  0.00000000000E+00  0.96559427738E+03  0.28674832636E+04  0.27000162886E+04 0.  0.
        2    1    3    3  502    0  0.47064854764E+01  0.10265356405E+04 -0.44835328583E+03  0.11201866993E+04  0.25500000920E-02 0.  1.
       -2    1    3    3    0  502 -0.47064854764E+01 -0.10265356405E+04  0.14139475632E+04  0.17472965644E+04  0.25500000920E-02 0. -1.
</event>
<event>
 5   0  0.7806808E-07  0.2700228E+04  0.7818609E-02  0.8334931E-01
        1   -1    0    0  501    0  0.00000000000E+00  0.00000000000E+00  0.19231489611E+04  0.19231489611E+04  0.50400001928E-02 0.  1.
       -1   -1    0    0    0  501  0.00000000000E+00  0.00000000000E+00 -0.94782421767E+03  0.94782421768E+03  0.50400001928E-02 0. -1.
    10030    2    1    2    0    0  0.00000000000E+00  0.00000000000E+00  0.97532474346E+03  0.28709731788E+04  0.27002275160E+04 0.  0.
        5    1    3    3  502    0 -0.52578573403E+03  0.79381305265E+03  0.15053694595E+04  0.17812212384E+04  0.46999998093E+01 0.  1.
       -5    1    3    3    0  502  0.52578573403E+03 -0.79381305265E+03 -0.53004471601E+03  0.10897519404E+04  0.46999998093E+01 0. -1.
</event>
<event>
 5   0  0.7335091E-07  0.2679498E+04  0.7818609E-02  0.8341688E-01
        1   -1    0    0  501    0  0.00000000000E+00  0.00000000000E+00  0.24032324803E+04  0.24032324803E+04  0.50400001928E-02 0. -1.
       -1   -1    0    0    0  501  0.00000000000E+00  0.00000000000E+00 -0.74688072731E+03  0.74688072732E+03  0.50400001928E-02 0.  1.
    10030    2    1    2    0    0  0.00000000000E+00  0.00000000000E+00  0.16563517530E+04  0.31501132076E+04  0.26794984775E+04 0.  0.
        3    1    3    3  502    0  0.12639076964E+04  0.61904304167E+02  0.13454998012E+04  0.18470691738E+04  0.10100000352E+00 0. -1.
       -3    1    3    3    0  502 -0.12639076964E+04 -0.61904304167E+02  0.31085195179E+03  0.13030440338E+04  0.10100000352E+00 0.  1.
</event>
<event>
 5   0  0.2063087E-06  0.2710086E+04  0.7818609E-02  0.8331740E-01
       -2   -1    0    0    0  501  0.00000000000E+00  0.00000000000E+00  0.80401129700E+03  0.80401129701E+03  0.25500000920E-02 0.  1.
        2   -1    0    0  501    0  0.00000000000E+00  0.00000000000E+00 -0.22837266144E+04  0.22837266144E+04  0.25500000920E-02 0. -1.
    10030    2    1    2    0    0  0.00000000000E+00  0.00000000000E+00 -0.14797153174E+04  0.30877379114E+04  0.27100863435E+04 0.  0.
        3    1    3    3  502    0 -0.12589557528E+03 -0.10011666415E+04 -0.17702976632E+04  0.20376796035E+04  0.10100000352E+00 0. -1.
       -3    1    3    3    0  502  0.12589557528E+03  0.10011666415E+04  0.29058234585E+03  0.10500583079E+04  0.10100000352E+00 0.  1.
</event>
<event>
 5   0  0.2063087E-06  0.2699492E+04  0.7818609E-02  0.8335170E-01
       -2   -1    0    0    0  501  0.00000000000E+00  0.00000000000E+00  0.11433577490E+04  0.11433577490E+04  0.25500000920E-02 0.  1.
        2   -1    0    0  501    0  0.00000000000E+00  0.00000000000E+00 -0.15933893100E+04  0.15933893100E+04  0.25500000920E-02 0. -1.
    10030    2    1    2    0    0  0.00000000000E+00  0.00000000000E+00 -0.45003156099E+03  0.27367470589E+04  0.26994918149E+04 0.  0.
        3    1    3    3  502    0 -0.38684922115E+02 -0.47687253763E+03 -0.15045392996E+04  0.15787787859E+04  0.10100000352E+00 0. -1.
       -3    1    3    3    0  502  0.38684922115E+02  0.47687253763E+03  0.10545077386E+04  0.11579682731E+04  0.10100000352E+00 0.  1.
</event>
<event>
 5   0  0.7566905E-07  0.2706547E+04  0.7818609E-02  0.8332884E-01
       -1   -1    0    0    0  501  0.00000000000E+00  0.00000000000E+00  0.11922763356E+04  0.11922763356E+04  0.50400001928E-02 0. -1.
        1   -1    0    0  501    0  0.00000000000E+00  0.00000000000E+00 -0.15360109637E+04  0.15360109637E+04  0.50400001928E-02 0.  1.
    10030    2    1    2    0    0  0.00000000000E+00  0.00000000000E+00 -0.34373462815E+03  0.27282872993E+04  0.27065472641E+04 0.  0.
        1    1    3    3  502    0 -0.37446100868E+02  0.77766586551E+02 -0.15332334968E+04  0.15356610330E+04  0.50400001928E-02 0.  1.
       -1    1    3    3    0  502  0.37446100868E+02 -0.77766586551E+02  0.11894988687E+04  0.11926262663E+04  0.50400001928E-02 0. -1.
</event>
<event>
 5   0  0.2030645E-06  0.2684365E+04  0.7818609E-02  0.8340096E-01
       -2   -1    0    0    0  501  0.00000000000E+00  0.00000000000E+00  0.13155908737E+04  0.13155908737E+04  0.25500000920E-02 0.  1.
        2   -1    0    0  501    0  0.00000000000E+00  0.00000000000E+00 -0.13693116163E+04  0.13693116163E+04  0.25500000920E-02 0. -1.
    10030    2    1    2    0    0  0.00000000000E+00  0.00000000000E+00 -0.53720742686E+02  0.26849024900E+04  0.26843650018E+04 0.  0.
        1    1    3    3  502    0 -0.84124442545E+03 -0.36584780599E+03  0.95308937760E+03  0.13228439675E+04  0.50400001928E-02 0.  1.
       -1    1    3    3    0  502  0.84124442545E+03  0.36584780599E+03 -0.10068101203E+04  0.13620585226E+04  0.50400001928E-02 0. -1.
</event>
<event>
 5   0  0.7768032E-07  0.2696542E+04  0.7818609E-02  0.8336128E-01
       -1   -1    0    0    0  501  0.00000000000E+00  0.00000000000E+00  0.77102837844E+03  0.77102837846E+03  0.50400001928E-02 0.  1.
        1   -1    0    0  501    0  0.00000000000E+00  0.00000000000E+00 -0.23576758178E+04  0.23576758178E+04  0.50400001928E-02 0. -1.
    10030    2    1    2    0    0  0.00000000000E+00  0.00000000000E+00 -0.15866474394E+04  0.31287041963E+04  0.26965422027E+04 0.  0.
        4    1    3    3  502    0 -0.69893517798E+03  0.88100588256E+03 -0.16562612752E+04  0.20019702227E+04  0.12699999809E+01 0. -1.
       -4    1    3    3    0  502  0.69893517798E+03 -0.88100588256E+03  0.69613835794E+02  0.11267339736E+04  0.12699999809E+01 0.  1.
</event>
<event>
 5   0  0.7566905E-07  0.2719807E+04  0.7818609E-02  0.8328607E-01
        1   -1    0    0  501    0  0.00000000000E+00  0.00000000000E+00  0.20889199370E+04  0.20889199370E+04  0.50400001928E-02 0. -1.
       -1   -1    0    0    0  501  0.00000000000E+00  0.00000000000E+00 -0.88530809048E+03  0.88530809049E+03  0.50400001928E-02 0.  1.
    10030    2    1    2    0    0  0.00000000000E+00  0.00000000000E+00  0.12036118465E+04  0.29742280275E+04  0.27198071407E+04 0.  0.
        1    1    3    3  502    0 -0.65053468107E+03  0.18890525417E+03 -0.68767510745E+03  0.96528628901E+03  0.50400001928E-02 0.  1.
       -1    1    3    3    0  502  0.65053468107E+03 -0.18890525417E+03  0.18912869539E+04  0.20089417384E+04  0.50400001928E-02 0. -1.
</event>
<event>
 5   0  0.7436613E-07  0.2696585E+04  0.7818609E-02  0.8336114E-01
        1   -1    0    0  501    0  0.00000000000E+00  0.00000000000E+00  0.11634712504E+04  0.11634712504E+04  0.50400001928E-02 0. -1.
       -1   -1    0    0    0  501  0.00000000000E+00  0.00000000000E+00 -0.15624735124E+04  0.15624735124E+04  0.50400001928E-02 0.  1.
    10030    2    1    2    0    0  0.00000000000E+00  0.00000000000E+00 -0.39900226205E+03  0.27259447628E+04  0.26965852563E+04 0.  0.
        2    1    3    3  502    0 -0.44890595185E+03  0.26178582457E+03  0.10581685151E+04  0.11788846330E+04  0.25500000920E-02 0. -1.
       -2    1    3    3    0  502  0.44890595185E+03 -0.26178582457E+03 -0.14571707771E+04  0.15470601298E+04  0.25500000920E-02 0.  1.
</event>
<event>
 5   0  0.2063087E-06  0.2702048E+04  0.7818609E-02  0.8334341E-01
        2   -1    0    0  501    0  0.00000000000E+00  0.00000000000E+00  0.13928171537E+04  0.13928171537E+04  0.25500000920E-02 0.  1.
       -2   -1    0    0    0  501  0.00000000000E+00  0.00000000000E+00 -0.13104844459E+04  0.13104844459E+04  0.25500000920E-02 0. -1.
    10030    2    1    2    0    0  0.00000000000E+00  0.00000000000E+00  0.82332707787E+02  0.27033015997E+04  0.27020475318E+04 0.  0.
        3    1    3    3  502    0  0.53465236930E+02  0.11718887286E+04  0.71161428919E+03  0.13720701988E+04  0.10100000352E+00 0.  1.
       -3    1    3    3    0  502 -0.53465236930E+02 -0.11718887286E+04 -0.62928158140E+03  0.13312314008E+04  0.10100000352E+00 0. -1.
</event>
<event>
 5   0  0.7768032E-07  0.2692900E+04  0.7818609E-02  0.8337312E-01
       -1   -1    0    0    0  501  0.00000000000E+00  0.00000000000E+00  0.95730541176E+03  0.95730541178E+03  0.50400001928E-02 0.  1.
        1   -1    0    0  501    0  0.00000000000E+00  0.00000000000E+00 -0.18937824994E+04  0.18937824994E+04  0.50400001928E-02 0. -1.
    10030    2    1    2    0    0  0.00000000000E+00  0.00000000000E+00 -0.93647708764E+03  0.28510879112E+04  0.26929004701E+04 0.  0.
        4    1    3    3  502    0 -0.65121983271E+02 -0.20047650638E+03  0.93972760993E+03  0.96307907052E+03  0.12699999809E+01 0.  1.
       -4    1    3    3    0  502  0.65121983271E+02  0.20047650638E+03 -0.18762046976E+04  0.18880088407E+04  0.12699999809E+01 0. -1.
</event>
<event>
 5   0  0.7436613E-07  0.2697763E+04  0.7818609E-02  0.8335731E-01
       -1   -1    0    0    0  501  0.00000000000E+00  0.00000000000E+00  0.16341016127E+04  0.16341016127E+04  0.50400001928E-02 0. -1.
        1   -1    0    0  501    0  0.00000000000E+00  0.00000000000E+00 -0.11134444843E+04  0.11134444843E+04  0.50400001928E-02 0.  1.
    10030    2    1    2    0    0  0.00000000000E+00  0.00000000000E+00  0.52065712841E+03  0.27475460970E+04  0.26977630937E+04 0.  0.
        2    1    3    3  502    0  0.11397885852E+03  0.13371340430E+04  0.39908812007E+03  0.14000678400E+04  0.25500000920E-02 0. -1.
       -2    1    3    3    0  502 -0.11397885852E+03 -0.13371340430E+04  0.12156900834E+03  0.13474782569E+04  0.25500000920E-02 0.  1.
</event>
<event>
 5   0  0.1932012E-06  0.2698587E+04  0.7818609E-02  0.8335464E-01
        2   -1    0    0  501    0  0.00000000000E+00  0.00000000000E+00  0.15811030198E+04  0.15811030198E+04  0.25500000920E-02 0.  1.
       -2   -1    0    0    0  501  0.00000000000E+00  0.00000000000E+00 -0.11514700657E+04  0.11514700657E+04  0.25500000920E-02 0. -1.
    10030    2    1    2    0    0  0.00000000000E+00  0.00000000000E+00  0.42963295416E+03  0.27325730855E+04  0.26985868880E+04 0.  0.
        2    1    3    3  502    0  0.65477658583E+03  0.53858140442E+03 -0.84806512720E+03  0.11991733680E+04  0.25500000920E-02 0. -1.
       -2    1    3    3    0  502 -0.65477658583E+03 -0.53858140442E+03  0.12776980814E+04  0.15333997175E+04  0.25500000920E-02 0.  1.
</event>
<event>
 5   0  0.7335091E-07  0.2696811E+04  0.7818609E-02  0.8336041E-01
        1   -1    0    0  501    0  0.00000000000E+00  0.00000000000E+00  0.14038064608E+04  0.14038064608E+04  0.50400001928E-02 0.  1.
       -1   -1    0    0    0  501  0.00000000000E+00  0.00000000000E+00 -0.12951905434E+04  0.12951905434E+04  0.50400001928E-02 0. -1.
    10030    2    1    2    0    0  0.00000000000E+00  0.00000000000E+00  0.10861591747E+03  0.26989970042E+04  0.26968105998E+04 0.  0.
        3    1    3    3  502    0  0.32100294941E+03  0.63940489018E+03  0.11981761114E+04  0.13955312649E+04  0.10100000352E+00 0.  1.
       -3    1    3    3    0  502 -0.32100294941E+03 -0.63940489018E+03 -0.10895601940E+04  0.13034657393E+04  0.10100000352E+00 0. -1.
</event>
<event>
 5   0  0.1991277E-06  0.2701648E+04  0.7818609E-02  0.8334470E-01
        2   -1    0    0  501    0  0.00000000000E+00  0.00000000000E+00  0.13193079773E+04  0.13193079773E+04  0.25500000920E-02 0. -1.
       -2   -1    0    0    0  501  0.00000000000E+00  0.00000000000E+00 -0.13830930510E+04  0.13830930510E+04  0.25500000920E-02 0.  1.
    10030    2    1    2    0    0  0.00000000000E+00  0.00000000000E+00 -0.63785073736E+02  0.27024010283E+04  0.27016481603E+04 0.  0.
        5    1    3    3  502    0 -0.55847500993E+02 -0.30993315953E+02  0.13177885085E+04  0.13193438415E+04  0.46999998093E+01 0. -1.
       -5    1    3    3    0  502  0.55847500993E+02  0.30993315953E+02 -0.13815735822E+04  0.13830571868E+04  0.46999998093E+01 0.  1.
</event>
<event>
 5   0  0.7335091E-07  0.2708752E+04  0.7818609E-02  0.8332171E-01
       -1   -1    0    0    0  501  0.00000000000E+00  0.00000000000E+00  0.10917459814E+04  0.10917459814E+04  0.50400001928E-02 0. -1.
        1   -1    0    0  501    0  0.00000000000E+00  0.00000000000E+00 -0.16801841489E+04  0.16801841489E+04  0.50400001928E-02 0.  1.
    10030    2    1    2    0    0  0.00000000000E+00  0.00000000000E+00 -0.58843816753E+03  0.27719301304E+04  0.27087519581E+04 0.  0.
        3    1    3    3  502    0 -0.93883561985E+03 -0.96895170836E+03 -0.17290213305E+03  0.13602113409E+04  0.10100000352E+00 0. -1.
       -3    1    3    3    0  502  0.93883561985E+03  0.96895170836E+03 -0.41553603448E+03  0.14117187894E+04  0.10100000352E+00 0.  1.
</event>
<event>
 5   0  0.1932012E-06  0.2697910E+04  0.7818609E-02  0.8335683E-01
        2   -1    0    0  501    0  0.00000000000E+00  0.00000000000E+00  0.10893712313E+04  0.10893712313E+04  0.25500000920E-02 0. -1.
       -2   -1    0    0    0  501  0.00000000000E+00  0.00000000000E+00 -0.16703945303E+04  0.16703945303E+04  0.25500000920E-02 0.  1.
    10030    2    1    2    0    0  0.00000000000E+00  0.00000000000E+00 -0.58102329897E+03  0.27597657616E+04  0.26979101143E+04 0.  0.
        2    1    3    3  502    0  0.10836532318E+04  0.79953642485E+03 -0.21050772106E+03  0.13630393692E+04  0.25500000920E-02 0.  1.
       -2    1    3    3    0  502 -0.10836532318E+04 -0.79953642485E+03 -0.37051557791E+03  0.13967263923E+04  0.25500000920E-02 0. -1.
</event>
<event>
 5   0  0.1932012E-06  0.2700914E+04  0.7818609E-02  0.8334708E-01
        2   -1    0    0  501    0  0.00000000000E+00  0.00000000000E+00  0.18582229179E+04  0.18582229180E+04  0.25500000920E-02 0. -1.
       -2   -1    0    0    0  501  0.00000000000E+00  0.00000000000E+00 -0.98144019712E+03  0.98144019713E+03  0.25500000920E-02 0.  1.
    10030    2    1    2    0    0  0.00000000000E+00  0.00000000000E+00  0.87678272083E+03  0.28396631151E+04  0.27009144132E+04 0.  0.
        2    1    3    3  502    0 -0.63710187757E+03 -0.10626119313E+04  0.10032934523E+04  0.15942523860E+04  0.25500000920E-02 0. -1.
       -2    1    3    3    0  502  0.63710187757E+03  0.10626119313E+04 -0.12651073147E+03  0.12454107291E+04  0.25500000920E-02 0.  1.
</event>
<event>
 5   0  0.7566905E-07  0.2694727E+04  0.7818609E-02  0.8336718E-01
        1   -1    0    0  501    0  0.00000000000E+00  0.00000000000E+00  0.19418933063E+04  0.19418933063E+04  0.50400001928E-02 0.  1.
       -1   -1    0    0    0  501  0.00000000000E+00  0.00000000000E+00 -0.93485460878E+03  0.93485460880E+03  0.50400001928E-02 0. -1.
    10030    2    1    2    0    0  0.00000000000E+00  0.00000000000E+00  0.10070386975E+04  0.28767479151E+04  0.26947266334E+04 0.  0.
        1    1    3    3  502    0 -0.59795591289E+03 -0.21099097175E+03  0.17726527062E+04  0.18826486876E+04  0.50400001928E-02 0.  1.
       -1    1    3    3    0  502  0.59795591289E+03  0.21099097175E+03 -0.76561400868E+03  0.99409922756E+03  0.50400001928E-02 0. -1.
</event>
<event>
 5   0  0.2063087E-06  0.2699297E+04  0.7818609E-02  0.8335233E-01
       -2   -1    0    0    0  501  0.00000000000E+00  0.00000000000E+00  0.13089688485E+04  0.13089688485E+04  0.25500000920E-02 0. -1.
        2   -1    0    0  501    0  0.00000000000E+00  0.00000000000E+00 -0.13915928808E+04  0.13915928808E+04  0.25500000920E-02 0.  1.
    10030    2    1    2    0    0  0.00000000000E+00  0.00000000000E+00 -0.82624032330E+02  0.27005617292E+04  0.26992974869E+04 0.  0.
        3    1    3    3  502    0  0.62635878399E+03  0.75248630859E+03  0.88809603157E+03  0.13218455062E+04  0.10100000352E+00 0. -1.
       -3    1    3    3    0  502 -0.62635878399E+03 -0.75248630859E+03 -0.97072006390E+03  0.13787162230E+04  0.10100000352E+00 0.  1.
</event>
<event>
 5   0  0.1932012E-06  0.2699801E+04  0.7818609E-02  0.8335070E-01
       -2   -1    0    0    0  501  0.00000000000E+00  0.00000000000E+00  0.12501312012E+04  0.12501312012E+04  0.25500000920E-02 0. -1.
        2   -1    0    0  501    0  0.00000000000E+00  0.00000000000E+00 -0.14576317886E+04  0.14576317886E+04  0.25500000920E-02 0.  1.
    10030    2    1    2    0    0  0.00000000000E+00  0.00000000000E+00 -0.20750058737E+03  0.27077629898E+04  0.26998007177E+04 0.  0.
        2    1    3    3  502    0 -0.13091536763E+03 -0.11783927677E+04 -0.75100823303E+03  0.14034819966E+04  0.25500000920E-02 0.  1.
       -2    1    3    3    0  502  0.13091536763E+03  0.11783927677E+04  0.54350764567E+03  0.13042809933E+04  0.25500000920E-02 0. -1.
</event>
<event>
 5   0  0.7335091E-07  0.2703868E+04  0.7818609E-02  0.8333751E-01
       -1   -1    0    0    0  501  0.00000000000E+00  0.00000000000E+00  0.72627257831E+03  0.72627257833E+03  0.50400001928E-02 0. -1.
        1   -1    0    0  501    0  0.00000000000E+00  0.00000000000E+00 -0.25165839520E+04  0.25165839520E+04  0.50400001928E-02 0.  1.
    10030    2    1    2    0    0  0.00000000000E+00  0.00000000000E+00 -0.17903113737E+04  0.32428565303E+04  0.27038682774E+04 0.  0.
        3    1    3    3  502    0  0.10399598328E+04  0.21156140958E+03 -0.18996348737E+04  0.21759796294E+04  0.10100000352E+00 0.  1.
       -3    1    3    3    0  502 -0.10399598328E+04 -0.21156140958E+03  0.10932350001E+03  0.10668769010E+04  0.10100000352E+00 0. -1.
</event>
<event>
 5   0  0.7335091E-07  0.2691053E+04  0.7818609E-02  0.8337914E-01
        1   -1    0    0  501    0  0.00000000000E+00  0.00000000000E+00  0.52386520059E+03  0.52386520061E+03  0.50400001928E-02 0.  1.
       -1   -1    0    0    0  501  0.00000000000E+00  0.00000000000E+00 -0.34559302687E+04  0.34559302687E+04  0.50400001928E-02 0. -1.
    10030    2    1    2    0    0  0.00000000000E+00  0.00000000000E+00 -0.29320650681E+04  0.39797954694E+04  0.26910530307E+04 0.  0.
        3    1    3    3  502    0 -0.10342697140E+04  0.11435000400E+03 -0.27275704549E+04  0.29193201883E+04  0.10100000352E+00 0. -1.
       -3    1    3    3    0  502  0.10342697140E+04 -0.11435000400E+03 -0.20449461320E+03  0.10604752811E+04  0.10100000352E+00 0.  1.
</event>
<event>
 5   0  0.7768032E-07  0.2699466E+04  0.7818609E-02  0.8335178E-01
        1   -1    0    0  501    0  0.00000000000E+00  0.00000000000E+00  0.17652289813E+04  0.17652289813E+04  0.50400001928E-02 0.  1.
       -1   -1    0    0    0  501  0.00000000000E+00  0.00000000000E+00 -0.10320356854E+04  0.10320356854E+04  0.50400001928E-02 0. -1.
    10030    2    1    2    0    0  0.00000000000E+00  0.00000000000E+00  0.73319329591E+03  0.27972646667E+04  0.26994660965E+04 0.  0.
        4    1    3    3  502    0  0.35144246061E+03 -0.59393535713E+03  0.15685804382E+04  0.17136852732E+04  0.12699999809E+01 0.  1.
       -4    1    3    3    0  502 -0.35144246061E+03  0.59393535713E+03 -0.83538714227E+03  0.10835793935E+04  0.12699999809E+01 0. -1.
</event>
<event>
 5   0  0.2063087E-06  0.2698803E+04  0.7818609E-02  0.8335394E-01
       -2   -1    0    0    0  501  0.00000000000E+00  0.00000000000E+00  0.11201484904E+04  0.11201484904E+04  0.25500000920E-02 0. -1.
        2   -1    0    0  501    0  0.00000000000E+00  0.00000000000E+00 -0.16255736715E+04  0.16255736715E+04  0.25500000920E-02 0.  1.
    10030    2    1    2    0    0  0.00000000000E+00  0.00000000000E+00 -0.50542518112E+03  0.27457221618E+04  0.26988026190E+04 0.  0.
        3    1    3    3  502    0  0.47370042486E+03  0.34533714465E+03 -0.14892581455E+04  0.16004810746E+04  0.10100000352E+00 0.  1.
       -3    1    3    3    0  502 -0.47370042486E+03 -0.34533714465E+03  0.98383296437E+03  0.11452410873E+04  0.10100000352E+00 0. -1.
</event>
<event>
 5   0  0.1932012E-06  0.2688161E+04  0.7818609E-02  0.8338857E-01
        2   -1    0    0  501    0  0.00000000000E+00  0.00000000000E+00  0.27957360035E+04  0.27957360035E+04  0.25500000920E-02 0. -1.
       -2   -1    0    0    0  501  0.00000000000E+00  0.00000000000E+00 -0.64618113506E+03  0.64618113507E+03  0.25500000920E-02 0.  1.
    10030    2    1    2    0    0  0.00000000000E+00  0.00000000000E+00  0.21495548684E+04  0.34419171386E+04  0.26881606084E+04 0.  0.
        2    1    3    3  502    0 -0.13293395731E+04  0.13300947854E+03  0.12634642406E+04  0.18387977348E+04  0.25500000920E-02 0.  1.
       -2    1    3    3    0  502  0.13293395731E+04 -0.13300947854E+03  0.88609062784E+03  0.16031194038E+04  0.25500000920E-02 0. -1.
</event>
<event>
 5   0  0.1999104E-06  0.2700052E+04  0.7818609E-02  0.8334988E-01
       -2   -1    0    0    0  501  0.00000000000E+00  0.00000000000E+00  0.20005111631E+04  0.20005111631E+04  0.25500000920E-02 0. -1.
        2   -1    0    0  501    0  0.00000000000E+00  0.00000000000E+00 -0.91105212599E+03  0.91105212600E+03  0.25500000920E-02 0.  1.
    10030    2    1    2    0    0  0.00000000000E+00  0.00000000000E+00  0.10894590371E+04  0.29115632891E+04  0.27000518130E+04 0.  0.
        4    1    3    3  502    0 -0.40282997967E+03  0.76877857440E+03 -0.57033247947E+03  0.10385438070E+04  0.12699999809E+01 0.  1.
       -4    1    3    3    0  502  0.40282997967E+03 -0.76877857440E+03  0.16597915166E+04  0.18730194821E+04  0.12699999809E+01 0. -1.
</event>
<event>
 5   0  0.7436613E-07  0.2699745E+04  0.7818609E-02  0.8335088E-01
       -1   -1    0    0    0  501  0.00000000000E+00  0.00000000000E+00  0.94313172992E+03  0.94313172994E+03  0.50400001928E-02 0.  1.
        1   -1    0    0  501    0  0.00000000000E+00  0.00000000000E+00 -0.19320262723E+04  0.19320262723E+04  0.50400001928E-02 0. -1.
    10030    2    1    2    0    0  0.00000000000E+00  0.00000000000E+00 -0.98889454237E+03  0.28751580022E+04  0.26997446401E+04 0.  0.
        2    1    3    3  502    0  0.30228458888E+03  0.94226594450E+03 -0.14722037737E+04  0.17738728912E+04  0.25500000920E-02 0. -1.
       -2    1    3    3    0  502 -0.30228458888E+03 -0.94226594450E+03  0.48330923128E+03  0.11012851111E+04  0.25500000920E-02 0.  1.
</event>
<event>
 5   0  0.2063087E-06  0.2690319E+04  0.7818609E-02  0.8338153E-01
       -2   -1    0    0    0  501  0.00000000000E+00  0.00000000000E+00  0.95212772212E+03  0.95212772213E+03  0.25500000920E-02 0.  1.
        2   -1    0    0  501    0  0.00000000000E+00  0.00000000000E+00 -0.19004322448E+04  0.19004322448E+04  0.25500000920E-02 0. -1.
    10030    2    1    2    0    0  0.00000000000E+00  0.00000000000E+00 -0.94830452267E+03  0.28525599669E+04  0.26903191069E+04 0.  0.
        3    1    3    3  502    0 -0.10946754150E+04 -0.55941670171E+03 -0.10531536948E+04  0.16187631159E+04  0.10100000352E+00 0. -1.
       -3    1    3    3    0  502  0.10946754150E+04  0.55941670171E+03  0.10484917214E+03  0.12337968510E+04  0.10100000352E+00 0.  1.
</event>
<event>
 5   0  0.1932012E-06  0.2711256E+04  0.7818609E-02  0.8331362E-01
        2   -1    0    0  501    0  0.00000000000E+00  0.00000000000E+00  0.17402317878E+04  0.17402317878E+04  0.25500000920E-02 0.  1.
       -2   -1    0    0    0  501  0.00000000000E+00  0.00000000000E+00 -0.10560242360E+04  0.10560242360E+04  0.25500000920E-02 0. -1.
    10030    2    1    2    0    0  0.00000000000E+00  0.00000000000E+00  0.68420755182E+03  0.27962560239E+04  0.27112557565E+04 0.  0.
        2    1    3    3  502    0  0.11017283145E+03 -0.96481476100E+03 -0.63344805961E+03  0.11594231411E+04  0.25500000920E-02 0. -1.
       -2    1    3    3    0  502 -0.11017283145E+03  0.96481476100E+03  0.13176556114E+04  0.16368328828E+04  0.25500000920E-02 0.  1.
</event>
<event>
 5   0  0.7566905E-07  0.2703201E+04  0.7818609E-02  0.8333967E-01
       -1   -1    0    0    0  501  0.00000000000E+00  0.00000000000E+00  0.54389961361E+03  0.54389961363E+03  0.50400001928E-02 0. -1.
        1   -1    0    0  501    0  0.00000000000E+00  0.00000000000E+00 -0.33587513205E+04  0.33587513205E+04  0.50400001928E-02 0.  1.
    10030    2    1    2    0    0  0.00000000000E+00  0.00000000000E+00 -0.28148517069E+04  0.39026509342E+04  0.27032007291E+04 0.  0.
        1    1    3    3  502    0  0.82459244128E+03  0.17487951831E+02 -0.29533235743E+04  0.30663298351E+04  0.50400001928E-02 0.  1.
       -1    1    3    3    0  502 -0.82459244128E+03 -0.17487951831E+02  0.13847186742E+03  0.83632109908E+03  0.50400001928E-02 0. -1.
</event>
<event>
 5   0  0.7806808E-07  0.2694430E+04  0.7818609E-02  0.8336814E-01
        1   -1    0    0  501    0  0.00000000000E+00  0.00000000000E+00  0.69597649699E+03  0.69597649700E+03  0.50400001928E-02 0. -1.
       -1   -1    0    0    0  501  0.00000000000E+00  0.00000000000E+00 -0.26078305075E+04  0.26078305075E+04  0.50400001928E-02 0.  1.
    10030    2    1    2    0    0  0.00000000000E+00  0.00000000000E+00 -0.19118540105E+04  0.33038070045E+04  0.26944303601E+04 0.  0.
        5    1    3    3  502    0  0.57794417245E+03  0.62494335505E+03 -0.22363080358E+04  0.23928370994E+04  0.46999998093E+01 0.  1.
       -5    1    3    3    0  502 -0.57794417245E+03 -0.62494335505E+03  0.32445402526E+03  0.91096990510E+03  0.46999998093E+01 0. -1.
</event>
<event>
 5   0  0.7768032E-07  0.2702352E+04  0.7818609E-02  0.8334242E-01
        1   -1    0    0  501    0  0.00000000000E+00  0.00000000000E+00  0.21633838476E+04  0.21633838476E+04  0.50400001928E-02 0.  1.
       -1   -1    0    0    0  501  0.00000000000E+00  0.00000000000E+00 -0.84389878828E+03  0.84389878830E+03  0.50400001928E-02 0. -1.
    10030    2    1    2    0    0  0.00000000000E+00  0.00000000000E+00  0.13194850593E+04  0.30072826359E+04  0.27023523143E+04 0.  0.
        4    1    3    3  502    0 -0.13203064811E+04 -0.23822950240E+03  0.48129613989E+03  0.14253456026E+04  0.12699999809E+01 0. -1.
       -4    1    3    3    0  502  0.13203064811E+04  0.23822950240E+03  0.83818891943E+03  0.15819370333E+04  0.12699999809E+01 0.  1.
</event>
<event>
 5   0  0.7335091E-07  0.2707146E+04  0.7818609E-02  0.8332690E-01
       -1   -1    0    0    0  501  0.00000000000E+00  0.00000000000E+00  0.77281323308E+03  0.77281323310E+03  0.50400001928E-02 0. -1.
        1   -1    0    0  501    0  0.00000000000E+00  0.00000000000E+00 -0.23707674930E+04  0.23707674930E+04  0.50400001928E-02 0.  1.
    10030    2    1    2    0    0  0.00000000000E+00  0.00000000000E+00 -0.15979542599E+04  0.31435807261E+04  0.27071464616E+04 0.  0.
        3    1    3    3  502    0 -0.24294587893E+03 -0.74944012630E+03 -0.20770938062E+04  0.22214864152E+04  0.10100000352E+00 0.  1.
       -3    1    3    3    0  502  0.24294587893E+03  0.74944012630E+03  0.47913954635E+03  0.92209431083E+03  0.10100000352E+00 0. -1.
</event>
<event>
 5   0  0.2063087E-06  0.2697427E+04  0.7818609E-02  0.8335840E-01
        2   -1    0    0  501    0  0.00000000000E+00  0.00000000000E+00  0.23593848689E+04  0.23593848689E+04  0.25500000920E-02 0.  1.
       -2   -1    0    0    0  501  0.00000000000E+00  0.00000000000E+00 -0.77097550894E+03  0.77097550894E+03  0.25500000920E-02 0. -1.
    10030    2    1    2    0    0  0.00000000000E+00  0.00000000000E+00  0.15884093599E+04  0.31303603778E+04  0.26974268851E+04 0.  0.
        3    1    3    3  502    0  0.46038429489E+03  0.11350995884E+04  0.14492680723E+04  0.18975728524E+04  0.10100000352E+00 0. -1.
       -3    1    3    3    0  502 -0.46038429489E+03 -0.11350995884E+04  0.13914128759E+03  0.12327875254E+04  0.10100000352E+00 0.  1.
</event>
<event>
 5   0  0.7768032E-07  0.2700227E+04  0.7818609E-02  0.8334931E-01
       -1   -1    0    0    0  501  0.00000000000E+00  0.00000000000E+00  0.20365337844E+04  0.20365337844E+04  0.50400001928E-02 0.  1.
        1   -1    0    0  501    0  0.00000000000E+00  0.00000000000E+00 -0.89505359434E+03  0.89505359436E+03  0.50400001928E-02 0. -1.
    10030    2    1    2    0    0  0.00000000000E+00  0.00000000000E+00  0.11414801901E+04  0.29315873788E+04  0.27002273117E+04 0.  0.
        4    1    3    3  502    0  0.13524496779E+03 -0.59869544724E+02  0.20277110651E+04  0.20330984581E+04  0.12699999809E+01 0.  1.
       -4    1    3    3    0  502 -0.13524496779E+03  0.59869544724E+02 -0.88623087509E+03  0.89848892066E+03  0.12699999809E+01 0. -1.
</event>
<event>
 5   0  0.2030645E-06  0.2700670E+04  0.7818609E-02  0.8334788E-01
       -2   -1    0    0    0  501  0.00000000000E+00  0.00000000000E+00  0.86522380836E+03  0.86522380837E+03  0.25500000920E-02 0.  1.
        2   -1    0    0  501    0  0.00000000000E+00  0.00000000000E+00 -0.21074371060E+04  0.21074371060E+04  0.25500000920E-02 0. -1.
    10030    2    1    2    0    0  0.00000000000E+00  0.00000000000E+00 -0.12422132976E+04  0.29726609144E+04  0.27006701085E+04 0.  0.
        1    1    3    3  502    0 -0.25785659683E+03 -0.67461989910E+03 -0.18769816729E+04  0.20111345637E+04  0.50400001928E-02 0. -1.
       -1    1    3    3    0  502  0.25785659683E+03  0.67461989910E+03  0.63476837527E+03  0.96152635068E+03  0.50400001928E-02 0.  1.
</event>
<event>
 5   0  0.7436613E-07  0.2699555E+04  0.7818609E-02  0.8335149E-01
        1   -1    0    0  501    0  0.00000000000E+00  0.00000000000E+00  0.19698212361E+04  0.19698212361E+04  0.50400001928E-02 0.  1.
       -1   -1    0    0    0  501  0.00000000000E+00  0.00000000000E+00 -0.92490585901E+03  0.92490585903E+03  0.50400001928E-02 0. -1.
    10030    2    1    2    0    0  0.00000000000E+00  0.00000000000E+00  0.10449153771E+04  0.28947270951E+04  0.26995549281E+04 0.  0.
        2    1    3    3  502    0 -0.17435985731E+03  0.86954086945E+03  0.16135683715E+04  0.18412239335E+04  0.25500000920E-02 0.  1.
       -2    1    3    3    0  502  0.17435985731E+03 -0.86954086945E+03 -0.56865299448E+03  0.10535031617E+04  0.25500000920E-02 0. -1.
</event>
<event>
 5   0  0.7335091E-07  0.2703763E+04  0.7818609E-02  0.8333785E-01
       -1   -1    0    0    0  501  0.00000000000E+00  0.00000000000E+00  0.22736997112E+04  0.22736997112E+04  0.50400001928E-02 0. -1.
        1   -1    0    0  501    0  0.00000000000E+00  0.00000000000E+00 -0.80379268726E+03  0.80379268728E+03  0.50400001928E-02 0.  1.
    10030    2    1    2    0    0  0.00000000000E+00  0.00000000000E+00  0.14699070239E+04  0.30774923984E+04  0.27037627121E+04 0.  0.
        3    1    3    3  502    0 -0.12915352757E+04  0.75433532518E+02  0.11813783773E+04  0.17519727357E+04  0.10100000352E+00 0.  1.
       -3    1    3    3    0  502  0.12915352757E+04 -0.75433532518E+02  0.28852864664E+03  0.13255196627E+04  0.10100000352E+00 0. -1.
</event>
<event>
 5   0  0.2030645E-06  0.2694683E+04  0.7818609E-02  0.8336732E-01
       -2   -1    0    0    0  501  0.00000000000E+00  0.00000000000E+00  0.10182246314E+04  0.10182246314E+04  0.25500000920E-02 0.  1.
        2   -1    0    0  501    0  0.00000000000E+00  0.00000000000E+00 -0.17828369589E+04  0.17828369589E+04  0.25500000920E-02 0. -1.
    10030    2    1    2    0    0  0.00000000000E+00  0.00000000000E+00 -0.76461232759E+03  0.28010615903E+04  0.26946825455E+04 0.  0.
        1    1    3    3  502    0 -0.33476857080E+03 -0.73266127134E+03  0.74036116910E+03  0.10940736699E+04  0.50400001928E-02 0.  1.
       -1    1    3    3    0  502  0.33476857080E+03  0.73266127134E+03 -0.15049734967E+04  0.17069879204E+04  0.50400001928E-02 0. -1.
</event>
<event>
 5   0  0.7768032E-07  0.2702514E+04  0.7818609E-02  0.8334190E-01
        1   -1    0    0  501    0  0.00000000000E+00  0.00000000000E+00  0.18786003401E+04  0.18786003401E+04  0.50400001928E-02 0.  1.
       -1   -1    0    0    0  501  0.00000000000E+00  0.00000000000E+00 -0.97194457186E+03  0.97194457187E+03  0.50400001928E-02 0. -1.
    10030    2    1    2    0    0  0.00000000000E+00  0.00000000000E+00  0.90665576822E+03  0.28505449120E+04  0.27025139432E+04 0.  0.
        4    1    3    3  502    0 -0.54013879908E+03 -0.11616317821E+04 -0.48190923906E-01  0.12810698399E+04  0.12699999809E+01 0. -1.
       -4    1    3    3    0  502  0.54013879908E+03  0.11616317821E+04  0.90670395914E+03  0.15694750721E+04  0.12699999809E+01 0.  1.
</event>
<event>
 5   0  0.1932012E-06  0.2697702E+04  0.7818609E-02  0.8335751E-01
       -2   -1    0    0    0  501  0.00000000000E+00  0.00000000000E+00  0.14344918077E+04  0.14344918077E+04  0.25500000920E-02 0.  1.
        2   -1    0    0  501    0  0.00000000000E+00  0.00000000000E+00 -0.12683231768E+04  0.12683231768E+04  0.25500000920E-02 0. -1.
    10030    2    1    2    0    0  0.00000000000E+00  0.00000000000E+00  0.16616863088E+03  0.27028149845E+04  0.26977021382E+04 0.  0.
        2    1    3    3  502    0 -0.11853421798E+04 -0.62776151498E+03 -0.59588537331E+02  0.13426359882E+04  0.25500000920E-02 0. -1.
       -2    1    3    3    0  502  0.11853421798E+04  0.62776151498E+03  0.22575716821E+03  0.13601789963E+04  0.25500000920E-02 0.  1.
</event>
<event>
 5   0  0.7806808E-07  0.2676800E+04  0.7818609E-02  0.8342572E-01
       -1   -1    0    0    0  501  0.00000000000E+00  0.00000000000E+00  0.10892827941E+04  0.10892827941E+04  0.50400001928E-02 0. -1.
        1   -1    0    0  501    0  0.00000000000E+00  0.00000000000E+00 -0.16444899476E+04  0.16444899476E+04  0.50400001928E-02 0.  1.
    10030    2    1    2    0    0  0.00000000000E+00  0.00000000000E+00 -0.55520715352E+03  0.27337727416E+04  0.26768000336E+04 0.  0.
        5    1    3    3  502    0 -0.53468999058E+03  0.21592287091E+03  0.95590124223E+03  0.11163715094E+04  0.46999998093E+01 0. -1.
       -5    1    3    3    0  502  0.53468999058E+03 -0.21592287091E+03 -0.15111083957E+04  0.16174012322E+04  0.46999998093E+01 0.  1.
</event>
<event>
 5   0  0.2063087E-06  0.2685824E+04  0.7818609E-02  0.8339619E-01
        2   -1    0    0  501    0  0.00000000000E+00  0.00000000000E+00  0.25151043542E+04  0.25151043542E+04  0.25500000920E-02 0. -1.
       -2   -1    0    0    0  501  0.00000000000E+00  0.00000000000E+00 -0.71703280581E+03  0.71703280581E+03  0.25500000920E-02 0.  1.
    10030    2    1    2    0    0  0.00000000000E+00  0.00000000000E+00  0.17980715484E+04  0.32321371601E+04  0.26858237709E+04 0.  0.
        3    1    3    3  502    0 -0.45200879141E+03  0.88044801437E+03 -0.19329104273E+03  0.10083958007E+04  0.10100000352E+00 0.  1.
       -3    1    3    3    0  502  0.45200879141E+03 -0.88044801437E+03  0.19913625912E+04  0.22237413593E+04  0.10100000352E+00 0. -1.
</event>
<event>
 5   0  0.7436613E-07  0.2674008E+04  0.7818609E-02  0.8343488E-01
       -1   -1    0    0    0  501  0.00000000000E+00  0.00000000000E+00  0.14129435547E+04  0.14129435547E+04  0.50400001928E-02 0.  1.
        1   -1    0    0  501    0  0.00000000000E+00  0.00000000000E+00 -0.12651458809E+04  0.12651458809E+04  0.50400001928E-02 0. -1.
    10030    2    1    2    0    0  0.00000000000E+00  0.00000000000E+00  0.14779767380E+03  0.26780894355E+04  0.26740080165E+04 0.  0.
        2    1    3    3  502    0  0.59739969322E+02  0.73111914648E+03  0.11934044346E+04  0.14008276892E+04  0.25500000920E-02 0.  1.
       -2    1    3    3    0  502 -0.59739969322E+02 -0.73111914648E+03 -0.10456067608E+04  0.12772617463E+04  0.25500000920E-02 0. -1.
</event>
<event>
 5   0  0.1932012E-06  0.2700719E+04  0.7818609E-02  0.8334772E-01
       -2   -1    0    0    0  501  0.00000000000E+00  0.00000000000E+00  0.24055931720E+04  0.24055931720E+04  0.25500000920E-02 0.  1.
        2   -1    0    0  501    0  0.00000000000E+00  0.00000000000E+00 -0.75801310538E+03  0.75801310539E+03  0.25500000920E-02 0. -1.
    10030    2    1    2    0    0  0.00000000000E+00  0.00000000000E+00  0.16475800666E+04  0.31636062773E+04  0.27007192750E+04 0.  0.
        2    1    3    3  502    0  0.50925975212E+03  0.11846816142E+04  0.12933059088E+04  0.18263231357E+04  0.25500000920E-02 0. -1.
       -2    1    3    3    0  502 -0.50925975212E+03 -0.11846816142E+04  0.35427415774E+03  0.13372831417E+04  0.25500000920E-02 0.  1.
</event>
<event>
 5   0  0.2030645E-06  0.2699532E+04  0.7818609E-02  0.8335157E-01
       -2   -1    0    0    0  501  0.00000000000E+00  0.00000000000E+00  0.10141140113E+04  0.10141140113E+04  0.25500000920E-02 0. -1.
        2   -1    0    0  501    0  0.00000000000E+00  0.00000000000E+00 -0.17965128521E+04  0.17965128521E+04  0.25500000920E-02 0.  1.
    10030    2    1    2    0    0  0.00000000000E+00  0.00000000000E+00 -0.78239884089E+03  0.28106268634E+04  0.26995324445E+04 0.  0.
        1    1    3    3  502    0 -0.83062416822E+03  0.94469065641E+03  0.11831920569E+03  0.12634778904E+04  0.50400001928E-02 0. -1.
       -1    1    3    3    0  502  0.83062416822E+03 -0.94469065641E+03 -0.90071804658E+03  0.15471489730E+04  0.50400001928E-02 0.  1.
</event>
<event>
 5   0  0.7335091E-07  0.2705975E+04  0.7818609E-02  0.8333069E-01
       -1   -1    0    0    0  501  0.00000000000E+00  0.00000000000E+00  0.17219854614E+04  0.17219854614E+04  0.50400001928E-02 0. -1.
        1   -1    0    0  501    0  0.00000000000E+00  0.00000000000E+00 -0.10630604446E+04  0.10630604446E+04  0.50400001928E-02 0.  1.
    10030    2    1    2    0    0  0.00000000000E+00  0.00000000000E+00  0.65892501675E+03  0.27850459060E+04  0.27059745972E+04 0.  0.
        3    1    3    3  502    0  0.75121421314E+03  0.42101271885E+03 -0.74458280873E+03  0.11384103270E+04  0.10100000352E+00 0.  1.
       -3    1    3    3    0  502 -0.75121421314E+03 -0.42101271885E+03  0.14035078255E+04  0.16466355789E+04  0.10100000352E+00 0. -1.
</event>
<event>
 5   0  0.7768032E-07  0.2692912E+04  0.7818609E-02  0.8337308E-01
        1   -1    0    0  501    0  0.00000000000E+00  0.00000000000E+00  0.10668899502E+04  0.10668899502E+04  0.50400001928E-02 0. -1.
       -1   -1    0    0    0  501  0.00000000000E+00  0.00000000000E+00 -0.16992795697E+04  0.16992795697E+04  0.50400001928E-02 0.  1.
    10030    2    1    2    0    0  0.00000000000E+00  0.00000000000E+00 -0.63238961949E+03  0.27661695199E+04  0.26929123978E+04 0.  0.
        4    1    3    3  502    0  0.17465302431E+03  0.27629427161E+03 -0.16579054636E+04  0.16898208019E+04  0.12699999809E+01 0.  1.
       -4    1    3    3    0  502 -0.17465302431E+03 -0.27629427161E+03  0.10255158441E+04  0.10763487180E+04  0.12699999809E+01 0. -1.
</event>
<event>
 5   0  0.1932012E-06  0.2698608E+04  0.7818609E-02  0.8335457E-01
        2   -1    0    0  501    0  0.00000000000E+00  0.00000000000E+00  0.10881066878E+04  0.10881066878E+04  0.25500000920E-02 0.  1.
       -2   -1    0    0    0  501  0.00000000000E+00  0.00000000000E+00 -0.16732015482E+04  0.16732015482E+04  0.25500000920E-02 0. -1.
    10030    2    1    2    0    0  0.00000000000E+00  0.00000000000E+00 -0.58509486044E+03  0.27613082360E+04  0.26986083781E+04 0.  0.
        2    1    3    3  502    0 -0.10546338189E+04 -0.61274327398E+02 -0.11514638237E+04  0.15626503040E+04  0.25500000920E-02 0. -1.
       -2    1    3    3    0  502  0.10546338189E+04  0.61274327398E+02  0.56636896330E+03  0.11986579320E+04  0.25500000920E-02 0.  1.
</event>
<event>
 5   0  0.1999104E-06  0.2701100E+04  0.7818609E-02  0.8334648E-01
       -2   -1    0    0    0  501  0.00000000000E+00  0.00000000000E+00  0.12556998944E+04  0.12556998944E+04  0.25500000920E-02 0.  1.
        2   -1    0    0  501    0  0.00000000000E+00  0.00000000000E+00 -0.14525650365E+04  0.14525650365E+04  0.25500000920E-02 0. -1.
    10030    2    1    2    0    0  0.00000000000E+00  0.00000000000E+00 -0.19686514213E+03  0.27082649309E+04  0.27011003410E+04 0.  0.
        4    1    3    3  502    0 -0.12342602906E+04  0.43802458301E+03 -0.42903455062E+03  0.13781640899E+04  0.12699999809E+01 0. -1.
       -4    1    3    3    0  502  0.12342602906E+04 -0.43802458301E+03  0.23216940850E+03  0.13301008410E+04  0.12699999809E+01 0.  1.
</event>
<event>
 5   0  0.2063087E-06  0.2705086E+04  0.7818609E-02  0.8333357E-01
        2   -1    0    0  501    0  0.00000000000E+00  0.00000000000E+00  0.10821876331E+04  0.10821876331E+04  0.25500000920E-02 0. -1.
       -2   -1    0    0    0  501  0.00000000000E+00  0.00000000000E+00 -0.16904396377E+04  0.16904396377E+04  0.25500000920E-02 0.  1.
    10030    2    1    2    0    0  0.00000000000E+00  0.00000000000E+00 -0.60825200454E+03  0.27726272708E+04  0.27050862245E+04 0.  0.
        3    1    3    3  502    0  0.32589896889E+03  0.65697981639E+02  0.10396563230E+04  0.10915180451E+04  0.10100000352E+00 0. -1.
       -3    1    3    3    0  502 -0.32589896889E+03 -0.65697981639E+02 -0.16479083275E+04  0.16811092257E+04  0.10100000352E+00 0.  1.
</event>
<event>
 5   0  0.1991277E-06  0.2701284E+04  0.7818609E-02  0.8334589E-01
        2   -1    0    0  501    0  0.00000000000E+00  0.00000000000E+00  0.21695336416E+04  0.21695336416E+04  0.25500000920E-02 0. -1.
       -2   -1    0    0    0  501  0.00000000000E+00  0.00000000000E+00 -0.84084133048E+03  0.84084133048E+03  0.25500000920E-02 0.  1.
    10030    2    1    2    0    0  0.00000000000E+00  0.00000000000E+00  0.13286923111E+04  0.30103749721E+04  0.27012838087E+04 0.  0.
        5    1    3    3  502    0 -0.36328198876E+03  0.93467601304E+03  0.16726493269E+04  0.19502232983E+04  0.46999998093E+01 0. -1.
       -5    1    3    3    0  502  0.36328198876E+03 -0.93467601304E+03 -0.34395701573E+03  0.10601516738E+04  0.46999998093E+01 0.  1.
</event>
<event>
 5   0  0.7768032E-07  0.2701569E+04  0.7818609E-02  0.8334496E-01
       -1   -1    0    0    0  501  0.00000000000E+00  0.00000000000E+00  0.11268003674E+04  0.11268003674E+04  0.50400001928E-02 0.  1.
        1   -1    0    0  501    0  0.00000000000E+00  0.00000000000E+00 -0.16192915453E+04  0.16192915453E+04  0.50400001928E-02 0. -1.
    10030    2    1    2    0    0  0.00000000000E+00  0.00000000000E+00 -0.49249117784E+03  0.27460919127E+04  0.27015686615E+04 0.  0.
        4    1    3    3  502    0  0.52150408399E+02 -0.19925390444E+03 -0.16032356258E+04  0.16164120354E+04  0.12699999809E+01 0. -1.
       -4    1    3    3    0  502 -0.52150408399E+02  0.19925390444E+03  0.11107444480E+04  0.11296798773E+04  0.12699999809E+01 0.  1.
</event>
<event>
 5   0  0.7806808E-07  0.2734144E+04  0.7818609E-02  0.8324011E-01
        1   -1    0    0  501    0  0.00000000000E+00  0.00000000000E+00  0.12404891709E+04  0.12404891709E+04  0.50400001928E-02 0.  1.
       -1   -1    0    0    0  501  0.00000000000E+00  0.00000000000E+00 -0.15065719292E+04  0.15065719292E+04  0.50400001928E-02 0. -1.
    10030    2    1    2    0    0  0.00000000000E+00  0.00000000000E+00 -0.26608275824E+03  0.27470611001E+04  0.27341442269E+04 0.  0.
        5    1    3    3  502    0  0.52437189079E+03  0.67751005226E+03  0.93729811200E+03  0.12698565240E+04  0.46999998093E+01 0.  1.
       -5    1    3    3    0  502 -0.52437189079E+03 -0.67751005226E+03 -0.12033808702E+04  0.14772045761E+04  0.46999998093E+01 0. -1.
</event>
<event>
 5   0  0.7566905E-07  0.2696479E+04  0.7818609E-02  0.8336148E-01
       -1   -1    0    0    0  501  0.00000000000E+00  0.00000000000E+00  0.10652344036E+04  0.10652344036E+04  0.50400001928E-02 0. -1.
        1   -1    0    0  501    0  0.00000000000E+00  0.00000000000E+00 -0.17064320233E+04  0.17064320233E+04  0.50400001928E-02 0.  1.
    10030    2    1    2    0    0  0.00000000000E+00  0.00000000000E+00 -0.64119761969E+03  0.27716664268E+04  0.26964792590E+04 0.  0.
        1    1    3    3  502    0  0.13105319354E+04  0.30813792884E+03 -0.24571722375E+03  0.13685100990E+04  0.50400001928E-02 0.  1.
       -1    1    3    3    0  502 -0.13105319354E+04 -0.30813792884E+03 -0.39548039594E+03  0.14031563279E+04  0.50400001928E-02 0. -1.
</event>
<event>
 5   0  0.1999104E-06  0.2706685E+04  0.7818609E-02  0.8332839E-01
        2   -1    0    0  501    0  0.00000000000E+00  0.00000000000E+00  0.13337051367E+04  0.13337051367E+04  0.25500000920E-02 0. -1.
       -2   -1    0    0    0  501  0.00000000000E+00  0.00000000000E+00 -0.13732687503E+04  0.13732687503E+04  0.25500000920E-02 0.  1.
    10030    2    1    2    0    0  0.00000000000E+00  0.00000000000E+00 -0.39563613527E+02  0.27069738870E+04  0.27066847518E+04 0.  0.
        4    1    3    3  502    0 -0.10708731718E+04  0.58581174895E+03  0.56473697048E+03  0.13449439446E+04  0.12699999809E+01 0. -1.
       -4    1    3    3    0  502  0.10708731718E+04 -0.58581174895E+03 -0.60430058400E+03  0.13620299424E+04  0.12699999809E+01 0.  1.
</event>
<event>
 5   0  0.1999104E-06  0.2693272E+04  0.7818609E-02  0.8337191E-01
       -2   -1    0    0    0  501  0.00000000000E+00  0.00000000000E+00  0.97934525068E+03  0.97934525069E+03  0.25500000920E-02 0. -1.
        2   -1    0    0  501    0  0.00000000000E+00  0.00000000000E+00 -0.18516742863E+04  0.18516742863E+04  0.25500000920E-02 0.  1.
    10030    2    1    2    0    0  0.00000000000E+00  0.00000000000E+00 -0.87232903562E+03  0.28310195370E+04  0.26932719269E+04 0.  0.
        4    1    3    3  502    0  0.73793248999E+03 -0.71804112050E+03  0.47615396082E+03  0.11343948245E+04  0.12699999809E+01 0. -1.
       -4    1    3    3    0  502 -0.73793248999E+03  0.71804112050E+03 -0.13484829964E+04  0.16966247125E+04  0.12699999809E+01 0.  1.
</event>
<event>
 5   0  0.6561875E-07  0.2702131E+04  0.7818609E-02  0.8334314E-01
        3   -1    0    0  501    0  0.00000000000E+00  0.00000000000E+00  0.21128155752E+04  0.21128155776E+04  0.10100000352E+00 0.  1.
       -3   -1    0    0    0  501  0.00000000000E+00  0.00000000000E+00 -0.86395544116E+03  0.86395544707E+03  0.10100000352E+00 0. -1.
    10030    2    1    2    0    0  0.00000000000E+00  0.00000000000E+00  0.12488601340E+04  0.29767710246E+04  0.27021313993E+04 0.  0.
        1    1    3    3  502    0  0.97057151065E+03 -0.89296077547E+03  0.30138415065E+03  0.13528563893E+04  0.50400001928E-02 0. -1.
       -1    1    3    3    0  502 -0.97057151065E+03  0.89296077547E+03  0.94747598335E+03  0.16239146353E+04  0.50400001928E-02 0.  1.
</event>
<event>
 5   0  0.1932012E-06  0.2696919E+04  0.7818609E-02  0.8336005E-01
       -2   -1    0    0    0  501  0.00000000000E+00  0.00000000000E+00  0.86647606570E+03  0.86647606571E+03  0.25500000920E-02 0. -1.
        2   -1    0    0  501    0  0.00000000000E+00  0.00000000000E+00 -0.20985500013E+04  0.20985500013E+04  0.25500000920E-02 0.  1.
    10030    2    1    2    0    0  0.00000000000E+00  0.00000000000E+00 -0.12320739356E+04  0.29650260670E+04  0.26969192415E+04 0.  0.
        2    1    3    3  502    0  0.50862684586E+03  0.84215239410E+03 -0.16298962244E+04  0.19038076650E+04  0.25500000920E-02 0.  1.
       -2    1    3    3    0  502 -0.50862684586E+03 -0.84215239410E+03  0.39782228878E+03  0.10612184020E+04  0.25500000920E-02 0. -1.
</event>
<event>
 5   0  0.7436613E-07  0.2702348E+04  0.7818609E-02  0.8334244E-01
        1   -1    0    0  501    0  0.00000000000E+00  0.00000000000E+00  0.11150895404E+04  0.11150895405E+04  0.50400001928E-02 0.  1.
       -1   -1    0    0    0  501  0.00000000000E+00  0.00000000000E+00 -0.16372417571E+04  0.16372417571E+04  0.50400001928E-02 0. -1.
    10030    2    1    2    0    0  0.00000000000E+00  0.00000000000E+00 -0.52215221668E+03  0.27523312976E+04  0.27023479854E+04 0.  0.
        2    1    3    3  502    0  0.45640296923E+03  0.40682337674E+02 -0.15556935968E+04  0.16217710350E+04  0.25500000920E-02 0. -1.
       -2    1    3    3    0  502 -0.45640296923E+03 -0.40682337674E+02  0.10335413801E+04  0.11305602626E+04  0.25500000920E-02 0.  1.
</event>
<event>
 5   0  0.7335091E-07  0.2696903E+04  0.7818609E-02  0.8336011E-01
       -1   -1    0    0    0  501  0.00000000000E+00  0.00000000000E+00  0.10741283566E+04  0.10741283566E+04  0.50400001928E-02 0. -1.
        1   -1    0    0  501    0  0.00000000000E+00  0.00000000000E+00 -0.16928342063E+04  0.16928342063E+04  0.50400001928E-02 0.  1.
    10030    2    1    2    0    0  0.00000000000E+00  0.00000000000E+00 -0.61870584967E+03  0.27669625629E+04  0.26969028340E+04 0.  0.
        3    1    3    3  502    0  0.12993128620E+04  0.40314750815E+02 -0.67710841410E+03  0.14657131394E+04  0.10100000352E+00 0.  1.
       -3    1    3    3    0  502 -0.12993128620E+04 -0.40314750815E+02  0.58402564428E+02  0.13012494235E+04  0.10100000352E+00 0. -1.
</event>
<event>
 5   0  0.1991277E-06  0.2699436E+04  0.7818609E-02  0.8335188E-01
        2   -1    0    0  501    0  0.00000000000E+00  0.00000000000E+00  0.16558353564E+04  0.16558353564E+04  0.25500000920E-02 0.  1.
       -2   -1    0    0    0  501  0.00000000000E+00  0.00000000000E+00 -0.11001934839E+04  0.11001934839E+04  0.25500000920E-02 0. -1.
    10030    2    1    2    0    0  0.00000000000E+00  0.00000000000E+00  0.55564187248E+03  0.27560288403E+04  0.26994364371E+04 0.  0.
        5    1    3    3  502    0  0.22773596067E+03  0.53337102964E+03 -0.96648682252E+03  0.11271500304E+04  0.46999998093E+01 0. -1.
       -5    1    3    3    0  502 -0.22773596067E+03 -0.53337102964E+03  0.15221286950E+04  0.16288788099E+04  0.46999998093E+01 0.  1.
</event>
<event>
 5   0  0.2030645E-06  0.2696714E+04  0.7818609E-02  0.8336072E-01
        2   -1    0    0  501    0  0.00000000000E+00  0.00000000000E+00  0.14439179211E+04  0.14439179211E+04  0.25500000920E-02 0. -1.
       -2   -1    0    0    0  501  0.00000000000E+00  0.00000000000E+00 -0.12591208316E+04  0.12591208316E+04  0.25500000920E-02 0.  1.
    10030    2    1    2    0    0  0.00000000000E+00  0.00000000000E+00  0.18479708946E+03  0.27030387527E+04  0.26967143961E+04 0.  0.
        1    1    3    3  502    0 -0.39230389249E+03 -0.10434481348E+03 -0.11964150956E+04  0.12634077984E+04  0.50400001928E-02 0.  1.
       -1    1    3    3    0  502  0.39230389249E+03  0.10434481348E+03  0.13812121851E+04  0.14396309542E+04  0.50400001928E-02 0. -1.
</event>
<event>
 5   0  0.7768032E-07  0.2701861E+04  0.7818609E-02  0.8334402E-01
       -1   -1    0    0    0  501  0.00000000000E+00  0.00000000000E+00  0.90088338193E+03  0.90088338195E+03  0.50400001928E-02 0.  1.
        1   -1    0    0  501    0  0.00000000000E+00  0.00000000000E+00 -0.20258034743E+04  0.20258034743E+04  0.50400001928E-02 0. -1.
    10030    2    1    2    0    0  0.00000000000E+00  0.00000000000E+00 -0.11249200923E+04  0.29266868562E+04  0.27018606071E+04 0.  0.
        4    1    3    3  502    0  0.10763366186E+03 -0.11661308883E+04 -0.12919729832E+04  0.17437436898E+04  0.12699999809E+01 0. -1.
       -4    1    3    3    0  502 -0.10763366186E+03  0.11661308883E+04  0.16705289081E+03  0.11829431664E+04  0.12699999809E+01 0.  1.
</event>
<event>
 5   0  0.7768032E-07  0.2750959E+04  0.7818609E-02  0.8318658E-01
        1   -1    0    0  501    0  0.00000000000E+00  0.00000000000E+00  0.15253792520E+04  0.15253792520E+04  0.50400001928E-02 0. -1.
       -1   -1    0    0    0  501  0.00000000000E+00  0.00000000000E+00 -0.12403101424E+04  0.12403101424E+04  0.50400001928E-02 0.  1.
    10030    2    1    2    0    0  0.00000000000E+00  0.00000000000E+00  0.28506910961E+03  0.27656893944E+04  0.27509586382E+04 0.  0.
        4    1    3    3  502    0  0.12141226382E+04  0.21628666095E+03 -0.46988087061E+03  0.13197209348E+04  0.12699999809E+01 0.  1.
       -4    1    3    3    0  502 -0.12141226382E+04 -0.21628666095E+03  0.75494998022E+03  0.14459684595E+04  0.12699999809E+01 0. -1.
</event>
<event>
 5   0  0.7806808E-07  0.2706523E+04  0.7818609E-02  0.8332891E-01
       -1   -1    0    0    0  501  0.00000000000E+00  0.00000000000E+00  0.12019244454E+04  0.12019244455E+04  0.50400001928E-02 0. -1.
        1   -1    0    0  501    0  0.00000000000E+00  0.00000000000E+00 -0.15236542723E+04  0.15236542723E+04  0.50400001928E-02 0.  1.
    10030    2    1    2    0    0  0.00000000000E+00  0.00000000000E+00 -0.32172982687E+03  0.27255787178E+04  0.27065234648E+04 0.  0.
        5    1    3    3  502    0 -0.10710050545E+04  0.82683833904E+03 -0.18515444331E+03  0.13656565174E+04  0.46999998093E+01 0. -1.
       -5    1    3    3    0  502  0.10710050545E+04 -0.82683833904E+03 -0.13657538356E+03  0.13599222004E+04  0.46999998093E+01 0.  1.
</event>
<event>
 5   0  0.1999104E-06  0.2693988E+04  0.7818609E-02  0.8336958E-01
       -2   -1    0    0    0  501  0.00000000000E+00  0.00000000000E+00  0.18533410330E+04  0.18533410330E+04  0.25500000920E-02 0.  1.
        2   -1    0    0  501    0  0.00000000000E+00  0.00000000000E+00 -0.97898464053E+03  0.97898464054E+03  0.25500000920E-02 0. -1.
    10030    2    1    2    0    0  0.00000000000E+00  0.00000000000E+00  0.87435639247E+03  0.28323256735E+04  0.26939876800E+04 0.  0.
        4    1    3    3  502    0  0.36661661055E+03  0.51539202508E+03 -0.81315759355E+03  0.10301764720E+04  0.12699999809E+01 0. -1.
       -4    1    3    3    0  502 -0.36661661055E+03 -0.51539202508E+03  0.16875139860E+04  0.18021492015E+04  0.12699999809E+01 0.  1.
</event>
<event>
 5   0  0.7806808E-07  0.2699918E+04  0.7818609E-02  0.8335032E-01
       -1   -1    0    0    0  501  0.00000000000E+00  0.00000000000E+00  0.18752958505E+04  0.18752958505E+04  0.50400001928E-02 0. -1.
        1   -1    0    0  501    0  0.00000000000E+00  0.00000000000E+00 -0.97178766333E+03  0.97178766334E+03  0.50400001928E-02 0.  1.
    10030    2    1    2    0    0  0.00000000000E+00  0.00000000000E+00  0.90350818720E+03  0.28470835139E+04  0.26999180526E+04 0.  0.
        5    1    3    3  502    0 -0.68754281369E+03  0.97139952650E+03  0.11236955318E+04  0.16367791235E+04  0.46999998093E+01 0. -1.
       -5    1    3    3    0  502  0.68754281369E+03 -0.97139952650E+03 -0.22018734462E+03  0.12103043904E+04  0.46999998093E+01 0.  1.
</event>
<event>
 5   0  0.2063087E-06  0.2696901E+04  0.7818609E-02  0.8336011E-01
        2   -1    0    0  501    0  0.00000000000E+00  0.00000000000E+00  0.12814463132E+04  0.12814463132E+04  0.25500000920E-02 0. -1.
       -2   -1    0    0    0  501  0.00000000000E+00  0.00000000000E+00 -0.14189583390E+04  0.14189583390E+04  0.25500000920E-02 0.  1.
    10030    2    1    2    0    0  0.00000000000E+00  0.00000000000E+00 -0.13751202582E+03  0.27004046522E+04  0.26969011343E+04 0.  0.
        3    1    3    3  502    0 -0.27299939978E+03 -0.11449116015E+03  0.12485068951E+04  0.12831236789E+04  0.10100000352E+00 0. -1.
       -3    1    3    3    0  502  0.27299939978E+03  0.11449116015E+03 -0.13860189209E+04  0.14172809733E+04  0.10100000352E+00 0.  1.
</event>
<event>
 5   0  0.2063087E-06  0.2702765E+04  0.7818609E-02  0.8334108E-01
       -2   -1    0    0    0  501  0.00000000000E+00  0.00000000000E+00  0.14233181033E+04  0.14233181033E+04  0.25500000920E-02 0.  1.
        2   -1    0    0  501    0  0.00000000000E+00  0.00000000000E+00 -0.12830826351E+04  0.12830826351E+04  0.25500000920E-02 0. -1.
    10030    2    1    2    0    0  0.00000000000E+00  0.00000000000E+00  0.14023546819E+03  0.27064007385E+04  0.27027650602E+04 0.  0.
        3    1    3    3  502    0  0.96647991392E+01 -0.33360488637E+03  0.13814017360E+04  0.14211461554E+04  0.10100000352E+00 0.  1.
       -3    1    3    3    0  502 -0.96647991392E+01  0.33360488637E+03 -0.12411662679E+04  0.12852545830E+04  0.10100000352E+00 0. -1.
</event>
<event>
 5   0  0.6561875E-07  0.2700178E+04  0.7818609E-02  0.8334947E-01
        3   -1    0    0  501    0  0.00000000000E+00  0.00000000000E+00  0.63512095141E+03  0.63512095944E+03  0.10100000352E+00 0. -1.
       -3   -1    0    0    0  501  0.00000000000E+00  0.00000000000E+00 -0.28699111573E+04  0.28699111591E+04  0.10100000352E+00 0.  1.
    10030    2    1    2    0    0  0.00000000000E+00  0.00000000000E+00 -0.22347902059E+04  0.35050321185E+04  0.27001783066E+04 0.  0.
        5    1    3    3  502    0  0.63936765860E+03  0.76017153951E+03  0.69521111284E+02  0.99574446885E+03  0.46999998093E+01 0. -1.
       -5    1    3    3    0  502 -0.63936765860E+03 -0.76017153951E+03 -0.23043113172E+04  0.25092876497E+04  0.46999998093E+01 0.  1.
</event>
<event>
 5   0  0.7806808E-07  0.2697347E+04  0.7818609E-02  0.8335866E-01
       -1   -1    0    0    0  501  0.00000000000E+00  0.00000000000E+00  0.12928812157E+04  0.12928812157E+04  0.50400001928E-02 0. -1.
        1   -1    0    0  501    0  0.00000000000E+00  0.00000000000E+00 -0.14068735353E+04  0.14068735354E+04  0.50400001928E-02 0.  1.
    10030    2    1    2    0    0  0.00000000000E+00  0.00000000000E+00 -0.11399231965E+03  0.26997547511E+04  0.26973471165E+04 0.  0.
        5    1    3    3  502    0  0.75597998417E+03  0.62419506044E+03 -0.98398323393E+03  0.13890177481E+04  0.46999998093E+01 0.  1.
       -5    1    3    3    0  502 -0.75597998417E+03 -0.62419506044E+03  0.86999091428E+03  0.13107370029E+04  0.46999998093E+01 0. -1.
</event>
<event>
 5   0  0.2063087E-06  0.2705101E+04  0.7818609E-02  0.8333352E-01
       -2   -1    0    0    0  501  0.00000000000E+00  0.00000000000E+00  0.17655504609E+04  0.17655504609E+04  0.25500000920E-02 0. -1.
        2   -1    0    0  501    0  0.00000000000E+00  0.00000000000E+00 -0.10361598992E+04  0.10361598992E+04  0.25500000920E-02 0.  1.
    10030    2    1    2    0    0  0.00000000000E+00  0.00000000000E+00  0.72939056171E+03  0.28017103601E+04  0.27051008022E+04 0.  0.
        3    1    3    3  502    0  0.40636569050E+02 -0.61017452072E+03  0.16141922028E+04  0.17261462147E+04  0.10100000352E+00 0. -1.
       -3    1    3    3    0  502 -0.40636569050E+02  0.61017452072E+03 -0.88480164114E+03  0.10755641454E+04  0.10100000352E+00 0.  1.
</event>
<event>
 5   0  0.1932012E-06  0.2689712E+04  0.7818609E-02  0.8338351E-01
        2   -1    0    0  501    0  0.00000000000E+00  0.00000000000E+00  0.15983830558E+04  0.15983830558E+04  0.25500000920E-02 0. -1.
       -2   -1    0    0    0  501  0.00000000000E+00  0.00000000000E+00 -0.11315422697E+04  0.11315422697E+04  0.25500000920E-02 0.  1.
    10030    2    1    2    0    0  0.00000000000E+00  0.00000000000E+00  0.46684078612E+03  0.27299253255E+04  0.26897122455E+04 0.  0.
        2    1    3    3  502    0  0.69328487312E+03  0.45755959353E+03 -0.84004690294E+03  0.11813904926E+04  0.25500000920E-02 0.  1.
       -2    1    3    3    0  502 -0.69328487312E+03 -0.45755959353E+03  0.13068876891E+04  0.15485348329E+04  0.25500000920E-02 0. -1.
</event>
<event>
 5   0  0.2030645E-06  0.2714534E+04  0.7818609E-02  0.8330305E-01
        2   -1    0    0  501    0  0.00000000000E+00  0.00000000000E+00  0.16826167888E+04  0.16826167888E+04  0.25500000920E-02 0. -1.
       -2   -1    0    0    0  501  0.00000000000E+00  0.00000000000E+00 -0.10948267017E+04  0.10948267017E+04  0.25500000920E-02 0.  1.
    10030    2    1    2    0    0  0.00000000000E+00  0.00000000000E+00  0.58779008708E+03  0.27774434906E+04  0.27145340589E+04 0.  0.
        1    1    3    3  502    0 -0.52911368003E+03  0.18156934076E+03  0.15591804009E+04  0.16564939584E+04  0.50400001928E-02 0. -1.
       -1    1    3    3    0  502  0.52911368003E+03 -0.18156934076E+03 -0.97139031377E+03  0.11209495321E+04  0.50400001928E-02 0.  1.
</event>
<event>
 5   0  0.7566905E-07  0.2699194E+04  0.7818609E-02  0.8335266E-01
        1   -1    0    0  501    0  0.00000000000E+00  0.00000000000E+00  0.95382868017E+03  0.95382868019E+03  0.50400001928E-02 0.  1.
       -1   -1    0    0    0  501  0.00000000000E+00  0.00000000000E+00 -0.19095802829E+04  0.19095802829E+04  0.50400001928E-02 0. -1.
    10030    2    1    2    0    0  0.00000000000E+00  0.00000000000E+00 -0.95575160271E+03  0.28634089631E+04  0.26991942805E+04 0.  0.
        1    1    3    3  502    0 -0.43784108045E+03  0.11346166688E+04  0.14283039138E+03  0.12245245271E+04  0.50400001928E-02 0.  1.
       -1    1    3    3    0  502  0.43784108045E+03 -0.11346166688E+04 -0.10985819941E+04  0.16388844360E+04  0.50400001928E-02 0. -1.
</event>
<event>
 5   0  0.1999104E-06  0.2641340E+04  0.7818609E-02  0.8354293E-01
       -2   -1    0    0    0  501  0.00000000000E+00  0.00000000000E+00  0.99662639472E+03  0.99662639472E+03  0.25500000920E-02 0.  1.
        2   -1    0    0  501    0  0.00000000000E+00  0.00000000000E+00 -0.17500729819E+04  0.17500729819E+04  0.25500000920E-02 0. -1.
    10030    2    1    2    0    0  0.00000000000E+00  0.00000000000E+00 -0.75344658717E+03  0.27466993766E+04  0.26413397558E+04 0.  0.
        4    1    3    3  502    0  0.53978082737E+03 -0.11356050089E+04 -0.79682447642E+03  0.14885875644E+04  0.12699999809E+01 0.  1.
       -4    1    3    3    0  502 -0.53978082737E+03  0.11356050089E+04  0.43377889256E+02  0.12581118122E+04  0.12699999809E+01 0. -1.
</event>
<event>
 5   0  0.1999104E-06  0.2658751E+04  0.7818609E-02  0.8348514E-01
        2   -1    0    0  501    0  0.00000000000E+00  0.00000000000E+00  0.18800268786E+04  0.18800268786E+04  0.25500000920E-02 0.  1.
       -2   -1    0    0    0  501  0.00000000000E+00  0.00000000000E+00 -0.94000709996E+03  0.94000709997E+03  0.25500000920E-02 0. -1.
    10030    2    1    2    0    0  0.00000000000E+00  0.00000000000E+00  0.94001977867E+03  0.28200339786E+04  0.26587505442E+04 0.  0.
        4    1    3    3  502    0  0.53063241513E+03 -0.11019612976E+04  0.10225193178E+04  0.15941884548E+04  0.12699999809E+01 0.  1.
       -4    1    3    3    0  502 -0.53063241513E+03  0.11019612976E+04 -0.82499539129E+02  0.12258455238E+04  0.12699999809E+01 0. -1.
</event>
<event>
 5   0  0.1991277E-06  0.2697012E+04  0.7818609E-02  0.8335975E-01
        2   -1    0    0  501    0  0.00000000000E+00  0.00000000000E+00  0.22847502345E+04  0.22847502345E+04  0.25500000920E-02 0.  1.
       -2   -1    0    0    0  501  0.00000000000E+00  0.00000000000E+00 -0.79591567735E+03  0.79591567735E+03  0.25500000920E-02 0. -1.
    10030    2    1    2    0    0  0.00000000000E+00  0.00000000000E+00  0.14888345571E+04  0.30806659118E+04  0.26970120730E+04 0.  0.
        5    1    3    3  502    0 -0.48497890728E+02  0.11737752882E+04  0.15006756942E+04  0.19058200602E+04  0.46999998093E+01 0.  1.
       -5    1    3    3    0  502  0.48497890728E+02 -0.11737752882E+04 -0.11841137075E+02  0.11748458517E+04  0.46999998093E+01 0. -1.
</event>
<event>
 5   0  0.7768032E-07  0.2695646E+04  0.7818609E-02  0.8336419E-01
        1   -1    0    0  501    0  0.00000000000E+00  0.00000000000E+00  0.13798619576E+04  0.13798619576E+04  0.50400001928E-02 0. -1.
       -1   -1    0    0    0  501  0.00000000000E+00  0.00000000000E+00 -0.13165277379E+04  0.13165277379E+04  0.50400001928E-02 0.  1.
    10030    2    1    2    0    0  0.00000000000E+00  0.00000000000E+00  0.63334219732E+02  0.26963896956E+04  0.26956457792E+04 0.  0.
        4    1    3    3  502    0  0.53771273998E+02  0.12779705366E+04 -0.39333234787E+03  0.13382122369E+04  0.12699999809E+01 0.  1.
       -4    1    3    3    0  502 -0.53771273998E+02 -0.12779705366E+04  0.45666656761E+03  0.13581774586E+04  0.12699999809E+01 0. -1.
</event>
<event>
 5   0  0.7436613E-07  0.2696805E+04  0.7818609E-02  0.8336042E-01
        1   -1    0    0  501    0  0.00000000000E+00  0.00000000000E+00  0.19878913071E+04  0.19878913071E+04  0.50400001928E-02 0. -1.
       -1   -1    0    0    0  501  0.00000000000E+00  0.00000000000E+00 -0.91463245716E+03  0.91463245717E+03  0.50400001928E-02 0.  1.
    10030    2    1    2    0    0  0.00000000000E+00  0.00000000000E+00  0.10732588499E+04  0.29025237643E+04  0.26968054515E+04 0.  0.
        2    1    3    3  502    0 -0.10927766174E+04 -0.69891995145E+03  0.93287098999E+03  0.15977791205E+04  0.25500000920E-02 0. -1.
       -2    1    3    3    0  502  0.10927766174E+04  0.69891995145E+03  0.14038785992E+03  0.13047446437E+04  0.25500000920E-02 0.  1.
</event>
<event>
 5   0  0.2063087E-06  0.2701966E+04  0.7818609E-02  0.8334367E-01
        2   -1    0    0  501    0  0.00000000000E+00  0.00000000000E+00  0.12933735576E+04  0.12933735576E+04  0.25500000920E-02 0. -1.
       -2   -1    0    0    0  501  0.00000000000E+00  0.00000000000E+00 -0.14111585297E+04  0.14111585297E+04  0.25500000920E-02 0.  1.
    10030    2    1    2    0    0  0.00000000000E+00  0.00000000000E+00 -0.11778497204E+03  0.27045320873E+04  0.27019660456E+04 0.  0.
        3    1    3    3  502    0  0.10064999940E+04 -0.85081296092E+03  0.23842527041E+03  0.13393175696E+04  0.10100000352E+00 0. -1.
       -3    1    3    3    0  502 -0.10064999940E+04  0.85081296092E+03 -0.35621024244E+03  0.13652145177E+04  0.10100000352E+00 0.  1.
</event>
<event>
 5   0  0.1999104E-06  0.2702114E+04  0.7818609E-02  0.8334319E-01
       -2   -1    0    0    0  501  0.00000000000E+00  0.00000000000E+00  0.91247646938E+03  0.91247646938E+03  0.25500000920E-02 0. -1.
        2   -1    0    0  501    0  0.00000000000E+00  0.00000000000E+00 -0.20004404145E+04  0.20004404145E+04  0.25500000920E-02 0.  1.
    10030    2    1    2    0    0  0.00000000000E+00  0.00000000000E+00 -0.10879639451E+04  0.29129168839E+04  0.27021138441E+04 0.  0.
        4    1    3    3  502    0  0.14217751404E+03 -0.49107677976E+03 -0.18921386692E+04  0.19599901034E+04  0.12699999809E+01 0.  1.
       -4    1    3    3    0  502 -0.14217751404E+03  0.49107677976E+03  0.80417472409E+03  0.95292678045E+03  0.12699999809E+01 0. -1.
</event>
<event>
 5   0  0.1999104E-06  0.2696703E+04  0.7818609E-02  0.8336075E-01
       -2   -1    0    0    0  501  0.00000000000E+00  0.00000000000E+00  0.68107256516E+03  0.68107256516E+03  0.25500000920E-02 0. -1.
        2   -1    0    0  501    0  0.00000000000E+00  0.00000000000E+00 -0.26693956349E+04  0.26693956349E+04  0.25500000920E-02 0.  1.
    10030    2    1    2    0    0  0.00000000000E+00  0.00000000000E+00 -0.19883230698E+04  0.33504682001E+04  0.26967032707E+04 0.  0.
        4    1    3    3  502    0  0.27788610919E+03  0.62919463240E+03 -0.24350303116E+04  0.25303123930E+04  0.12699999809E+01 0.  1.
       -4    1    3    3    0  502 -0.27788610919E+03 -0.62919463240E+03  0.44670724179E+03  0.82015580708E+03  0.12699999809E+01 0. -1.
</event>
<event>
 5   0  0.7335091E-07  0.2704095E+04  0.7818609E-02  0.8333677E-01
        1   -1    0    0  501    0  0.00000000000E+00  0.00000000000E+00  0.17225720729E+04  0.17225720730E+04  0.50400001928E-02 0. -1.
       -1   -1    0    0    0  501  0.00000000000E+00  0.00000000000E+00 -0.10612227573E+04  0.10612227573E+04  0.50400001928E-02 0.  1.
    10030    2    1    2    0    0  0.00000000000E+00  0.00000000000E+00  0.66134931568E+03  0.27837948302E+04  0.27040951794E+04 0.  0.
        3    1    3    3  502    0  0.11176140986E+04  0.14230369505E+03  0.11001820049E+04  0.15747101540E+04  0.10100000352E+00 0. -1.
       -3    1    3    3    0  502 -0.11176140986E+04 -0.14230369505E+03 -0.43883268920E+03  0.12090846762E+04  0.10100000352E+00 0.  1.
</event>
<event>
 5   0  0.7566905E-07  0.2696969E+04  0.7818609E-02  0.8335989E-01
       -1   -1    0    0    0  501  0.00000000000E+00  0.00000000000E+00  0.21142175704E+04  0.21142175704E+04  0.50400001928E-02 0.  1.
        1   -1    0    0  501    0  0.00000000000E+00  0.00000000000E+00 -0.86008641605E+03  0.86008641607E+03  0.50400001928E-02 0. -1.
    10030    2    1    2    0    0  0.00000000000E+00  0.00000000000E+00  0.12541311544E+04  0.29743039865E+04  0.26969685300E+04 0.  0.
        1    1    3    3  502    0  0.94039221783E+03  0.91135897358E+03  0.98185738837E+03  0.16367518545E+04  0.50400001928E-02 0. -1.
       -1    1    3    3    0  502 -0.94039221783E+03 -0.91135897358E+03  0.27227376599E+03  0.13375521320E+04  0.50400001928E-02 0.  1.
</event>
<event>
 5   0  0.7768032E-07  0.2702106E+04  0.7818609E-02  0.8334322E-01
       -1   -1    0    0    0  501  0.00000000000E+00  0.00000000000E+00  0.11623586615E+04  0.11623586615E+04  0.50400001928E-02 0. -1.
        1   -1    0    0  501    0  0.00000000000E+00  0.00000000000E+00 -0.15703795649E+04  0.15703795649E+04  0.50400001928E-02 0.  1.
    10030    2    1    2    0    0  0.00000000000E+00  0.00000000000E+00 -0.40802090336E+03  0.27327382264E+04  0.27021060594E+04 0.  0.
        4    1    3    3  502    0 -0.14898061395E+03  0.97490861059E+03  0.72987570665E+03  0.12269320203E+04  0.12699999809E+01 0. -1.
       -4    1    3    3    0  502  0.14898061395E+03 -0.97490861059E+03 -0.11378966100E+04  0.15058062061E+04  0.12699999809E+01 0.  1.
</event>
<event>
 5   0  0.2030645E-06  0.2698415E+04  0.7818609E-02  0.8335520E-01
        2   -1    0    0  501    0  0.00000000000E+00  0.00000000000E+00  0.19532460541E+04  0.19532460541E+04  0.25500000920E-02 0.  1.
       -2   -1    0    0    0  501  0.00000000000E+00  0.00000000000E+00 -0.93196679097E+03  0.93196679097E+03  0.25500000920E-02 0. -1.
    10030    2    1    2    0    0  0.00000000000E+00  0.00000000000E+00  0.10212792632E+04  0.28852128451E+04  0.26984146880E+04 0.  0.
        1    1    3    3  502    0  0.54450711034E+03 -0.10187596337E+04 -0.23475775897E+03  0.11787579862E+04  0.50400001928E-02 0. -1.
       -1    1    3    3    0  502 -0.54450711034E+03  0.10187596337E+04  0.12560370221E+04  0.17064548589E+04  0.50400001928E-02 0.  1.
</event>
<event>
 5   0  0.1999104E-06  0.2699437E+04  0.7818609E-02  0.8335188E-01
       -2   -1    0    0    0  501  0.00000000000E+00  0.00000000000E+00  0.98378243571E+03  0.98378243571E+03  0.25500000920E-02 0. -1.
        2   -1    0    0  501    0  0.00000000000E+00  0.00000000000E+00 -0.18517712115E+04  0.18517712115E+04  0.25500000920E-02 0.  1.
    10030    2    1    2    0    0  0.00000000000E+00  0.00000000000E+00 -0.86798877582E+03  0.28355536472E+04  0.26994369730E+04 0.  0.
        4    1    3    3  502    0 -0.97562664320E+03  0.91078388216E+03 -0.22295649284E+03  0.13531762034E+04  0.12699999809E+01 0.  1.
       -4    1    3    3    0  502  0.97562664320E+03 -0.91078388216E+03 -0.64503228298E+03  0.14823774438E+04  0.12699999809E+01 0. -1.
</event>
<event>
 5   0  0.7806808E-07  0.2700075E+04  0.7818609E-02  0.8334981E-01
        1   -1    0    0  501    0  0.00000000000E+00  0.00000000000E+00  0.22239793153E+04  0.22239793153E+04  0.50400001928E-02 0. -1.
       -1   -1    0    0    0  501  0.00000000000E+00  0.00000000000E+00 -0.81952267838E+03  0.81952267840E+03  0.50400001928E-02 0.  1.
    10030    2    1    2    0    0  0.00000000000E+00  0.00000000000E+00  0.14044566369E+04  0.30435019937E+04  0.27000751732E+04 0.  0.
        5    1    3    3  502    0  0.26320153317E+03  0.65036324338E+03  0.20023312988E+04  0.21216974609E+04  0.46999998093E+01 0. -1.
       -5    1    3    3    0  502 -0.26320153317E+03 -0.65036324338E+03 -0.59787466188E+03  0.92180453281E+03  0.46999998093E+01 0.  1.
</event>
<event>
 5   0  0.2030645E-06  0.2701837E+04  0.7818609E-02  0.8334409E-01
       -2   -1    0    0    0  501  0.00000000000E+00  0.00000000000E+00  0.10424487817E+04  0.10424487817E+04  0.25500000920E-02 0. -1.
        2   -1    0    0  501    0  0.00000000000E+00  0.00000000000E+00 -0.17506665175E+04  0.17506665175E+04  0.25500000920E-02 0.  1.
    10030    2    1    2    0    0  0.00000000000E+00  0.00000000000E+00 -0.70821773578E+03  0.27931152992E+04  0.27018365446E+04 0.  0.
        1    1    3    3  502    0 -0.99068553638E+03  0.38398497639E+03  0.50839034992E+03  0.11778637621E+04  0.50400001928E-02 0. -1.
       -1    1    3    3    0  502  0.99068553638E+03 -0.38398497639E+03 -0.12166080857E+04  0.16152515372E+04  0.50400001928E-02 0.  1.
</event>
<event>
 5   0  0.7335091E-07  0.2700580E+04  0.7818609E-02  0.8334817E-01
       -1   -1    0    0    0  501  0.00000000000E+00  0.00000000000E+00  0.12179920780E+04  0.12179920780E+04  0.50400001928E-02 0. -1.
        1   -1    0    0  501    0  0.00000000000E+00  0.00000000000E+00 -0.14969580911E+04  0.14969580911E+04  0.50400001928E-02 0.  1.
    10030    2    1    2    0    0  0.00000000000E+00  0.00000000000E+00 -0.27896601306E+03  0.27149501692E+04  0.27005800089E+04 0.  0.
        3    1    3    3  502    0  0.58634215878E+03  0.71291233994E+03  0.85127714633E+03  0.12556726969E+04  0.10100000352E+00 0. -1.
       -3    1    3    3    0  502 -0.58634215878E+03 -0.71291233994E+03 -0.11302431594E+04  0.14592774723E+04  0.10100000352E+00 0.  1.
</event>
<event>
 5   0  0.6561875E-07  0.2699433E+04  0.7818609E-02  0.8335189E-01
        3   -1    0    0  501    0  0.00000000000E+00  0.00000000000E+00  0.20636171297E+04  0.20636171322E+04  0.10100000352E+00 0. -1.
       -3   -1    0    0    0  501  0.00000000000E+00  0.00000000000E+00 -0.88278698262E+03  0.88278698840E+03  0.10100000352E+00 0.  1.
    10030    2    1    2    0    0  0.00000000000E+00  0.00000000000E+00  0.11808301471E+04  0.29464041206E+04  0.26994327933E+04 0.  0.
        4    1    3    3  502    0 -0.49900550641E+03  0.28498195072E+03 -0.74259398697E+03  0.93897212421E+03  0.12699999809E+01 0.  1.
       -4    1    3    3    0  502  0.49900550641E+03 -0.28498195072E+03  0.19234241340E+04  0.20074319963E+04  0.12699999809E+01 0. -1.
</event>
<event>
 5   0  0.7806808E-07  0.2697246E+04  0.7818609E-02  0.8335899E-01
       -1   -1    0    0    0  501  0.00000000000E+00  0.00000000000E+00  0.12230635338E+04  0.12230635338E+04  0.50400001928E-02 0. -1.
        1   -1    0    0  501    0  0.00000000000E+00  0.00000000000E+00 -0.14870726928E+04  0.14870726928E+04  0.50400001928E-02 0.  1.
    10030    2    1    2    0    0  0.00000000000E+00  0.00000000000E+00 -0.26400915898E+03  0.27101362266E+04  0.26972462867E+04 0.  0.
        5    1    3    3  502    0 -0.26707510700E+02  0.12929746200E+04 -0.51627916795E+03  0.13925023980E+04  0.46999998093E+01 0.  1.
       -5    1    3    3    0  502  0.26707510700E+02 -0.12929746200E+04  0.25227000897E+03  0.13176338287E+04  0.46999998093E+01 0. -1.
</event>
<event>
 5   0  0.7436613E-07  0.2696226E+04  0.7818609E-02  0.8336230E-01
        1   -1    0    0  501    0  0.00000000000E+00  0.00000000000E+00  0.74721696720E+03  0.74721696722E+03  0.50400001928E-02 0. -1.
       -1   -1    0    0    0  501  0.00000000000E+00  0.00000000000E+00 -0.24322374271E+04  0.24322374271E+04  0.50400001928E-02 0.  1.
    10030    2    1    2    0    0  0.00000000000E+00  0.00000000000E+00 -0.16850204599E+04  0.31794543943E+04  0.26962263064E+04 0.  0.
        2    1    3    3  502    0 -0.11155756330E+04  0.38083862188E+03 -0.16138542720E+04  0.19985176157E+04  0.25500000920E-02 0.  1.
       -2    1    3    3    0  502  0.11155756330E+04 -0.38083862188E+03 -0.71166187861E+02  0.11809367786E+04  0.25500000920E-02 0. -1.
</event>
<event>
 5   0  0.1991277E-06  0.2708716E+04  0.7818609E-02  0.8332183E-01
       -2   -1    0    0    0  501  0.00000000000E+00  0.00000000000E+00  0.67734112198E+03  0.67734112198E+03  0.25500000920E-02 0.  1.
        2   -1    0    0  501    0  0.00000000000E+00  0.00000000000E+00 -0.27080669716E+04  0.27080669716E+04  0.25500000920E-02 0. -1.
    10030    2    1    2    0    0  0.00000000000E+00  0.00000000000E+00 -0.20307258496E+04  0.33854080936E+04  0.27087156521E+04 0.  0.
        5    1    3    3  502    0 -0.28096926952E+03  0.12091124551E+04 -0.33841887448E+03  0.12866413968E+04  0.46999998093E+01 0.  1.
       -5    1    3    3    0  502  0.28096926952E+03 -0.12091124551E+04 -0.16923069751E+04  0.20987666967E+04  0.46999998093E+01 0. -1.
</event>
<event>
 5   0  0.1999104E-06  0.2694990E+04  0.7818609E-02  0.8336632E-01
        2   -1    0    0  501    0  0.00000000000E+00  0.00000000000E+00  0.18163141015E+04  0.18163141015E+04  0.25500000920E-02 0. -1.
       -2   -1    0    0    0  501  0.00000000000E+00  0.00000000000E+00 -0.99968576860E+03  0.99968576861E+03  0.25500000920E-02 0.  1.
    10030    2    1    2    0    0  0.00000000000E+00  0.00000000000E+00  0.81662833290E+03  0.28159998701E+04  0.26949904331E+04 0.  0.
        4    1    3    3  502    0 -0.29444193677E+03  0.10340326769E+04  0.12570818512E+04  0.16541390584E+04  0.12699999809E+01 0. -1.
       -4    1    3    3    0  502  0.29444193677E+03 -0.10340326769E+04 -0.44045351832E+03  0.11618608117E+04  0.12699999809E+01 0.  1.
</event>
<event>
 5   0  0.7566905E-07  0.2698903E+04  0.7818609E-02  0.8335361E-01
        1   -1    0    0  501    0  0.00000000000E+00  0.00000000000E+00  0.88640467655E+03  0.88640467657E+03  0.50400001928E-02 0.  1.
       -1   -1    0    0    0  501  0.00000000000E+00  0.00000000000E+00 -0.20543885123E+04  0.20543885123E+04  0.50400001928E-02 0. -1.
    10030    2    1    2    0    0  0.00000000000E+00  0.00000000000E+00 -0.11679838357E+04  0.29407931888E+04  0.26989031733E+04 0.  0.
        1    1    3    3  502    0 -0.90894344127E+03  0.43153439221E+02 -0.16697854555E+04  0.19016371542E+04  0.50400001928E-02 0. -1.
       -1    1    3    3    0  502  0.90894344127E+03 -0.43153439221E+02  0.50180161978E+03  0.10391560347E+04  0.50400001928E-02 0.  1.
</event>
<event>
 5   0  0.1991277E-06  0.2697412E+04  0.7818609E-02  0.8335845E-01
       -2   -1    0    0    0  501  0.00000000000E+00  0.00000000000E+00  0.57805374847E+03  0.57805374848E+03  0.25500000920E-02 0. -1.
        2   -1    0    0  501    0  0.00000000000E+00  0.00000000000E+00 -0.31467797905E+04  0.31467797905E+04  0.25500000920E-02 0.  1.
    10030    2    1    2    0    0  0.00000000000E+00  0.00000000000E+00 -0.25687260420E+04  0.37248335389E+04  0.26974119845E+04 0.  0.
        5    1    3    3  502    0 -0.49513754781E+03 -0.87855439184E+03 -0.47738743277E+02  0.10096138313E+04  0.46999998093E+01 0. -1.
       -5    1    3    3    0  502  0.49513754781E+03  0.87855439184E+03 -0.25209872987E+04  0.27152197077E+04  0.46999998093E+01 0.  1.
</event>
<event>
 5   0  0.7806808E-07  0.2702050E+04  0.7818609E-02  0.8334340E-01
       -1   -1    0    0    0  501  0.00000000000E+00  0.00000000000E+00  0.93883485614E+03  0.93883485615E+03  0.50400001928E-02 0.  1.
        1   -1    0    0  501    0  0.00000000000E+00  0.00000000000E+00 -0.19441850153E+04  0.19441850153E+04  0.50400001928E-02 0. -1.
    10030    2    1    2    0    0  0.00000000000E+00  0.00000000000E+00 -0.10053501592E+04  0.28830198715E+04  0.27020500803E+04 0.  0.
        5    1    3    3  502    0 -0.10233011311E+04 -0.12633099676E+03  0.42880193986E+03  0.11166906103E+04  0.46999998093E+01 0.  1.
       -5    1    3    3    0  502  0.10233011311E+04  0.12633099676E+03 -0.14341520990E+04  0.17663292611E+04  0.46999998093E+01 0. -1.
</event>
<event>
 5   0  0.2063087E-06  0.2706545E+04  0.7818609E-02  0.8332885E-01
        2   -1    0    0  501    0  0.00000000000E+00  0.00000000000E+00  0.11358440911E+04  0.11358440911E+04  0.25500000920E-02 0. -1.
       -2   -1    0    0    0  501  0.00000000000E+00  0.00000000000E+00 -0.16123218631E+04  0.16123218631E+04  0.25500000920E-02 0.  1.
    10030    2    1    2    0    0  0.00000000000E+00  0.00000000000E+00 -0.47647777195E+03  0.27481659542E+04  0.27065448537E+04 0.  0.
        3    1    3    3  502    0  0.12715259826E+04  0.23564501966E+03 -0.64316895192E+03  0.14442898638E+04  0.10100000352E+00 0.  1.
       -3    1    3    3    0  502 -0.12715259826E+04 -0.23564501966E+03  0.16669117997E+03  0.13038760905E+04  0.10100000352E+00 0. -1.
</event>
<event>
 5   0  0.1991277E-06  0.2695768E+04  0.7818609E-02  0.8336380E-01
        2   -1    0    0  501    0  0.00000000000E+00  0.00000000000E+00  0.15621640870E+04  0.15621640870E+04  0.25500000920E-02 0. -1.
       -2   -1    0    0    0  501  0.00000000000E+00  0.00000000000E+00 -0.11629961363E+04  0.11629961363E+04  0.25500000920E-02 0.  1.
    10030    2    1    2    0    0  0.00000000000E+00  0.00000000000E+00  0.39916795075E+03  0.27251602233E+04  0.26957676438E+04 0.  0.
        5    1    3    3  502    0  0.70510538922E+03 -0.11052122654E+04 -0.11704173865E+03  0.13162023477E+04  0.46999998093E+01 0. -1.
       -5    1    3    3    0  502 -0.70510538922E+03  0.11052122654E+04  0.51620968940E+03  0.14089578755E+04  0.46999998093E+01 0.  1.
</event>
<event>
 5   0  0.7768032E-07  0.2688821E+04  0.7818609E-02  0.8338641E-01
        1   -1    0    0  501    0  0.00000000000E+00  0.00000000000E+00  0.26475302143E+04  0.26475302143E+04  0.50400001928E-02 0. -1.
       -1   -1    0    0    0  501  0.00000000000E+00  0.00000000000E+00 -0.68268911281E+03  0.68268911282E+03  0.50400001928E-02 0.  1.
    10030    2    1    2    0    0  0.00000000000E+00  0.00000000000E+00  0.19648411015E+04  0.33302193271E+04  0.26888213426E+04 0.  0.
        4    1    3    3  502    0 -0.87000513155E+03 -0.99163298862E+03  0.13034719816E+04  0.18545311356E+04  0.12699999809E+01 0.  1.
       -4    1    3    3    0  502  0.87000513155E+03  0.99163298862E+03  0.66136911985E+03  0.14756881915E+04  0.12699999809E+01 0. -1.
</event>
<event>
 5   0  0.2063087E-06  0.2700710E+04  0.7818609E-02  0.8334775E-01
        2   -1    0    0  501    0  0.00000000000E+00  0.00000000000E+00  0.21647151736E+04  0.21647151736E+04  0.25500000920E-02 0.  1.
       -2   -1    0    0    0  501  0.00000000000E+00  0.00000000000E+00 -0.84235510446E+03  0.84235510447E+03  0.25500000920E-02 0. -1.
    10030    2    1    2    0    0  0.00000000000E+00  0.00000000000E+00  0.13223600692E+04  0.30070702781E+04  0.27007101853E+04 0.  0.
        3    1    3    3  502    0 -0.13029839906E+04  0.32171308297E+03  0.82704953696E+03  0.15764763032E+04  0.10100000352E+00 0.  1.
       -3    1    3    3    0  502  0.13029839906E+04 -0.32171308297E+03  0.49531053221E+03  0.14305939749E+04  0.10100000352E+00 0. -1.
</event>
<event>
 5   0  0.1932012E-06  0.2696593E+04  0.7818609E-02  0.8336111E-01
       -2   -1    0    0    0  501  0.00000000000E+00  0.00000000000E+00  0.80585983775E+03  0.80585983776E+03  0.25500000920E-02 0.  1.
        2   -1    0    0  501    0  0.00000000000E+00  0.00000000000E+00 -0.22558555249E+04  0.22558555249E+04  0.25500000920E-02 0. -1.
    10030    2    1    2    0    0  0.00000000000E+00  0.00000000000E+00 -0.14499956871E+04  0.30617153626E+04  0.26965929372E+04 0.  0.
        2    1    3    3  502    0  0.35534103104E+03 -0.11446798570E+04 -0.14261430374E+04  0.18629125547E+04  0.25500000920E-02 0.  1.
       -2    1    3    3    0  502 -0.35534103104E+03  0.11446798570E+04 -0.23852649666E+02  0.11988028079E+04  0.25500000920E-02 0. -1.
</event>
<event>
 5   0  0.1999104E-06  0.2700697E+04  0.7818609E-02  0.8334779E-01
        2   -1    0    0  501    0  0.00000000000E+00  0.00000000000E+00  0.12481422736E+04  0.12481422736E+04  0.25500000920E-02 0. -1.
       -2   -1    0    0    0  501  0.00000000000E+00  0.00000000000E+00 -0.14609239418E+04  0.14609239418E+04  0.25500000920E-02 0.  1.
    10030    2    1    2    0    0  0.00000000000E+00  0.00000000000E+00 -0.21278166829E+03  0.27090662154E+04  0.27006968954E+04 0.  0.
        4    1    3    3  502    0  0.21464761473E+03  0.36630792583E+03  0.11794490814E+04  0.12535377312E+04  0.12699999809E+01 0. -1.
       -4    1    3    3    0  502 -0.21464761473E+03 -0.36630792583E+03 -0.13922307497E+04  0.14555284842E+04  0.12699999809E+01 0.  1.
</event>
<event>
 5   0  0.1991277E-06  0.2700229E+04  0.7818609E-02  0.8334931E-01
       -2   -1    0    0    0  501  0.00000000000E+00  0.00000000000E+00  0.80272603147E+03  0.80272603147E+03  0.25500000920E-02 0.  1.
        2   -1    0    0  501    0  0.00000000000E+00  0.00000000000E+00 -0.22707743868E+04  0.22707743868E+04  0.25500000920E-02 0. -1.
    10030    2    1    2    0    0  0.00000000000E+00  0.00000000000E+00 -0.14680483553E+04  0.30735004182E+04  0.27002294064E+04 0.  0.
        5    1    3    3  502    0  0.12894601223E+04  0.49432806224E+01 -0.11893982436E+04  0.17542582806E+04  0.46999998093E+01 0. -1.
       -5    1    3    3    0  502 -0.12894601223E+04 -0.49432806224E+01 -0.27865011172E+03  0.13192421377E+04  0.46999998093E+01 0.  1.
</event>
<event>
 5   0  0.2030645E-06  0.2703207E+04  0.7818609E-02  0.8333965E-01
        2   -1    0    0  501    0  0.00000000000E+00  0.00000000000E+00  0.22982513834E+04  0.22982513834E+04  0.25500000920E-02 0.  1.
       -2   -1    0    0    0  501  0.00000000000E+00  0.00000000000E+00 -0.79487902571E+03  0.79487902572E+03  0.25500000920E-02 0. -1.
    10030    2    1    2    0    0  0.00000000000E+00  0.00000000000E+00  0.15033723576E+04  0.30931304091E+04  0.27032068515E+04 0.  0.
        1    1    3    3  502    0  0.13311184149E+04  0.22962359806E+03  0.80570361525E+03  0.15728196167E+04  0.50400001928E-02 0.  1.
       -1    1    3    3    0  502 -0.13311184149E+04 -0.22962359806E+03  0.69766874239E+03  0.15203107923E+04  0.50400001928E-02 0. -1.
</event>
<event>
 5   0  0.2030645E-06  0.2701182E+04  0.7818609E-02  0.8334621E-01
        2   -1    0    0  501    0  0.00000000000E+00  0.00000000000E+00  0.23023868665E+04  0.23023868665E+04  0.25500000920E-02 0.  1.
       -2   -1    0    0    0  501  0.00000000000E+00  0.00000000000E+00 -0.79226324871E+03  0.79226324872E+03  0.25500000920E-02 0. -1.
    10030    2    1    2    0    0  0.00000000000E+00  0.00000000000E+00  0.15101236178E+04  0.30946501152E+04  0.27011823327E+04 0.  0.
        1    1    3    3  502    0  0.60129134486E+03 -0.94084079561E+03  0.16255891876E+04  0.19721239543E+04  0.50400001928E-02 0.  1.
       -1    1    3    3    0  502 -0.60129134486E+03  0.94084079561E+03 -0.11546556986E+03  0.11225261609E+04  0.50400001928E-02 0. -1.
</event>
<event>
 5   0  0.7566905E-07  0.2718268E+04  0.7818609E-02  0.8329102E-01
        1   -1    0    0  501    0  0.00000000000E+00  0.00000000000E+00  0.13220093034E+04  0.13220093034E+04  0.50400001928E-02 0.  1.
       -1   -1    0    0    0  501  0.00000000000E+00  0.00000000000E+00 -0.13973010838E+04  0.13973010838E+04  0.50400001928E-02 0. -1.
    10030    2    1    2    0    0  0.00000000000E+00  0.00000000000E+00 -0.75291780450E+02  0.27193103872E+04  0.27182678547E+04 0.  0.
        1    1    3    3  502    0  0.43090733096E+03 -0.28334192058E+03 -0.12956182370E+04  0.13944857073E+04  0.50400001928E-02 0. -1.
       -1    1    3    3    0  502 -0.43090733096E+03  0.28334192058E+03  0.12203264566E+04  0.13248246799E+04  0.50400001928E-02 0.  1.
</event>
<event>
 5   0  0.7436613E-07  0.2698673E+04  0.7818609E-02  0.8335436E-01
       -1   -1    0    0    0  501  0.00000000000E+00  0.00000000000E+00  0.86200328444E+03  0.86200328446E+03  0.50400001928E-02 0.  1.
        1   -1    0    0  501    0  0.00000000000E+00  0.00000000000E+00 -0.21121840127E+04  0.21121840127E+04  0.50400001928E-02 0. -1.
    10030    2    1    2    0    0  0.00000000000E+00  0.00000000000E+00 -0.12501807282E+04  0.29741872972E+04  0.26986734195E+04 0.  0.
        2    1    3    3  502    0  0.33337666214E+03  0.79813444377E+03  0.51628094738E+03  0.10073254716E+04  0.25500000920E-02 0.  1.
       -2    1    3    3    0  502 -0.33337666214E+03 -0.79813444377E+03 -0.17664616756E+04  0.19668618255E+04  0.25500000920E-02 0. -1.
</event>
<event>
 5   0  0.2030645E-06  0.2693001E+04  0.7818609E-02  0.8337279E-01
       -2   -1    0    0    0  501  0.00000000000E+00  0.00000000000E+00  0.12308730547E+04  0.12308730547E+04  0.25500000920E-02 0. -1.
        2   -1    0    0  501    0  0.00000000000E+00  0.00000000000E+00 -0.14729898095E+04  0.14729898095E+04  0.25500000920E-02 0.  1.
    10030    2    1    2    0    0  0.00000000000E+00  0.00000000000E+00 -0.24211675476E+03  0.27038628642E+04  0.26930009034E+04 0.  0.
        1    1    3    3  502    0 -0.33753837013E+02 -0.13071723063E+04 -0.44364027362E+03  0.13808169510E+04  0.50400001928E-02 0.  1.
       -1    1    3    3    0  502  0.33753837013E+02  0.13071723063E+04  0.20152351886E+03  0.13230459132E+04  0.50400001928E-02 0. -1.
</event>
<event>
 5   0  0.7806808E-07  0.2695397E+04  0.7818609E-02  0.8336500E-01
       -1   -1    0    0    0  501  0.00000000000E+00  0.00000000000E+00  0.11242923079E+04  0.11242923079E+04  0.50400001928E-02 0.  1.
        1   -1    0    0  501    0  0.00000000000E+00  0.00000000000E+00 -0.16154977733E+04  0.16154977733E+04  0.50400001928E-02 0. -1.
    10030    2    1    2    0    0  0.00000000000E+00  0.00000000000E+00 -0.49120546540E+03  0.27397900812E+04  0.26953973510E+04 0.  0.
        5    1    3    3  502    0  0.14121814881E+03  0.11835517222E+04  0.39366902180E+03  0.12552826906E+04  0.46999998093E+01 0.  1.
       -5    1    3    3    0  502 -0.14121814881E+03 -0.11835517222E+04 -0.88487448720E+03  0.14845073906E+04  0.46999998093E+01 0. -1.
</event>
<event>
 5   0  0.1991277E-06  0.2699064E+04  0.7818609E-02  0.8335309E-01
       -2   -1    0    0    0  501  0.00000000000E+00  0.00000000000E+00  0.15343631291E+04  0.15343631291E+04  0.25500000920E-02 0.  1.
        2   -1    0    0  501    0  0.00000000000E+00  0.00000000000E+00 -0.11869655182E+04  0.11869655182E+04  0.25500000920E-02 0. -1.
    10030    2    1    2    0    0  0.00000000000E+00  0.00000000000E+00  0.34739761089E+03  0.27213286474E+04  0.26990636352E+04 0.  0.
        5    1    3    3  502    0  0.66000658945E+03  0.67571944953E+03  0.11455006708E+04  0.14847219771E+04  0.46999998093E+01 0.  1.
       -5    1    3    3    0  502 -0.66000658945E+03 -0.67571944953E+03 -0.79810305992E+03  0.12366066702E+04  0.46999998093E+01 0. -1.
</event>
<event>
 5   0  0.7335091E-07  0.2700171E+04  0.7818609E-02  0.8334949E-01
        1   -1    0    0  501    0  0.00000000000E+00  0.00000000000E+00  0.19793099865E+04  0.19793099865E+04  0.50400001928E-02 0. -1.
       -1   -1    0    0    0  501  0.00000000000E+00  0.00000000000E+00 -0.92089205541E+03  0.92089205542E+03  0.50400001928E-02 0.  1.
    10030    2    1    2    0    0  0.00000000000E+00  0.00000000000E+00  0.10584179311E+04  0.29002020420E+04  0.27001709885E+04 0.  0.
        3    1    3    3  502    0  0.28971531013E+03 -0.29272783657E+03  0.19101889233E+04  0.19540845120E+04  0.10100000352E+00 0. -1.
       -3    1    3    3    0  502 -0.28971531013E+03  0.29272783657E+03 -0.85177099215E+03  0.94611752996E+03  0.10100000352E+00 0.  1.
</event>
<event>
 5   0  0.1932012E-06  0.2707993E+04  0.7818609E-02  0.8332416E-01
       -2   -1    0    0    0  501  0.00000000000E+00  0.00000000000E+00  0.10855009542E+04  0.10855009542E+04  0.25500000920E-02 0.  1.
        2   -1    0    0  501    0  0.00000000000E+00  0.00000000000E+00 -0.16889033906E+04  0.16889033906E+04  0.25500000920E-02 0. -1.
    10030    2    1    2    0    0  0.00000000000E+00  0.00000000000E+00 -0.60340243648E+03  0.27744043448E+04  0.27079927932E+04 0.  0.
        2    1    3    3  502    0 -0.95417302253E+03  0.68123582629E+03 -0.99564368419E+03  0.15381270279E+04  0.25500000920E-02 0. -1.
       -2    1    3    3    0  502  0.95417302253E+03 -0.68123582629E+03  0.39224124771E+03  0.12362773169E+04  0.25500000920E-02 0.  1.
</event>
<event>
 5   0  0.7768032E-07  0.2708650E+04  0.7818609E-02  0.8332204E-01
       -1   -1    0    0    0  501  0.00000000000E+00  0.00000000000E+00  0.84662190365E+03  0.84662190366E+03  0.50400001928E-02 0. -1.
        1   -1    0    0  501    0  0.00000000000E+00  0.00000000000E+00 -0.21664886819E+04  0.21664886819E+04  0.50400001928E-02 0.  1.
    10030    2    1    2    0    0  0.00000000000E+00  0.00000000000E+00 -0.13198667782E+04  0.30131105856E+04  0.27086504183E+04 0.  0.
        4    1    3    3  502    0 -0.10518731384E+04  0.83602639072E+03 -0.84877319005E+03  0.15892749184E+04  0.12699999809E+01 0. -1.
       -4    1    3    3    0  502  0.10518731384E+04 -0.83602639072E+03 -0.47109358819E+03  0.14238356671E+04  0.12699999809E+01 0.  1.
</event>
<event>
 5   0  0.7806808E-07  0.2700234E+04  0.7818609E-02  0.8334929E-01
       -1   -1    0    0    0  501  0.00000000000E+00  0.00000000000E+00  0.13461484866E+04  0.13461484866E+04  0.50400001928E-02 0. -1.
        1   -1    0    0  501    0  0.00000000000E+00  0.00000000000E+00 -0.13540975075E+04  0.13540975075E+04  0.50400001928E-02 0.  1.
    10030    2    1    2    0    0  0.00000000000E+00  0.00000000000E+00 -0.79490208869E+01  0.27002459942E+04  0.27002342939E+04 0.  0.
        5    1    3    3  502    0 -0.48335382186E+03  0.29001249233E+03 -0.12307870881E+04  0.13537345046E+04  0.46999998093E+01 0.  1.
       -5    1    3    3    0  502  0.48335382186E+03 -0.29001249233E+03  0.12228380672E+04  0.13465114895E+04  0.46999998093E+01 0. -1.
</event>
<event>
 5   0  0.7566905E-07  0.2695584E+04  0.7818609E-02  0.8336439E-01
       -1   -1    0    0    0  501  0.00000000000E+00  0.00000000000E+00  0.13605627551E+04  0.13605627551E+04  0.50400001928E-02 0. -1.
        1   -1    0    0  501    0  0.00000000000E+00  0.00000000000E+00 -0.13351411785E+04  0.13351411785E+04  0.50400001928E-02 0.  1.
    10030    2    1    2    0    0  0.00000000000E+00  0.00000000000E+00  0.25421576601E+02  0.26957039337E+04  0.26955840632E+04 0.  0.
        1    1    3    3  502    0 -0.87838941269E+03 -0.96611981919E+03 -0.32135181015E+03  0.13447016216E+04  0.50400001928E-02 0.  1.
       -1    1    3    3    0  502  0.87838941269E+03  0.96611981919E+03  0.34677338675E+03  0.13510023120E+04  0.50400001928E-02 0. -1.
</event>
<event>
 5   0  0.7436613E-07  0.2695783E+04  0.7818609E-02  0.8336375E-01
        1   -1    0    0  501    0  0.00000000000E+00  0.00000000000E+00  0.16366290213E+04  0.16366290213E+04  0.50400001928E-02 0. -1.
       -1   -1    0    0    0  501  0.00000000000E+00  0.00000000000E+00 -0.11100932680E+04  0.11100932680E+04  0.50400001928E-02 0.  1.
    10030    2    1    2    0    0  0.00000000000E+00  0.00000000000E+00  0.52653575331E+03  0.27467222892E+04  0.26957825273E+04 0.  0.
        2    1    3    3  502    0  0.73281472102E+02 -0.39513270291E+03  0.15741682166E+04  0.16246555331E+04  0.25500000920E-02 0. -1.
       -2    1    3    3    0  502 -0.73281472102E+02  0.39513270291E+03 -0.10476324633E+04  0.11220667561E+04  0.25500000920E-02 0.  1.
</event>
<event>
 5   0  0.2063087E-06  0.2722937E+04  0.7818609E-02  0.8327601E-01
       -2   -1    0    0    0  501  0.00000000000E+00  0.00000000000E+00  0.86478065748E+03  0.86478065749E+03  0.25500000920E-02 0. -1.
        2   -1    0    0  501    0  0.00000000000E+00  0.00000000000E+00 -0.21434303304E+04  0.21434303304E+04  0.25500000920E-02 0.  1.
    10030    2    1    2    0    0  0.00000000000E+00  0.00000000000E+00 -0.12786496729E+04  0.30082109878E+04  0.27229374509E+04 0.  0.
        3    1    3    3  502    0  0.91588794556E+03 -0.31188811222E+03 -0.16975231734E+04  0.19538960714E+04  0.10100000352E+00 0.  1.
       -3    1    3    3    0  502 -0.91588794556E+03  0.31188811222E+03  0.41887350054E+03  0.10543149164E+04  0.10100000352E+00 0. -1.
</event>
<event>
 5   0  0.2030645E-06  0.2764309E+04  0.7818609E-02  0.8314436E-01
        2   -1    0    0  501    0  0.00000000000E+00  0.00000000000E+00  0.25712420474E+04  0.25712420474E+04  0.25500000920E-02 0. -1.
       -2   -1    0    0    0  501  0.00000000000E+00  0.00000000000E+00 -0.74296798446E+03  0.74296798446E+03  0.25500000920E-02 0.  1.
    10030    2    1    2    0    0  0.00000000000E+00  0.00000000000E+00  0.18282740630E+04  0.33142100319E+04  0.27643086091E+04 0.  0.
        1    1    3    3  502    0  0.74163580093E+03  0.12602559726E+03  0.23042974728E+04  0.24239828703E+04  0.50400001928E-02 0. -1.
       -1    1    3    3    0  502 -0.74163580093E+03 -0.12602559726E+03 -0.47602340987E+03  0.89022716155E+03  0.50400001928E-02 0.  1.
</event>
<event>
 5   0  0.7436613E-07  0.2701668E+04  0.7818609E-02  0.8334464E-01
       -1   -1    0    0    0  501  0.00000000000E+00  0.00000000000E+00  0.12051551091E+04  0.12051551092E+04  0.50400001928E-02 0. -1.
        1   -1    0    0  501    0  0.00000000000E+00  0.00000000000E+00 -0.15141230291E+04  0.15141230291E+04  0.50400001928E-02 0.  1.
    10030    2    1    2    0    0  0.00000000000E+00  0.00000000000E+00 -0.30896791996E+03  0.27192781383E+04  0.27016684507E+04 0.  0.
        2    1    3    3  502    0 -0.80687501066E+03  0.23050555529E+03 -0.12199550223E+04  0.14806992775E+04  0.25500000920E-02 0.  1.
       -2    1    3    3    0  502  0.80687501066E+03 -0.23050555529E+03  0.91098710233E+03  0.12385788608E+04  0.25500000920E-02 0. -1.
</event>
<event>
 5   0  0.7768032E-07  0.2703526E+04  0.7818609E-02  0.8333862E-01
        1   -1    0    0  501    0  0.00000000000E+00  0.00000000000E+00  0.25139543070E+04  0.25139543070E+04  0.50400001928E-02 0.  1.
       -1   -1    0    0    0  501  0.00000000000E+00  0.00000000000E+00 -0.72684822079E+03  0.72684822081E+03  0.50400001928E-02 0. -1.
    10030    2    1    2    0    0  0.00000000000E+00  0.00000000000E+00  0.17871060862E+04  0.32408025278E+04  0.27035260052E+04 0.  0.
        4    1    3    3  502    0  0.79920937645E+03 -0.56185695591E+03  0.20134808256E+04  0.22379735285E+04  0.12699999809E+01 0.  1.
       -4    1    3    3    0  502 -0.79920937645E+03  0.56185695591E+03 -0.22637473940E+03  0.10028289993E+04  0.12699999809E+01 0. -1.
</event>
<event>
 5   0  0.7335091E-07  0.2656524E+04  0.7818609E-02  0.8349251E-01
       -1   -1    0    0    0  501  0.00000000000E+00  0.00000000000E+00  0.10785551711E+04  0.10785551711E+04  0.50400001928E-02 0. -1.
        1   -1    0    0  501    0  0.00000000000E+00  0.00000000000E+00 -0.16357804039E+04  0.16357804039E+04  0.50400001928E-02 0.  1.
    10030    2    1    2    0    0  0.00000000000E+00  0.00000000000E+00 -0.55722523278E+03  0.27143355750E+04  0.26565236031E+04 0.  0.
        3    1    3    3  502    0  0.30168729733E+03 -0.58697593745E+03 -0.14564006996E+04  0.15989555918E+04  0.10100000352E+00 0.  1.
       -3    1    3    3    0  502 -0.30168729733E+03  0.58697593745E+03  0.89917546687E+03  0.11153799832E+04  0.10100000352E+00 0. -1.
</event>
<event>
 5   0  0.7768032E-07  0.2705854E+04  0.7818609E-02  0.8333108E-01
        1   -1    0    0  501    0  0.00000000000E+00  0.00000000000E+00  0.15223722892E+04  0.15223722892E+04  0.50400001928E-02 0.  1.
       -1   -1    0    0    0  501  0.00000000000E+00  0.00000000000E+00 -0.12023419774E+04  0.12023419774E+04  0.50400001928E-02 0. -1.
    10030    2    1    2    0    0  0.00000000000E+00  0.00000000000E+00  0.32003031182E+03  0.27247142665E+04  0.27058544739E+04 0.  0.
        4    1    3    3  502    0  0.12044446210E+04 -0.17424405078E+03 -0.43517367604E+03  0.12924494480E+04  0.12699999809E+01 0. -1.
       -4    1    3    3    0  502 -0.12044446210E+04  0.17424405078E+03  0.75520398786E+03  0.14322648186E+04  0.12699999809E+01 0.  1.
</event>
<event>
 5   0  0.1932012E-06  0.2689907E+04  0.7818609E-02  0.8338287E-01
       -2   -1    0    0    0  501  0.00000000000E+00  0.00000000000E+00  0.10321859732E+04  0.10321859732E+04  0.25500000920E-02 0.  1.
        2   -1    0    0  501    0  0.00000000000E+00  0.00000000000E+00 -0.17524937337E+04  0.17524937337E+04  0.25500000920E-02 0. -1.
    10030    2    1    2    0    0  0.00000000000E+00  0.00000000000E+00 -0.72030776051E+03  0.27846797069E+04  0.26899066527E+04 0.  0.
        2    1    3    3  502    0  0.91661866887E+03  0.90822165038E+03  0.32475285704E+02  0.12907792199E+04  0.25500000920E-02 0.  1.
       -2    1    3    3    0  502 -0.91661866887E+03 -0.90822165038E+03 -0.75278304621E+03  0.14939004870E+04  0.25500000920E-02 0. -1.
</event>
<event>
 5   0  0.2030645E-06  0.2707318E+04  0.7818609E-02  0.8332634E-01
        2   -1    0    0  501    0  0.00000000000E+00  0.00000000000E+00  0.19082349494E+04  0.19082349494E+04  0.25500000920E-02 0.  1.
       -2   -1    0    0    0  501  0.00000000000E+00  0.00000000000E+00 -0.96025526420E+03  0.96025526420E+03  0.25500000920E-02 0. -1.
    10030    2    1    2    0    0  0.00000000000E+00  0.00000000000E+00  0.94797968523E+03  0.28684902136E+04  0.27073179758E+04 0.  0.
        1    1    3    3  502    0  0.95798177846E+03  0.42988346378E+03  0.13791699690E+04  0.17333893630E+04  0.50400001928E-02 0.  1.
       -1    1    3    3    0  502 -0.95798177846E+03 -0.42988346378E+03 -0.43119028377E+03  0.11351008506E+04  0.50400001928E-02 0. -1.
</event>
<event>
 5   0  0.7566905E-07  0.2700772E+04  0.7818609E-02  0.8334755E-01
       -1   -1    0    0    0  501  0.00000000000E+00  0.00000000000E+00  0.10679690217E+04  0.10679690217E+04  0.50400001928E-02 0.  1.
        1   -1    0    0  501    0  0.00000000000E+00  0.00000000000E+00 -0.17074861261E+04  0.17074861261E+04  0.50400001928E-02 0. -1.
    10030    2    1    2    0    0  0.00000000000E+00  0.00000000000E+00 -0.63951710445E+03  0.27754551478E+04  0.27007719545E+04 0.  0.
        1    1    3    3  502    0 -0.99879903516E+03 -0.72823821083E+03 -0.87849530867E+03  0.15164710389E+04  0.50400001928E-02 0. -1.
       -1    1    3    3    0  502  0.99879903516E+03  0.72823821083E+03  0.23897820422E+03  0.12589841089E+04  0.50400001928E-02 0.  1.
</event>
<event>
 5   0  0.1932012E-06  0.2712088E+04  0.7818609E-02  0.8331094E-01
       -2   -1    0    0    0  501  0.00000000000E+00  0.00000000000E+00  0.11152229798E+04  0.11152229798E+04  0.25500000920E-02 0. -1.
        2   -1    0    0  501    0  0.00000000000E+00  0.00000000000E+00 -0.16488676737E+04  0.16488676737E+04  0.25500000920E-02 0.  1.
    10030    2    1    2    0    0  0.00000000000E+00  0.00000000000E+00 -0.53364469392E+03  0.27640906535E+04  0.27120878455E+04 0.  0.
        2    1    3    3  502    0 -0.65811341605E+03  0.92083227774E+03  0.49436504770E+03  0.12350879129E+04  0.25500000920E-02 0.  1.
       -2    1    3    3    0  502  0.65811341605E+03 -0.92083227774E+03 -0.10280097416E+04  0.15290027407E+04  0.25500000920E-02 0. -1.
</event>
<event>
 5   0  0.7335091E-07  0.2700573E+04  0.7818609E-02  0.8334819E-01
        1   -1    0    0  501    0  0.00000000000E+00  0.00000000000E+00  0.19640641972E+04  0.19640641972E+04  0.50400001928E-02 0. -1.
       -1   -1    0    0    0  501  0.00000000000E+00  0.00000000000E+00 -0.92831702261E+03  0.92831702263E+03  0.50400001928E-02 0.  1.
    10030    2    1    2    0    0  0.00000000000E+00  0.00000000000E+00  0.10357471745E+04  0.28923812198E+04  0.27005734411E+04 0.  0.
        3    1    3    3  502    0 -0.58351570090E+03  0.11301632171E+04  0.10034091402E+04  0.16200584506E+04  0.10100000352E+00 0. -1.
       -3    1    3    3    0  502  0.58351570090E+03 -0.11301632171E+04  0.32338034383E+02  0.12723227692E+04  0.10100000352E+00 0.  1.
</event>
<event>
 5   0  0.2030645E-06  0.2701835E+04  0.7818609E-02  0.8334410E-01
       -2   -1    0    0    0  501  0.00000000000E+00  0.00000000000E+00  0.30137330510E+04  0.30137330510E+04  0.25500000920E-02 0. -1.
        2   -1    0    0  501    0  0.00000000000E+00  0.00000000000E+00 -0.60555385253E+03  0.60555385254E+03  0.25500000920E-02 0.  1.
    10030    2    1    2    0    0  0.00000000000E+00  0.00000000000E+00  0.24081791985E+04  0.36192869036E+04  0.27018346800E+04 0.  0.
        1    1    3    3  502    0 -0.12655396688E+03 -0.27428568339E+03  0.29679120286E+04  0.29832449366E+04  0.50400001928E-02 0. -1.
       -1    1    3    3    0  502  0.12655396688E+03  0.27428568339E+03 -0.55973283006E+03  0.63604196694E+03  0.50400001928E-02 0.  1.
</event>
<event>
 5   0  0.7335091E-07  0.2689939E+04  0.7818609E-02  0.8338277E-01
       -1   -1    0    0    0  501  0.00000000000E+00  0.00000000000E+00  0.90788051958E+03  0.90788051959E+03  0.50400001928E-02 0. -1.
        1   -1    0    0  501    0  0.00000000000E+00  0.00000000000E+00 -0.19924901296E+04  0.19924901297E+04  0.50400001928E-02 0.  1.
    10030    2    1    2    0    0  0.00000000000E+00  0.00000000000E+00 -0.10846096101E+04  0.29003706492E+04  0.26899390136E+04 0.  0.
        3    1    3    3  502    0 -0.74220173876E+03 -0.99222766783E+03 -0.11062545184E+04  0.16610774321E+04  0.10100000352E+00 0.  1.
       -3    1    3    3    0  502  0.74220173876E+03  0.99222766783E+03  0.21644908295E+02  0.12392932171E+04  0.10100000352E+00 0. -1.
</event>
<event>
 5   0  0.6561875E-07  0.2701707E+04  0.7818609E-02  0.8334451E-01
       -4   -1    0    0    0  501  0.00000000000E+00  0.00000000000E+00  0.21322218347E+04  0.21322222129E+04  0.12699999809E+01 0. -1.
        4   -1    0    0  501    0  0.00000000000E+00  0.00000000000E+00 -0.85582252624E+03  0.85582346855E+03  0.12699999809E+01 0.  1.
    10030    2    1    2    0    0  0.00000000000E+00  0.00000000000E+00  0.12763993085E+04  0.29880456815E+04  0.27017072010E+04 0.  0.
        3    1    3    3  502    0  0.74376312161E+03 -0.83183171370E+03 -0.20385893209E+03  0.11343218482E+04  0.10100000352E+00 0.  1.
       -3    1    3    3    0  502 -0.74376312161E+03  0.83183171370E+03  0.14802582406E+04  0.18537238332E+04  0.10100000352E+00 0. -1.
</event>
<event>
 5   0  0.2030645E-06  0.2705872E+04  0.7818609E-02  0.8333102E-01
       -2   -1    0    0    0  501  0.00000000000E+00  0.00000000000E+00  0.10436944474E+04  0.10436944474E+04  0.25500000920E-02 0. -1.
        2   -1    0    0  501    0  0.00000000000E+00  0.00000000000E+00 -0.17538044292E+04  0.17538044292E+04  0.25500000920E-02 0.  1.
    10030    2    1    2    0    0  0.00000000000E+00  0.00000000000E+00 -0.71010998172E+03  0.27974988766E+04  0.27058720920E+04 0.  0.
        1    1    3    3  502    0  0.33217265497E+03  0.61175437645E+03  0.84433828230E+03  0.10942985081E+04  0.50400001928E-02 0. -1.
       -1    1    3    3    0  502 -0.33217265497E+03 -0.61175437645E+03 -0.15544482640E+04  0.17032003685E+04  0.50400001928E-02 0.  1.
</event>
<event>
 5   0  0.7436613E-07  0.2702184E+04  0.7818609E-02  0.8334297E-01
        1   -1    0    0  501    0  0.00000000000E+00  0.00000000000E+00  0.14464154249E+04  0.14464154249E+04  0.50400001928E-02 0. -1.
       -1   -1    0    0    0  501  0.00000000000E+00  0.00000000000E+00 -0.12620510656E+04  0.12620510656E+04  0.50400001928E-02 0.  1.
    10030    2    1    2    0    0  0.00000000000E+00  0.00000000000E+00  0.18436435933E+03  0.27084664905E+04  0.27021843966E+04 0.  0.
        2    1    3    3  502    0  0.91453931963E+03  0.61653848629E+03  0.87434772364E+03  0.14074749781E+04  0.25500000920E-02 0. -1.
       -2    1    3    3    0  502 -0.91453931963E+03 -0.61653848629E+03 -0.68998336432E+03  0.13009915124E+04  0.25500000920E-02 0.  1.
</event>
<event>
 5   0  0.1932012E-06  0.2701346E+04  0.7818609E-02  0.8334568E-01
       -2   -1    0    0    0  501  0.00000000000E+00  0.00000000000E+00  0.72219470539E+03  0.72219470539E+03  0.25500000920E-02 0. -1.
        2   -1    0    0  501    0  0.00000000000E+00  0.00000000000E+00 -0.25260747956E+04  0.25260747956E+04  0.25500000920E-02 0.  1.
    10030    2    1    2    0    0  0.00000000000E+00  0.00000000000E+00 -0.18038800902E+04  0.32482695010E+04  0.27013462146E+04 0.  0.
        2    1    3    3  502    0  0.68590989886E+02  0.79870350320E+03 -0.22090821986E+04  0.23500374827E+04  0.25500000920E-02 0.  1.
       -2    1    3    3    0  502 -0.68590989886E+02 -0.79870350320E+03  0.40520210844E+03  0.89823201824E+03  0.25500000920E-02 0. -1.
</event>
<event>
 5   0  0.2030645E-06  0.2710739E+04  0.7818609E-02  0.8331529E-01
        2   -1    0    0  501    0  0.00000000000E+00  0.00000000000E+00  0.12123011538E+04  0.12123011538E+04  0.25500000920E-02 0.  1.
       -2   -1    0    0    0  501  0.00000000000E+00  0.00000000000E+00 -0.15153219175E+04  0.15153219175E+04  0.25500000920E-02 0. -1.
    10030    2    1    2    0    0  0.00000000000E+00  0.00000000000E+00 -0.30302076375E+03  0.27276230713E+04  0.27107390203E+04 0.  0.
        1    1    3    3  502    0 -0.75574327470E+03 -0.74943153306E+03  0.69290126294E+03  0.12700030237E+04  0.50400001928E-02 0.  1.
       -1    1    3    3    0  502  0.75574327470E+03  0.74943153306E+03 -0.99592202669E+03  0.14576200476E+04  0.50400001928E-02 0. -1.
</event>
<event>
 5   0  0.7436613E-07  0.2697859E+04  0.7818609E-02  0.8335700E-01
        1   -1    0    0  501    0  0.00000000000E+00  0.00000000000E+00  0.11286426497E+04  0.11286426497E+04  0.50400001928E-02 0. -1.
       -1   -1    0    0    0  501  0.00000000000E+00  0.00000000000E+00 -0.16122111391E+04  0.16122111391E+04  0.50400001928E-02 0.  1.
    10030    2    1    2    0    0  0.00000000000E+00  0.00000000000E+00 -0.48356848938E+03  0.27408537888E+04  0.26978585967E+04 0.  0.
        2    1    3    3  502    0  0.92957487601E+03 -0.48479142105E+03  0.62055285652E+03  0.12182848681E+04  0.25500000920E-02 0.  1.
       -2    1    3    3    0  502 -0.92957487601E+03  0.48479142105E+03 -0.11041213459E+04  0.15225689208E+04  0.25500000920E-02 0. -1.
</event>
<event>
 5   0  0.7768032E-07  0.2697220E+04  0.7818609E-02  0.8335907E-01
        1   -1    0    0  501    0  0.00000000000E+00  0.00000000000E+00  0.12912413433E+04  0.12912413433E+04  0.50400001928E-02 0.  1.
       -1   -1    0    0    0  501  0.00000000000E+00  0.00000000000E+00 -0.14085276911E+04  0.14085276911E+04  0.50400001928E-02 0. -1.
    10030    2    1    2    0    0  0.00000000000E+00  0.00000000000E+00 -0.11728634773E+03  0.26997690344E+04  0.26972201897E+04 0.  0.
        4    1    3    3  502    0 -0.82062926764E+03  0.17480996851E+03 -0.11154612836E+04  0.13957959766E+04  0.12699999809E+01 0. -1.
       -4    1    3    3    0  502  0.82062926764E+03 -0.17480996851E+03  0.99817493590E+03  0.13039730578E+04  0.12699999809E+01 0.  1.
</event>
<event>
 5   0  0.1991277E-06  0.2702261E+04  0.7818609E-02  0.8334272E-01
        2   -1    0    0  501    0  0.00000000000E+00  0.00000000000E+00  0.15309866263E+04  0.15309866263E+04  0.25500000920E-02 0.  1.
       -2   -1    0    0    0  501  0.00000000000E+00  0.00000000000E+00 -0.11924032064E+04  0.11924032064E+04  0.25500000920E-02 0. -1.
    10030    2    1    2    0    0  0.00000000000E+00  0.00000000000E+00  0.33858341994E+03  0.27233898327E+04  0.27022608032E+04 0.  0.
        5    1    3    3  502    0  0.14491863137E+02 -0.66280188486E+03  0.13557883224E+04  0.15092052272E+04  0.46999998093E+01 0.  1.
       -5    1    3    3    0  502 -0.14491863137E+02  0.66280188486E+03 -0.10172049024E+04  0.12141846055E+04  0.46999998093E+01 0. -1.
</event>
<event>
 5   0  0.7806808E-07  0.2700171E+04  0.7818609E-02  0.8334949E-01
       -1   -1    0    0    0  501  0.00000000000E+00  0.00000000000E+00  0.10949440879E+04  0.10949440879E+04  0.50400001928E-02 0.  1.
        1   -1    0    0  501    0  0.00000000000E+00  0.00000000000E+00 -0.16646795729E+04  0.16646795729E+04  0.50400001928E-02 0. -1.
    10030    2    1    2    0    0  0.00000000000E+00  0.00000000000E+00 -0.56973548501E+03  0.27596236609E+04  0.27001711477E+04 0.  0.
        5    1    3    3  502    0 -0.80195437690E+02  0.13364727927E+04 -0.10750083679E+03  0.13431937142E+04  0.46999998093E+01 0. -1.
       -5    1    3    3    0  502  0.80195437690E+02 -0.13364727927E+04 -0.46223464822E+03  0.14164299467E+04  0.46999998093E+01 0.  1.
</event>
<event>
 5   0  0.7335091E-07  0.2695660E+04  0.7818609E-02  0.8336415E-01
       -1   -1    0    0    0  501  0.00000000000E+00  0.00000000000E+00  0.91431448406E+03  0.91431448408E+03  0.50400001928E-02 0.  1.
        1   -1    0    0  501    0  0.00000000000E+00  0.00000000000E+00 -0.19868937135E+04  0.19868937135E+04  0.50400001928E-02 0. -1.
    10030    2    1    2    0    0  0.00000000000E+00  0.00000000000E+00 -0.10725792295E+04  0.29012081976E+04  0.26956599939E+04 0.  0.
        3    1    3    3  502    0 -0.12502541692E+04 -0.68144821291E+02 -0.10731940485E+04  0.16490981415E+04  0.10100000352E+00 0. -1.
       -3    1    3    3    0  502  0.12502541692E+04  0.68144821291E+02  0.61481905863E+00  0.12521100561E+04  0.10100000352E+00 0.  1.
</event>
<event>
 5   0  0.2063087E-06  0.2696533E+04  0.7818609E-02  0.8336131E-01
        2   -1    0    0  501    0  0.00000000000E+00  0.00000000000E+00  0.20879392192E+04  0.20879392192E+04  0.25500000920E-02 0.  1.
       -2   -1    0    0    0  501  0.00000000000E+00  0.00000000000E+00 -0.87063024381E+03  0.87063024381E+03  0.25500000920E-02 0. -1.
    10030    2    1    2    0    0  0.00000000000E+00  0.00000000000E+00  0.12173089754E+04  0.29585694630E+04  0.26965333534E+04 0.  0.
        3    1    3    3  502    0 -0.12195950236E+04  0.48252044286E+03  0.95139666874E+03  0.16203066472E+04  0.10100000352E+00 0. -1.
       -3    1    3    3    0  502  0.12195950236E+04 -0.48252044286E+03  0.26591230667E+03  0.13382628159E+04  0.10100000352E+00 0.  1.
</event>
<event>
 5   0  0.1991277E-06  0.2698996E+04  0.7818609E-02  0.8335331E-01
       -2   -1    0    0    0  501  0.00000000000E+00  0.00000000000E+00  0.15367482365E+04  0.15367482365E+04  0.25500000920E-02 0.  1.
        2   -1    0    0  501    0  0.00000000000E+00  0.00000000000E+00 -0.11850634798E+04  0.11850634798E+04  0.25500000920E-02 0. -1.
    10030    2    1    2    0    0  0.00000000000E+00  0.00000000000E+00  0.35168475663E+03  0.27218117163E+04  0.26989955263E+04 0.  0.
        5    1    3    3  502    0  0.24995557158E+03 -0.10556294038E+04  0.98530521042E+03  0.14654963915E+04  0.46999998093E+01 0.  1.
       -5    1    3    3    0  502 -0.24995557158E+03  0.10556294038E+04 -0.63362045379E+03  0.12563153248E+04  0.46999998093E+01 0. -1.
</event>
<event>
 5   0  0.7806808E-07  0.2702235E+04  0.7818609E-02  0.8334280E-01
       -1   -1    0    0    0  501  0.00000000000E+00  0.00000000000E+00  0.11592948167E+04  0.11592948167E+04  0.50400001928E-02 0.  1.
        1   -1    0    0  501    0  0.00000000000E+00  0.00000000000E+00 -0.15746804402E+04  0.15746804402E+04  0.50400001928E-02 0. -1.
    10030    2    1    2    0    0  0.00000000000E+00  0.00000000000E+00 -0.41538562350E+03  0.27339752569E+04  0.27022352764E+04 0.  0.
        5    1    3    3  502    0 -0.12312578208E+04  0.50483992924E+03 -0.44418524784E+03  0.14029190283E+04  0.46999998093E+01 0. -1.
       -5    1    3    3    0  502  0.12312578208E+04 -0.50483992924E+03  0.28799624343E+02  0.13310562286E+04  0.46999998093E+01 0.  1.
</event>
<event>
 5   0  0.7436613E-07  0.2699039E+04  0.7818609E-02  0.8335317E-01
        1   -1    0    0  501    0  0.00000000000E+00  0.00000000000E+00  0.16733424390E+04  0.16733424390E+04  0.50400001928E-02 0.  1.
       -1   -1    0    0    0  501  0.00000000000E+00  0.00000000000E+00 -0.10883623681E+04  0.10883623682E+04  0.50400001928E-02 0. -1.
    10030    2    1    2    0    0  0.00000000000E+00  0.00000000000E+00  0.58498007085E+03  0.27617048072E+04  0.26990390435E+04 0.  0.
        2    1    3    3  502    0 -0.10926972406E+04  0.49915871283E+03  0.92162859747E+03  0.15141155676E+04  0.25500000920E-02 0.  1.
       -2    1    3    3    0  502  0.10926972406E+04 -0.49915871283E+03 -0.33664852661E+03  0.12475892396E+04  0.25500000920E-02 0. -1.
</event>
<event>
 5   0  0.1999104E-06  0.2691181E+04  0.7818609E-02  0.8337872E-01
        2   -1    0    0  501    0  0.00000000000E+00  0.00000000000E+00  0.20204216631E+04  0.20204216631E+04  0.25500000920E-02 0.  1.
       -2   -1    0    0    0  501  0.00000000000E+00  0.00000000000E+00 -0.89615654383E+03  0.89615654383E+03  0.25500000920E-02 0. -1.
    10030    2    1    2    0    0  0.00000000000E+00  0.00000000000E+00  0.11242651192E+04  0.29165782069E+04  0.26911812237E+04 0.  0.
        4    1    3    3  502    0 -0.14976727730E+03  0.32046350338E+03 -0.84486446210E+03  0.91592830864E+03  0.12699999809E+01 0. -1.
       -4    1    3    3    0  502  0.14976727730E+03 -0.32046350338E+03  0.19691295813E+04  0.20006498982E+04  0.12699999809E+01 0.  1.
</event>
<event>
 5   0  0.6561875E-07  0.2703154E+04  0.7818609E-02  0.8333982E-01
       -4   -1    0    0    0  501  0.00000000000E+00  0.00000000000E+00  0.13416422978E+04  0.13416428989E+04  0.12699999809E+01 0.  1.
        4   -1    0    0  501    0  0.00000000000E+00  0.00000000000E+00 -0.13615839700E+04  0.13615845623E+04  0.12699999809E+01 0. -1.
    10030    2    1    2    0    0  0.00000000000E+00  0.00000000000E+00 -0.19941672272E+02  0.27032274612E+04  0.27031539054E+04 0.  0.
        3    1    3    3  502    0 -0.10140039316E+04  0.66869770584E+03  0.58283501574E+03  0.13472406099E+04  0.10100000352E+00 0.  1.
       -3    1    3    3    0  502  0.10140039316E+04 -0.66869770584E+03 -0.60277668801E+03  0.13559868513E+04  0.10100000352E+00 0. -1.
</event>
<event>
 5   0  0.7566905E-07  0.2701106E+04  0.7818609E-02  0.8334646E-01
       -1   -1    0    0    0  501  0.00000000000E+00  0.00000000000E+00  0.11251190469E+04  0.11251190469E+04  0.50400001928E-02 0. -1.
        1   -1    0    0  501    0  0.00000000000E+00  0.00000000000E+00 -0.16211555347E+04  0.16211555347E+04  0.50400001928E-02 0.  1.
    10030    2    1    2    0    0  0.00000000000E+00  0.00000000000E+00 -0.49603648780E+03  0.27462745816E+04  0.27011056773E+04 0.  0.
        1    1    3    3  502    0  0.12233932880E+04  0.56582427222E+03 -0.33395820833E+03  0.13886599040E+04  0.50400001928E-02 0. -1.
       -1    1    3    3    0  502 -0.12233932880E+04 -0.56582427222E+03 -0.16207827947E+03  0.13576146776E+04  0.50400001928E-02 0.  1.
</event>
<event>
 5   0  0.1932012E-06  0.2690872E+04  0.7818609E-02  0.8337973E-01
        2   -1    0    0  501    0  0.00000000000E+00  0.00000000000E+00  0.18950934846E+04  0.18950934846E+04  0.25500000920E-02 0. -1.
       -2   -1    0    0    0  501  0.00000000000E+00  0.00000000000E+00 -0.95520218597E+03  0.95520218598E+03  0.25500000920E-02 0.  1.
    10030    2    1    2    0    0  0.00000000000E+00  0.00000000000E+00  0.93989129862E+03  0.28502956706E+04  0.26908715607E+04 0.  0.
        2    1    3    3  502    0  0.13321429741E+04 -0.14035780997E+03  0.33641245469E+03  0.13811149692E+04  0.25500000920E-02 0.  1.
       -2    1    3    3    0  502 -0.13321429741E+04  0.14035780997E+03  0.60347884393E+03  0.14691807014E+04  0.25500000920E-02 0. -1.
</event>
<event>
 5   0  0.7436613E-07  0.2698962E+04  0.7818609E-02  0.8335342E-01
        1   -1    0    0  501    0  0.00000000000E+00  0.00000000000E+00  0.10551029777E+04  0.10551029777E+04  0.50400001928E-02 0.  1.
       -1   -1    0    0    0  501  0.00000000000E+00  0.00000000000E+00 -0.17259921987E+04  0.17259921987E+04  0.50400001928E-02 0. -1.
    10030    2    1    2    0    0  0.00000000000E+00  0.00000000000E+00 -0.67088922101E+03  0.27810951764E+04  0.26989623994E+04 0.  0.
        2    1    3    3  502    0 -0.13051218181E+04  0.21700778044E+03 -0.61527820752E+02  0.13244700864E+04  0.25500000920E-02 0.  1.
       -2    1    3    3    0  502  0.13051218181E+04 -0.21700778044E+03 -0.60936140026E+03  0.14566250901E+04  0.25500000920E-02 0. -1.
</event>
<event>
 5   0  0.2030645E-06  0.2699058E+04  0.7818609E-02  0.8335311E-01
        2   -1    0    0  501    0  0.00000000000E+00  0.00000000000E+00  0.21232154353E+04  0.21232154353E+04  0.25500000920E-02 0.  1.
       -2   -1    0    0    0  501  0.00000000000E+00  0.00000000000E+00 -0.85776905287E+03  0.85776905288E+03  0.25500000920E-02 0. -1.
    10030    2    1    2    0    0  0.00000000000E+00  0.00000000000E+00  0.12654463824E+04  0.29809844882E+04  0.26990579786E+04 0.  0.
        1    1    3    3  502    0 -0.96579587716E+03  0.82278193620E+03  0.11406478555E+04  0.17061094107E+04  0.50400001928E-02 0.  1.
       -1    1    3    3    0  502  0.96579587716E+03 -0.82278193620E+03  0.12479852690E+03  0.12748750775E+04  0.50400001928E-02 0. -1.
</event>
<event>
 5   0  0.7335091E-07  0.2703967E+04  0.7818609E-02  0.8333719E-01
       -1   -1    0    0    0  501  0.00000000000E+00  0.00000000000E+00  0.13201100658E+04  0.13201100658E+04  0.50400001928E-02 0. -1.
        1   -1    0    0  501    0  0.00000000000E+00  0.00000000000E+00 -0.13846263786E+04  0.13846263786E+04  0.50400001928E-02 0.  1.
    10030    2    1    2    0    0  0.00000000000E+00  0.00000000000E+00 -0.64516312841E+02  0.27047364444E+04  0.27039668783E+04 0.  0.
        3    1    3    3  502    0  0.82683723939E+02  0.84817873259E+03  0.10176192610E+04  0.13273254052E+04  0.10100000352E+00 0. -1.
       -3    1    3    3    0  502 -0.82683723939E+02 -0.84817873259E+03 -0.10821355739E+04  0.13774110392E+04  0.10100000352E+00 0.  1.
</event>
<event>
 5   0  0.7335091E-07  0.2693855E+04  0.7818609E-02  0.8337002E-01
        1   -1    0    0  501    0  0.00000000000E+00  0.00000000000E+00  0.25492648636E+04  0.25492648636E+04  0.50400001928E-02 0.  1.
       -1   -1    0    0    0  501  0.00000000000E+00  0.00000000000E+00 -0.71166128057E+03  0.71166128059E+03  0.50400001928E-02 0. -1.
    10030    2    1    2    0    0  0.00000000000E+00  0.00000000000E+00  0.18376035830E+04  0.32609261442E+04  0.26938545598E+04 0.  0.
        3    1    3    3  502    0 -0.20512278207E+03  0.13287747910E+04  0.82124309941E+03  0.15754866040E+04  0.10100000352E+00 0. -1.
       -3    1    3    3    0  502  0.20512278207E+03 -0.13287747910E+04  0.10163604836E+04  0.16854395402E+04  0.10100000352E+00 0.  1.
</event>
<event>
 5   0  0.1999104E-06  0.2719869E+04  0.7818609E-02  0.8328587E-01
       -2   -1    0    0    0  501  0.00000000000E+00  0.00000000000E+00  0.13279771834E+04  0.13279771834E+04  0.25500000920E-02 0.  1.
        2   -1    0    0  501    0  0.00000000000E+00  0.00000000000E+00 -0.13926605039E+04  0.13926605039E+04  0.25500000920E-02 0. -1.
    10030    2    1    2    0    0  0.00000000000E+00  0.00000000000E+00 -0.64683320510E+02  0.27206376873E+04  0.27198686538E+04 0.  0.
        4    1    3    3  502    0  0.93464761963E+03  0.17364074544E+03  0.94040565691E+03  0.13371917192E+04  0.12699999809E+01 0.  1.
       -4    1    3    3    0  502 -0.93464761963E+03 -0.17364074544E+03 -0.10050889774E+04  0.13834459682E+04  0.12699999809E+01 0. -1.
</event>
<event>
 5   0  0.2030645E-06  0.2704773E+04  0.7818609E-02  0.8333458E-01
        2   -1    0    0  501    0  0.00000000000E+00  0.00000000000E+00  0.14769053589E+04  0.14769053589E+04  0.25500000920E-02 0.  1.
       -2   -1    0    0    0  501  0.00000000000E+00  0.00000000000E+00 -0.12383655462E+04  0.12383655462E+04  0.25500000920E-02 0. -1.
    10030    2    1    2    0    0  0.00000000000E+00  0.00000000000E+00  0.23853981270E+03  0.27152709052E+04  0.27047726053E+04 0.  0.
        1    1    3    3  502    0  0.74683418607E+03  0.91586790911E+03  0.77937317374E+03  0.14156263181E+04  0.50400001928E-02 0.  1.
       -1    1    3    3    0  502 -0.74683418607E+03 -0.91586790911E+03 -0.54083336104E+03  0.12996445871E+04  0.50400001928E-02 0. -1.
</event>
<event>
 5   0  0.7436613E-07  0.2702466E+04  0.7818609E-02  0.8334205E-01
       -1   -1    0    0    0  501  0.00000000000E+00  0.00000000000E+00  0.14350049555E+04  0.14350049555E+04  0.50400001928E-02 0.  1.
        1   -1    0    0  501    0  0.00000000000E+00  0.00000000000E+00 -0.12723515517E+04  0.12723515517E+04  0.50400001928E-02 0. -1.
    10030    2    1    2    0    0  0.00000000000E+00  0.00000000000E+00  0.16265340374E+03  0.27073565072E+04  0.27024661196E+04 0.  0.
        2    1    3    3  502    0  0.11571251030E+04 -0.69751540519E+03  0.10045411655E+03  0.13548273964E+04  0.25500000920E-02 0. -1.
       -2    1    3    3    0  502 -0.11571251030E+04  0.69751540519E+03  0.62199287190E+02  0.13525291109E+04  0.25500000920E-02 0.  1.
</event>
<event>
 5   0  0.7768032E-07  0.2688747E+04  0.7818609E-02  0.8338666E-01
       -1   -1    0    0    0  501  0.00000000000E+00  0.00000000000E+00  0.13456400281E+04  0.13456400281E+04  0.50400001928E-02 0.  1.
        1   -1    0    0  501    0  0.00000000000E+00  0.00000000000E+00 -0.13431077720E+04  0.13431077721E+04  0.50400001928E-02 0. -1.
    10030    2    1    2    0    0  0.00000000000E+00  0.00000000000E+00  0.25322560548E+01  0.26887478002E+04  0.26887466077E+04 0.  0.
        4    1    3    3  502    0  0.74373048622E+03 -0.10879631472E+04 -0.26432601040E+03  0.13441237661E+04  0.12699999809E+01 0.  1.
       -4    1    3    3    0  502 -0.74373048622E+03  0.10879631472E+04  0.26685826646E+03  0.13446240341E+04  0.12699999809E+01 0. -1.
</event>
<event>
 5   0  0.7806808E-07  0.2698016E+04  0.7818609E-02  0.8335649E-01
        1   -1    0    0  501    0  0.00000000000E+00  0.00000000000E+00  0.26502822806E+04  0.26502822806E+04  0.50400001928E-02 0.  1.
       -1   -1    0    0    0  501  0.00000000000E+00  0.00000000000E+00 -0.68665224388E+03  0.68665224390E+03  0.50400001928E-02 0. -1.
    10030    2    1    2    0    0  0.00000000000E+00  0.00000000000E+00  0.19636300367E+04  0.33369345245E+04  0.26980157709E+04 0.  0.
        5    1    3    3  502    0  0.81656811532E+03  0.98747912391E+03  0.46014818815E+03  0.13614907095E+04  0.46999998093E+01 0. -1.
       -5    1    3    3    0  502 -0.81656811532E+03 -0.98747912391E+03  0.15034818486E+04  0.19754438150E+04  0.46999998093E+01 0.  1.
</event>
<event>
 5   0  0.1932012E-06  0.2702746E+04  0.7818609E-02  0.8334115E-01
       -2   -1    0    0    0  501  0.00000000000E+00  0.00000000000E+00  0.16459286982E+04  0.16459286982E+04  0.25500000920E-02 0.  1.
        2   -1    0    0  501    0  0.00000000000E+00  0.00000000000E+00 -0.11095306856E+04  0.11095306856E+04  0.25500000920E-02 0. -1.
    10030    2    1    2    0    0  0.00000000000E+00  0.00000000000E+00  0.53639801266E+03  0.27554593838E+04  0.27027455648E+04 0.  0.
        2    1    3    3  502    0  0.45000808449E+03 -0.20942216513E+03 -0.10132339266E+04  0.11282765217E+04  0.25500000920E-02 0. -1.
       -2    1    3    3    0  502 -0.45000808449E+03  0.20942216513E+03  0.15496319393E+04  0.16271828621E+04  0.25500000920E-02 0.  1.
</event>
<event>
 5   0  0.7768032E-07  0.2696879E+04  0.7818609E-02  0.8336018E-01
       -1   -1    0    0    0  501  0.00000000000E+00  0.00000000000E+00  0.89913193863E+03  0.89913193864E+03  0.50400001928E-02 0.  1.
        1   -1    0    0  501    0  0.00000000000E+00  0.00000000000E+00 -0.20222712604E+04  0.20222712604E+04  0.50400001928E-02 0. -1.
    10030    2    1    2    0    0  0.00000000000E+00  0.00000000000E+00 -0.11231393218E+04  0.29214031991E+04  0.26968786987E+04 0.  0.
        4    1    3    3  502    0 -0.12771960610E+03  0.12897633367E+04 -0.96468741996E+03  0.16156810309E+04  0.12699999809E+01 0.  1.
       -4    1    3    3    0  502  0.12771960610E+03 -0.12897633367E+04 -0.15845190183E+03  0.13057221682E+04  0.12699999809E+01 0. -1.
</event>
<event>
 5   0  0.1991277E-06  0.2689887E+04  0.7818609E-02  0.8338294E-01
       -2   -1    0    0    0  501  0.00000000000E+00  0.00000000000E+00  0.19068903945E+04  0.19068903945E+04  0.25500000920E-02 0.  1.
        2   -1    0    0  501    0  0.00000000000E+00  0.00000000000E+00 -0.94859819013E+03  0.94859819014E+03  0.25500000920E-02 0. -1.
    10030    2    1    2    0    0  0.00000000000E+00  0.00000000000E+00  0.95829220438E+03  0.28554885847E+04  0.26898868207E+04 0.  0.
        5    1    3    3  502    0 -0.33440625916E+03  0.10897638499E+04 -0.27854474960E+03  0.11734658335E+04  0.46999998093E+01 0. -1.
       -5    1    3    3    0  502  0.33440625916E+03 -0.10897638499E+04  0.12368369540E+04  0.16820227512E+04  0.46999998093E+01 0.  1.
</event>
<event>
 5   0  0.7806808E-07  0.2700770E+04  0.7818609E-02  0.8334755E-01
        1   -1    0    0  501    0  0.00000000000E+00  0.00000000000E+00  0.25553332270E+04  0.25553332271E+04  0.50400001928E-02 0.  1.
       -1   -1    0    0    0  501  0.00000000000E+00  0.00000000000E+00 -0.71362119557E+03  0.71362119559E+03  0.50400001928E-02 0. -1.
    10030    2    1    2    0    0  0.00000000000E+00  0.00000000000E+00  0.18417120315E+04  0.32689544226E+04  0.27007702254E+04 0.  0.
        5    1    3    3  502    0  0.12110944172E+04  0.17224033518E+03  0.16131052082E+04  0.20244868296E+04  0.46999998093E+01 0.  1.
       -5    1    3    3    0  502 -0.12110944172E+04 -0.17224033518E+03  0.22860682328E+03  0.12444675930E+04  0.46999998093E+01 0. -1.
</event>
<event>
 5   0  0.7566905E-07  0.2697366E+04  0.7818609E-02  0.8335860E-01
       -1   -1    0    0    0  501  0.00000000000E+00  0.00000000000E+00  0.94346331186E+03  0.94346331187E+03  0.50400001928E-02 0. -1.
        1   -1    0    0  501    0  0.00000000000E+00  0.00000000000E+00 -0.19279449345E+04  0.19279449345E+04  0.50400001928E-02 0.  1.
    10030    2    1    2    0    0  0.00000000000E+00  0.00000000000E+00 -0.98448162261E+03  0.28714082464E+04  0.26973656133E+04 0.  0.
        1    1    3    3  502    0  0.12063605073E+04  0.10947144162E+03  0.13902740257E+03  0.12192695718E+04  0.50400001928E-02 0. -1.
       -1    1    3    3    0  502 -0.12063605073E+04 -0.10947144162E+03 -0.11235090252E+04  0.16521386745E+04  0.50400001928E-02 0.  1.
</event>
<event>
 5   0  0.1932012E-06  0.2697856E+04  0.7818609E-02  0.8335701E-01
       -2   -1    0    0    0  501  0.00000000000E+00  0.00000000000E+00  0.10276898989E+04  0.10276898989E+04  0.25500000920E-02 0. -1.
        2   -1    0    0  501    0  0.00000000000E+00  0.00000000000E+00 -0.17705795399E+04  0.17705795399E+04  0.25500000920E-02 0.  1.
    10030    2    1    2    0    0  0.00000000000E+00  0.00000000000E+00 -0.74288964097E+03  0.27982694388E+04  0.26978559697E+04 0.  0.
        2    1    3    3  502    0  0.39073306891E+03  0.49308919736E+03  0.86619669799E+03  0.10705634065E+04  0.25500000920E-02 0. -1.
       -2    1    3    3    0  502 -0.39073306891E+03 -0.49308919736E+03 -0.16090863390E+04  0.17277060323E+04  0.25500000920E-02 0.  1.
</event>
<event>
 5   0  0.7806808E-07  0.2704221E+04  0.7818609E-02  0.8333637E-01
        1   -1    0    0  501    0  0.00000000000E+00  0.00000000000E+00  0.20654583205E+04  0.20654583205E+04  0.50400001928E-02 0. -1.
       -1   -1    0    0    0  501  0.00000000000E+00  0.00000000000E+00 -0.88513173712E+03  0.88513173713E+03  0.50400001928E-02 0.  1.
    10030    2    1    2    0    0  0.00000000000E+00  0.00000000000E+00  0.11803265834E+04  0.29505900577E+04  0.27042209312E+04 0.  0.
        5    1    3    3  502    0  0.67294266192E+03  0.62950047941E+03  0.16697832435E+04  0.19071761456E+04  0.46999998093E+01 0. -1.
       -5    1    3    3    0  502 -0.67294266192E+03 -0.62950047941E+03 -0.48945666014E+03  0.10434139121E+04  0.46999998093E+01 0.  1.
</event>
<event>
 5   0  0.2030645E-06  0.2691599E+04  0.7818609E-02  0.8337736E-01
        2   -1    0    0  501    0  0.00000000000E+00  0.00000000000E+00  0.14496408579E+04  0.14496408579E+04  0.25500000920E-02 0.  1.
       -2   -1    0    0    0  501  0.00000000000E+00  0.00000000000E+00 -0.12493969830E+04  0.12493969830E+04  0.25500000920E-02 0. -1.
    10030    2    1    2    0    0  0.00000000000E+00  0.00000000000E+00  0.20024387490E+03  0.26990378409E+04  0.26915994608E+04 0.  0.
        1    1    3    3  502    0 -0.12528165760E+03  0.97264947576E+02 -0.12399922819E+04  0.12500947256E+04  0.50400001928E-02 0. -1.
       -1    1    3    3    0  502  0.12528165760E+03 -0.97264947576E+02  0.14402361568E+04  0.14489431153E+04  0.50400001928E-02 0.  1.
</event>
<event>
 5   0  0.7566905E-07  0.2699158E+04  0.7818609E-02  0.8335278E-01
        1   -1    0    0  501    0  0.00000000000E+00  0.00000000000E+00  0.26108895381E+04  0.26108895381E+04  0.50400001928E-02 0.  1.
       -1   -1    0    0    0  501  0.00000000000E+00  0.00000000000E+00 -0.69760262200E+03  0.69760262202E+03  0.50400001928E-02 0. -1.
    10030    2    1    2    0    0  0.00000000000E+00  0.00000000000E+00  0.19132869161E+04  0.33084921601E+04  0.26991579335E+04 0.  0.
        1    1    3    3  502    0  0.89104765457E+03 -0.76437739669E+03  0.14069115450E+03  0.11823843403E+04  0.50400001928E-02 0. -1.
       -1    1    3    3    0  502 -0.89104765457E+03  0.76437739669E+03  0.17725957616E+04  0.21261078197E+04  0.50400001928E-02 0.  1.
</event>
<event>
 5   0  0.7436613E-07  0.2710411E+04  0.7818609E-02  0.8331635E-01
       -1   -1    0    0    0  501  0.00000000000E+00  0.00000000000E+00  0.75009320961E+03  0.75009320962E+03  0.50400001928E-02 0.  1.
        1   -1    0    0  501    0  0.00000000000E+00  0.00000000000E+00 -0.24484722958E+04  0.24484722958E+04  0.50400001928E-02 0. -1.
    10030    2    1    2    0    0  0.00000000000E+00  0.00000000000E+00 -0.16983790862E+04  0.31985655054E+04  0.27104113658E+04 0.  0.
        2    1    3    3  502    0  0.87487926450E+03  0.82224837600E+03 -0.10743444236E+03  0.12054245222E+04  0.25500000920E-02 0.  1.
       -2    1    3    3    0  502 -0.87487926450E+03 -0.82224837600E+03 -0.15909446438E+04  0.19931409832E+04  0.25500000920E-02 0. -1.
</event>
<event>
 5   0  0.1999104E-06  0.2688585E+04  0.7818609E-02  0.8338718E-01
        2   -1    0    0  501    0  0.00000000000E+00  0.00000000000E+00  0.17926786454E+04  0.17926786454E+04  0.25500000920E-02 0. -1.
       -2   -1    0    0    0  501  0.00000000000E+00  0.00000000000E+00 -0.10080568158E+04  0.10080568158E+04  0.25500000920E-02 0.  1.
    10030    2    1    2    0    0  0.00000000000E+00  0.00000000000E+00  0.78462182963E+03  0.28007354612E+04  0.26885847035E+04 0.  0.
        4    1    3    3  502    0  0.73952850234E+02  0.13366801007E+04  0.51962860619E+03  0.14360355904E+04  0.12699999809E+01 0. -1.
       -4    1    3    3    0  502 -0.73952850234E+02 -0.13366801007E+04  0.26499322345E+03  0.13646998707E+04  0.12699999809E+01 0.  1.
</event>
<event>
 5   0  0.1932012E-06  0.2700562E+04  0.7818609E-02  0.8334823E-01
        2   -1    0    0  501    0  0.00000000000E+00  0.00000000000E+00  0.19099334092E+04  0.19099334092E+04  0.25500000920E-02 0. -1.
       -2   -1    0    0    0  501  0.00000000000E+00  0.00000000000E+00 -0.95461875674E+03  0.95461875674E+03  0.25500000920E-02 0.  1.
    10030    2    1    2    0    0  0.00000000000E+00  0.00000000000E+00  0.95531465246E+03  0.28645521659E+04  0.27005616131E+04 0.  0.
        2    1    3    3  502    0  0.29679478260E+03 -0.12701599459E+04  0.10736745690E+03  0.13087861560E+04  0.25500000920E-02 0. -1.
       -2    1    3    3    0  502 -0.29679478260E+03  0.12701599459E+04  0.84794719556E+03  0.15557660100E+04  0.25500000920E-02 0.  1.
</event>
<event>
 5   0  0.1999104E-06  0.2704138E+04  0.7818609E-02  0.8333664E-01
       -2   -1    0    0    0  501  0.00000000000E+00  0.00000000000E+00  0.16294809381E+04  0.16294809381E+04  0.25500000920E-02 0.  1.
        2   -1    0    0  501    0  0.00000000000E+00  0.00000000000E+00 -0.11218850180E+04  0.11218850180E+04  0.25500000920E-02 0. -1.
    10030    2    1    2    0    0  0.00000000000E+00  0.00000000000E+00  0.50759592016E+03  0.27513659561E+04  0.27041377565E+04 0.  0.
        4    1    3    3  502    0  0.18033282996E+03 -0.70641740489E+02  0.16152935042E+04  0.16268635169E+04  0.12699999809E+01 0.  1.
       -4    1    3    3    0  502 -0.18033282996E+03  0.70641740489E+02 -0.11076975841E+04  0.11245024392E+04  0.12699999809E+01 0. -1.
</event>
<event>
 5   0  0.7436613E-07  0.2704028E+04  0.7818609E-02  0.8333699E-01
       -1   -1    0    0    0  501  0.00000000000E+00  0.00000000000E+00  0.89801100179E+03  0.89801100180E+03  0.50400001928E-02 0. -1.
        1   -1    0    0  501    0  0.00000000000E+00  0.00000000000E+00 -0.20355451373E+04  0.20355451373E+04  0.50400001928E-02 0.  1.
    10030    2    1    2    0    0  0.00000000000E+00  0.00000000000E+00 -0.11375341355E+04  0.29335561391E+04  0.27040280531E+04 0.  0.
        2    1    3    3  502    0  0.46987285824E+03 -0.31711587160E+03  0.76285824134E+03  0.95041868422E+03  0.25500000920E-02 0. -1.
       -2    1    3    3    0  502 -0.46987285824E+03  0.31711587160E+03 -0.19003923768E+04  0.19831374549E+04  0.25500000920E-02 0.  1.
</event>
<event>
 5   0  0.2030645E-06  0.2699493E+04  0.7818609E-02  0.8335169E-01
       -2   -1    0    0    0  501  0.00000000000E+00  0.00000000000E+00  0.11184844983E+04  0.11184844984E+04  0.25500000920E-02 0.  1.
        2   -1    0    0  501    0  0.00000000000E+00  0.00000000000E+00 -0.16288253390E+04  0.16288253390E+04  0.25500000920E-02 0. -1.
    10030    2    1    2    0    0  0.00000000000E+00  0.00000000000E+00 -0.51034084063E+03  0.27473098373E+04  0.26994932059E+04 0.  0.
        1    1    3    3  502    0  0.92643434068E+03  0.46065812597E+03  0.62697583089E+03  0.12097872495E+04  0.50400001928E-02 0.  1.
       -1    1    3    3    0  502 -0.92643434068E+03 -0.46065812597E+03 -0.11373166715E+04  0.15375225878E+04  0.50400001928E-02 0. -1.
</event>
<event>
 5   0  0.7768032E-07  0.2694739E+04  0.7818609E-02  0.8336714E-01
       -1   -1    0    0    0  501  0.00000000000E+00  0.00000000000E+00  0.18386799256E+04  0.18386799256E+04  0.50400001928E-02 0. -1.
        1   -1    0    0  501    0  0.00000000000E+00  0.00000000000E+00 -0.98734106288E+03  0.98734106289E+03  0.50400001928E-02 0.  1.
    10030    2    1    2    0    0  0.00000000000E+00  0.00000000000E+00  0.85133886276E+03  0.28260209885E+04  0.26947387199E+04 0.  0.
        4    1    3    3  502    0  0.25335589101E+02  0.12973257911E+04  0.80626374043E+03  0.15276645353E+04  0.12699999809E+01 0. -1.
       -4    1    3    3    0  502 -0.25335589101E+02 -0.12973257911E+04  0.45075122334E+02  0.12983564533E+04  0.12699999809E+01 0.  1.
</event>
<event>
 5   0  0.7436613E-07  0.2698422E+04  0.7818609E-02  0.8335517E-01
        1   -1    0    0  501    0  0.00000000000E+00  0.00000000000E+00  0.73857638875E+03  0.73857638876E+03  0.50400001928E-02 0. -1.
       -1   -1    0    0    0  501  0.00000000000E+00  0.00000000000E+00 -0.24647006894E+04  0.24647006894E+04  0.50400001928E-02 0.  1.
    10030    2    1    2    0    0  0.00000000000E+00  0.00000000000E+00 -0.17261243007E+04  0.32032770782E+04  0.26984215642E+04 0.  0.
        2    1    3    3  502    0  0.78420040003E+03 -0.98095125899E+03 -0.14484013902E+04  0.19170556140E+04  0.25500000920E-02 0.  1.
       -2    1    3    3    0  502 -0.78420040003E+03  0.98095125899E+03 -0.27772291042E+03  0.12862214642E+04  0.25500000920E-02 0. -1.
</event>
<event>
 5   0  0.7566905E-07  0.2700940E+04  0.7818609E-02  0.8334700E-01
       -1   -1    0    0    0  501  0.00000000000E+00  0.00000000000E+00  0.28695920413E+04  0.28695920413E+04  0.50400001928E-02 0.  1.
        1   -1    0    0  501    0  0.00000000000E+00  0.00000000000E+00 -0.63555015461E+03  0.63555015463E+03  0.50400001928E-02 0. -1.
    10030    2    1    2    0    0  0.00000000000E+00  0.00000000000E+00  0.22340418867E+04  0.35051421960E+04  0.27009403293E+04 0.  0.
        1    1    3    3  502    0  0.13431400234E+04  0.11883279295E+03  0.10197043993E+04  0.16905453018E+04  0.50400001928E-02 0.  1.
       -1    1    3    3    0  502 -0.13431400234E+04 -0.11883279295E+03  0.12143374874E+04  0.18145968942E+04  0.50400001928E-02 0. -1.
</event>
<event>
 5   0  0.2030645E-06  0.2698769E+04  0.7818609E-02  0.8335405E-01
       -2   -1    0    0    0  501  0.00000000000E+00  0.00000000000E+00  0.14016267273E+04  0.14016267273E+04  0.25500000920E-02 0.  1.
        2   -1    0    0  501    0  0.00000000000E+00  0.00000000000E+00 -0.12990890100E+04  0.12990890100E+04  0.25500000920E-02 0. -1.
    10030    2    1    2    0    0  0.00000000000E+00  0.00000000000E+00  0.10253771729E+03  0.27007157374E+04  0.26987685174E+04 0.  0.
        1    1    3    3  502    0 -0.12545266848E+04  0.30163461363E+03  0.44654402301E+03  0.13653652286E+04  0.50400001928E-02 0.  1.
       -1    1    3    3    0  502  0.12545266848E+04 -0.30163461363E+03 -0.34400630572E+03  0.13353505088E+04  0.50400001928E-02 0. -1.
</event>
<event>
 5   0  0.7335091E-07  0.2696371E+04  0.7818609E-02  0.8336183E-01
       -1   -1    0    0    0  501  0.00000000000E+00  0.00000000000E+00  0.13216498032E+04  0.13216498032E+04  0.50400001928E-02 0. -1.
        1   -1    0    0  501    0  0.00000000000E+00  0.00000000000E+00 -0.13752544182E+04  0.13752544182E+04  0.50400001928E-02 0.  1.
    10030    2    1    2    0    0  0.00000000000E+00  0.00000000000E+00 -0.53604614993E+02  0.26969042214E+04  0.26963714367E+04 0.  0.
        3    1    3    3  502    0  0.11544383069E+04 -0.19691260607E+03  0.64123859937E+03  0.13351738952E+04  0.10100000352E+00 0. -1.
       -3    1    3    3    0  502 -0.11544383069E+04  0.19691260607E+03 -0.69484321436E+03  0.13617303263E+04  0.10100000352E+00 0.  1.
</event>
<event>
 5   0  0.7806808E-07  0.2695126E+04  0.7818609E-02  0.8336588E-01
       -1   -1    0    0    0  501  0.00000000000E+00  0.00000000000E+00  0.15157247796E+04  0.15157247796E+04  0.50400001928E-02 0.  1.
        1   -1    0    0  501    0  0.00000000000E+00  0.00000000000E+00 -0.11980579167E+04  0.11980579167E+04  0.50400001928E-02 0. -1.
    10030    2    1    2    0    0  0.00000000000E+00  0.00000000000E+00  0.31766686290E+03  0.27137826963E+04  0.26951260243E+04 0.  0.
        5    1    3    3  502    0 -0.11350079510E+04 -0.16607329904E+03 -0.55322558726E+03  0.12735399601E+04  0.46999998093E+01 0. -1.
       -5    1    3    3    0  502  0.11350079510E+04  0.16607329904E+03  0.87089245016E+03  0.14402427362E+04  0.46999998093E+01 0.  1.
</event>
<event>
 5   0  0.7335091E-07  0.2693131E+04  0.7818609E-02  0.8337237E-01
       -1   -1    0    0    0  501  0.00000000000E+00  0.00000000000E+00  0.17636956686E+04  0.17636956686E+04  0.50400001928E-02 0.  1.
        1   -1    0    0  501    0  0.00000000000E+00  0.00000000000E+00 -0.10280906869E+04  0.10280906869E+04  0.50400001928E-02 0. -1.
    10030    2    1    2    0    0  0.00000000000E+00  0.00000000000E+00  0.73560498172E+03  0.27917863556E+04  0.26931313310E+04 0.  0.
        3    1    3    3  502    0 -0.26731038488E+03  0.22604137141E+03  0.17156990995E+04  0.17510491009E+04  0.10100000352E+00 0.  1.
       -3    1    3    3    0  502  0.26731038488E+03 -0.22604137141E+03 -0.98009411778E+03  0.10407372547E+04  0.10100000352E+00 0. -1.
</event>
<event>
 5   0  0.1932012E-06  0.2704358E+04  0.7818609E-02  0.8333592E-01
       -2   -1    0    0    0  501  0.00000000000E+00  0.00000000000E+00  0.18120307600E+04  0.18120307600E+04  0.25500000920E-02 0.  1.
        2   -1    0    0  501    0  0.00000000000E+00  0.00000000000E+00 -0.10090269564E+04  0.10090269564E+04  0.25500000920E-02 0. -1.
    10030    2    1    2    0    0  0.00000000000E+00  0.00000000000E+00  0.80300380362E+03  0.28210577164E+04  0.27043578777E+04 0.  0.
        2    1    3    3  502    0  0.55999644363E+03 -0.10401426733E+04  0.10878416265E+04  0.16058929609E+04  0.25500000920E-02 0.  1.
       -2    1    3    3    0  502 -0.55999644363E+03  0.10401426733E+04 -0.28483782283E+03  0.12151647555E+04  0.25500000920E-02 0. -1.
</event>
<event>
 5   0  0.1932012E-06  0.2706132E+04  0.7818609E-02  0.8333018E-01
       -2   -1    0    0    0  501  0.00000000000E+00  0.00000000000E+00  0.18608705485E+04  0.18608705485E+04  0.25500000920E-02 0. -1.
        2   -1    0    0  501    0  0.00000000000E+00  0.00000000000E+00 -0.98383393786E+03  0.98383393787E+03  0.25500000920E-02 0.  1.
    10030    2    1    2    0    0  0.00000000000E+00  0.00000000000E+00  0.87703661060E+03  0.28447044863E+04  0.27061319994E+04 0.  0.
        2    1    3    3  502    0 -0.82973468315E+03  0.10556740932E+04  0.26299457380E+03  0.13682373995E+04  0.25500000920E-02 0. -1.
       -2    1    3    3    0  502  0.82973468315E+03 -0.10556740932E+04  0.61404203680E+03  0.14764670868E+04  0.25500000920E-02 0.  1.
</event>
<event>
 5   0  0.1999104E-06  0.2702334E+04  0.7818609E-02  0.8334248E-01
       -2   -1    0    0    0  501  0.00000000000E+00  0.00000000000E+00  0.20155483920E+04  0.20155483920E+04  0.25500000920E-02 0.  1.
        2   -1    0    0  501    0  0.00000000000E+00  0.00000000000E+00 -0.90578449512E+03  0.90578449513E+03  0.25500000920E-02 0. -1.
    10030    2    1    2    0    0  0.00000000000E+00  0.00000000000E+00  0.11097638969E+04  0.29213328872E+04  0.27023341634E+04 0.  0.
        4    1    3    3  502    0  0.36852511730E+03  0.12988961552E+04  0.61114682189E+03  0.14820404970E+04  0.12699999809E+01 0.  1.
       -4    1    3    3    0  502 -0.36852511730E+03 -0.12988961552E+04  0.49861707502E+03  0.14392923902E+04  0.12699999809E+01 0. -1.
</event>
<event>
 5   0  0.6561875E-07  0.2703560E+04  0.7818609E-02  0.8333851E-01
       -3   -1    0    0    0  501  0.00000000000E+00  0.00000000000E+00  0.11712523149E+04  0.11712523193E+04  0.10100000352E+00 0. -1.
        3   -1    0    0  501    0  0.00000000000E+00  0.00000000000E+00 -0.15601332045E+04  0.15601332078E+04  0.10100000352E+00 0.  1.
    10030    2    1    2    0    0  0.00000000000E+00  0.00000000000E+00 -0.38888088963E+03  0.27313855271E+04  0.27035603473E+04 0.  0.
        5    1    3    3  502    0  0.35840508400E+03  0.55170480876E+03 -0.13874645279E+04  0.15355495129E+04  0.46999998093E+01 0.  1.
       -5    1    3    3    0  502 -0.35840508400E+03 -0.55170480876E+03  0.99858363829E+03  0.11958360142E+04  0.46999998093E+01 0. -1.
</event>
<event>
 5   0  0.7335091E-07  0.2704185E+04  0.7818609E-02  0.8333648E-01
       -1   -1    0    0    0  501  0.00000000000E+00  0.00000000000E+00  0.16130941734E+04  0.16130941734E+04  0.50400001928E-02 0.  1.
        1   -1    0    0  501    0  0.00000000000E+00  0.00000000000E+00 -0.11333214055E+04  0.11333214055E+04  0.50400001928E-02 0. -1.
    10030    2    1    2    0    0  0.00000000000E+00  0.00000000000E+00  0.47977276786E+03  0.27464155789E+04  0.27041850201E+04 0.  0.
        3    1    3    3  502    0 -0.89199057459E+03 -0.36827163811E+03 -0.72194232954E+03  0.12051854305E+04  0.10100000352E+00 0.  1.
       -3    1    3    3    0  502  0.89199057459E+03  0.36827163811E+03  0.12017150974E+04  0.15412301483E+04  0.10100000352E+00 0. -1.
</event>
<event>
 5   0  0.7768032E-07  0.2690900E+04  0.7818609E-02  0.8337964E-01
        1   -1    0    0  501    0  0.00000000000E+00  0.00000000000E+00  0.11062027759E+04  0.11062027759E+04  0.50400001928E-02 0.  1.
       -1   -1    0    0    0  501  0.00000000000E+00  0.00000000000E+00 -0.16364406194E+04  0.16364406194E+04  0.50400001928E-02 0. -1.
    10030    2    1    2    0    0  0.00000000000E+00  0.00000000000E+00 -0.53023784345E+03  0.27426433953E+04  0.26908995936E+04 0.  0.
        4    1    3    3  502    0 -0.34360266512E+03 -0.94763541730E+03  0.64317262328E+03  0.11957208336E+04  0.12699999809E+01 0.  1.
       -4    1    3    3    0  502  0.34360266512E+03  0.94763541730E+03 -0.11734104667E+04  0.15469225617E+04  0.12699999809E+01 0. -1.
</event>
<event>
 5   0  0.1991277E-06  0.2696663E+04  0.7818609E-02  0.8336088E-01
       -2   -1    0    0    0  501  0.00000000000E+00  0.00000000000E+00  0.27120815348E+04  0.27120815348E+04  0.25500000920E-02 0. -1.
        2   -1    0    0  501    0  0.00000000000E+00  0.00000000000E+00 -0.67033308922E+03  0.67033308923E+03  0.25500000920E-02 0.  1.
    10030    2    1    2    0    0  0.00000000000E+00  0.00000000000E+00  0.20417484456E+04  0.33824146240E+04  0.26966631183E+04 0.  0.
        5    1    3    3  502    0 -0.13356097052E+04  0.68907920276E+02  0.12358472834E+04  0.18209728674E+04  0.46999998093E+01 0.  1.
       -5    1    3    3    0  502  0.13356097052E+04 -0.68907920276E+02  0.80590116215E+03  0.15614417566E+04  0.46999998093E+01 0. -1.
</event>
<event>
 5   0  0.7806808E-07  0.2701346E+04  0.7818609E-02  0.8334569E-01
        1   -1    0    0  501    0  0.00000000000E+00  0.00000000000E+00  0.14991079124E+04  0.14991079124E+04  0.50400001928E-02 0. -1.
       -1   -1    0    0    0  501  0.00000000000E+00  0.00000000000E+00 -0.12169350223E+04  0.12169350223E+04  0.50400001928E-02 0.  1.
    10030    2    1    2    0    0  0.00000000000E+00  0.00000000000E+00  0.28217289010E+03  0.27160429347E+04  0.27013455320E+04 0.  0.
        5    1    3    3  502    0  0.11688311945E+04 -0.64654519591E+03  0.34244533077E+03  0.13789408784E+04  0.46999998093E+01 0. -1.
       -5    1    3    3    0  502 -0.11688311945E+04  0.64654519591E+03 -0.60272440675E+02  0.13371020562E+04  0.46999998093E+01 0.  1.
</event>
<event>
 5   0  0.7436613E-07  0.2696256E+04  0.7818609E-02  0.8336221E-01
        1   -1    0    0  501    0  0.00000000000E+00  0.00000000000E+00  0.19393503726E+04  0.19393503726E+04  0.50400001928E-02 0. -1.
       -1   -1    0    0    0  501  0.00000000000E+00  0.00000000000E+00 -0.93714324043E+03  0.93714324045E+03  0.50400001928E-02 0.  1.
    10030    2    1    2    0    0  0.00000000000E+00  0.00000000000E+00  0.10022071322E+04  0.28764936131E+04  0.26962559912E+04 0.  0.
        2    1    3    3  502    0  0.91770724192E+03 -0.78935972862E+02 -0.54909462483E+03  0.10723443368E+04  0.25500000920E-02 0.  1.
       -2    1    3    3    0  502 -0.91770724192E+03  0.78935972862E+02  0.15513017570E+04  0.18041492763E+04  0.25500000920E-02 0. -1.
</event>
<event>
 5   0  0.1991277E-06  0.2701174E+04  0.7818609E-02  0.8334624E-01
        2   -1    0    0  501    0  0.00000000000E+00  0.00000000000E+00  0.14459305032E+04  0.14459305032E+04  0.25500000920E-02 0.  1.
       -2   -1    0    0    0  501  0.00000000000E+00  0.00000000000E+00 -0.12615305670E+04  0.12615305670E+04  0.25500000920E-02 0. -1.
    10030    2    1    2    0    0  0.00000000000E+00  0.00000000000E+00  0.18439993616E+03  0.27074610702E+04  0.27011742095E+04 0.  0.
        5    1    3    3  502    0  0.24840835500E+03  0.92594466579E+03  0.10457201408E+04  0.14186729496E+04  0.46999998093E+01 0.  1.
       -5    1    3    3    0  502 -0.24840835500E+03 -0.92594466579E+03 -0.86132020465E+03  0.12887881206E+04  0.46999998093E+01 0. -1.
</event>
<event>
 5   0  0.7335091E-07  0.2696801E+04  0.7818609E-02  0.8336044E-01
       -1   -1    0    0    0  501  0.00000000000E+00  0.00000000000E+00  0.86465372827E+03  0.86465372828E+03  0.50400001928E-02 0. -1.
        1   -1    0    0  501    0  0.00000000000E+00  0.00000000000E+00 -0.21027879947E+04  0.21027879947E+04  0.50400001928E-02 0.  1.
    10030    2    1    2    0    0  0.00000000000E+00  0.00000000000E+00 -0.12381342664E+04  0.29674417230E+04  0.26968006818E+04 0.  0.
        3    1    3    3  502    0 -0.48649182744E+03  0.94698609373E+03  0.29145796277E+03  0.11038137135E+04  0.10100000352E+00 0. -1.
       -3    1    3    3    0  502  0.48649182744E+03 -0.94698609373E+03 -0.15295922292E+04  0.18636280094E+04  0.10100000352E+00 0.  1.
</event>
<event>
 5   0  0.7335091E-07  0.2704061E+04  0.7818609E-02  0.8333689E-01
        1   -1    0    0  501    0  0.00000000000E+00  0.00000000000E+00  0.14338054538E+04  0.14338054538E+04  0.50400001928E-02 0.  1.
       -1   -1    0    0    0  501  0.00000000000E+00  0.00000000000E+00 -0.12749190466E+04  0.12749190466E+04  0.50400001928E-02 0. -1.
    10030    2    1    2    0    0  0.00000000000E+00  0.00000000000E+00  0.15888640718E+03  0.27087245004E+04  0.27040605630E+04 0.  0.
        3    1    3    3  502    0  0.10189051153E+04 -0.44395709896E+03  0.85065441459E+03  0.13995994009E+04  0.10100000352E+00 0.  1.
       -3    1    3    3    0  502 -0.10189051153E+04  0.44395709896E+03 -0.69176800741E+03  0.13091250995E+04  0.10100000352E+00 0. -1.
</event>
<event>
 5   0  0.7335091E-07  0.2699712E+04  0.7818609E-02  0.8335098E-01
        1   -1    0    0  501    0  0.00000000000E+00  0.00000000000E+00  0.16756509506E+04  0.16756509506E+04  0.50400001928E-02 0.  1.
       -1   -1    0    0    0  501  0.00000000000E+00  0.00000000000E+00 -0.10874050629E+04  0.10874050629E+04  0.50400001928E-02 0. -1.
    10030    2    1    2    0    0  0.00000000000E+00  0.00000000000E+00  0.58824588768E+03  0.27630560135E+04  0.26997120789E+04 0.  0.
        3    1    3    3  502    0 -0.70413116839E+03  0.17491031053E+03 -0.87088079082E+03  0.11335023957E+04  0.10100000352E+00 0. -1.
       -3    1    3    3    0  502  0.70413116839E+03 -0.17491031053E+03  0.14591266785E+04  0.16295536178E+04  0.10100000352E+00 0.  1.
</event>
<event>
 5   0  0.7436613E-07  0.2697063E+04  0.7818609E-02  0.8335959E-01
       -1   -1    0    0    0  501  0.00000000000E+00  0.00000000000E+00  0.10344608954E+04  0.10344608954E+04  0.50400001928E-02 0.  1.
        1   -1    0    0  501    0  0.00000000000E+00  0.00000000000E+00 -0.17579558633E+04  0.17579558633E+04  0.50400001928E-02 0. -1.
    10030    2    1    2    0    0  0.00000000000E+00  0.00000000000E+00 -0.72349496794E+03  0.27924167587E+04  0.26970625476E+04 0.  0.
        2    1    3    3  502    0 -0.84788860917E+03  0.64993251075E+03  0.49027421074E+03  0.11754557260E+04  0.25500000920E-02 0.  1.
       -2    1    3    3    0  502  0.84788860917E+03 -0.64993251075E+03 -0.12137691787E+04  0.16169610327E+04  0.25500000920E-02 0. -1.
</event>
<event>
 5   0  0.7768032E-07  0.2690529E+04  0.7818609E-02  0.8338085E-01
        1   -1    0    0  501    0  0.00000000000E+00  0.00000000000E+00  0.15390400739E+04  0.15390400739E+04  0.50400001928E-02 0. -1.
       -1   -1    0    0    0  501  0.00000000000E+00  0.00000000000E+00 -0.11758863982E+04  0.11758863982E+04  0.50400001928E-02 0.  1.
    10030    2    1    2    0    0  0.00000000000E+00  0.00000000000E+00  0.36315367575E+03  0.27149264721E+04  0.26905287876E+04 0.  0.
        4    1    3    3  502    0 -0.33171472290E+03 -0.49493195541E+03  0.13986409998E+04  0.15202600295E+04  0.12699999809E+01 0. -1.
       -4    1    3    3    0  502  0.33171472290E+03  0.49493195541E+03 -0.10354873241E+04  0.11946664426E+04  0.12699999809E+01 0.  1.
</event>
<event>
 5   0  0.7768032E-07  0.2697823E+04  0.7818609E-02  0.8335712E-01
       -1   -1    0    0    0  501  0.00000000000E+00  0.00000000000E+00  0.82833382715E+03  0.82833382717E+03  0.50400001928E-02 0. -1.
        1   -1    0    0  501    0  0.00000000000E+00  0.00000000000E+00 -0.21966526432E+04  0.21966526432E+04  0.50400001928E-02 0.  1.
    10030    2    1    2    0    0  0.00000000000E+00  0.00000000000E+00 -0.13683188161E+04  0.30249864704E+04  0.26978225968E+04 0.  0.
        4    1    3    3  502    0 -0.94936797137E+03 -0.44149946450E+03  0.26947281198E+03  0.10811283603E+04  0.12699999809E+01 0. -1.
       -4    1    3    3    0  502  0.94936797137E+03  0.44149946450E+03 -0.16377916281E+04  0.19438581101E+04  0.12699999809E+01 0.  1.
</event>
<event>
 5   0  0.2063087E-06  0.2710220E+04  0.7818609E-02  0.8331696E-01
        2   -1    0    0  501    0  0.00000000000E+00  0.00000000000E+00  0.16930083187E+04  0.16930083187E+04  0.25500000920E-02 0. -1.
       -2   -1    0    0    0  501  0.00000000000E+00  0.00000000000E+00 -0.10846512194E+04  0.10846512194E+04  0.25500000920E-02 0.  1.
    10030    2    1    2    0    0  0.00000000000E+00  0.00000000000E+00  0.60835709927E+03  0.27776595381E+04  0.27102203138E+04 0.  0.
        3    1    3    3  502    0 -0.37293564766E+03  0.10151254984E+04 -0.53269546257E+03  0.12055393983E+04  0.10100000352E+00 0.  1.
       -3    1    3    3    0  502  0.37293564766E+03 -0.10151254984E+04  0.11410525618E+04  0.15721201398E+04  0.10100000352E+00 0. -1.
</event>
<event>
 5   0  0.1999104E-06  0.2702465E+04  0.7818609E-02  0.8334206E-01
       -2   -1    0    0    0  501  0.00000000000E+00  0.00000000000E+00  0.10238384805E+04  0.10238384805E+04  0.25500000920E-02 0. -1.
        2   -1    0    0  501    0  0.00000000000E+00  0.00000000000E+00 -0.17833174794E+04  0.17833174794E+04  0.25500000920E-02 0.  1.
    10030    2    1    2    0    0  0.00000000000E+00  0.00000000000E+00 -0.75947899889E+03  0.28071559599E+04  0.27024648441E+04 0.  0.
        4    1    3    3  502    0  0.87339966623E+02 -0.81055733204E+03 -0.14990723558E+04  0.17064146621E+04  0.12699999809E+01 0.  1.
       -4    1    3    3    0  502 -0.87339966623E+02  0.81055733204E+03  0.73959335690E+03  0.11007412978E+04  0.12699999809E+01 0. -1.
</event>
<event>
 5   0  0.1999104E-06  0.2699539E+04  0.7818609E-02  0.8335154E-01
       -2   -1    0    0    0  501  0.00000000000E+00  0.00000000000E+00  0.10990137364E+04  0.10990137364E+04  0.25500000920E-02 0. -1.
        2   -1    0    0  501    0  0.00000000000E+00  0.00000000000E+00 -0.16577391598E+04  0.16577391598E+04  0.25500000920E-02 0.  1.
    10030    2    1    2    0    0  0.00000000000E+00  0.00000000000E+00 -0.55872542338E+03  0.27567528961E+04  0.26995392999E+04 0.  0.
        4    1    3    3  502    0 -0.99131182069E+03  0.22810127590E+02  0.65582844351E+03  0.11888364008E+04  0.12699999809E+01 0. -1.
       -4    1    3    3    0  502  0.99131182069E+03 -0.22810127590E+02 -0.12145538669E+04  0.15679164953E+04  0.12699999809E+01 0.  1.
</event>
<event>
 5   0  0.7806808E-07  0.2699775E+04  0.7818609E-02  0.8335078E-01
        1   -1    0    0  501    0  0.00000000000E+00  0.00000000000E+00  0.14146869356E+04  0.14146869356E+04  0.50400001928E-02 0. -1.
       -1   -1    0    0    0  501  0.00000000000E+00  0.00000000000E+00 -0.12880563825E+04  0.12880563825E+04  0.50400001928E-02 0.  1.
    10030    2    1    2    0    0  0.00000000000E+00  0.00000000000E+00  0.12663055310E+03  0.27027433181E+04  0.26997752030E+04 0.  0.
        5    1    3    3  502    0 -0.11654580037E+04  0.68079732369E+03  0.43366194142E+02  0.13504369927E+04  0.46999998093E+01 0.  1.
       -5    1    3    3    0  502  0.11654580037E+04 -0.68079732369E+03  0.83264358955E+02  0.13523063255E+04  0.46999998093E+01 0. -1.
</event>
<event>
 5   0  0.7335091E-07  0.2703181E+04  0.7818609E-02  0.8333974E-01
       -1   -1    0    0    0  501  0.00000000000E+00  0.00000000000E+00  0.19625254410E+04  0.19625254410E+04  0.50400001928E-02 0.  1.
        1   -1    0    0  501    0  0.00000000000E+00  0.00000000000E+00 -0.93083989209E+03  0.93083989210E+03  0.50400001928E-02 0. -1.
    10030    2    1    2    0    0  0.00000000000E+00  0.00000000000E+00  0.10316855489E+04  0.28933653331E+04  0.27031810666E+04 0.  0.
        3    1    3    3  502    0 -0.68603799295E+03 -0.30101350790E+02 -0.73021070294E+03  0.10023781223E+04  0.10100000352E+00 0. -1.
       -3    1    3    3    0  502  0.68603799295E+03  0.30101350790E+02  0.17618962518E+04  0.18909872108E+04  0.10100000352E+00 0.  1.
</event>
<event>
 5   0  0.1999104E-06  0.2689752E+04  0.7818609E-02  0.8338338E-01
       -2   -1    0    0    0  501  0.00000000000E+00  0.00000000000E+00  0.15993080271E+04  0.15993080271E+04  0.25500000920E-02 0.  1.
        2   -1    0    0  501    0  0.00000000000E+00  0.00000000000E+00 -0.11309212714E+04  0.11309212714E+04  0.25500000920E-02 0. -1.
    10030    2    1    2    0    0  0.00000000000E+00  0.00000000000E+00  0.46838675574E+03  0.27302292985E+04  0.26897520089E+04 0.  0.
        4    1    3    3  502    0  0.11364182868E+04  0.37840478908E+03  0.85499599493E+03  0.14716169580E+04  0.12699999809E+01 0.  1.
       -4    1    3    3    0  502 -0.11364182868E+04 -0.37840478908E+03 -0.38660923919E+03  0.12586123405E+04  0.12699999809E+01 0. -1.
</event>
<event>
 5   0  0.1991277E-06  0.2704444E+04  0.7818609E-02  0.8333565E-01
        2   -1    0    0  501    0  0.00000000000E+00  0.00000000000E+00  0.91040951882E+03  0.91040951883E+03  0.25500000920E-02 0. -1.
       -2   -1    0    0    0  501  0.00000000000E+00  0.00000000000E+00 -0.20084415375E+04  0.20084415375E+04  0.25500000920E-02 0.  1.
    10030    2    1    2    0    0  0.00000000000E+00  0.00000000000E+00 -0.10980320186E+04  0.29188510563E+04  0.27044439678E+04 0.  0.
        5    1    3    3  502    0  0.51126166043E+03  0.10428782669E+04  0.19834018022E+03  0.11782803071E+04  0.46999998093E+01 0. -1.
       -5    1    3    3    0  502 -0.51126166043E+03 -0.10428782669E+04 -0.12963721988E+04  0.17405707492E+04  0.46999998093E+01 0.  1.
</event>
<event>
 5   0  0.7806808E-07  0.2699023E+04  0.7818609E-02  0.8335322E-01
       -1   -1    0    0    0  501  0.00000000000E+00  0.00000000000E+00  0.11820316208E+04  0.11820316208E+04  0.50400001928E-02 0.  1.
        1   -1    0    0  501    0  0.00000000000E+00  0.00000000000E+00 -0.15407215802E+04  0.15407215802E+04  0.50400001928E-02 0. -1.
    10030    2    1    2    0    0  0.00000000000E+00  0.00000000000E+00 -0.35868995941E+03  0.27227532010E+04  0.26990232505E+04 0.  0.
        5    1    3    3  502    0 -0.27958767519E+03  0.71431876451E+03  0.94070451490E+03  0.12138235621E+04  0.46999998093E+01 0.  1.
       -5    1    3    3    0  502  0.27958767519E+03 -0.71431876451E+03 -0.12993944743E+04  0.15089296390E+04  0.46999998093E+01 0. -1.
</event>
<event>
 5   0  0.7335091E-07  0.2715282E+04  0.7818609E-02  0.8330064E-01
        1   -1    0    0  501    0  0.00000000000E+00  0.00000000000E+00  0.11033742318E+04  0.11033742318E+04  0.50400001928E-02 0.  1.
       -1   -1    0    0    0  501  0.00000000000E+00  0.00000000000E+00 -0.16705016369E+04  0.16705016369E+04  0.50400001928E-02 0. -1.
    10030    2    1    2    0    0  0.00000000000E+00  0.00000000000E+00 -0.56712740504E+03  0.27738758687E+04  0.27152815400E+04 0.  0.
        3    1    3    3  502    0  0.13745961042E+00  0.13347524549E+04 -0.29964309576E+02  0.13350887628E+04  0.10100000352E+00 0.  1.
       -3    1    3    3    0  502 -0.13745961042E+00 -0.13347524549E+04 -0.53716309546E+03  0.14387871058E+04  0.10100000352E+00 0. -1.
</event>
<event>
 5   0  0.1932012E-06  0.2699409E+04  0.7818609E-02  0.8335197E-01
       -2   -1    0    0    0  501  0.00000000000E+00  0.00000000000E+00  0.14274360767E+04  0.14274360767E+04  0.25500000920E-02 0.  1.
        2   -1    0    0  501    0  0.00000000000E+00  0.00000000000E+00 -0.12762062978E+04  0.12762062978E+04  0.25500000920E-02 0. -1.
    10030    2    1    2    0    0  0.00000000000E+00  0.00000000000E+00  0.15122977889E+03  0.27036423745E+04  0.26994094990E+04 0.  0.
        2    1    3    3  502    0  0.45541752097E+03 -0.53451267888E+03 -0.10788390613E+04  0.12872461468E+04  0.25500000920E-02 0. -1.
       -2    1    3    3    0  502 -0.45541752097E+03  0.53451267888E+03  0.12300688402E+04  0.14163962277E+04  0.25500000920E-02 0.  1.
</event>
<event>
 5   0  0.1991277E-06  0.2702329E+04  0.7818609E-02  0.8334250E-01
        2   -1    0    0  501    0  0.00000000000E+00  0.00000000000E+00  0.20557895749E+04  0.20557895749E+04  0.25500000920E-02 0. -1.
       -2   -1    0    0    0  501  0.00000000000E+00  0.00000000000E+00 -0.88805099137E+03  0.88805099138E+03  0.25500000920E-02 0.  1.
    10030    2    1    2    0    0  0.00000000000E+00  0.00000000000E+00  0.11677385836E+04  0.29438405663E+04  0.27023293434E+04 0.  0.
        5    1    3    3  502    0 -0.10299622832E+04 -0.31274743053E+03  0.14735534791E+04  0.18248329254E+04  0.46999998093E+01 0. -1.
       -5    1    3    3    0  502  0.10299622832E+04  0.31274743053E+03 -0.30581489553E+03  0.11190076409E+04  0.46999998093E+01 0.  1.
</event>
<event>
 5   0  0.2030645E-06  0.2700751E+04  0.7818609E-02  0.8334761E-01
        2   -1    0    0  501    0  0.00000000000E+00  0.00000000000E+00  0.97570571293E+03  0.97570571293E+03  0.25500000920E-02 0. -1.
       -2   -1    0    0    0  501  0.00000000000E+00  0.00000000000E+00 -0.18689186425E+04  0.18689186425E+04  0.25500000920E-02 0.  1.
    10030    2    1    2    0    0  0.00000000000E+00  0.00000000000E+00 -0.89321292962E+03  0.28446243555E+04  0.27007514484E+04 0.  0.
        1    1    3    3  502    0 -0.11429672980E+04  0.36804834743E+03  0.20410797505E+03  0.12179876419E+04  0.50400001928E-02 0.  1.
       -1    1    3    3    0  502  0.11429672980E+04 -0.36804834743E+03 -0.10973209047E+04  0.16266367136E+04  0.50400001928E-02 0. -1.
</event>
<event>
 5   0  0.1999104E-06  0.2697149E+04  0.7818609E-02  0.8335931E-01
       -2   -1    0    0    0  501  0.00000000000E+00  0.00000000000E+00  0.14962931196E+04  0.14962931196E+04  0.25500000920E-02 0.  1.
        2   -1    0    0  501    0  0.00000000000E+00  0.00000000000E+00 -0.12154388853E+04  0.12154388853E+04  0.25500000920E-02 0. -1.
    10030    2    1    2    0    0  0.00000000000E+00  0.00000000000E+00  0.28085423428E+03  0.27117320048E+04  0.26971487473E+04 0.  0.
        4    1    3    3  502    0  0.22635054114E+02 -0.19235446371E+03 -0.12013819785E+04  0.12168947599E+04  0.12699999809E+01 0. -1.
       -4    1    3    3    0  502 -0.22635054114E+02  0.19235446371E+03  0.14822362128E+04  0.14948372449E+04  0.12699999809E+01 0.  1.
</event>
<event>
 5   0  0.1991277E-06  0.2706313E+04  0.7818609E-02  0.8332960E-01
       -2   -1    0    0    0  501  0.00000000000E+00  0.00000000000E+00  0.11202926182E+04  0.11202926182E+04  0.25500000920E-02 0. -1.
        2   -1    0    0  501    0  0.00000000000E+00  0.00000000000E+00 -0.16344234446E+04  0.16344234446E+04  0.25500000920E-02 0.  1.
    10030    2    1    2    0    0  0.00000000000E+00  0.00000000000E+00 -0.51413082636E+03  0.27547160628E+04  0.27063130048E+04 0.  0.
        5    1    3    3  502    0  0.12047993994E+04  0.55512457526E+03  0.14741477790E+02  0.13266289188E+04  0.46999998093E+01 0. -1.
       -5    1    3    3    0  502 -0.12047993994E+04 -0.55512457526E+03 -0.52887230415E+03  0.14280871441E+04  0.46999998093E+01 0.  1.
</event>
<event>
 5   0  0.2063087E-06  0.2700847E+04  0.7818609E-02  0.8334730E-01
        2   -1    0    0  501    0  0.00000000000E+00  0.00000000000E+00  0.80915516176E+03  0.80915516176E+03  0.25500000920E-02 0.  1.
       -2   -1    0    0    0  501  0.00000000000E+00  0.00000000000E+00 -0.22537621921E+04  0.22537621921E+04  0.25500000920E-02 0. -1.
    10030    2    1    2    0    0  0.00000000000E+00  0.00000000000E+00 -0.14446070303E+04  0.30629173539E+04  0.27008467643E+04 0.  0.
        3    1    3    3  502    0 -0.69572667434E+03 -0.37883453184E+03 -0.19625775262E+04  0.21164266499E+04  0.10100000352E+00 0. -1.
       -3    1    3    3    0  502  0.69572667434E+03  0.37883453184E+03  0.51797049585E+03  0.94649070396E+03  0.10100000352E+00 0.  1.
</event>
<event>
 5   0  0.7768032E-07  0.2699409E+04  0.7818609E-02  0.8335197E-01
        1   -1    0    0  501    0  0.00000000000E+00  0.00000000000E+00  0.13884311488E+04  0.13884311488E+04  0.50400001928E-02 0.  1.
       -1   -1    0    0    0  501  0.00000000000E+00  0.00000000000E+00 -0.13120577345E+04  0.13120577346E+04  0.50400001928E-02 0. -1.
    10030    2    1    2    0    0  0.00000000000E+00  0.00000000000E+00  0.76373414236E+02  0.27004888833E+04  0.26994086965E+04 0.  0.
        4    1    3    3  502    0  0.37842654047E+03 -0.26481278297E+03 -0.12305351751E+04  0.13143633009E+04  0.12699999809E+01 0. -1.
       -4    1    3    3    0  502 -0.37842654047E+03  0.26481278297E+03  0.13069085894E+04  0.13861255825E+04  0.12699999809E+01 0.  1.
</event>
<event>
 5   0  0.1991277E-06  0.2671631E+04  0.7818609E-02  0.8344269E-01
       -2   -1    0    0    0  501  0.00000000000E+00  0.00000000000E+00  0.12548382990E+04  0.12548382990E+04  0.25500000920E-02 0. -1.
        2   -1    0    0  501    0  0.00000000000E+00  0.00000000000E+00 -0.14220179466E+04  0.14220179466E+04  0.25500000920E-02 0.  1.
    10030    2    1    2    0    0  0.00000000000E+00  0.00000000000E+00 -0.16717964758E+03  0.26768562456E+04  0.26716306491E+04 0.  0.
        5    1    3    3  502    0  0.14067203270E+03 -0.12968368789E+04  0.20473330516E+03  0.13204212690E+04  0.46999998093E+01 0.  1.
       -5    1    3    3    0  502 -0.14067203270E+03  0.12968368789E+04 -0.37191295274E+03  0.13564349766E+04  0.46999998093E+01 0. -1.
</event>
<event>
 5   0  0.7806808E-07  0.2697454E+04  0.7818609E-02  0.8335831E-01
        1   -1    0    0  501    0  0.00000000000E+00  0.00000000000E+00  0.17741540318E+04  0.17741540318E+04  0.50400001928E-02 0. -1.
       -1   -1    0    0    0  501  0.00000000000E+00  0.00000000000E+00 -0.10253140727E+04  0.10253140728E+04  0.50400001928E-02 0.  1.
    10030    2    1    2    0    0  0.00000000000E+00  0.00000000000E+00  0.74883995908E+03  0.27994681046E+04  0.26974544267E+04 0.  0.
        5    1    3    3  502    0  0.12178567735E+04  0.48199441651E+03  0.70838034209E+03  0.14890663307E+04  0.46999998093E+01 0.  1.
       -5    1    3    3    0  502 -0.12178567735E+04 -0.48199441651E+03  0.40459616994E+02  0.13104017738E+04  0.46999998093E+01 0. -1.
</event>
<event>
 5   0  0.7806808E-07  0.2697738E+04  0.7818609E-02  0.8335739E-01
       -1   -1    0    0    0  501  0.00000000000E+00  0.00000000000E+00  0.19077902830E+04  0.19077902830E+04  0.50400001928E-02 0. -1.
        1   -1    0    0  501    0  0.00000000000E+00  0.00000000000E+00 -0.95369349551E+03  0.95369349552E+03  0.50400001928E-02 0.  1.
    10030    2    1    2    0    0  0.00000000000E+00  0.00000000000E+00  0.95409678752E+03  0.28614837786E+04  0.26977377069E+04 0.  0.
        5    1    3    3  502    0 -0.12888775589E+04  0.36777308282E+03  0.31631616702E+03  0.13771493782E+04  0.46999998093E+01 0. -1.
       -5    1    3    3    0  502  0.12888775589E+04 -0.36777308282E+03  0.63778062050E+03  0.14843344004E+04  0.46999998093E+01 0.  1.
</event>
<event>
 5   0  0.7806808E-07  0.2693489E+04  0.7818609E-02  0.8337121E-01
       -1   -1    0    0    0  501  0.00000000000E+00  0.00000000000E+00  0.96006293013E+03  0.96006293014E+03  0.50400001928E-02 0.  1.
        1   -1    0    0  501    0  0.00000000000E+00  0.00000000000E+00 -0.18891686629E+04  0.18891686629E+04  0.50400001928E-02 0. -1.
    10030    2    1    2    0    0  0.00000000000E+00  0.00000000000E+00 -0.92910573273E+03  0.28492315930E+04  0.26934890399E+04 0.  0.
        5    1    3    3  502    0 -0.66406025650E+03 -0.30184241725E+02 -0.17035199658E+04  0.18286304921E+04  0.46999998093E+01 0. -1.
       -5    1    3    3    0  502  0.66406025650E+03  0.30184241725E+02  0.77441423310E+03  0.10206011009E+04  0.46999998093E+01 0.  1.
</event>
<event>
 5   0  0.7566905E-07  0.2701170E+04  0.7818609E-02  0.8334625E-01
       -1   -1    0    0    0  501  0.00000000000E+00  0.00000000000E+00  0.10284460301E+04  0.10284460301E+04  0.50400001928E-02 0. -1.
        1   -1    0    0  501    0  0.00000000000E+00  0.00000000000E+00 -0.17736277702E+04  0.17736277702E+04  0.50400001928E-02 0.  1.
    10030    2    1    2    0    0  0.00000000000E+00  0.00000000000E+00 -0.74518174009E+03  0.28020738004E+04  0.27011704420E+04 0.  0.
        1    1    3    3  502    0  0.92779319744E+02 -0.92856042028E+03 -0.13854068110E+04  0.16703845331E+04  0.50400001928E-02 0.  1.
       -1    1    3    3    0  502 -0.92779319744E+02  0.92856042028E+03  0.64022507090E+03  0.11316892673E+04  0.50400001928E-02 0. -1.
</event>
<event>
 5   0  0.2063087E-06  0.2701602E+04  0.7818609E-02  0.8334485E-01
       -2   -1    0    0    0  501  0.00000000000E+00  0.00000000000E+00  0.11061767845E+04  0.11061767845E+04  0.25500000920E-02 0.  1.
        2   -1    0    0  501    0  0.00000000000E+00  0.00000000000E+00 -0.16495228444E+04  0.16495228444E+04  0.25500000920E-02 0. -1.
    10030    2    1    2    0    0  0.00000000000E+00  0.00000000000E+00 -0.54334605988E+03  0.27556996288E+04  0.27016023955E+04 0.  0.
        3    1    3    3  502    0  0.13107705338E+04 -0.74858874179E+02  0.52400406164E+02  0.13139516948E+04  0.10100000352E+00 0.  1.
       -3    1    3    3    0  502 -0.13107705338E+04  0.74858874179E+02 -0.59574646604E+03  0.14417479341E+04  0.10100000352E+00 0. -1.
</event>
<event>
 5   0  0.7436613E-07  0.2693548E+04  0.7818609E-02  0.8337101E-01
        1   -1    0    0  501    0  0.00000000000E+00  0.00000000000E+00  0.17916373903E+04  0.17916373903E+04  0.50400001928E-02 0. -1.
       -1   -1    0    0    0  501  0.00000000000E+00  0.00000000000E+00 -0.10123700389E+04  0.10123700389E+04  0.50400001928E-02 0.  1.
    10030    2    1    2    0    0  0.00000000000E+00  0.00000000000E+00  0.77926735139E+03  0.28040074291E+04  0.26935478570E+04 0.  0.
        2    1    3    3  502    0  0.31533677513E+03  0.20155544041E+03  0.17364185175E+04  0.17762914021E+04  0.25500000920E-02 0. -1.
       -2    1    3    3    0  502 -0.31533677513E+03 -0.20155544041E+03 -0.95715116613E+03  0.10277160270E+04  0.25500000920E-02 0.  1.
</event>
<event>
 5   0  0.7768032E-07  0.2682321E+04  0.7818609E-02  0.8340764E-01
        1   -1    0    0  501    0  0.00000000000E+00  0.00000000000E+00  0.24973438624E+04  0.24973438624E+04  0.50400001928E-02 0. -1.
       -1   -1    0    0    0  501  0.00000000000E+00  0.00000000000E+00 -0.72024988950E+03  0.72024988951E+03  0.50400001928E-02 0.  1.
    10030    2    1    2    0    0  0.00000000000E+00  0.00000000000E+00  0.17770939729E+04  0.32175937519E+04  0.26823211150E+04 0.  0.
        4    1    3    3  502    0  0.10719470357E+04 -0.42582186933E+03  0.17094457895E+04  0.20621836077E+04  0.12699999809E+01 0. -1.
       -4    1    3    3    0  502 -0.10719470357E+04  0.42582186933E+03  0.67648183406E+02  0.11554101442E+04  0.12699999809E+01 0.  1.
</event>
<event>
 5   0  0.1932012E-06  0.2694338E+04  0.7818609E-02  0.8336844E-01
       -2   -1    0    0    0  501  0.00000000000E+00  0.00000000000E+00  0.83410182185E+03  0.83410182186E+03  0.25500000920E-02 0.  1.
        2   -1    0    0  501    0  0.00000000000E+00  0.00000000000E+00 -0.21758305268E+04  0.21758305268E+04  0.25500000920E-02 0. -1.
    10030    2    1    2    0    0  0.00000000000E+00  0.00000000000E+00 -0.13417287049E+04  0.30099323486E+04  0.26943379197E+04 0.  0.
        2    1    3    3  502    0  0.12388350887E+04  0.49876167487E+03 -0.47294384764E+03  0.14167397320E+04  0.25500000920E-02 0. -1.
       -2    1    3    3    0  502 -0.12388350887E+04 -0.49876167487E+03 -0.86878485727E+03  0.15931926166E+04  0.25500000920E-02 0.  1.
</event>
<event>
 5   0  0.1932012E-06  0.2700264E+04  0.7818609E-02  0.8334919E-01
       -2   -1    0    0    0  501  0.00000000000E+00  0.00000000000E+00  0.12611923733E+04  0.12611923733E+04  0.25500000920E-02 0. -1.
        2   -1    0    0  501    0  0.00000000000E+00  0.00000000000E+00 -0.14453436111E+04  0.14453436111E+04  0.25500000920E-02 0.  1.
    10030    2    1    2    0    0  0.00000000000E+00  0.00000000000E+00 -0.18415123780E+03  0.27065359845E+04  0.27002639421E+04 0.  0.
        2    1    3    3  502    0 -0.11177499057E+04 -0.36682924524E+03  0.57197950000E+03  0.13080860428E+04  0.25500000920E-02 0. -1.
       -2    1    3    3    0  502  0.11177499057E+04  0.36682924524E+03 -0.75613073780E+03  0.13984499417E+04  0.25500000920E-02 0.  1.
</event>
<event>
 5   0  0.7566905E-07  0.2700532E+04  0.7818609E-02  0.8334832E-01
       -1   -1    0    0    0  501  0.00000000000E+00  0.00000000000E+00  0.99388037960E+03  0.99388037961E+03  0.50400001928E-02 0. -1.
        1   -1    0    0  501    0  0.00000000000E+00  0.00000000000E+00 -0.18344443568E+04  0.18344443568E+04  0.50400001928E-02 0.  1.
    10030    2    1    2    0    0  0.00000000000E+00  0.00000000000E+00 -0.84056397717E+03  0.28283247364E+04  0.27005319874E+04 0.  0.
        1    1    3    3  502    0 -0.59710107635E+03 -0.31474385842E+03  0.80451310980E+03  0.10501593858E+04  0.50400001928E-02 0. -1.
       -1    1    3    3    0  502  0.59710107635E+03  0.31474385842E+03 -0.16450770870E+04  0.17781653505E+04  0.50400001928E-02 0.  1.
</event>
<event>
 5   0  0.1991277E-06  0.2700514E+04  0.7818609E-02  0.8334838E-01
       -2   -1    0    0    0  501  0.00000000000E+00  0.00000000000E+00  0.12445452145E+04  0.12445452145E+04  0.25500000920E-02 0.  1.
        2   -1    0    0  501    0  0.00000000000E+00  0.00000000000E+00 -0.14649482839E+04  0.14649482839E+04  0.25500000920E-02 0. -1.
    10030    2    1    2    0    0  0.00000000000E+00  0.00000000000E+00 -0.22040306949E+03  0.27094934984E+04  0.27005143038E+04 0.  0.
        5    1    3    3  502    0 -0.12349398932E+04  0.82645916607E+02 -0.65168609634E+03  0.13987936751E+04  0.46999998093E+01 0. -1.
       -5    1    3    3    0  502  0.12349398932E+04 -0.82645916607E+02  0.43128302685E+03  0.13106998233E+04  0.46999998093E+01 0.  1.
</event>
<event>
 5   0  0.7335091E-07  0.2698236E+04  0.7818609E-02  0.8335577E-01
        1   -1    0    0  501    0  0.00000000000E+00  0.00000000000E+00  0.19656695123E+04  0.19656695123E+04  0.50400001928E-02 0.  1.
       -1   -1    0    0    0  501  0.00000000000E+00  0.00000000000E+00 -0.92595419787E+03  0.92595419788E+03  0.50400001928E-02 0. -1.
    10030    2    1    2    0    0  0.00000000000E+00  0.00000000000E+00  0.10397153145E+04  0.28916237102E+04  0.26982364141E+04 0.  0.
        3    1    3    3  502    0 -0.31718188836E+03  0.23426285912E+03  0.19025370276E+04  0.19429695286E+04  0.10100000352E+00 0.  1.
       -3    1    3    3    0  502  0.31718188836E+03 -0.23426285912E+03 -0.86282171313E+03  0.94865418163E+03  0.10100000352E+00 0. -1.
</event>
<event>
 5   0  0.1999104E-06  0.2696597E+04  0.7818609E-02  0.8336110E-01
        2   -1    0    0  501    0  0.00000000000E+00  0.00000000000E+00  0.14383101309E+04  0.14383101309E+04  0.25500000920E-02 0. -1.
       -2   -1    0    0    0  501  0.00000000000E+00  0.00000000000E+00 -0.12639199453E+04  0.12639199453E+04  0.25500000920E-02 0.  1.
    10030    2    1    2    0    0  0.00000000000E+00  0.00000000000E+00  0.17439018554E+03  0.27022300762E+04  0.26965970125E+04 0.  0.
        4    1    3    3  502    0 -0.67104152593E+02  0.65273898634E+03  0.12675078947E+04  0.14272872968E+04  0.12699999809E+01 0. -1.
       -4    1    3    3    0  502  0.67104152593E+02 -0.65273898634E+03 -0.10931177092E+04  0.12749427794E+04  0.12699999809E+01 0.  1.
</event>
<event>
 5   0  0.7436613E-07  0.2698334E+04  0.7818609E-02  0.8335546E-01
        1   -1    0    0  501    0  0.00000000000E+00  0.00000000000E+00  0.87225596438E+03  0.87225596439E+03  0.50400001928E-02 0.  1.
       -1   -1    0    0    0  501  0.00000000000E+00  0.00000000000E+00 -0.20868319959E+04  0.20868319959E+04  0.50400001928E-02 0. -1.
    10030    2    1    2    0    0  0.00000000000E+00  0.00000000000E+00 -0.12145760315E+04  0.29590879603E+04  0.26983340454E+04 0.  0.
        2    1    3    3  502    0 -0.26394403310E+03 -0.11677590921E+04 -0.12894302562E+04  0.17595334994E+04  0.25500000920E-02 0. -1.
       -2    1    3    3    0  502  0.26394403310E+03  0.11677590921E+04  0.74854224724E+02  0.11995544609E+04  0.25500000920E-02 0.  1.
</event>
<event>
 5   0  0.7335091E-07  0.2701873E+04  0.7818609E-02  0.8334398E-01
       -1   -1    0    0    0  501  0.00000000000E+00  0.00000000000E+00  0.11875493661E+04  0.11875493661E+04  0.50400001928E-02 0.  1.
        1   -1    0    0  501    0  0.00000000000E+00  0.00000000000E+00 -0.15368029104E+04  0.15368029104E+04  0.50400001928E-02 0. -1.
    10030    2    1    2    0    0  0.00000000000E+00  0.00000000000E+00 -0.34925354431E+03  0.27243522765E+04  0.27018729223E+04 0.  0.
        3    1    3    3  502    0  0.94373510958E+03 -0.17050913078E+03  0.78477253462E+03  0.12391841114E+04  0.10100000352E+00 0.  1.
       -3    1    3    3    0  502 -0.94373510958E+03  0.17050913078E+03 -0.11340260789E+04  0.14851681651E+04  0.10100000352E+00 0. -1.
</event>
<event>
 5   0  0.7566905E-07  0.2707136E+04  0.7818609E-02  0.8332693E-01
        1   -1    0    0  501    0  0.00000000000E+00  0.00000000000E+00  0.10113913772E+04  0.10113913772E+04  0.50400001928E-02 0.  1.
       -1   -1    0    0    0  501  0.00000000000E+00  0.00000000000E+00 -0.18115107745E+04  0.18115107745E+04  0.50400001928E-02 0. -1.
    10030    2    1    2    0    0  0.00000000000E+00  0.00000000000E+00 -0.80011939732E+03  0.28229021517E+04  0.27071360343E+04 0.  0.
        1    1    3    3  502    0 -0.64674562358E+03  0.70324897078E+03 -0.13998665620E+04  0.16948349205E+04  0.50400001928E-02 0. -1.
       -1    1    3    3    0  502  0.64674562358E+03 -0.70324897078E+03  0.59974716465E+03  0.11280672312E+04  0.50400001928E-02 0.  1.
</event>
<event>
 5   0  0.7335091E-07  0.2703788E+04  0.7818609E-02  0.8333777E-01
       -1   -1    0    0    0  501  0.00000000000E+00  0.00000000000E+00  0.10444184807E+04  0.10444184807E+04  0.50400001928E-02 0.  1.
        1   -1    0    0  501    0  0.00000000000E+00  0.00000000000E+00 -0.17498902505E+04  0.17498902505E+04  0.50400001928E-02 0. -1.
    10030    2    1    2    0    0  0.00000000000E+00  0.00000000000E+00 -0.70547176981E+03  0.27943087312E+04  0.27037882438E+04 0.  0.
        3    1    3    3  502    0 -0.10184319923E+04 -0.57117473622E+03  0.35137626590E+03  0.12193890244E+04  0.10100000352E+00 0.  1.
       -3    1    3    3    0  502  0.10184319923E+04  0.57117473622E+03 -0.10568480357E+04  0.15749197069E+04  0.10100000352E+00 0. -1.
</event>
<event>
 5   0  0.1999104E-06  0.2698993E+04  0.7818609E-02  0.8335332E-01
       -2   -1    0    0    0  501  0.00000000000E+00  0.00000000000E+00  0.10510532925E+04  0.10510532925E+04  0.25500000920E-02 0. -1.
        2   -1    0    0  501    0  0.00000000000E+00  0.00000000000E+00 -0.17326821832E+04  0.17326821832E+04  0.25500000920E-02 0.  1.
    10030    2    1    2    0    0  0.00000000000E+00  0.00000000000E+00 -0.68162889072E+03  0.27837354757E+04  0.26989933779E+04 0.  0.
        4    1    3    3  502    0 -0.23745795991E+03  0.27851098050E+03 -0.16805142824E+04  0.17199082869E+04  0.12699999809E+01 0.  1.
       -4    1    3    3    0  502  0.23745795991E+03 -0.27851098050E+03  0.99888539171E+03  0.10638271888E+04  0.12699999809E+01 0. -1.
</event>
<event>
 5   0  0.2030645E-06  0.2702229E+04  0.7818609E-02  0.8334282E-01
        2   -1    0    0  501    0  0.00000000000E+00  0.00000000000E+00  0.15377905270E+04  0.15377905270E+04  0.25500000920E-02 0. -1.
       -2   -1    0    0    0  501  0.00000000000E+00  0.00000000000E+00 -0.11870999109E+04  0.11870999109E+04  0.25500000920E-02 0.  1.
    10030    2    1    2    0    0  0.00000000000E+00  0.00000000000E+00  0.35069061610E+03  0.27248904379E+04  0.27022294482E+04 0.  0.
        1    1    3    3  502    0 -0.58923618751E+03 -0.79651245821E+03  0.11016781697E+04  0.14816633121E+04  0.50400001928E-02 0. -1.
       -1    1    3    3    0  502  0.58923618751E+03  0.79651245821E+03 -0.75098755361E+03  0.12432271259E+04  0.50400001928E-02 0.  1.
</event>
<event>
 5   0  0.7436613E-07  0.2701789E+04  0.7818609E-02  0.8334425E-01
       -1   -1    0    0    0  501  0.00000000000E+00  0.00000000000E+00  0.15688262719E+04  0.15688262719E+04  0.50400001928E-02 0.  1.
        1   -1    0    0  501    0  0.00000000000E+00  0.00000000000E+00 -0.11632361439E+04  0.11632361439E+04  0.50400001928E-02 0. -1.
    10030    2    1    2    0    0  0.00000000000E+00  0.00000000000E+00  0.40559012806E+03  0.27320624158E+04  0.27017886098E+04 0.  0.
        2    1    3    3  502    0  0.29332666829E+03  0.94731359111E+03  0.11303914461E+04  0.15037381407E+04  0.25500000920E-02 0.  1.
       -2    1    3    3    0  502 -0.29332666829E+03 -0.94731359111E+03 -0.72480131808E+03  0.12283242752E+04  0.25500000920E-02 0. -1.
</event>
<event>
 5   0  0.7436613E-07  0.2698899E+04  0.7818609E-02  0.8335362E-01
        1   -1    0    0  501    0  0.00000000000E+00  0.00000000000E+00  0.15821455714E+04  0.15821455714E+04  0.50400001928E-02 0. -1.
       -1   -1    0    0    0  501  0.00000000000E+00  0.00000000000E+00 -0.11509775200E+04  0.11509775200E+04  0.50400001928E-02 0.  1.
    10030    2    1    2    0    0  0.00000000000E+00  0.00000000000E+00  0.43116805142E+03  0.27331230914E+04  0.26988990244E+04 0.  0.
        2    1    3    3  502    0 -0.55328625903E+03 -0.10492256625E+04  0.86718236582E+03  0.14693554475E+04  0.25500000920E-02 0. -1.
       -2    1    3    3    0  502  0.55328625903E+03  0.10492256625E+04 -0.43601431440E+03  0.12637676439E+04  0.25500000920E-02 0.  1.
</event>
<event>
 5   0  0.6561875E-07  0.2701493E+04  0.7818609E-02  0.8334521E-01
        3   -1    0    0  501    0  0.00000000000E+00  0.00000000000E+00  0.12722711263E+04  0.12722711303E+04  0.10100000352E+00 0.  1.
       -3   -1    0    0    0  501  0.00000000000E+00  0.00000000000E+00 -0.14340621641E+04  0.14340621677E+04  0.10100000352E+00 0. -1.
    10030    2    1    2    0    0  0.00000000000E+00  0.00000000000E+00 -0.16179103784E+03  0.27063332980E+04  0.27014928429E+04 0.  0.
        4    1    3    3  502    0 -0.22307130407E+03 -0.12647267961E+04  0.33844691379E+03  0.13280973616E+04  0.12699999809E+01 0.  1.
       -4    1    3    3    0  502  0.22307130407E+03  0.12647267961E+04 -0.50023795164E+03  0.13782359365E+04  0.12699999809E+01 0. -1.
</event>
<event>
 5   0  0.1999104E-06  0.2697329E+04  0.7818609E-02  0.8335872E-01
        2   -1    0    0  501    0  0.00000000000E+00  0.00000000000E+00  0.23844496811E+04  0.23844496811E+04  0.25500000920E-02 0.  1.
       -2   -1    0    0    0  501  0.00000000000E+00  0.00000000000E+00 -0.76281562507E+03  0.76281562508E+03  0.25500000920E-02 0. -1.
    10030    2    1    2    0    0  0.00000000000E+00  0.00000000000E+00  0.16216340560E+04  0.31472653062E+04  0.26973286592E+04 0.  0.
        4    1    3    3  502    0  0.18529164662E+03  0.96698353525E+03 -0.26461292243E+03  0.10195154552E+04  0.12699999809E+01 0. -1.
       -4    1    3    3    0  502 -0.18529164662E+03 -0.96698353525E+03  0.18862469785E+04  0.21277498510E+04  0.12699999809E+01 0.  1.
</event>
<event>
 5   0  0.7335091E-07  0.2709301E+04  0.7818609E-02  0.8331993E-01
       -1   -1    0    0    0  501  0.00000000000E+00  0.00000000000E+00  0.10037985084E+04  0.10037985084E+04  0.50400001928E-02 0. -1.
        1   -1    0    0  501    0  0.00000000000E+00  0.00000000000E+00 -0.18281341564E+04  0.18281341564E+04  0.50400001928E-02 0.  1.
    10030    2    1    2    0    0  0.00000000000E+00  0.00000000000E+00 -0.82433564796E+03  0.28319326648E+04  0.27093012674E+04 0.  0.
        3    1    3    3  502    0 -0.25014613064E+03  0.91063111212E+03  0.60300611815E+03  0.11204635192E+04  0.10100000352E+00 0. -1.
       -3    1    3    3    0  502  0.25014613064E+03 -0.91063111212E+03 -0.14273417661E+04  0.17114691457E+04  0.10100000352E+00 0.  1.
</event>
<event>
 5   0  0.1999104E-06  0.2695545E+04  0.7818609E-02  0.8336452E-01
        2   -1    0    0  501    0  0.00000000000E+00  0.00000000000E+00  0.24719557618E+04  0.24719557618E+04  0.25500000920E-02 0.  1.
       -2   -1    0    0    0  501  0.00000000000E+00  0.00000000000E+00 -0.73483929951E+03  0.73483929951E+03  0.25500000920E-02 0. -1.
    10030    2    1    2    0    0  0.00000000000E+00  0.00000000000E+00  0.17371164623E+04  0.32067950613E+04  0.26955446503E+04 0.  0.
        4    1    3    3  502    0 -0.37770658297E+03 -0.95571573235E+03  0.19059800630E+04  0.21653675063E+04  0.12699999809E+01 0.  1.
       -4    1    3    3    0  502  0.37770658297E+03  0.95571573235E+03 -0.16886360068E+03  0.10414275550E+04  0.12699999809E+01 0. -1.
</event>
<event>
 5   0  0.7335091E-07  0.2702624E+04  0.7818609E-02  0.8334154E-01
       -1   -1    0    0    0  501  0.00000000000E+00  0.00000000000E+00  0.19794217471E+04  0.19794217471E+04  0.50400001928E-02 0.  1.
        1   -1    0    0  501    0  0.00000000000E+00  0.00000000000E+00 -0.92251416892E+03  0.92251416893E+03  0.50400001928E-02 0. -1.
    10030    2    1    2    0    0  0.00000000000E+00  0.00000000000E+00  0.10569075782E+04  0.29019359161E+04  0.27026243602E+04 0.  0.
        3    1    3    3  502    0 -0.21319231688E+02  0.97714636758E+03 -0.47351714340E+03  0.10860423696E+04  0.10100000352E+00 0. -1.
       -3    1    3    3    0  502  0.21319231688E+02 -0.97714636758E+03  0.15304247216E+04  0.18158935465E+04  0.10100000352E+00 0.  1.
</event>
<event>
 5   0  0.7335091E-07  0.2700442E+04  0.7818609E-02  0.8334862E-01
        1   -1    0    0  501    0  0.00000000000E+00  0.00000000000E+00  0.18429943599E+04  0.18429943599E+04  0.50400001928E-02 0.  1.
       -1   -1    0    0    0  501  0.00000000000E+00  0.00000000000E+00 -0.98920377724E+03  0.98920377725E+03  0.50400001928E-02 0. -1.
    10030    2    1    2    0    0  0.00000000000E+00  0.00000000000E+00  0.85379058266E+03  0.28321981372E+04  0.27004421729E+04 0.  0.
        3    1    3    3  502    0 -0.16360339821E+02  0.81344277795E+03  0.15570322395E+04  0.17567886096E+04  0.10100000352E+00 0.  1.
       -3    1    3    3    0  502  0.16360339821E+02 -0.81344277795E+03 -0.70324165689E+03  0.10754095275E+04  0.10100000352E+00 0. -1.
</event>
<event>
 5   0  0.1999104E-06  0.2771703E+04  0.7818609E-02  0.8312108E-01
        2   -1    0    0  501    0  0.00000000000E+00  0.00000000000E+00  0.96179614449E+03  0.96179614449E+03  0.25500000920E-02 0.  1.
       -2   -1    0    0    0  501  0.00000000000E+00  0.00000000000E+00 -0.19968732834E+04  0.19968732834E+04  0.25500000920E-02 0. -1.
    10030    2    1    2    0    0  0.00000000000E+00  0.00000000000E+00 -0.10350771389E+04  0.29586694279E+04  0.27717034654E+04 0.  0.
        4    1    3    3  502    0  0.13250561034E+04 -0.75300515635E+02 -0.94337103173E+03  0.16283102780E+04  0.12699999809E+01 0.  1.
       -4    1    3    3    0  502 -0.13250561034E+04  0.75300515635E+02 -0.91706107216E+02  0.13303591500E+04  0.12699999809E+01 0. -1.
</event>
<event>
 5   0  0.2030645E-06  0.2701407E+04  0.7818609E-02  0.8334549E-01
       -2   -1    0    0    0  501  0.00000000000E+00  0.00000000000E+00  0.17079687281E+04  0.17079687281E+04  0.25500000920E-02 0. -1.
        2   -1    0    0  501    0  0.00000000000E+00  0.00000000000E+00 -0.10681690187E+04  0.10681690187E+04  0.25500000920E-02 0.  1.
    10030    2    1    2    0    0  0.00000000000E+00  0.00000000000E+00  0.63979970941E+03  0.27761377469E+04  0.27014065080E+04 0.  0.
        1    1    3    3  502    0  0.72261267814E+03  0.11381773671E+04  0.23526577179E+03  0.13685637672E+04  0.50400001928E-02 0.  1.
       -1    1    3    3    0  502 -0.72261267814E+03 -0.11381773671E+04  0.40453393762E+03  0.14075739797E+04  0.50400001928E-02 0. -1.
</event>
<event>
 5   0  0.1932012E-06  0.2698243E+04  0.7818609E-02  0.8335575E-01
        2   -1    0    0  501    0  0.00000000000E+00  0.00000000000E+00  0.15026694634E+04  0.15026694634E+04  0.25500000920E-02 0.  1.
       -2   -1    0    0    0  501  0.00000000000E+00  0.00000000000E+00 -0.12112632262E+04  0.12112632262E+04  0.25500000920E-02 0. -1.
    10030    2    1    2    0    0  0.00000000000E+00  0.00000000000E+00  0.29140623720E+03  0.27139326895E+04  0.26982425851E+04 0.  0.
        2    1    3    3  502    0 -0.17527215332E+03 -0.13196564881E+04  0.36587021309E+03  0.13806066011E+04  0.25500000920E-02 0.  1.
       -2    1    3    3    0  502  0.17527215332E+03  0.13196564881E+04 -0.74463975881E+02  0.13333260884E+04  0.25500000920E-02 0. -1.
</event>
<event>
 5   0  0.1999104E-06  0.2704931E+04  0.7818609E-02  0.8333407E-01
        2   -1    0    0  501    0  0.00000000000E+00  0.00000000000E+00  0.13318874541E+04  0.13318874541E+04  0.25500000920E-02 0. -1.
       -2   -1    0    0    0  501  0.00000000000E+00  0.00000000000E+00 -0.13733613526E+04  0.13733613526E+04  0.25500000920E-02 0.  1.
    10030    2    1    2    0    0  0.00000000000E+00  0.00000000000E+00 -0.41473898451E+02  0.27052488067E+04  0.27049308720E+04 0.  0.
        4    1    3    3  502    0  0.10907187804E+04  0.79061869702E+03  0.99342814797E+02  0.13507834725E+04  0.12699999809E+01 0. -1.
       -4    1    3    3    0  502 -0.10907187804E+04 -0.79061869702E+03 -0.14081671325E+03  0.13544653342E+04  0.12699999809E+01 0.  1.
</event>
<event>
 5   0  0.7566905E-07  0.2700381E+04  0.7818609E-02  0.8334881E-01
        1   -1    0    0  501    0  0.00000000000E+00  0.00000000000E+00  0.12389559254E+04  0.12389559254E+04  0.50400001928E-02 0. -1.
       -1   -1    0    0    0  501  0.00000000000E+00  0.00000000000E+00 -0.14714122615E+04  0.14714122615E+04  0.50400001928E-02 0.  1.
    10030    2    1    2    0    0  0.00000000000E+00  0.00000000000E+00 -0.23245633608E+03  0.27103681869E+04  0.27003814102E+04 0.  0.
        1    1    3    3  502    0 -0.26845043881E+03  0.98141879550E+03  0.77461637064E+03  0.12787802829E+04  0.50400001928E-02 0. -1.
       -1    1    3    3    0  502  0.26845043881E+03 -0.98141879550E+03 -0.10070727067E+04  0.14315879040E+04  0.50400001928E-02 0.  1.
</event>
<event>
 5   0  0.7335091E-07  0.2706801E+04  0.7818609E-02  0.8332802E-01
        1   -1    0    0  501    0  0.00000000000E+00  0.00000000000E+00  0.15803781962E+04  0.15803781962E+04  0.50400001928E-02 0.  1.
       -1   -1    0    0    0  501  0.00000000000E+00  0.00000000000E+00 -0.11590215806E+04  0.11590215806E+04  0.50400001928E-02 0. -1.
    10030    2    1    2    0    0  0.00000000000E+00  0.00000000000E+00  0.42135661563E+03  0.27393997768E+04  0.27068006465E+04 0.  0.
        3    1    3    3  502    0 -0.11072372594E+04 -0.20863072544E+03 -0.54814594588E+03  0.12529824885E+04  0.10100000352E+00 0. -1.
       -3    1    3    3    0  502  0.11072372594E+04  0.20863072544E+03  0.96950256151E+03  0.14864172884E+04  0.10100000352E+00 0.  1.
</event>
<event>
 5   0  0.1932012E-06  0.2695220E+04  0.7818609E-02  0.8336558E-01
       -2   -1    0    0    0  501  0.00000000000E+00  0.00000000000E+00  0.12359083754E+04  0.12359083754E+04  0.25500000920E-02 0. -1.
        2   -1    0    0  501    0  0.00000000000E+00  0.00000000000E+00 -0.14694071010E+04  0.14694071010E+04  0.25500000920E-02 0.  1.
    10030    2    1    2    0    0  0.00000000000E+00  0.00000000000E+00 -0.23349872558E+03  0.27053154764E+04  0.26952198746E+04 0.  0.
        2    1    3    3  502    0  0.12147371287E+04  0.57544640604E+03 -0.21369106764E+03  0.13610248824E+04  0.25500000920E-02 0.  1.
       -2    1    3    3    0  502 -0.12147371287E+04 -0.57544640604E+03 -0.19807657944E+02  0.13442905941E+04  0.25500000920E-02 0. -1.
</event>
<event>
 5   0  0.7436613E-07  0.2698624E+04  0.7818609E-02  0.8335451E-01
        1   -1    0    0  501    0  0.00000000000E+00  0.00000000000E+00  0.22334621081E+04  0.22334621081E+04  0.50400001928E-02 0.  1.
       -1   -1    0    0    0  501  0.00000000000E+00  0.00000000000E+00 -0.81516637617E+03  0.81516637618E+03  0.50400001928E-02 0. -1.
    10030    2    1    2    0    0  0.00000000000E+00  0.00000000000E+00  0.14182957320E+04  0.30486284843E+04  0.26986242517E+04 0.  0.
        2    1    3    3  502    0 -0.99809959418E+03 -0.74451177246E+03  0.12963108231E+04  0.17974766561E+04  0.25500000920E-02 0.  1.
       -2    1    3    3    0  502  0.99809959418E+03  0.74451177246E+03  0.12198490889E+03  0.12511518282E+04  0.25500000920E-02 0. -1.
</event>
<event>
 5   0  0.7768032E-07  0.2710571E+04  0.7818609E-02  0.8331583E-01
       -1   -1    0    0    0  501  0.00000000000E+00  0.00000000000E+00  0.95966699302E+03  0.95966699304E+03  0.50400001928E-02 0. -1.
        1   -1    0    0  501    0  0.00000000000E+00  0.00000000000E+00 -0.19139958424E+04  0.19139958424E+04  0.50400001928E-02 0.  1.
    10030    2    1    2    0    0  0.00000000000E+00  0.00000000000E+00 -0.95432884935E+03  0.28736628354E+04  0.27105708880E+04 0.  0.
        4    1    3    3  502    0  0.16474930380E+03 -0.12920015741E+04 -0.87439064007E+03  0.15687482287E+04  0.12699999809E+01 0.  1.
       -4    1    3    3    0  502 -0.16474930380E+03  0.12920015741E+04 -0.79938209281E+02  0.13049146067E+04  0.12699999809E+01 0. -1.
</event>
<event>
 5   0  0.7768032E-07  0.2702341E+04  0.7818609E-02  0.8334246E-01
       -1   -1    0    0    0  501  0.00000000000E+00  0.00000000000E+00  0.17272864738E+04  0.17272864738E+04  0.50400001928E-02 0. -1.
        1   -1    0    0  501    0  0.00000000000E+00  0.00000000000E+00 -0.10569533611E+04  0.10569533611E+04  0.50400001928E-02 0.  1.
    10030    2    1    2    0    0  0.00000000000E+00  0.00000000000E+00  0.67033311270E+03  0.27842398350E+04  0.27023406478E+04 0.  0.
        4    1    3    3  502    0  0.81924319540E+03  0.51124326339E+03 -0.63853086501E+03  0.11576926907E+04  0.12699999809E+01 0.  1.
       -4    1    3    3    0  502 -0.81924319540E+03 -0.51124326339E+03  0.13088639777E+04  0.16265471443E+04  0.12699999809E+01 0. -1.
</event>
<event>
 5   0  0.1932012E-06  0.2700002E+04  0.7818609E-02  0.8335004E-01
       -2   -1    0    0    0  501  0.00000000000E+00  0.00000000000E+00  0.12589478355E+04  0.12589478355E+04  0.25500000920E-02 0. -1.
        2   -1    0    0  501    0  0.00000000000E+00  0.00000000000E+00 -0.14476394617E+04  0.14476394617E+04  0.25500000920E-02 0.  1.
    10030    2    1    2    0    0  0.00000000000E+00  0.00000000000E+00 -0.18869162625E+03  0.27065872972E+04  0.27000019014E+04 0.  0.
        2    1    3    3  502    0 -0.26074224858E+03  0.10327955667E+04 -0.92573551210E+03  0.14112545629E+04  0.25500000920E-02 0.  1.
       -2    1    3    3    0  502  0.26074224858E+03 -0.10327955667E+04  0.73704388585E+03  0.12953327343E+04  0.25500000920E-02 0. -1.
</event>
<event>
 5   0  0.7566905E-07  0.2704240E+04  0.7818609E-02  0.8333631E-01
        1   -1    0    0  501    0  0.00000000000E+00  0.00000000000E+00  0.18711807831E+04  0.18711807831E+04  0.50400001928E-02 0. -1.
       -1   -1    0    0    0  501  0.00000000000E+00  0.00000000000E+00 -0.97704528146E+03  0.97704528147E+03  0.50400001928E-02 0.  1.
    10030    2    1    2    0    0  0.00000000000E+00  0.00000000000E+00  0.89413550166E+03  0.28482260646E+04  0.27042398968E+04 0.  0.
        1    1    3    3  502    0  0.33966242180E+03  0.13027438011E+04  0.31502774343E+03  0.13826620886E+04  0.50400001928E-02 0. -1.
       -1    1    3    3    0  502 -0.33966242180E+03 -0.13027438011E+04  0.57910775823E+03  0.14655639760E+04  0.50400001928E-02 0.  1.
</event>
<event>
 5   0  0.1932012E-06  0.2661254E+04  0.7818609E-02  0.8347687E-01
       -2   -1    0    0    0  501  0.00000000000E+00  0.00000000000E+00  0.12731336360E+04  0.12731336360E+04  0.25500000920E-02 0.  1.
        2   -1    0    0  501    0  0.00000000000E+00  0.00000000000E+00 -0.13907170717E+04  0.13907170717E+04  0.25500000920E-02 0. -1.
    10030    2    1    2    0    0  0.00000000000E+00  0.00000000000E+00 -0.11758343571E+03  0.26638507078E+04  0.26612543525E+04 0.  0.
        2    1    3    3  502    0 -0.82577269997E+03 -0.88172011220E+03 -0.61722288249E+03  0.13565747288E+04  0.25500000920E-02 0. -1.
       -2    1    3    3    0  502  0.82577269997E+03  0.88172011220E+03  0.49963944679E+03  0.13072759789E+04  0.25500000920E-02 0.  1.
</event>
<event>
 5   0  0.1932012E-06  0.2700713E+04  0.7818609E-02  0.8334774E-01
       -2   -1    0    0    0  501  0.00000000000E+00  0.00000000000E+00  0.12378843398E+04  0.12378843398E+04  0.25500000920E-02 0. -1.
        2   -1    0    0  501    0  0.00000000000E+00  0.00000000000E+00 -0.14730482094E+04  0.14730482094E+04  0.25500000920E-02 0.  1.
    10030    2    1    2    0    0  0.00000000000E+00  0.00000000000E+00 -0.23516386959E+03  0.27109325491E+04  0.27007134687E+04 0.  0.
        2    1    3    3  502    0  0.39770538941E+03  0.40271326706E+03  0.11130733345E+04  0.12487112557E+04  0.25500000920E-02 0. -1.
       -2    1    3    3    0  502 -0.39770538941E+03 -0.40271326706E+03 -0.13482372041E+04  0.14622212934E+04  0.25500000920E-02 0.  1.
</event>
<event>
 5   0  0.1932012E-06  0.2700781E+04  0.7818609E-02  0.8334752E-01
        2   -1    0    0  501    0  0.00000000000E+00  0.00000000000E+00  0.13215532970E+04  0.13215532970E+04  0.25500000920E-02 0. -1.
       -2   -1    0    0    0  501  0.00000000000E+00  0.00000000000E+00 -0.13798564742E+04  0.13798564742E+04  0.25500000920E-02 0.  1.
    10030    2    1    2    0    0  0.00000000000E+00  0.00000000000E+00 -0.58303177194E+02  0.27014097713E+04  0.27007805338E+04 0.  0.
        2    1    3    3  502    0 -0.98745885008E+03 -0.29311038746E+03  0.84430165275E+03  0.13318535808E+04  0.25500000920E-02 0. -1.
       -2    1    3    3    0  502  0.98745885008E+03  0.29311038746E+03 -0.90260482994E+03  0.13695561905E+04  0.25500000920E-02 0.  1.
</event>
<event>
 5   0  0.2030645E-06  0.2698820E+04  0.7818609E-02  0.8335388E-01
       -2   -1    0    0    0  501  0.00000000000E+00  0.00000000000E+00  0.81734810360E+03  0.81734810360E+03  0.25500000920E-02 0.  1.
        2   -1    0    0  501    0  0.00000000000E+00  0.00000000000E+00 -0.22278241682E+04  0.22278241682E+04  0.25500000920E-02 0. -1.
    10030    2    1    2    0    0  0.00000000000E+00  0.00000000000E+00 -0.14104760646E+04  0.30451722718E+04  0.26988203786E+04 0.  0.
        1    1    3    3  502    0 -0.36739454700E+03  0.12984204406E+04 -0.69871070490E+03  0.15195627801E+04  0.50400001928E-02 0. -1.
       -1    1    3    3    0  502  0.36739454700E+03 -0.12984204406E+04 -0.71176535965E+03  0.15256094916E+04  0.50400001928E-02 0.  1.
</event>
<event>
 5   0  0.7436613E-07  0.2707124E+04  0.7818609E-02  0.8332697E-01
        1   -1    0    0  501    0  0.00000000000E+00  0.00000000000E+00  0.12980128003E+04  0.12980128003E+04  0.50400001928E-02 0.  1.
       -1   -1    0    0    0  501  0.00000000000E+00  0.00000000000E+00 -0.14114881038E+04  0.14114881038E+04  0.50400001928E-02 0. -1.
    10030    2    1    2    0    0  0.00000000000E+00  0.00000000000E+00 -0.11347530357E+03  0.27095009041E+04  0.27071236590E+04 0.  0.
        2    1    3    3  502    0  0.90703403132E+03 -0.81912412093E+03  0.52554170698E+03  0.13303642904E+04  0.25500000920E-02 0.  1.
       -2    1    3    3    0  502 -0.90703403132E+03  0.81912412093E+03 -0.63901701055E+03  0.13791366137E+04  0.25500000920E-02 0. -1.
</event>
<event>
 5   0  0.1999104E-06  0.2704338E+04  0.7818609E-02  0.8333599E-01
       -2   -1    0    0    0  501  0.00000000000E+00  0.00000000000E+00  0.15449366852E+04  0.15449366852E+04  0.25500000920E-02 0. -1.
        2   -1    0    0  501    0  0.00000000000E+00  0.00000000000E+00 -0.11834535340E+04  0.11834535340E+04  0.25500000920E-02 0.  1.
    10030    2    1    2    0    0  0.00000000000E+00  0.00000000000E+00  0.36148315123E+03  0.27283902192E+04  0.27043378338E+04 0.  0.
        4    1    3    3  502    0 -0.52550884766E+03  0.96589932969E+03  0.97465724881E+03  0.14693806279E+04  0.12699999809E+01 0. -1.
       -4    1    3    3    0  502  0.52550884766E+03 -0.96589932969E+03 -0.61317409758E+03  0.12590095913E+04  0.12699999809E+01 0.  1.
</event>
<event>
 5   0  0.1991277E-06  0.2701195E+04  0.7818609E-02  0.8334617E-01
        2   -1    0    0  501    0  0.00000000000E+00  0.00000000000E+00  0.32155598565E+04  0.32155598565E+04  0.25500000920E-02 0. -1.
       -2   -1    0    0    0  501  0.00000000000E+00  0.00000000000E+00 -0.56727699861E+03  0.56727699862E+03  0.25500000920E-02 0.  1.
    10030    2    1    2    0    0  0.00000000000E+00  0.00000000000E+00  0.26482828578E+04  0.37828368551E+04  0.27011946574E+04 0.  0.
        5    1    3    3  502    0  0.13660553349E+03 -0.87371326361E+03  0.27537168559E+04  0.28922334884E+04  0.46999998093E+01 0. -1.
       -5    1    3    3    0  502 -0.13660553349E+03  0.87371326361E+03 -0.10543399808E+03  0.89060336668E+03  0.46999998093E+01 0.  1.
</event>
<event>
 5   0  0.7335091E-07  0.2701182E+04  0.7818609E-02  0.8334622E-01
        1   -1    0    0  501    0  0.00000000000E+00  0.00000000000E+00  0.14047539481E+04  0.14047539481E+04  0.50400001928E-02 0.  1.
       -1   -1    0    0    0  501  0.00000000000E+00  0.00000000000E+00 -0.12985162499E+04  0.12985162499E+04  0.50400001928E-02 0. -1.
    10030    2    1    2    0    0  0.00000000000E+00  0.00000000000E+00  0.10623769817E+03  0.27032701980E+04  0.27011818367E+04 0.  0.
        3    1    3    3  502    0 -0.66025551653E+03 -0.10851619824E+04  0.51236571433E+03  0.13696833614E+04  0.10100000352E+00 0.  1.
       -3    1    3    3    0  502  0.66025551653E+03  0.10851619824E+04 -0.40612801616E+03  0.13335868366E+04  0.10100000352E+00 0. -1.
</event>
<event>
 5   0  0.1991277E-06  0.2698777E+04  0.7818609E-02  0.8335402E-01
       -2   -1    0    0    0  501  0.00000000000E+00  0.00000000000E+00  0.12572996527E+04  0.12572996527E+04  0.25500000920E-02 0. -1.
        2   -1    0    0  501    0  0.00000000000E+00  0.00000000000E+00 -0.14482219260E+04  0.14482219260E+04  0.25500000920E-02 0.  1.
    10030    2    1    2    0    0  0.00000000000E+00  0.00000000000E+00 -0.19092227332E+03  0.27055215787E+04  0.26987767040E+04 0.  0.
        5    1    3    3  502    0  0.71780208284E+03  0.65319809570E+03  0.84438884707E+03  0.12864377938E+04  0.46999998093E+01 0. -1.
       -5    1    3    3    0  502 -0.71780208284E+03 -0.65319809570E+03 -0.10353111204E+04  0.14190837848E+04  0.46999998093E+01 0.  1.
</event>
<event>
 5   0  0.7806808E-07  0.2701535E+04  0.7818609E-02  0.8334507E-01
       -1   -1    0    0    0  501  0.00000000000E+00  0.00000000000E+00  0.11921068709E+04  0.11921068709E+04  0.50400001928E-02 0.  1.
        1   -1    0    0  501    0  0.00000000000E+00  0.00000000000E+00 -0.15305443681E+04  0.15305443681E+04  0.50400001928E-02 0. -1.
    10030    2    1    2    0    0  0.00000000000E+00  0.00000000000E+00 -0.33843749725E+03  0.27226512390E+04  0.27015347175E+04 0.  0.
        5    1    3    3  502    0  0.93953444763E+03 -0.52085576288E+03  0.65604368699E+03  0.12587418771E+04  0.46999998093E+01 0.  1.
       -5    1    3    3    0  502 -0.93953444763E+03  0.52085576288E+03 -0.99448118424E+03  0.14639093619E+04  0.46999998093E+01 0. -1.
</event>
<event>
 5   0  0.1991277E-06  0.2697701E+04  0.7818609E-02  0.8335751E-01
        2   -1    0    0  501    0  0.00000000000E+00  0.00000000000E+00  0.17549720189E+04  0.17549720189E+04  0.25500000920E-02 0. -1.
       -2   -1    0    0    0  501  0.00000000000E+00  0.00000000000E+00 -0.10367104956E+04  0.10367104956E+04  0.25500000920E-02 0.  1.
    10030    2    1    2    0    0  0.00000000000E+00  0.00000000000E+00  0.71826152322E+03  0.27916825145E+04  0.26977011781E+04 0.  0.
        5    1    3    3  502    0 -0.48109039044E+02  0.13226616707E+04  0.62824314337E+03  0.14650801726E+04  0.46999998093E+01 0. -1.
       -5    1    3    3    0  502  0.48109039044E+02 -0.13226616707E+04  0.90018379857E+02  0.13266023419E+04  0.46999998093E+01 0.  1.
</event>
<event>
 5   0  0.1932012E-06  0.2714727E+04  0.7818609E-02  0.8330243E-01
       -2   -1    0    0    0  501  0.00000000000E+00  0.00000000000E+00  0.94023551815E+03  0.94023551815E+03  0.25500000920E-02 0. -1.
        2   -1    0    0  501    0  0.00000000000E+00  0.00000000000E+00 -0.19595462911E+04  0.19595462911E+04  0.25500000920E-02 0.  1.
    10030    2    1    2    0    0  0.00000000000E+00  0.00000000000E+00 -0.10193107730E+04  0.28997818093E+04  0.27147265220E+04 0.  0.
        2    1    3    3  502    0 -0.10764457932E+04  0.14830237536E+03 -0.13785592592E+04  0.17553218427E+04  0.25500000920E-02 0.  1.
       -2    1    3    3    0  502  0.10764457932E+04 -0.14830237536E+03  0.35924848621E+03  0.11444599666E+04  0.25500000920E-02 0. -1.
</event>
<event>
 5   0  0.7566905E-07  0.2698236E+04  0.7818609E-02  0.8335578E-01
       -1   -1    0    0    0  501  0.00000000000E+00  0.00000000000E+00  0.58624012629E+03  0.58624012631E+03  0.50400001928E-02 0.  1.
        1   -1    0    0  501    0  0.00000000000E+00  0.00000000000E+00 -0.31047331226E+04  0.31047331226E+04  0.50400001928E-02 0. -1.
    10030    2    1    2    0    0  0.00000000000E+00  0.00000000000E+00 -0.25184929963E+04  0.36909732489E+04  0.26982358221E+04 0.  0.
        1    1    3    3  502    0  0.34319942069E+03  0.10200256914E+04 -0.23721330978E+04  0.26048519512E+04  0.50400001928E-02 0. -1.
       -1    1    3    3    0  502 -0.34319942069E+03 -0.10200256914E+04 -0.14635989849E+03  0.10861212978E+04  0.50400001928E-02 0.  1.
</event>
<event>
 5   0  0.7335091E-07  0.2701394E+04  0.7818609E-02  0.8334553E-01
       -1   -1    0    0    0  501  0.00000000000E+00  0.00000000000E+00  0.34296353207E+04  0.34296353207E+04  0.50400001928E-02 0.  1.
        1   -1    0    0  501    0  0.00000000000E+00  0.00000000000E+00 -0.53194627212E+03  0.53194627214E+03  0.50400001928E-02 0. -1.
    10030    2    1    2    0    0  0.00000000000E+00  0.00000000000E+00  0.28976890486E+04  0.39615815928E+04  0.27013935097E+04 0.  0.
        3    1    3    3  502    0 -0.40789775975E+03  0.77987629837E+03  0.29514079549E+04  0.30798370979E+04  0.10100000352E+00 0.  1.
       -3    1    3    3    0  502  0.40789775975E+03 -0.77987629837E+03 -0.53718906367E+02  0.88174449489E+03  0.10100000352E+00 0. -1.
</event>
<event>
 5   0  0.1999104E-06  0.2698589E+04  0.7818609E-02  0.8335463E-01
       -2   -1    0    0    0  501  0.00000000000E+00  0.00000000000E+00  0.84893165556E+03  0.84893165556E+03  0.25500000920E-02 0. -1.
        2   -1    0    0  501    0  0.00000000000E+00  0.00000000000E+00 -0.21445720452E+04  0.21445720452E+04  0.25500000920E-02 0.  1.
    10030    2    1    2    0    0  0.00000000000E+00  0.00000000000E+00 -0.12956403896E+04  0.29935037008E+04  0.26985885917E+04 0.  0.
        4    1    3    3  502    0  0.70557511480E+03  0.81503614779E+03  0.25232426012E+03  0.11071536975E+04  0.12699999809E+01 0. -1.
       -4    1    3    3    0  502 -0.70557511480E+03 -0.81503614779E+03 -0.15479646498E+04  0.18863500032E+04  0.12699999809E+01 0.  1.
</event>
<event>
 5   0  0.1999104E-06  0.2697742E+04  0.7818609E-02  0.8335738E-01
       -2   -1    0    0    0  501  0.00000000000E+00  0.00000000000E+00  0.17473669696E+04  0.17473669696E+04  0.25500000920E-02 0.  1.
        2   -1    0    0  501    0  0.00000000000E+00  0.00000000000E+00 -0.10412542739E+04  0.10412542739E+04  0.25500000920E-02 0. -1.
    10030    2    1    2    0    0  0.00000000000E+00  0.00000000000E+00  0.70611269578E+03  0.27886212435E+04  0.26977422599E+04 0.  0.
        4    1    3    3  502    0  0.88274394027E+03 -0.68692584889E+03 -0.42622833436E+03  0.11969862956E+04  0.12699999809E+01 0. -1.
       -4    1    3    3    0  502 -0.88274394027E+03  0.68692584889E+03  0.11323410301E+04  0.15916349479E+04  0.12699999809E+01 0.  1.
</event>
<event>
 5   0  0.2030645E-06  0.2698207E+04  0.7818609E-02  0.8335587E-01
        2   -1    0    0  501    0  0.00000000000E+00  0.00000000000E+00  0.11434793613E+04  0.11434793613E+04  0.25500000920E-02 0. -1.
       -2   -1    0    0    0  501  0.00000000000E+00  0.00000000000E+00 -0.15917036938E+04  0.15917036938E+04  0.25500000920E-02 0.  1.
    10030    2    1    2    0    0  0.00000000000E+00  0.00000000000E+00 -0.44822433246E+03  0.27351830551E+04  0.26982070515E+04 0.  0.
        1    1    3    3  502    0  0.59128653007E+02  0.40555330733E+03 -0.15270709815E+04  0.15811120976E+04  0.50400001928E-02 0.  1.
       -1    1    3    3    0  502 -0.59128653007E+02 -0.40555330733E+03  0.10788466490E+04  0.11540709575E+04  0.50400001928E-02 0. -1.
</event>
<event>
 5   0  0.7436613E-07  0.2698698E+04  0.7818609E-02  0.8335427E-01
       -1   -1    0    0    0  501  0.00000000000E+00  0.00000000000E+00  0.11283670122E+04  0.11283670122E+04  0.50400001928E-02 0.  1.
        1   -1    0    0  501    0  0.00000000000E+00  0.00000000000E+00 -0.16136087760E+04  0.16136087760E+04  0.50400001928E-02 0. -1.
    10030    2    1    2    0    0  0.00000000000E+00  0.00000000000E+00 -0.48524176386E+03  0.27419757882E+04  0.26986981406E+04 0.  0.
        2    1    3    3  502    0  0.12004349118E+04  0.57370040125E+03 -0.14144149168E+02  0.13305548410E+04  0.25500000920E-02 0. -1.
       -2    1    3    3    0  502 -0.12004349118E+04 -0.57370040125E+03 -0.47109761470E+03  0.14114209473E+04  0.25500000920E-02 0.  1.
</event>
<event>
 5   0  0.7335091E-07  0.2658608E+04  0.7818609E-02  0.8348561E-01
        1   -1    0    0  501    0  0.00000000000E+00  0.00000000000E+00  0.13365485086E+04  0.13365485086E+04  0.50400001928E-02 0. -1.
       -1   -1    0    0    0  501  0.00000000000E+00  0.00000000000E+00 -0.13220990705E+04  0.13220990705E+04  0.50400001928E-02 0.  1.
    10030    2    1    2    0    0  0.00000000000E+00  0.00000000000E+00  0.14449438072E+02  0.26586475791E+04  0.26586083133E+04 0.  0.
        3    1    3    3  502    0 -0.10486622174E+04 -0.63387645261E+03 -0.50810582691E+03  0.13265230284E+04  0.10100000352E+00 0.  1.
       -3    1    3    3    0  502  0.10486622174E+04  0.63387645261E+03  0.52255526498E+03  0.13321245507E+04  0.10100000352E+00 0. -1.
</event>
<event>
 5   0  0.7566905E-07  0.2696294E+04  0.7818609E-02  0.8336209E-01
        1   -1    0    0  501    0  0.00000000000E+00  0.00000000000E+00  0.22511318265E+04  0.22511318265E+04  0.50400001928E-02 0. -1.
       -1   -1    0    0    0  501  0.00000000000E+00  0.00000000000E+00 -0.80737161251E+03  0.80737161253E+03  0.50400001928E-02 0.  1.
    10030    2    1    2    0    0  0.00000000000E+00  0.00000000000E+00  0.14437602140E+04  0.30585034390E+04  0.26962937026E+04 0.  0.
        1    1    3    3  502    0 -0.11528945728E+03  0.11896647025E+04  0.14481513375E+02  0.11953256785E+04  0.50400001928E-02 0.  1.
       -1    1    3    3    0  502  0.11528945728E+03 -0.11896647025E+04  0.14292787006E+04  0.18631777605E+04  0.50400001928E-02 0. -1.
</event>
<event>
 5   0  0.1932012E-06  0.2703085E+04  0.7818609E-02  0.8334005E-01
       -2   -1    0    0    0  501  0.00000000000E+00  0.00000000000E+00  0.10474189726E+04  0.10474189726E+04  0.25500000920E-02 0. -1.
        2   -1    0    0  501    0  0.00000000000E+00  0.00000000000E+00 -0.17439692673E+04  0.17439692673E+04  0.25500000920E-02 0.  1.
    10030    2    1    2    0    0  0.00000000000E+00  0.00000000000E+00 -0.69655029475E+03  0.27913882399E+04  0.27030845330E+04 0.  0.
        2    1    3    3  502    0 -0.11546843931E+03  0.13791141714E+03  0.10350040228E+04  0.10505169425E+04  0.25500000920E-02 0. -1.
       -2    1    3    3    0  502  0.11546843931E+03 -0.13791141714E+03 -0.17315543175E+04  0.17408712973E+04  0.25500000920E-02 0.  1.
</event>
<event>
 5   0  0.7806808E-07  0.2699232E+04  0.7818609E-02  0.8335254E-01
        1   -1    0    0  501    0  0.00000000000E+00  0.00000000000E+00  0.14620843510E+04  0.14620843510E+04  0.50400001928E-02 0.  1.
       -1   -1    0    0    0  501  0.00000000000E+00  0.00000000000E+00 -0.12457988607E+04  0.12457988607E+04  0.50400001928E-02 0. -1.
    10030    2    1    2    0    0  0.00000000000E+00  0.00000000000E+00  0.21628549030E+03  0.27078832118E+04  0.26992317565E+04 0.  0.
        5    1    3    3  502    0 -0.12487764612E+04 -0.18628541700E+03  0.58642654681E+03  0.13921433445E+04  0.46999998093E+01 0.  1.
       -5    1    3    3    0  502  0.12487764612E+04  0.18628541700E+03 -0.37014105651E+03  0.13157398673E+04  0.46999998093E+01 0. -1.
</event>
<event>
 5   0  0.7335091E-07  0.2691298E+04  0.7818609E-02  0.8337834E-01
        1   -1    0    0  501    0  0.00000000000E+00  0.00000000000E+00  0.25796028914E+04  0.25796028914E+04  0.50400001928E-02 0.  1.
       -1   -1    0    0    0  501  0.00000000000E+00  0.00000000000E+00 -0.70195739009E+03  0.70195739010E+03  0.50400001928E-02 0. -1.
    10030    2    1    2    0    0  0.00000000000E+00  0.00000000000E+00  0.18776455013E+04  0.32815602815E+04  0.26912980609E+04 0.  0.
        3    1    3    3  502    0 -0.83614173092E+03 -0.10363200763E+04  0.70213906753E+03  0.15053543022E+04  0.10100000352E+00 0. -1.
       -3    1    3    3    0  502  0.83614173092E+03  0.10363200763E+04  0.11755064338E+04  0.17762059793E+04  0.10100000352E+00 0.  1.
</event>
<event>
 5   0  0.7436613E-07  0.2702128E+04  0.7818609E-02  0.8334315E-01
        1   -1    0    0  501    0  0.00000000000E+00  0.00000000000E+00  0.69759164451E+03  0.69759164452E+03  0.50400001928E-02 0.  1.
       -1   -1    0    0    0  501  0.00000000000E+00  0.00000000000E+00 -0.26166793744E+04  0.26166793745E+04  0.50400001928E-02 0. -1.
    10030    2    1    2    0    0  0.00000000000E+00  0.00000000000E+00 -0.19190877299E+04  0.33142710190E+04  0.27021278045E+04 0.  0.
        2    1    3    3  502    0  0.18312326502E+03 -0.78789664844E+02  0.67945283743E+03  0.70809469690E+03  0.25500000920E-02 0.  1.
       -2    1    3    3    0  502 -0.18312326502E+03  0.78789664844E+02 -0.25985405674E+04  0.26061763221E+04  0.25500000920E-02 0. -1.
</event>
<event>
 5   0  0.1932012E-06  0.2697061E+04  0.7818609E-02  0.8335959E-01
       -2   -1    0    0    0  501  0.00000000000E+00  0.00000000000E+00  0.14084608799E+04  0.14084608799E+04  0.25500000920E-02 0. -1.
        2   -1    0    0  501    0  0.00000000000E+00  0.00000000000E+00 -0.12911506500E+04  0.12911506500E+04  0.25500000920E-02 0.  1.
    10030    2    1    2    0    0  0.00000000000E+00  0.00000000000E+00  0.11731022993E+03  0.26996115299E+04  0.26970614977E+04 0.  0.
        2    1    3    3  502    0 -0.12850815001E+03  0.24202257429E+03 -0.12629894187E+04  0.12923743818E+04  0.25500000920E-02 0.  1.
       -2    1    3    3    0  502  0.12850815001E+03 -0.24202257429E+03  0.13802996486E+04  0.14072371481E+04  0.25500000920E-02 0. -1.
</event>
<event>
 5   0  0.1991277E-06  0.2710038E+04  0.7818609E-02  0.8331755E-01
       -2   -1    0    0    0  501  0.00000000000E+00  0.00000000000E+00  0.89773025856E+03  0.89773025856E+03  0.25500000920E-02 0.  1.
        2   -1    0    0  501    0  0.00000000000E+00  0.00000000000E+00 -0.20452425448E+04  0.20452425448E+04  0.25500000920E-02 0. -1.
    10030    2    1    2    0    0  0.00000000000E+00  0.00000000000E+00 -0.11475122862E+04  0.29429728033E+04  0.27100377256E+04 0.  0.
        5    1    3    3  502    0 -0.66332183526E+03  0.62979809246E+03  0.51187753665E+03  0.10481804219E+04  0.46999998093E+01 0.  1.
       -5    1    3    3    0  502  0.66332183526E+03 -0.62979809246E+03 -0.16593898228E+04  0.18947923814E+04  0.46999998093E+01 0. -1.
</event>
<event>
 5   0  0.7806808E-07  0.2693678E+04  0.7818609E-02  0.8337059E-01
       -1   -1    0    0    0  501  0.00000000000E+00  0.00000000000E+00  0.10745899403E+04  0.10745899403E+04  0.50400001928E-02 0.  1.
        1   -1    0    0  501    0  0.00000000000E+00  0.00000000000E+00 -0.16880622029E+04  0.16880622029E+04  0.50400001928E-02 0. -1.
    10030    2    1    2    0    0  0.00000000000E+00  0.00000000000E+00 -0.61347226262E+03  0.27626521432E+04  0.26936775322E+04 0.  0.
        5    1    3    3  502    0 -0.10890938786E+04  0.46291388335E+03  0.35279944061E+03  0.12348701450E+04  0.46999998093E+01 0.  1.
       -5    1    3    3    0  502  0.10890938786E+04 -0.46291388335E+03 -0.96627170323E+03  0.15277819982E+04  0.46999998093E+01 0. -1.
</event>
<event>
 5   0  0.7566905E-07  0.2690837E+04  0.7818609E-02  0.8337984E-01
       -1   -1    0    0    0  501  0.00000000000E+00  0.00000000000E+00  0.62764081694E+03  0.62764081696E+03  0.50400001928E-02 0.  1.
        1   -1    0    0  501    0  0.00000000000E+00  0.00000000000E+00 -0.28840555866E+04  0.28840555866E+04  0.50400001928E-02 0. -1.
    10030    2    1    2    0    0  0.00000000000E+00  0.00000000000E+00 -0.22564147696E+04  0.35116964035E+04  0.26908370478E+04 0.  0.
        1    1    3    3  502    0  0.54418294309E+03 -0.15580645812E+03 -0.27210939308E+04  0.27793457698E+04  0.50400001928E-02 0. -1.
       -1    1    3    3    0  502 -0.54418294309E+03  0.15580645812E+03  0.46467916113E+03  0.73235063375E+03  0.50400001928E-02 0.  1.
</event>
<event>
 5   0  0.7806808E-07  0.2707650E+04  0.7818609E-02  0.8332527E-01
        1   -1    0    0  501    0  0.00000000000E+00  0.00000000000E+00  0.14928127642E+04  0.14928127642E+04  0.50400001928E-02 0.  1.
       -1   -1    0    0    0  501  0.00000000000E+00  0.00000000000E+00 -0.12277779197E+04  0.12277779197E+04  0.50400001928E-02 0. -1.
    10030    2    1    2    0    0  0.00000000000E+00  0.00000000000E+00  0.26503484449E+03  0.27205906839E+04  0.27076503098E+04 0.  0.
        5    1    3    3  502    0  0.25519506050E+03 -0.13153126284E+04 -0.62442446614E+02  0.13413027170E+04  0.46999998093E+01 0.  1.
       -5    1    3    3    0  502 -0.25519506050E+03  0.13153126284E+04  0.32747729111E+03  0.13792879669E+04  0.46999998093E+01 0. -1.
</event>
<event>
 5   0  0.1991277E-06  0.2692874E+04  0.7818609E-02  0.8337321E-01
       -2   -1    0    0    0  501  0.00000000000E+00  0.00000000000E+00  0.18198056377E+04  0.18198056377E+04  0.25500000920E-02 0. -1.
        2   -1    0    0  501    0  0.00000000000E+00  0.00000000000E+00 -0.99620127355E+03  0.99620127355E+03  0.25500000920E-02 0.  1.
    10030    2    1    2    0    0  0.00000000000E+00  0.00000000000E+00  0.82360436417E+03  0.28160069113E+04  0.26928740735E+04 0.  0.
        5    1    3    3  502    0  0.71893752092E+03  0.45966414230E+03  0.15009182297E+04  0.17265398649E+04  0.46999998093E+01 0. -1.
       -5    1    3    3    0  502 -0.71893752092E+03 -0.45966414230E+03 -0.67731386555E+03  0.10894670464E+04  0.46999998093E+01 0.  1.
</event>
<event>
 5   0  0.1932012E-06  0.2700250E+04  0.7818609E-02  0.8334924E-01
       -2   -1    0    0    0  501  0.00000000000E+00  0.00000000000E+00  0.12627323341E+04  0.12627323342E+04  0.25500000920E-02 0. -1.
        2   -1    0    0  501    0  0.00000000000E+00  0.00000000000E+00 -0.14435657442E+04  0.14435657442E+04  0.25500000920E-02 0.  1.
    10030    2    1    2    0    0  0.00000000000E+00  0.00000000000E+00 -0.18083341009E+03  0.27062980784E+04  0.27002497231E+04 0.  0.
        2    1    3    3  502    0  0.21979756600E+03 -0.13258486322E+04 -0.21974673409E+03  0.13617908035E+04  0.25500000920E-02 0. -1.
       -2    1    3    3    0  502 -0.21979756600E+03  0.13258486322E+04  0.38913323996E+02  0.13445072749E+04  0.25500000920E-02 0.  1.
</event>
<event>
 5   0  0.1932012E-06  0.2701328E+04  0.7818609E-02  0.8334574E-01
        2   -1    0    0  501    0  0.00000000000E+00  0.00000000000E+00  0.15574097087E+04  0.15574097087E+04  0.25500000920E-02 0. -1.
       -2   -1    0    0    0  501  0.00000000000E+00  0.00000000000E+00 -0.11713633196E+04  0.11713633196E+04  0.25500000920E-02 0.  1.
    10030    2    1    2    0    0  0.00000000000E+00  0.00000000000E+00  0.38604638914E+03  0.27287730283E+04  0.27013275302E+04 0.  0.
        2    1    3    3  502    0  0.60924167115E+02 -0.41331032798E+03  0.14905010422E+04  0.15479439712E+04  0.25500000920E-02 0. -1.
       -2    1    3    3    0  502 -0.60924167115E+02  0.41331032798E+03 -0.11044546530E+04  0.11808290570E+04  0.25500000920E-02 0.  1.
</event>
<event>
 5   0  0.1991277E-06  0.2695699E+04  0.7818609E-02  0.8336402E-01
       -2   -1    0    0    0  501  0.00000000000E+00  0.00000000000E+00  0.93831537426E+03  0.93831537426E+03  0.25500000920E-02 0.  1.
        2   -1    0    0  501    0  0.00000000000E+00  0.00000000000E+00 -0.19361269428E+04  0.19361269428E+04  0.25500000920E-02 0. -1.
    10030    2    1    2    0    0  0.00000000000E+00  0.00000000000E+00 -0.99781156855E+03  0.28744423171E+04  0.26956985566E+04 0.  0.
        5    1    3    3  502    0  0.10391376905E+04 -0.85167680763E+03 -0.61332933483E+03  0.14769412607E+04  0.46999998093E+01 0. -1.
       -5    1    3    3    0  502 -0.10391376905E+04  0.85167680763E+03 -0.38448223372E+03  0.13975010564E+04  0.46999998093E+01 0.  1.
</event>
<event>
 5   0  0.2030645E-06  0.2697096E+04  0.7818609E-02  0.8335948E-01
       -2   -1    0    0    0  501  0.00000000000E+00  0.00000000000E+00  0.10387698337E+04  0.10387698337E+04  0.25500000920E-02 0.  1.
        2   -1    0    0  501    0  0.00000000000E+00  0.00000000000E+00 -0.17507067229E+04  0.17507067229E+04  0.25500000920E-02 0. -1.
    10030    2    1    2    0    0  0.00000000000E+00  0.00000000000E+00 -0.71193688925E+03  0.27894765566E+04  0.26970957205E+04 0.  0.
        1    1    3    3  502    0 -0.11478588363E+04  0.97726108885E+02  0.36907909166E+03  0.12096899092E+04  0.50400001928E-02 0.  1.
       -1    1    3    3    0  502  0.11478588363E+04 -0.97726108885E+02 -0.10810159809E+04  0.15797866474E+04  0.50400001928E-02 0. -1.
</event>
<event>
 5   0  0.1932012E-06  0.2702695E+04  0.7818609E-02  0.8334131E-01
        2   -1    0    0  501    0  0.00000000000E+00  0.00000000000E+00  0.11838909768E+04  0.11838909768E+04  0.25500000920E-02 0.  1.
       -2   -1    0    0    0  501  0.00000000000E+00  0.00000000000E+00 -0.15424897668E+04  0.15424897668E+04  0.25500000920E-02 0. -1.
    10030    2    1    2    0    0  0.00000000000E+00  0.00000000000E+00 -0.35859878998E+03  0.27263807436E+04  0.27026947417E+04 0.  0.
        2    1    3    3  502    0  0.10813092166E+04 -0.60049606028E+03  0.36981903090E+03  0.12909652420E+04  0.25500000920E-02 0. -1.
       -2    1    3    3    0  502 -0.10813092166E+04  0.60049606028E+03 -0.72841782088E+03  0.14354155016E+04  0.25500000920E-02 0.  1.
</event>
<event>
 5   0  0.2030645E-06  0.2700265E+04  0.7818609E-02  0.8334919E-01
        2   -1    0    0  501    0  0.00000000000E+00  0.00000000000E+00  0.15108844675E+04  0.15108844675E+04  0.25500000920E-02 0. -1.
       -2   -1    0    0    0  501  0.00000000000E+00  0.00000000000E+00 -0.12064838744E+04  0.12064838744E+04  0.25500000920E-02 0.  1.
    10030    2    1    2    0    0  0.00000000000E+00  0.00000000000E+00  0.30440059311E+03  0.27173683419E+04  0.27002649841E+04 0.  0.
        1    1    3    3  502    0  0.13202019256E+04  0.14275541022E+03  0.39776540132E+03  0.13861924636E+04  0.50400001928E-02 0. -1.
       -1    1    3    3    0  502 -0.13202019256E+04 -0.14275541022E+03 -0.93364808220E+02  0.13311758783E+04  0.50400001928E-02 0.  1.
</event>
<event>
 5   0  0.7768032E-07  0.2700757E+04  0.7818609E-02  0.8334759E-01
       -1   -1    0    0    0  501  0.00000000000E+00  0.00000000000E+00  0.12007087476E+04  0.12007087476E+04  0.50400001928E-02 0.  1.
        1   -1    0    0  501    0  0.00000000000E+00  0.00000000000E+00 -0.15187045589E+04  0.15187045589E+04  0.50400001928E-02 0. -1.
    10030    2    1    2    0    0  0.00000000000E+00  0.00000000000E+00 -0.31799581128E+03  0.27194133065E+04  0.27007568190E+04 0.  0.
        4    1    3    3  502    0  0.54499993999E+03 -0.25779634504E+03 -0.13756644626E+04  0.15019781013E+04  0.12699999809E+01 0. -1.
       -4    1    3    3    0  502 -0.54499993999E+03  0.25779634504E+03  0.10576686513E+04  0.12174352052E+04  0.12699999809E+01 0.  1.
</event>
<event>
 5   0  0.7566905E-07  0.2719993E+04  0.7818609E-02  0.8328547E-01
       -1   -1    0    0    0  501  0.00000000000E+00  0.00000000000E+00  0.10795857375E+04  0.10795857375E+04  0.50400001928E-02 0.  1.
        1   -1    0    0  501    0  0.00000000000E+00  0.00000000000E+00 -0.17132412482E+04  0.17132412482E+04  0.50400001928E-02 0. -1.
    10030    2    1    2    0    0  0.00000000000E+00  0.00000000000E+00 -0.63365551075E+03  0.27928269857E+04  0.27199932474E+04 0.  0.
        1    1    3    3  502    0 -0.12856562841E+04 -0.14582769253E+03 -0.74686603782E+03  0.14939834923E+04  0.50400001928E-02 0. -1.
       -1    1    3    3    0  502  0.12856562841E+04  0.14582769253E+03  0.11321052708E+03  0.12988434934E+04  0.50400001928E-02 0.  1.
</event>
<event>
 5   0  0.7566905E-07  0.2696864E+04  0.7818609E-02  0.8336023E-01
       -1   -1    0    0    0  501  0.00000000000E+00  0.00000000000E+00  0.17240854485E+04  0.17240854485E+04  0.50400001928E-02 0. -1.
        1   -1    0    0  501    0  0.00000000000E+00  0.00000000000E+00 -0.10546284004E+04  0.10546284004E+04  0.50400001928E-02 0.  1.
    10030    2    1    2    0    0  0.00000000000E+00  0.00000000000E+00  0.66945704813E+03  0.27787138490E+04  0.26968644599E+04 0.  0.
        1    1    3    3  502    0 -0.17120730319E+03 -0.52411455450E+03 -0.93317188446E+03  0.10838901111E+04  0.50400001928E-02 0.  1.
       -1    1    3    3    0  502  0.17120730319E+03  0.52411455450E+03  0.16026289326E+04  0.16948237379E+04  0.50400001928E-02 0. -1.
</event>
<event>
 5   0  0.1999104E-06  0.2706351E+04  0.7818609E-02  0.8332947E-01
       -2   -1    0    0    0  501  0.00000000000E+00  0.00000000000E+00  0.97087145114E+03  0.97087145114E+03  0.25500000920E-02 0.  1.
        2   -1    0    0  501    0  0.00000000000E+00  0.00000000000E+00 -0.18860205026E+04  0.18860205026E+04  0.25500000920E-02 0. -1.
    10030    2    1    2    0    0  0.00000000000E+00  0.00000000000E+00 -0.91514905145E+03  0.28568919537E+04  0.27063506515E+04 0.  0.
        4    1    3    3  502    0 -0.98805242055E+03 -0.42649804001E+02  0.51738850873E+03  0.11161357773E+04  0.12699999809E+01 0.  1.
       -4    1    3    3    0  502  0.98805242055E+03  0.42649804001E+02 -0.14325375602E+04  0.17407561764E+04  0.12699999809E+01 0. -1.
</event>
<event>
 5   0  0.7806808E-07  0.2688881E+04  0.7818609E-02  0.8338622E-01
        1   -1    0    0  501    0  0.00000000000E+00  0.00000000000E+00  0.14591532044E+04  0.14591532044E+04  0.50400001928E-02 0.  1.
       -1   -1    0    0    0  501  0.00000000000E+00  0.00000000000E+00 -0.12387458069E+04  0.12387458069E+04  0.50400001928E-02 0. -1.
    10030    2    1    2    0    0  0.00000000000E+00  0.00000000000E+00  0.22040739745E+03  0.26978990113E+04  0.26888807438E+04 0.  0.
        5    1    3    3  502    0  0.25104687453E+03  0.16666696980E+03 -0.12044179238E+04  0.12415502556E+04  0.46999998093E+01 0. -1.
       -5    1    3    3    0  502 -0.25104687453E+03 -0.16666696980E+03  0.14248253213E+04  0.14563487557E+04  0.46999998093E+01 0.  1.
</event>
<event>
 5   0  0.7436613E-07  0.2697858E+04  0.7818609E-02  0.8335700E-01
       -1   -1    0    0    0  501  0.00000000000E+00  0.00000000000E+00  0.15316444274E+04  0.15316444274E+04  0.50400001928E-02 0. -1.
        1   -1    0    0  501    0  0.00000000000E+00  0.00000000000E+00 -0.11880102124E+04  0.11880102124E+04  0.50400001928E-02 0.  1.
    10030    2    1    2    0    0  0.00000000000E+00  0.00000000000E+00  0.34363421502E+03  0.27196546398E+04  0.26978578329E+04 0.  0.
        2    1    3    3  502    0  0.77570518714E+02  0.12183105546E+04 -0.40667588054E+03  0.12867334863E+04  0.25500000920E-02 0.  1.
       -2    1    3    3    0  502 -0.77570518714E+02 -0.12183105546E+04  0.75031009556E+03  0.14329211536E+04  0.25500000920E-02 0. -1.
</event>
<event>
 5   0  0.7768032E-07  0.2696956E+04  0.7818609E-02  0.8335993E-01
       -1   -1    0    0    0  501  0.00000000000E+00  0.00000000000E+00  0.12310729932E+04  0.12310729932E+04  0.50400001928E-02 0.  1.
        1   -1    0    0  501    0  0.00000000000E+00  0.00000000000E+00 -0.14770797084E+04  0.14770797084E+04  0.50400001928E-02 0. -1.
    10030    2    1    2    0    0  0.00000000000E+00  0.00000000000E+00 -0.24600671522E+03  0.27081527017E+04  0.26969560159E+04 0.  0.
        4    1    3    3  502    0  0.10280286721E+04 -0.75798661500E+03  0.31123232339E+03  0.13146306824E+04  0.12699999809E+01 0.  1.
       -4    1    3    3    0  502 -0.10280286721E+04  0.75798661500E+03 -0.55723903862E+03  0.13935220193E+04  0.12699999809E+01 0. -1.
</event>
<event>
 5   0  0.7566905E-07  0.2701427E+04  0.7818609E-02  0.8334542E-01
       -1   -1    0    0    0  501  0.00000000000E+00  0.00000000000E+00  0.14480273073E+04  0.14480273073E+04  0.50400001928E-02 0.  1.
        1   -1    0    0  501    0  0.00000000000E+00  0.00000000000E+00 -0.12599397883E+04  0.12599397883E+04  0.50400001928E-02 0. -1.
    10030    2    1    2    0    0  0.00000000000E+00  0.00000000000E+00  0.18808751901E+03  0.27079670956E+04  0.27014271925E+04 0.  0.
        1    1    3    3  502    0  0.10207902820E+04  0.79903889077E+03  0.47437138028E+03  0.13803999983E+04  0.50400001928E-02 0.  1.
       -1    1    3    3    0  502 -0.10207902820E+04 -0.79903889077E+03 -0.28628386126E+03  0.13275670974E+04  0.50400001928E-02 0. -1.
</event>
<event>
 5   0  0.2063087E-06  0.2696963E+04  0.7818609E-02  0.8335991E-01
        2   -1    0    0  501    0  0.00000000000E+00  0.00000000000E+00  0.13795105436E+04  0.13795105436E+04  0.25500000920E-02 0. -1.
       -2   -1    0    0    0  501  0.00000000000E+00  0.00000000000E+00 -0.13181508153E+04  0.13181508153E+04  0.25500000920E-02 0.  1.
    10030    2    1    2    0    0  0.00000000000E+00  0.00000000000E+00  0.61359728322E+02  0.26976613589E+04  0.26969634390E+04 0.  0.
        3    1    3    3  502    0  0.11024476620E+04 -0.77073803547E+03  0.12544070309E+03  0.13509860647E+04  0.10100000352E+00 0.  1.
       -3    1    3    3    0  502 -0.11024476620E+04  0.77073803547E+03 -0.64080974773E+02  0.13466752943E+04  0.10100000352E+00 0. -1.
</event>
<event>
 5   0  0.7436613E-07  0.2675711E+04  0.7818609E-02  0.8342929E-01
       -1   -1    0    0    0  501  0.00000000000E+00  0.00000000000E+00  0.10517716215E+04  0.10517716215E+04  0.50400001928E-02 0. -1.
        1   -1    0    0  501    0  0.00000000000E+00  0.00000000000E+00 -0.17017550183E+04  0.17017550183E+04  0.50400001928E-02 0.  1.
    10030    2    1    2    0    0  0.00000000000E+00  0.00000000000E+00 -0.64998339688E+03  0.27535266398E+04  0.26757112213E+04 0.  0.
        2    1    3    3  502    0  0.58748564332E+02  0.76638153290E+03 -0.14518557177E+04  0.16427650692E+04  0.25500000920E-02 0.  1.
       -2    1    3    3    0  502 -0.58748564332E+02 -0.76638153290E+03  0.80187232079E+03  0.11107615706E+04  0.25500000920E-02 0. -1.
</event>
<event>
 5   0  0.2063087E-06  0.2736620E+04  0.7818609E-02  0.8323220E-01
        2   -1    0    0  501    0  0.00000000000E+00  0.00000000000E+00  0.25728342292E+04  0.25728342292E+04  0.25500000920E-02 0. -1.
       -2   -1    0    0    0  501  0.00000000000E+00  0.00000000000E+00 -0.72770813017E+03  0.72770813018E+03  0.25500000920E-02 0.  1.
    10030    2    1    2    0    0  0.00000000000E+00  0.00000000000E+00  0.18451260990E+04  0.33005423593E+04  0.27366200950E+04 0.  0.
        3    1    3    3  502    0  0.24309758180E+03  0.89518813634E+03 -0.29060558058E+03  0.97206473415E+03  0.10100000352E+00 0.  1.
       -3    1    3    3    0  502 -0.24309758180E+03 -0.89518813634E+03  0.21357316796E+04  0.23284776252E+04  0.10100000352E+00 0. -1.
</event>
<event>
 5   0  0.7806808E-07  0.2741579E+04  0.7818609E-02  0.8321639E-01
       -1   -1    0    0    0  501  0.00000000000E+00  0.00000000000E+00  0.19275276845E+04  0.19275276845E+04  0.50400001928E-02 0. -1.
        1   -1    0    0  501    0  0.00000000000E+00  0.00000000000E+00 -0.97485725070E+03  0.97485725071E+03  0.50400001928E-02 0.  1.
    10030    2    1    2    0    0  0.00000000000E+00  0.00000000000E+00  0.95267043378E+03  0.29023849352E+04  0.27415793544E+04 0.  0.
        5    1    3    3  502    0  0.86386444911E+02  0.78354683474E+03 -0.71088510885E+03  0.10615027028E+04  0.46999998093E+01 0.  1.
       -5    1    3    3    0  502 -0.86386444911E+02 -0.78354683474E+03  0.16635555426E+04  0.18408822324E+04  0.46999998093E+01 0. -1.
</event>
<event>
 5   0  0.1991277E-06  0.2705862E+04  0.7818609E-02  0.8333106E-01
        2   -1    0    0  501    0  0.00000000000E+00  0.00000000000E+00  0.24949570995E+04  0.24949570995E+04  0.25500000920E-02 0. -1.
       -2   -1    0    0    0  501  0.00000000000E+00  0.00000000000E+00 -0.73364868415E+03  0.73364868416E+03  0.25500000920E-02 0.  1.
    10030    2    1    2    0    0  0.00000000000E+00  0.00000000000E+00  0.17613084153E+04  0.32286057836E+04  0.27058617800E+04 0.  0.
        5    1    3    3  502    0  0.75319109175E+03 -0.50323556843E+03 -0.31840150320E+03  0.96017939223E+03  0.46999998093E+01 0.  1.
       -5    1    3    3    0  502 -0.75319109175E+03  0.50323556843E+03  0.20797099185E+04  0.22684263914E+04  0.46999998093E+01 0. -1.
</event>
<event>
 5   0  0.7335091E-07  0.2646392E+04  0.7818609E-02  0.8352612E-01
        1   -1    0    0  501    0  0.00000000000E+00  0.00000000000E+00  0.56445535022E+03  0.56445535024E+03  0.50400001928E-02 0.  1.
       -1   -1    0    0    0  501  0.00000000000E+00  0.00000000000E+00 -0.31018347297E+04  0.31018347297E+04  0.50400001928E-02 0. -1.
    10030    2    1    2    0    0  0.00000000000E+00  0.00000000000E+00 -0.25373793795E+04  0.36662900799E+04  0.26463916632E+04 0.  0.
        3    1    3    3  502    0  0.70603766348E+03  0.81859430709E+03 -0.21155166265E+03  0.11015171075E+04  0.10100000352E+00 0.  1.
       -3    1    3    3    0  502 -0.70603766348E+03 -0.81859430709E+03 -0.23258277168E+04  0.25647729725E+04  0.10100000352E+00 0. -1.
</event>
<event>
 5   0  0.7806808E-07  0.2690536E+04  0.7818609E-02  0.8338082E-01
        1   -1    0    0  501    0  0.00000000000E+00  0.00000000000E+00  0.11238449953E+04  0.11238449953E+04  0.50400001928E-02 0.  1.
       -1   -1    0    0    0  501  0.00000000000E+00  0.00000000000E+00 -0.16103164842E+04  0.16103164842E+04  0.50400001928E-02 0. -1.
    10030    2    1    2    0    0  0.00000000000E+00  0.00000000000E+00 -0.48647148897E+03  0.27341614795E+04  0.26905360965E+04 0.  0.
        5    1    3    3  502    0 -0.12951429023E+04 -0.36231226108E+03 -0.21017018625E+03  0.13611976010E+04  0.46999998093E+01 0.  1.
       -5    1    3    3    0  502  0.12951429023E+04  0.36231226108E+03 -0.27630130272E+03  0.13729638785E+04  0.46999998093E+01 0. -1.
</event>
<event>
 5   0  0.1991277E-06  0.2698792E+04  0.7818609E-02  0.8335397E-01
        2   -1    0    0  501    0  0.00000000000E+00  0.00000000000E+00  0.16754443315E+04  0.16754443315E+04  0.25500000920E-02 0. -1.
       -2   -1    0    0    0  501  0.00000000000E+00  0.00000000000E+00 -0.10867981972E+04  0.10867981972E+04  0.25500000920E-02 0.  1.
    10030    2    1    2    0    0  0.00000000000E+00  0.00000000000E+00  0.58864613438E+03  0.27622425287E+04  0.26987922328E+04 0.  0.
        5    1    3    3  502    0 -0.95622586764E+03 -0.35683829510E+01 -0.68014674545E+03  0.11734574252E+04  0.46999998093E+01 0.  1.
       -5    1    3    3    0  502  0.95622586764E+03  0.35683829510E+01  0.12687928798E+04  0.15887851035E+04  0.46999998093E+01 0. -1.
</event>
<event>
 5   0  0.7335091E-07  0.2695812E+04  0.7818609E-02  0.8336365E-01
       -1   -1    0    0    0  501  0.00000000000E+00  0.00000000000E+00  0.14662102015E+04  0.14662102015E+04  0.50400001928E-02 0. -1.
        1   -1    0    0  501    0  0.00000000000E+00  0.00000000000E+00 -0.12391474083E+04  0.12391474083E+04  0.50400001928E-02 0.  1.
    10030    2    1    2    0    0  0.00000000000E+00  0.00000000000E+00  0.22706279324E+03  0.27053576098E+04  0.26958119899E+04 0.  0.
        3    1    3    3  502    0 -0.16185330290E+03  0.64411890851E+03  0.12906146825E+04  0.14514723314E+04  0.10100000352E+00 0. -1.
       -3    1    3    3    0  502  0.16185330290E+03 -0.64411890851E+03 -0.10635518893E+04  0.12538852784E+04  0.10100000352E+00 0.  1.
</event>
<event>
 5   0  0.7436613E-07  0.2684324E+04  0.7818609E-02  0.8340109E-01
       -1   -1    0    0    0  501  0.00000000000E+00  0.00000000000E+00  0.93544662612E+03  0.93544662614E+03  0.50400001928E-02 0.  1.
        1   -1    0    0  501    0  0.00000000000E+00  0.00000000000E+00 -0.19257095868E+04  0.19257095868E+04  0.50400001928E-02 0. -1.
    10030    2    1    2    0    0  0.00000000000E+00  0.00000000000E+00 -0.99026296067E+03  0.28611562129E+04  0.26843237777E+04 0.  0.
        2    1    3    3  502    0  0.58719024369E+03  0.92168654637E+02 -0.17777798449E+04  0.18745102348E+04  0.25500000920E-02 0. -1.
       -2    1    3    3    0  502 -0.58719024369E+03 -0.92168654637E+02  0.78751688428E+03  0.98664597815E+03  0.25500000920E-02 0.  1.
</event>
<event>
 5   0  0.1932012E-06  0.2695588E+04  0.7818609E-02  0.8336438E-01
        2   -1    0    0  501    0  0.00000000000E+00  0.00000000000E+00  0.15246272343E+04  0.15246272343E+04  0.25500000920E-02 0.  1.
       -2   -1    0    0    0  501  0.00000000000E+00  0.00000000000E+00 -0.11914709769E+04  0.11914709769E+04  0.25500000920E-02 0. -1.
    10030    2    1    2    0    0  0.00000000000E+00  0.00000000000E+00  0.33315625742E+03  0.27160982112E+04  0.26955883219E+04 0.  0.
        2    1    3    3  502    0  0.72561246923E+02 -0.97930770040E+03 -0.76361464347E+03  0.12439517797E+04  0.25500000920E-02 0. -1.
       -2    1    3    3    0  502 -0.72561246923E+02  0.97930770040E+03  0.10967709009E+04  0.14721464315E+04  0.25500000920E-02 0.  1.
</event>
<event>
 5   0  0.1932012E-06  0.2697465E+04  0.7818609E-02  0.8335828E-01
       -2   -1    0    0    0  501  0.00000000000E+00  0.00000000000E+00  0.11468525966E+04  0.11468525966E+04  0.25500000920E-02 0. -1.
        2   -1    0    0  501    0  0.00000000000E+00  0.00000000000E+00 -0.15861493770E+04  0.15861493770E+04  0.25500000920E-02 0.  1.
    10030    2    1    2    0    0  0.00000000000E+00  0.00000000000E+00 -0.43929678045E+03  0.27330019736E+04  0.26974651297E+04 0.  0.
        2    1    3    3  502    0 -0.12723121216E+04 -0.26169576499E+03  0.14820042551E+03  0.13073737699E+04  0.25500000920E-02 0. -1.
       -2    1    3    3    0  502  0.12723121216E+04  0.26169576499E+03 -0.58749720596E+03  0.14256282037E+04  0.25500000920E-02 0.  1.
</event>
<event>
 5   0  0.1999104E-06  0.2697461E+04  0.7818609E-02  0.8335829E-01
        2   -1    0    0  501    0  0.00000000000E+00  0.00000000000E+00  0.15686457622E+04  0.15686457622E+04  0.25500000920E-02 0.  1.
       -2   -1    0    0    0  501  0.00000000000E+00  0.00000000000E+00 -0.11596460519E+04  0.11596460519E+04  0.25500000920E-02 0. -1.
    10030    2    1    2    0    0  0.00000000000E+00  0.00000000000E+00  0.40899971031E+03  0.27282918142E+04  0.26974609284E+04 0.  0.
        4    1    3    3  502    0  0.75685490470E+03  0.15080327648E+03 -0.91426256738E+03  0.11964316236E+04  0.12699999809E+01 0. -1.
       -4    1    3    3    0  502 -0.75685490470E+03 -0.15080327648E+03  0.13232622777E+04  0.15318601906E+04  0.12699999809E+01 0.  1.
</event>
<event>
 5   0  0.2030645E-06  0.2696096E+04  0.7818609E-02  0.8336273E-01
        2   -1    0    0  501    0  0.00000000000E+00  0.00000000000E+00  0.27390210561E+04  0.27390210561E+04  0.25500000920E-02 0. -1.
       -2   -1    0    0    0  501  0.00000000000E+00  0.00000000000E+00 -0.66346101389E+03  0.66346101389E+03  0.25500000920E-02 0.  1.
    10030    2    1    2    0    0  0.00000000000E+00  0.00000000000E+00  0.20755600422E+04  0.34024820700E+04  0.26960962052E+04 0.  0.
        1    1    3    3  502    0 -0.78975238689E+03 -0.74692087283E+03  0.31626985552E+02  0.10874740866E+04  0.50400001928E-02 0.  1.
       -1    1    3    3    0  502  0.78975238689E+03  0.74692087283E+03  0.20439330567E+04  0.23150079834E+04  0.50400001928E-02 0. -1.
</event>
<event>
 5   0  0.7436613E-07  0.2701551E+04  0.7818609E-02  0.8334502E-01
       -1   -1    0    0    0  501  0.00000000000E+00  0.00000000000E+00  0.15942634066E+04  0.15942634066E+04  0.50400001928E-02 0. -1.
        1   -1    0    0  501    0  0.00000000000E+00  0.00000000000E+00 -0.11444748686E+04  0.11444748687E+04  0.50400001928E-02 0.  1.
    10030    2    1    2    0    0  0.00000000000E+00  0.00000000000E+00  0.44978853795E+03  0.27387382753E+04  0.27015509641E+04 0.  0.
        2    1    3    3  502    0 -0.11616083127E+03 -0.12622664867E+04 -0.24820331596E+03  0.12916713624E+04  0.25500000920E-02 0.  1.
       -2    1    3    3    0  502  0.11616083127E+03  0.12622664867E+04  0.69799185391E+03  0.14470669129E+04  0.25500000920E-02 0. -1.
</event>
<event>
 5   0  0.1932012E-06  0.2704041E+04  0.7818609E-02  0.8333695E-01
        2   -1    0    0  501    0  0.00000000000E+00  0.00000000000E+00  0.12613867219E+04  0.12613867219E+04  0.25500000920E-02 0.  1.
       -2   -1    0    0    0  501  0.00000000000E+00  0.00000000000E+00 -0.14491662373E+04  0.14491662373E+04  0.25500000920E-02 0. -1.
    10030    2    1    2    0    0  0.00000000000E+00  0.00000000000E+00 -0.18777951541E+03  0.27105529592E+04  0.27040407168E+04 0.  0.
        2    1    3    3  502    0  0.84624158506E+03  0.24673788879E+02 -0.11505752787E+04  0.14284806922E+04  0.25500000920E-02 0. -1.
       -2    1    3    3    0  502 -0.84624158506E+03 -0.24673788879E+02  0.96279576325E+03  0.12820722670E+04  0.25500000920E-02 0.  1.
</event>
<event>
 5   0  0.2063087E-06  0.2698218E+04  0.7818609E-02  0.8335583E-01
       -2   -1    0    0    0  501  0.00000000000E+00  0.00000000000E+00  0.11571059548E+04  0.11571059548E+04  0.25500000920E-02 0.  1.
        2   -1    0    0  501    0  0.00000000000E+00  0.00000000000E+00 -0.15729717622E+04  0.15729717622E+04  0.25500000920E-02 0. -1.
    10030    2    1    2    0    0  0.00000000000E+00  0.00000000000E+00 -0.41586580745E+03  0.27300777170E+04  0.26982179251E+04 0.  0.
        3    1    3    3  502    0 -0.68836531737E+03  0.74696297222E+03 -0.11062759962E+04  0.15018811810E+04  0.10100000352E+00 0. -1.
       -3    1    3    3    0  502  0.68836531737E+03 -0.74696297222E+03  0.69041018874E+03  0.12281965360E+04  0.10100000352E+00 0.  1.
</event>
<event>
 5   0  0.7335091E-07  0.2706994E+04  0.7818609E-02  0.8332739E-01
        1   -1    0    0  501    0  0.00000000000E+00  0.00000000000E+00  0.18665167209E+04  0.18665167209E+04  0.50400001928E-02 0.  1.
       -1   -1    0    0    0  501  0.00000000000E+00  0.00000000000E+00 -0.98148289142E+03  0.98148289143E+03  0.50400001928E-02 0. -1.
    10030    2    1    2    0    0  0.00000000000E+00  0.00000000000E+00  0.88503382947E+03  0.28479996123E+04  0.27069940732E+04 0.  0.
        3    1    3    3  502    0  0.56302232386E+02  0.78683850036E+02 -0.97783998464E+03  0.98261494768E+03  0.10100000352E+00 0. -1.
       -3    1    3    3    0  502 -0.56302232386E+02 -0.78683850036E+02  0.18628738141E+04  0.18653846647E+04  0.10100000352E+00 0.  1.
</event>
<event>
 5   0  0.1991277E-06  0.2706849E+04  0.7818609E-02  0.8332786E-01
        2   -1    0    0  501    0  0.00000000000E+00  0.00000000000E+00  0.16656716019E+04  0.16656716019E+04  0.25500000920E-02 0.  1.
       -2   -1    0    0    0  501  0.00000000000E+00  0.00000000000E+00 -0.10997110305E+04  0.10997110305E+04  0.25500000920E-02 0. -1.
    10030    2    1    2    0    0  0.00000000000E+00  0.00000000000E+00  0.56596057136E+03  0.27653826324E+04  0.27068486724E+04 0.  0.
        5    1    3    3  502    0  0.99045934026E+03  0.41166090356E+03 -0.56025349910E+03  0.12101158942E+04  0.46999998093E+01 0. -1.
       -5    1    3    3    0  502 -0.99045934026E+03 -0.41166090356E+03  0.11262140705E+04  0.15552667381E+04  0.46999998093E+01 0.  1.
</event>
<event>
 5   0  0.7768032E-07  0.2705664E+04  0.7818609E-02  0.8333170E-01
       -1   -1    0    0    0  501  0.00000000000E+00  0.00000000000E+00  0.10028365358E+04  0.10028365359E+04  0.50400001928E-02 0.  1.
        1   -1    0    0  501    0  0.00000000000E+00  0.00000000000E+00 -0.18249775799E+04  0.18249775799E+04  0.50400001928E-02 0. -1.
    10030    2    1    2    0    0  0.00000000000E+00  0.00000000000E+00 -0.82214104409E+03  0.28278141158E+04  0.27056638330E+04 0.  0.
        4    1    3    3  502    0  0.92478611731E+03  0.62939037377E+03  0.38405903447E+03  0.11827360484E+04  0.12699999809E+01 0.  1.
       -4    1    3    3    0  502 -0.92478611731E+03 -0.62939037377E+03 -0.12062000786E+04  0.16450780674E+04  0.12699999809E+01 0. -1.
</event>
<event>
 5   0  0.2030645E-06  0.2701466E+04  0.7818609E-02  0.8334530E-01
       -2   -1    0    0    0  501  0.00000000000E+00  0.00000000000E+00  0.10428573295E+04  0.10428573295E+04  0.25500000920E-02 0. -1.
        2   -1    0    0  501    0  0.00000000000E+00  0.00000000000E+00 -0.17495001611E+04  0.17495001611E+04  0.25500000920E-02 0.  1.
    10030    2    1    2    0    0  0.00000000000E+00  0.00000000000E+00 -0.70664283156E+03  0.27923574907E+04  0.27014655771E+04 0.  0.
        1    1    3    3  502    0  0.68702768576E+03  0.19875520667E+03 -0.15377222801E+04  0.16959069797E+04  0.50400001928E-02 0.  1.
       -1    1    3    3    0  502 -0.68702768576E+03 -0.19875520667E+03  0.83107944851E+03  0.10964505109E+04  0.50400001928E-02 0. -1.
</event>
<event>
 5   0  0.1932012E-06  0.2699803E+04  0.7818609E-02  0.8335069E-01
        2   -1    0    0  501    0  0.00000000000E+00  0.00000000000E+00  0.24074176582E+04  0.24074176582E+04  0.25500000920E-02 0. -1.
       -2   -1    0    0    0  501  0.00000000000E+00  0.00000000000E+00 -0.75692500633E+03  0.75692500633E+03  0.25500000920E-02 0.  1.
    10030    2    1    2    0    0  0.00000000000E+00  0.00000000000E+00  0.16504926519E+04  0.31643426645E+04  0.26998034197E+04 0.  0.
        2    1    3    3  502    0  0.11057154480E+03  0.12827851380E+04  0.34991566268E+03  0.13342431367E+04  0.25500000920E-02 0. -1.
       -2    1    3    3    0  502 -0.11057154480E+03 -0.12827851380E+04  0.13005769892E+04  0.18300995278E+04  0.25500000920E-02 0.  1.
</event>
<event>
 5   0  0.7806808E-07  0.2723325E+04  0.7818609E-02  0.8327476E-01
       -1   -1    0    0    0  501  0.00000000000E+00  0.00000000000E+00  0.76187196313E+03  0.76187196315E+03  0.50400001928E-02 0. -1.
        1   -1    0    0  501    0  0.00000000000E+00  0.00000000000E+00 -0.24336430306E+04  0.24336430306E+04  0.50400001928E-02 0.  1.
    10030    2    1    2    0    0  0.00000000000E+00  0.00000000000E+00 -0.16717710675E+04  0.31955149938E+04  0.27233247279E+04 0.  0.
        5    1    3    3  502    0 -0.10215384395E+04 -0.81215633016E+03 -0.12917939128E+04  0.18362713011E+04  0.46999998093E+01 0.  1.
       -5    1    3    3    0  502  0.10215384395E+04  0.81215633016E+03 -0.37997715466E+03  0.13592436927E+04  0.46999998093E+01 0. -1.
</event>
<event>
 5   0  0.1999104E-06  0.2617560E+04  0.7818609E-02  0.8362261E-01
       -2   -1    0    0    0  501  0.00000000000E+00  0.00000000000E+00  0.11030638991E+04  0.11030638991E+04  0.25500000920E-02 0.  1.
        2   -1    0    0  501    0  0.00000000000E+00  0.00000000000E+00 -0.15528608849E+04  0.15528608849E+04  0.25500000920E-02 0. -1.
    10030    2    1    2    0    0  0.00000000000E+00  0.00000000000E+00 -0.44979698575E+03  0.26559247840E+04  0.26175597662E+04 0.  0.
        4    1    3    3  502    0  0.44693500835E+03  0.12072431266E+03  0.10172079886E+04  0.11176041188E+04  0.12699999809E+01 0.  1.
       -4    1    3    3    0  502 -0.44693500835E+03 -0.12072431266E+03 -0.14670049743E+04  0.15383206652E+04  0.12699999809E+01 0. -1.
</event>
<event>
 5   0  0.1991277E-06  0.2702296E+04  0.7818609E-02  0.8334260E-01
       -2   -1    0    0    0  501  0.00000000000E+00  0.00000000000E+00  0.13287852804E+04  0.13287852804E+04  0.25500000920E-02 0. -1.
        2   -1    0    0  501    0  0.00000000000E+00  0.00000000000E+00 -0.13738871254E+04  0.13738871254E+04  0.25500000920E-02 0.  1.
    10030    2    1    2    0    0  0.00000000000E+00  0.00000000000E+00 -0.45101845078E+02  0.27026724058E+04  0.27022960527E+04 0.  0.
        5    1    3    3  502    0 -0.93412330345E+03  0.73933369584E+03  0.61501589050E+03  0.13406965710E+04  0.46999998093E+01 0. -1.
       -5    1    3    3    0  502  0.93412330345E+03 -0.73933369584E+03 -0.66011773557E+03  0.13619758348E+04  0.46999998093E+01 0.  1.
</event>
<event>
 5   0  0.7768032E-07  0.2699433E+04  0.7818609E-02  0.8335189E-01
        1   -1    0    0  501    0  0.00000000000E+00  0.00000000000E+00  0.17622520597E+04  0.17622520597E+04  0.50400001928E-02 0.  1.
       -1   -1    0    0    0  501  0.00000000000E+00  0.00000000000E+00 -0.10337534721E+04  0.10337534722E+04  0.50400001928E-02 0. -1.
    10030    2    1    2    0    0  0.00000000000E+00  0.00000000000E+00  0.72849858753E+03  0.27960055318E+04  0.26994326704E+04 0.  0.
        4    1    3    3  502    0 -0.94405445736E+03 -0.53759201236E+03 -0.46533398944E+03  0.11818550355E+04  0.12699999809E+01 0. -1.
       -4    1    3    3    0  502  0.94405445736E+03  0.53759201236E+03  0.11938325770E+04  0.16141504964E+04  0.12699999809E+01 0.  1.
</event>
<event>
 5   0  0.2063087E-06  0.2696551E+04  0.7818609E-02  0.8336125E-01
        2   -1    0    0  501    0  0.00000000000E+00  0.00000000000E+00  0.12488183452E+04  0.12488183452E+04  0.25500000920E-02 0.  1.
       -2   -1    0    0    0  501  0.00000000000E+00  0.00000000000E+00 -0.14556539226E+04  0.14556539226E+04  0.25500000920E-02 0. -1.
    10030    2    1    2    0    0  0.00000000000E+00  0.00000000000E+00 -0.20683557737E+03  0.27044722678E+04  0.26965513700E+04 0.  0.
        3    1    3    3  502    0 -0.87758853226E+03  0.10848499165E+03 -0.11242074172E+04  0.14303051955E+04  0.10100000352E+00 0. -1.
       -3    1    3    3    0  502  0.87758853226E+03 -0.10848499165E+03  0.91737183981E+03  0.12741670723E+04  0.10100000352E+00 0.  1.
</event>
<event>
 5   0  0.6561875E-07  0.2697412E+04  0.7818609E-02  0.8335845E-01
       -3   -1    0    0    0  501  0.00000000000E+00  0.00000000000E+00  0.89532410034E+03  0.89532410603E+03  0.10100000352E+00 0. -1.
        3   -1    0    0  501    0  0.00000000000E+00  0.00000000000E+00 -0.20316752616E+04  0.20316752641E+04  0.10100000352E+00 0.  1.
    10030    2    1    2    0    0  0.00000000000E+00  0.00000000000E+00 -0.11363511613E+04  0.29269993702E+04  0.26974119728E+04 0.  0.
        2    1    3    3  502    0 -0.96418761195E+03  0.12016354160E+03 -0.15831550075E+04  0.18575459094E+04  0.25500000920E-02 0.  1.
       -2    1    3    3    0  502  0.96418761195E+03 -0.12016354160E+03  0.44680384620E+03  0.10694534608E+04  0.25500000920E-02 0. -1.
</event>
<event>
 5   0  0.7335091E-07  0.2697322E+04  0.7818609E-02  0.8335874E-01
        1   -1    0    0  501    0  0.00000000000E+00  0.00000000000E+00  0.14770240390E+04  0.14770240390E+04  0.50400001928E-02 0.  1.
       -1   -1    0    0    0  501  0.00000000000E+00  0.00000000000E+00 -0.12314535658E+04  0.12314535659E+04  0.50400001928E-02 0. -1.
    10030    2    1    2    0    0  0.00000000000E+00  0.00000000000E+00  0.24557047317E+03  0.27084776049E+04  0.26973220199E+04 0.  0.
        3    1    3    3  502    0 -0.44385490071E+03 -0.23660759799E+03 -0.11337478641E+04  0.12403122824E+04  0.10100000352E+00 0. -1.
       -3    1    3    3    0  502  0.44385490071E+03  0.23660759799E+03  0.13793183373E+04  0.14681653225E+04  0.10100000352E+00 0.  1.
</event>
<event>
 5   0  0.7335091E-07  0.2688225E+04  0.7818609E-02  0.8338836E-01
        1   -1    0    0  501    0  0.00000000000E+00  0.00000000000E+00  0.12139337024E+04  0.12139337024E+04  0.50400001928E-02 0.  1.
       -1   -1    0    0    0  501  0.00000000000E+00  0.00000000000E+00 -0.14882514196E+04  0.14882514196E+04  0.50400001928E-02 0. -1.
    10030    2    1    2    0    0  0.00000000000E+00  0.00000000000E+00 -0.27431771719E+03  0.27021851221E+04  0.26882251066E+04 0.  0.
        3    1    3    3  502    0 -0.95574707864E+02 -0.78524128906E+03  0.95517665240E+03  0.12402019409E+04  0.10100000352E+00 0.  1.
       -3    1    3    3    0  502  0.95574707864E+02  0.78524128906E+03 -0.12294943696E+04  0.14619831811E+04  0.10100000352E+00 0. -1.
</event>
<event>
 5   0  0.7566905E-07  0.2700400E+04  0.7818609E-02  0.8334875E-01
       -1   -1    0    0    0  501  0.00000000000E+00  0.00000000000E+00  0.15848612675E+04  0.15848612675E+04  0.50400001928E-02 0.  1.
        1   -1    0    0  501    0  0.00000000000E+00  0.00000000000E+00 -0.11502836907E+04  0.11502836907E+04  0.50400001928E-02 0. -1.
    10030    2    1    2    0    0  0.00000000000E+00  0.00000000000E+00  0.43457757685E+03  0.27351449582E+04  0.27004000208E+04 0.  0.
        1    1    3    3  502    0 -0.49143065430E+03  0.10882242424E+04 -0.42114182311E+03  0.12661344814E+04  0.50400001928E-02 0. -1.
       -1    1    3    3    0  502  0.49143065430E+03 -0.10882242424E+04  0.85571939996E+03  0.14690104769E+04  0.50400001928E-02 0.  1.
</event>
<event>
 5   0  0.2063087E-06  0.2702346E+04  0.7818609E-02  0.8334244E-01
        2   -1    0    0  501    0  0.00000000000E+00  0.00000000000E+00  0.16408403971E+04  0.16408403971E+04  0.25500000920E-02 0.  1.
       -2   -1    0    0    0  501  0.00000000000E+00  0.00000000000E+00 -0.11126422460E+04  0.11126422460E+04  0.25500000920E-02 0. -1.
    10030    2    1    2    0    0  0.00000000000E+00  0.00000000000E+00  0.52819815114E+03  0.27534826431E+04  0.27023459029E+04 0.  0.
        3    1    3    3  502    0  0.72227891202E+03  0.45304566903E+03 -0.80393994411E+03  0.11718603368E+04  0.10100000352E+00 0. -1.
       -3    1    3    3    0  502 -0.72227891202E+03 -0.45304566903E+03  0.13321380952E+04  0.15816223064E+04  0.10100000352E+00 0.  1.
</event>
<event>
 5   0  0.6561875E-07  0.2701005E+04  0.7818609E-02  0.8334679E-01
       -3   -1    0    0    0  501  0.00000000000E+00  0.00000000000E+00  0.14639443050E+04  0.14639443084E+04  0.10100000352E+00 0. -1.
        3   -1    0    0  501    0  0.00000000000E+00  0.00000000000E+00 -0.12458513133E+04  0.12458513174E+04  0.10100000352E+00 0.  1.
    10030    2    1    2    0    0  0.00000000000E+00  0.00000000000E+00  0.21809299167E+03  0.27097956258E+04  0.27010049576E+04 0.  0.
        5    1    3    3  502    0  0.44174242837E+02 -0.13122198814E+04 -0.20815093058E+03  0.13293687527E+04  0.46999998093E+01 0. -1.
       -5    1    3    3    0  502 -0.44174242837E+02  0.13122198814E+04  0.42624392225E+03  0.13804268731E+04  0.46999998093E+01 0.  1.
</event>
<event>
 5   0  0.2063087E-06  0.2688495E+04  0.7818609E-02  0.8338748E-01
       -2   -1    0    0    0  501  0.00000000000E+00  0.00000000000E+00  0.17231220385E+04  0.17231220385E+04  0.25500000920E-02 0.  1.
        2   -1    0    0  501    0  0.00000000000E+00  0.00000000000E+00 -0.10486783141E+04  0.10486783141E+04  0.25500000920E-02 0. -1.
    10030    2    1    2    0    0  0.00000000000E+00  0.00000000000E+00  0.67444372442E+03  0.27718003526E+04  0.26884945337E+04 0.  0.
        3    1    3    3  502    0 -0.76565904868E+03 -0.71925277600E+03 -0.52748130448E+03  0.11754977122E+04  0.10100000352E+00 0. -1.
       -3    1    3    3    0  502  0.76565904868E+03  0.71925277600E+03  0.12019250289E+04  0.15963026405E+04  0.10100000352E+00 0.  1.
</event>
<event>
 5   0  0.1991277E-06  0.2698546E+04  0.7818609E-02  0.8335477E-01
        2   -1    0    0  501    0  0.00000000000E+00  0.00000000000E+00  0.23129367444E+04  0.23129367444E+04  0.25500000920E-02 0.  1.
       -2   -1    0    0    0  501  0.00000000000E+00  0.00000000000E+00 -0.78711061217E+03  0.78711061218E+03  0.25500000920E-02 0. -1.
    10030    2    1    2    0    0  0.00000000000E+00  0.00000000000E+00  0.15258261322E+04  0.31000473566E+04  0.26985455763E+04 0.  0.
        5    1    3    3  502    0  0.70463040428E+03 -0.11241511286E+04  0.10449980328E+04  0.16888643359E+04  0.46999998093E+01 0. -1.
       -5    1    3    3    0  502 -0.70463040428E+03  0.11241511286E+04  0.48082809945E+03  0.14111830207E+04  0.46999998093E+01 0.  1.
</event>
<event>
 5   0  0.7768032E-07  0.2655064E+04  0.7818609E-02  0.8349734E-01
        1   -1    0    0  501    0  0.00000000000E+00  0.00000000000E+00  0.18427842333E+04  0.18427842333E+04  0.50400001928E-02 0. -1.
       -1   -1    0    0    0  501  0.00000000000E+00  0.00000000000E+00 -0.95634726400E+03  0.95634726401E+03  0.50400001928E-02 0.  1.
    10030    2    1    2    0    0  0.00000000000E+00  0.00000000000E+00  0.88643696929E+03  0.27991314973E+04  0.26550643380E+04 0.  0.
        4    1    3    3  502    0 -0.44849874566E+03 -0.81288985775E+03 -0.55716325090E+03  0.10827619991E+04  0.12699999809E+01 0.  1.
       -4    1    3    3    0  502  0.44849874566E+03  0.81288985775E+03  0.14436002202E+04  0.17163694982E+04  0.12699999809E+01 0. -1.
</event>
<event>
 5   0  0.7566905E-07  0.2703174E+04  0.7818609E-02  0.8333976E-01
        1   -1    0    0  501    0  0.00000000000E+00  0.00000000000E+00  0.25800089316E+04  0.25800089316E+04  0.50400001928E-02 0.  1.
       -1   -1    0    0    0  501  0.00000000000E+00  0.00000000000E+00 -0.70805470689E+03  0.70805470690E+03  0.50400001928E-02 0. -1.
    10030    2    1    2    0    0  0.00000000000E+00  0.00000000000E+00  0.18719542247E+04  0.32880636385E+04  0.27031740364E+04 0.  0.
        1    1    3    3  502    0  0.95651979890E+03  0.34296243305E+03 -0.14805082486E+03  0.10268750669E+04  0.50400001928E-02 0. -1.
       -1    1    3    3    0  502 -0.95651979890E+03 -0.34296243305E+03  0.20200050495E+04  0.22611885716E+04  0.50400001928E-02 0.  1.
</event>
<event>
 5   0  0.1932012E-06  0.2700295E+04  0.7818609E-02  0.8334909E-01
        2   -1    0    0  501    0  0.00000000000E+00  0.00000000000E+00  0.15535732530E+04  0.15535732530E+04  0.25500000920E-02 0.  1.
       -2   -1    0    0    0  501  0.00000000000E+00  0.00000000000E+00 -0.11733585063E+04  0.11733585063E+04  0.25500000920E-02 0. -1.
    10030    2    1    2    0    0  0.00000000000E+00  0.00000000000E+00  0.38021474663E+03  0.27269317593E+04  0.27002950887E+04 0.  0.
        2    1    3    3  502    0 -0.11144350930E+04 -0.83751603479E+02 -0.57493968491E+03  0.12567957467E+04  0.25500000920E-02 0. -1.
       -2    1    3    3    0  502  0.11144350930E+04  0.83751603479E+02  0.95515443154E+03  0.14701360126E+04  0.25500000920E-02 0.  1.
</event>
<event>
 5   0  0.2063087E-06  0.2704146E+04  0.7818609E-02  0.8333661E-01
       -2   -1    0    0    0  501  0.00000000000E+00  0.00000000000E+00  0.91469439325E+03  0.91469439325E+03  0.25500000920E-02 0.  1.
        2   -1    0    0  501    0  0.00000000000E+00  0.00000000000E+00 -0.19985921789E+04  0.19985921789E+04  0.25500000920E-02 0. -1.
    10030    2    1    2    0    0  0.00000000000E+00  0.00000000000E+00 -0.10838977856E+04  0.29132865721E+04  0.27041457508E+04 0.  0.
        3    1    3    3  502    0 -0.11959748815E+04  0.23543809514E+03  0.88377460493E+02  0.12221283073E+04  0.10100000352E+00 0.  1.
       -3    1    3    3    0  502  0.11959748815E+04 -0.23543809514E+03 -0.11722752461E+04  0.16911582648E+04  0.10100000352E+00 0. -1.
</event>
<event>
 5   0  0.7566905E-07  0.2698262E+04  0.7818609E-02  0.8335569E-01
        1   -1    0    0  501    0  0.00000000000E+00  0.00000000000E+00  0.12892357760E+04  0.12892357760E+04  0.50400001928E-02 0. -1.
       -1   -1    0    0    0  501  0.00000000000E+00  0.00000000000E+00 -0.14118090535E+04  0.14118090535E+04  0.50400001928E-02 0.  1.
    10030    2    1    2    0    0  0.00000000000E+00  0.00000000000E+00 -0.12257327752E+03  0.27010448295E+04  0.26982622116E+04 0.  0.
        1    1    3    3  502    0  0.62386051484E+03 -0.84475623137E+03 -0.90911917106E+03  0.13889970121E+04  0.50400001928E-02 0.  1.
       -1    1    3    3    0  502 -0.62386051484E+03  0.84475623137E+03  0.78654589354E+03  0.13120478174E+04  0.50400001928E-02 0. -1.
</event>
<event>
 5   0  0.1991277E-06  0.2702258E+04  0.7818609E-02  0.8334273E-01
       -2   -1    0    0    0  501  0.00000000000E+00  0.00000000000E+00  0.10670531381E+04  0.10670531381E+04  0.25500000920E-02 0. -1.
        2   -1    0    0  501    0  0.00000000000E+00  0.00000000000E+00 -0.17108328411E+04  0.17108328411E+04  0.25500000920E-02 0.  1.
    10030    2    1    2    0    0  0.00000000000E+00  0.00000000000E+00 -0.64377970305E+03  0.27778859792E+04  0.27022579832E+04 0.  0.
        5    1    3    3  502    0 -0.22601940290E+03 -0.23445414930E+03  0.10260962261E+04  0.10765449707E+04  0.46999998093E+01 0. -1.
       -5    1    3    3    0  502  0.22601940290E+03  0.23445414930E+03 -0.16698759292E+04  0.17013410086E+04  0.46999998093E+01 0.  1.
</event>
<event>
 5   0  0.7566905E-07  0.2694405E+04  0.7818609E-02  0.8336823E-01
       -1   -1    0    0    0  501  0.00000000000E+00  0.00000000000E+00  0.11175816293E+04  0.11175816293E+04  0.50400001928E-02 0.  1.
        1   -1    0    0  501    0  0.00000000000E+00  0.00000000000E+00 -0.16240016809E+04  0.16240016809E+04  0.50400001928E-02 0. -1.
    10030    2    1    2    0    0  0.00000000000E+00  0.00000000000E+00 -0.50642005157E+03  0.27415833102E+04  0.26944049024E+04 0.  0.
        1    1    3    3  502    0  0.58785409535E+03  0.78815118765E+02 -0.14840058353E+04  0.15981419147E+04  0.50400001928E-02 0. -1.
       -1    1    3    3    0  502 -0.58785409535E+03 -0.78815118765E+02  0.97758578370E+03  0.11434413955E+04  0.50400001928E-02 0.  1.
</event>
<event>
 5   0  0.7806808E-07  0.2710966E+04  0.7818609E-02  0.8331456E-01
       -1   -1    0    0    0  501  0.00000000000E+00  0.00000000000E+00  0.10045715741E+04  0.10045715741E+04  0.50400001928E-02 0. -1.
        1   -1    0    0  501    0  0.00000000000E+00  0.00000000000E+00 -0.18289725003E+04  0.18289725003E+04  0.50400001928E-02 0.  1.
    10030    2    1    2    0    0  0.00000000000E+00  0.00000000000E+00 -0.82440092627E+03  0.28335440744E+04  0.27109657199E+04 0.  0.
        5    1    3    3  502    0 -0.17689713687E+03 -0.89569642094E+03 -0.14593726057E+04  0.17214398531E+04  0.46999998093E+01 0.  1.
       -5    1    3    3    0  502  0.17689713687E+03  0.89569642094E+03  0.63497167942E+03  0.11121042214E+04  0.46999998093E+01 0. -1.
</event>
<event>
 5   0  0.1932012E-06  0.2690947E+04  0.7818609E-02  0.8337948E-01
       -2   -1    0    0    0  501  0.00000000000E+00  0.00000000000E+00  0.13222732679E+04  0.13222732679E+04  0.25500000920E-02 0. -1.
        2   -1    0    0  501    0  0.00000000000E+00  0.00000000000E+00 -0.13690810420E+04  0.13690810420E+04  0.25500000920E-02 0.  1.
    10030    2    1    2    0    0  0.00000000000E+00  0.00000000000E+00 -0.46807774069E+02  0.26913543098E+04  0.26909472409E+04 0.  0.
        2    1    3    3  502    0 -0.21054834634E+03 -0.72373695152E+03  0.10912930791E+04  0.13262904530E+04  0.25500000920E-02 0. -1.
       -2    1    3    3    0  502  0.21054834634E+03  0.72373695152E+03 -0.11381008532E+04  0.13650638568E+04  0.25500000920E-02 0.  1.
</event>
<event>
 5   0  0.7566905E-07  0.2697835E+04  0.7818609E-02  0.8335708E-01
        1   -1    0    0  501    0  0.00000000000E+00  0.00000000000E+00  0.15813832083E+04  0.15813832083E+04  0.50400001928E-02 0.  1.
       -1   -1    0    0    0  501  0.00000000000E+00  0.00000000000E+00 -0.11506249314E+04  0.11506249314E+04  0.50400001928E-02 0. -1.
    10030    2    1    2    0    0  0.00000000000E+00  0.00000000000E+00  0.43075827690E+03  0.27320081396E+04  0.26978353882E+04 0.  0.
        1    1    3    3  502    0  0.85676464726E+03 -0.22874800050E+03 -0.81396440701E+03  0.12037065109E+04  0.50400001928E-02 0. -1.
       -1    1    3    3    0  502 -0.85676464726E+03  0.22874800050E+03  0.12447226839E+04  0.15283016287E+04  0.50400001928E-02 0.  1.
</event>
<event>
 5   0  0.7436613E-07  0.2687748E+04  0.7818609E-02  0.8338991E-01
       -1   -1    0    0    0  501  0.00000000000E+00  0.00000000000E+00  0.15463252971E+04  0.15463252972E+04  0.50400001928E-02 0.  1.
        1   -1    0    0  501    0  0.00000000000E+00  0.00000000000E+00 -0.11679287607E+04  0.11679287607E+04  0.50400001928E-02 0. -1.
    10030    2    1    2    0    0  0.00000000000E+00  0.00000000000E+00  0.37839653643E+03  0.27142540579E+04  0.26877483424E+04 0.  0.
        2    1    3    3  502    0  0.62221567899E+03  0.11445615255E+04  0.52233685279E+03  0.14035701709E+04  0.25500000920E-02 0.  1.
       -2    1    3    3    0  502 -0.62221567899E+03 -0.11445615255E+04 -0.14394031636E+03  0.13106838870E+04  0.25500000920E-02 0. -1.
</event>
<event>
 5   0  0.1991277E-06  0.2694271E+04  0.7818609E-02  0.8336866E-01
       -2   -1    0    0    0  501  0.00000000000E+00  0.00000000000E+00  0.12421883176E+04  0.12421883176E+04  0.25500000920E-02 0. -1.
        2   -1    0    0  501    0  0.00000000000E+00  0.00000000000E+00 -0.14609495687E+04  0.14609495687E+04  0.25500000920E-02 0.  1.
    10030    2    1    2    0    0  0.00000000000E+00  0.00000000000E+00 -0.21876125104E+03  0.27031378863E+04  0.26942713203E+04 0.  0.
        5    1    3    3  502    0 -0.88269499623E+02  0.99489879728E+03  0.79755065755E+03  0.12781722352E+04  0.46999998093E+01 0. -1.
       -5    1    3    3    0  502  0.88269499623E+02 -0.99489879728E+03 -0.10163119086E+04  0.14249656511E+04  0.46999998093E+01 0.  1.
</event>
<event>
 5   0  0.1999104E-06  0.2700522E+04  0.7818609E-02  0.8334835E-01
        2   -1    0    0  501    0  0.00000000000E+00  0.00000000000E+00  0.17769615701E+04  0.17769615701E+04  0.25500000920E-02 0. -1.
       -2   -1    0    0    0  501  0.00000000000E+00  0.00000000000E+00 -0.10260241018E+04  0.10260241018E+04  0.25500000920E-02 0.  1.
    10030    2    1    2    0    0  0.00000000000E+00  0.00000000000E+00  0.75093746827E+03  0.28029856719E+04  0.27005224671E+04 0.  0.
        4    1    3    3  502    0 -0.13058051706E+03  0.13169462872E+04  0.65360037577E+03  0.14760060498E+04  0.12699999809E+01 0.  1.
       -4    1    3    3    0  502  0.13058051706E+03 -0.13169462872E+04  0.97337092498E+02  0.13269796221E+04  0.12699999809E+01 0. -1.
</event>
<event>
 5   0  0.7436613E-07  0.2705872E+04  0.7818609E-02  0.8333102E-01
        1   -1    0    0  501    0  0.00000000000E+00  0.00000000000E+00  0.19804507019E+04  0.19804507019E+04  0.50400001928E-02 0. -1.
       -1   -1    0    0    0  501  0.00000000000E+00  0.00000000000E+00 -0.92425234170E+03  0.92425234172E+03  0.50400001928E-02 0.  1.
    10030    2    1    2    0    0  0.00000000000E+00  0.00000000000E+00  0.10561983602E+04  0.29047030436E+04  0.27058722800E+04 0.  0.
        2    1    3    3  502    0  0.58125080363E+03  0.93442958758E+03  0.13729671151E+04  0.17595595614E+04  0.25500000920E-02 0. -1.
       -2    1    3    3    0  502 -0.58125080363E+03 -0.93442958758E+03 -0.31676875489E+03  0.11451434823E+04  0.25500000920E-02 0.  1.
</event>
<event>
 5   0  0.7335091E-07  0.2703190E+04  0.7818609E-02  0.8333971E-01
       -1   -1    0    0    0  501  0.00000000000E+00  0.00000000000E+00  0.99229718113E+03  0.99229718114E+03  0.50400001928E-02 0.  1.
        1   -1    0    0  501    0  0.00000000000E+00  0.00000000000E+00 -0.18409901489E+04  0.18409901489E+04  0.50400001928E-02 0. -1.
    10030    2    1    2    0    0  0.00000000000E+00  0.00000000000E+00 -0.84869296779E+03  0.28332873301E+04  0.27031902155E+04 0.  0.
        3    1    3    3  502    0  0.11895995949E+04 -0.63563314370E+03 -0.33277689252E+03  0.13892145838E+04  0.10100000352E+00 0. -1.
       -3    1    3    3    0  502 -0.11895995949E+04  0.63563314370E+03 -0.51591607528E+03  0.14440727462E+04  0.10100000352E+00 0.  1.
</event>
<event>
 5   0  0.7436613E-07  0.2695921E+04  0.7818609E-02  0.8336330E-01
       -1   -1    0    0    0  501  0.00000000000E+00  0.00000000000E+00  0.12832930751E+04  0.12832930751E+04  0.50400001928E-02 0. -1.
        1   -1    0    0  501    0  0.00000000000E+00  0.00000000000E+00 -0.14158869124E+04  0.14158869124E+04  0.50400001928E-02 0.  1.
    10030    2    1    2    0    0  0.00000000000E+00  0.00000000000E+00 -0.13259383730E+03  0.26991799875E+04  0.26959212672E+04 0.  0.
        2    1    3    3  502    0  0.62431474277E+03  0.33297732391E+03 -0.12150089409E+04  0.14060190336E+04  0.25500000920E-02 0.  1.
       -2    1    3    3    0  502 -0.62431474277E+03 -0.33297732391E+03  0.10824151036E+04  0.12931609539E+04  0.25500000920E-02 0. -1.
</event>
<event>
 5   0  0.2063087E-06  0.2699497E+04  0.7818609E-02  0.8335168E-01
        2   -1    0    0  501    0  0.00000000000E+00  0.00000000000E+00  0.10185683456E+04  0.10185683456E+04  0.25500000920E-02 0.  1.
       -2   -1    0    0    0  501  0.00000000000E+00  0.00000000000E+00 -0.17886094430E+04  0.17886094430E+04  0.25500000920E-02 0. -1.
    10030    2    1    2    0    0  0.00000000000E+00  0.00000000000E+00 -0.77004109742E+03  0.28071777886E+04  0.26994969615E+04 0.  0.
        3    1    3    3  502    0 -0.99837214119E+03 -0.19888006267E+03  0.53662918911E+03  0.11507697895E+04  0.10100000352E+00 0.  1.
       -3    1    3    3    0  502  0.99837214119E+03  0.19888006267E+03 -0.13066702865E+04  0.16564079991E+04  0.10100000352E+00 0. -1.
</event>
<event>
 5   0  0.6561875E-07  0.2700967E+04  0.7818609E-02  0.8334691E-01
        3   -1    0    0  501    0  0.00000000000E+00  0.00000000000E+00  0.10196796900E+04  0.10196796950E+04  0.10100000352E+00 0.  1.
       -3   -1    0    0    0  501  0.00000000000E+00  0.00000000000E+00 -0.17886067769E+04  0.17886067797E+04  0.10100000352E+00 0. -1.
    10030    2    1    2    0    0  0.00000000000E+00  0.00000000000E+00 -0.76892708686E+03  0.28082864748E+04  0.27009672452E+04 0.  0.
        4    1    3    3  502    0  0.96017522373E+03  0.20068507640E+03  0.58063860657E+03  0.11398919969E+04  0.12699999809E+01 0.  1.
       -4    1    3    3    0  502 -0.96017522373E+03 -0.20068507640E+03 -0.13495656934E+04  0.16683944779E+04  0.12699999809E+01 0. -1.
</event>
<event>
 5   0  0.7768032E-07  0.2702817E+04  0.7818609E-02  0.8334092E-01
        1   -1    0    0  501    0  0.00000000000E+00  0.00000000000E+00  0.13046648224E+04  0.13046648224E+04  0.50400001928E-02 0.  1.
       -1   -1    0    0    0  501  0.00000000000E+00  0.00000000000E+00 -0.13998269176E+04  0.13998269176E+04  0.50400001928E-02 0. -1.
    10030    2    1    2    0    0  0.00000000000E+00  0.00000000000E+00 -0.95162095170E+02  0.27044917400E+04  0.27028170022E+04 0.  0.
        4    1    3    3  502    0  0.12544169219E+04  0.16286333842E+03  0.42833645601E+03  0.13354999114E+04  0.12699999809E+01 0.  1.
       -4    1    3    3    0  502 -0.12544169219E+04 -0.16286333842E+03 -0.52349855118E+03  0.13689918286E+04  0.12699999809E+01 0. -1.
</event>
<event>
 5   0  0.7335091E-07  0.2698785E+04  0.7818609E-02  0.8335399E-01
       -1   -1    0    0    0  501  0.00000000000E+00  0.00000000000E+00  0.84261885440E+03  0.84261885442E+03  0.50400001928E-02 0. -1.
        1   -1    0    0  501    0  0.00000000000E+00  0.00000000000E+00 -0.21609531895E+04  0.21609531895E+04  0.50400001928E-02 0.  1.
    10030    2    1    2    0    0  0.00000000000E+00  0.00000000000E+00 -0.13183343350E+04  0.30035720439E+04  0.26987848384E+04 0.  0.
        3    1    3    3  502    0 -0.92696260022E+03 -0.56660216409E+03 -0.15499061326E+04  0.18927510942E+04  0.10100000352E+00 0.  1.
       -3    1    3    3    0  502  0.92696260022E+03  0.56660216409E+03  0.23157179756E+03  0.11108209497E+04  0.10100000352E+00 0. -1.
</event>
<event>
 5   0  0.2030645E-06  0.2638166E+04  0.7818609E-02  0.8355351E-01
       -2   -1    0    0    0  501  0.00000000000E+00  0.00000000000E+00  0.13169433087E+04  0.13169433087E+04  0.25500000920E-02 0.  1.
        2   -1    0    0  501    0  0.00000000000E+00  0.00000000000E+00 -0.13212263636E+04  0.13212263636E+04  0.25500000920E-02 0. -1.
    10030    2    1    2    0    0  0.00000000000E+00  0.00000000000E+00 -0.42830548233E+01  0.26381696723E+04  0.26381661955E+04 0.  0.
        1    1    3    3  502    0  0.31713168140E+03 -0.96431977868E+02  0.12746172147E+04  0.13170120249E+04  0.50400001928E-02 0.  1.
       -1    1    3    3    0  502 -0.31713168140E+03  0.96431977868E+02 -0.12789002696E+04  0.13211576474E+04  0.50400001928E-02 0. -1.
</event>
<event>
 5   0  0.7566905E-07  0.2693516E+04  0.7818609E-02  0.8337112E-01
        1   -1    0    0  501    0  0.00000000000E+00  0.00000000000E+00  0.24727492016E+04  0.24727492016E+04  0.50400001928E-02 0. -1.
       -1   -1    0    0    0  501  0.00000000000E+00  0.00000000000E+00 -0.73349825148E+03  0.73349825150E+03  0.50400001928E-02 0.  1.
    10030    2    1    2    0    0  0.00000000000E+00  0.00000000000E+00  0.17392509501E+04  0.32062474531E+04  0.26935160781E+04 0.  0.
        1    1    3    3  502    0  0.71287798362E+01 -0.10202763984E+04  0.19160185462E+04  0.21707468342E+04  0.50400001928E-02 0. -1.
       -1    1    3    3    0  502 -0.71287798362E+01  0.10202763984E+04 -0.17676759611E+03  0.10355006189E+04  0.50400001928E-02 0.  1.
</event>
<event>
 5   0  0.2063087E-06  0.2689008E+04  0.7818609E-02  0.8338580E-01
       -2   -1    0    0    0  501  0.00000000000E+00  0.00000000000E+00  0.13146377212E+04  0.13146377212E+04  0.25500000920E-02 0. -1.
        2   -1    0    0  501    0  0.00000000000E+00  0.00000000000E+00 -0.13750483614E+04  0.13750483614E+04  0.25500000920E-02 0.  1.
    10030    2    1    2    0    0  0.00000000000E+00  0.00000000000E+00 -0.60410640220E+02  0.26896860827E+04  0.26890075823E+04 0.  0.
        3    1    3    3  502    0  0.88853466537E+03 -0.96897646983E+03  0.25143487181E+03  0.13385173722E+04  0.10100000352E+00 0. -1.
       -3    1    3    3    0  502 -0.88853466537E+03  0.96897646983E+03 -0.31184551203E+03  0.13511687105E+04  0.10100000352E+00 0.  1.
</event>
<event>
 5   0  0.2063087E-06  0.2699228E+04  0.7818609E-02  0.8335256E-01
        2   -1    0    0  501    0  0.00000000000E+00  0.00000000000E+00  0.12152687234E+04  0.12152687234E+04  0.25500000920E-02 0. -1.
       -2   -1    0    0    0  501  0.00000000000E+00  0.00000000000E+00 -0.14988104444E+04  0.14988104444E+04  0.25500000920E-02 0.  1.
    10030    2    1    2    0    0  0.00000000000E+00  0.00000000000E+00 -0.28354172099E+03  0.27140791678E+04  0.26992276342E+04 0.  0.
        3    1    3    3  502    0  0.11241166254E+04 -0.19205937820E+03  0.58395685148E+03  0.12812223097E+04  0.10100000352E+00 0. -1.
       -3    1    3    3    0  502 -0.11241166254E+04  0.19205937820E+03 -0.86749857248E+03  0.14328568581E+04  0.10100000352E+00 0.  1.
</event>
<event>
 5   0  0.1999104E-06  0.2701349E+04  0.7818609E-02  0.8334567E-01
       -2   -1    0    0    0  501  0.00000000000E+00  0.00000000000E+00  0.13348767338E+04  0.13348767338E+04  0.25500000920E-02 0.  1.
        2   -1    0    0  501    0  0.00000000000E+00  0.00000000000E+00 -0.13666593350E+04  0.13666593350E+04  0.25500000920E-02 0. -1.
    10030    2    1    2    0    0  0.00000000000E+00  0.00000000000E+00 -0.31782601253E+02  0.27015360688E+04  0.27013491069E+04 0.  0.
        4    1    3    3  502    0 -0.22073153202E+03  0.80985282031E+02  0.13142530495E+04  0.13351193640E+04  0.12699999809E+01 0.  1.
       -4    1    3    3    0  502  0.22073153202E+03 -0.80985282031E+02 -0.13460356508E+04  0.13664167048E+04  0.12699999809E+01 0. -1.
</event>
<event>
 5   0  0.7335091E-07  0.2705856E+04  0.7818609E-02  0.8333107E-01
        1   -1    0    0  501    0  0.00000000000E+00  0.00000000000E+00  0.14911874131E+04  0.14911874131E+04  0.50400001928E-02 0. -1.
       -1   -1    0    0    0  501  0.00000000000E+00  0.00000000000E+00 -0.12274880289E+04  0.12274880290E+04  0.50400001928E-02 0.  1.
    10030    2    1    2    0    0  0.00000000000E+00  0.00000000000E+00  0.26369938413E+03  0.27186754420E+04  0.27058563883E+04 0.  0.
        3    1    3    3  502    0  0.63214150475E+02  0.12785711744E+04 -0.30803078804E+03  0.13166712777E+04  0.10100000352E+00 0.  1.
       -3    1    3    3    0  502 -0.63214150475E+02 -0.12785711744E+04  0.57173017216E+03  0.14020041644E+04  0.10100000352E+00 0. -1.
</event>
<event>
 5   0  0.1999104E-06  0.2728228E+04  0.7818609E-02  0.8325904E-01
        2   -1    0    0  501    0  0.00000000000E+00  0.00000000000E+00  0.18588635994E+04  0.18588635994E+04  0.25500000920E-02 0. -1.
       -2   -1    0    0    0  501  0.00000000000E+00  0.00000000000E+00 -0.10010452524E+04  0.10010452524E+04  0.25500000920E-02 0.  1.
    10030    2    1    2    0    0  0.00000000000E+00  0.00000000000E+00  0.85781834697E+03  0.28599088518E+04  0.27282276892E+04 0.  0.
        4    1    3    3  502    0  0.18617971356E+03 -0.10291098674E+04 -0.48919187540E+03  0.11545736481E+04  0.12699999809E+01 0.  1.
       -4    1    3    3    0  502 -0.18617971356E+03  0.10291098674E+04  0.13470102224E+04  0.17053352037E+04  0.12699999809E+01 0. -1.
</event>
<event>
 5   0  0.7806808E-07  0.2702179E+04  0.7818609E-02  0.8334298E-01
       -1   -1    0    0    0  501  0.00000000000E+00  0.00000000000E+00  0.10742677852E+04  0.10742677852E+04  0.50400001928E-02 0. -1.
        1   -1    0    0  501    0  0.00000000000E+00  0.00000000000E+00 -0.16992436008E+04  0.16992436008E+04  0.50400001928E-02 0.  1.
    10030    2    1    2    0    0  0.00000000000E+00  0.00000000000E+00 -0.62497581560E+03  0.27735113859E+04  0.27021788686E+04 0.  0.
        5    1    3    3  502    0  0.45147219075E+03 -0.37708793173E+03 -0.15609012206E+04  0.16680698900E+04  0.46999998093E+01 0.  1.
       -5    1    3    3    0  502 -0.45147219075E+03  0.37708793173E+03  0.93592540502E+03  0.11054414960E+04  0.46999998093E+01 0. -1.
</event>
<event>
 5   0  0.2030645E-06  0.2640216E+04  0.7818609E-02  0.8354668E-01
        2   -1    0    0  501    0  0.00000000000E+00  0.00000000000E+00  0.15965503831E+04  0.15965503831E+04  0.25500000920E-02 0. -1.
       -2   -1    0    0    0  501  0.00000000000E+00  0.00000000000E+00 -0.10915311783E+04  0.10915311783E+04  0.25500000920E-02 0.  1.
    10030    2    1    2    0    0  0.00000000000E+00  0.00000000000E+00  0.50501920488E+03  0.26880815614E+04  0.26402155373E+04 0.  0.
        1    1    3    3  502    0 -0.11424257022E+04  0.35565913016E+03 -0.31532438937E+03  0.12373598395E+04  0.50400001928E-02 0.  1.
       -1    1    3    3    0  502  0.11424257022E+04 -0.35565913016E+03  0.82034359425E+03  0.14507217219E+04  0.50400001928E-02 0. -1.
</event>
<event>
 5   0  0.7436613E-07  0.2702363E+04  0.7818609E-02  0.8334239E-01
        1   -1    0    0  501    0  0.00000000000E+00  0.00000000000E+00  0.27404249283E+04  0.27404249283E+04  0.50400001928E-02 0.  1.
       -1   -1    0    0    0  501  0.00000000000E+00  0.00000000000E+00 -0.66620746369E+03  0.66620746371E+03  0.50400001928E-02 0. -1.
    10030    2    1    2    0    0  0.00000000000E+00  0.00000000000E+00  0.20742174646E+04  0.34066323920E+04  0.27023630703E+04 0.  0.
        2    1    3    3  502    0  0.12452382439E+03 -0.13207965395E+04  0.13601844320E+04  0.19000293079E+04  0.25500000920E-02 0. -1.
       -2    1    3    3    0  502 -0.12452382439E+03  0.13207965395E+04  0.71403303260E+03  0.15066030842E+04  0.25500000920E-02 0.  1.
</event>
<event>
 5   0  0.1991277E-06  0.2680178E+04  0.7818609E-02  0.8341465E-01
       -2   -1    0    0    0  501  0.00000000000E+00  0.00000000000E+00  0.13218941326E+04  0.13218941326E+04  0.25500000920E-02 0. -1.
        2   -1    0    0  501    0  0.00000000000E+00  0.00000000000E+00 -0.13585342530E+04  0.13585342530E+04  0.25500000920E-02 0.  1.
    10030    2    1    2    0    0  0.00000000000E+00  0.00000000000E+00 -0.36640120436E+02  0.26804283856E+04  0.26801779478E+04 0.  0.
        5    1    3    3  502    0 -0.37375824455E+02 -0.11011447386E+04  0.74457471084E+03  0.13297858014E+04  0.46999998093E+01 0. -1.
       -5    1    3    3    0  502  0.37375824455E+02  0.11011447386E+04 -0.78121483128E+03  0.13506425842E+04  0.46999998093E+01 0.  1.
</event>
<event>
 5   0  0.7335091E-07  0.2700461E+04  0.7818609E-02  0.8334856E-01
        1   -1    0    0  501    0  0.00000000000E+00  0.00000000000E+00  0.23430487251E+04  0.23430487251E+04  0.50400001928E-02 0.  1.
       -1   -1    0    0    0  501  0.00000000000E+00  0.00000000000E+00 -0.77809811440E+03  0.77809811442E+03  0.50400001928E-02 0. -1.
    10030    2    1    2    0    0  0.00000000000E+00  0.00000000000E+00  0.15649506107E+04  0.31211468396E+04  0.27004605496E+04 0.  0.
        3    1    3    3  502    0 -0.24650251529E+03 -0.35512658513E+03 -0.69595316901E+03  0.81928578968E+03  0.10100000352E+00 0. -1.
       -3    1    3    3    0  502  0.24650251529E+03  0.35512658513E+03  0.22609037797E+04  0.23018610499E+04  0.10100000352E+00 0.  1.
</event>
<event>
 5   0  0.7335091E-07  0.2699522E+04  0.7818609E-02  0.8335160E-01
        1   -1    0    0  501    0  0.00000000000E+00  0.00000000000E+00  0.13743370733E+04  0.13743370733E+04  0.50400001928E-02 0. -1.
       -1   -1    0    0    0  501  0.00000000000E+00  0.00000000000E+00 -0.13256248320E+04  0.13256248320E+04  0.50400001928E-02 0.  1.
    10030    2    1    2    0    0  0.00000000000E+00  0.00000000000E+00  0.48712241228E+02  0.26999619053E+04  0.26995224407E+04 0.  0.
        3    1    3    3  502    0  0.31136150889E+03 -0.41884877681E+03 -0.12206256401E+04  0.13275192091E+04  0.10100000352E+00 0.  1.
       -3    1    3    3    0  502 -0.31136150889E+03  0.41884877681E+03  0.12693378814E+04  0.13724426962E+04  0.10100000352E+00 0. -1.
</event>
<event>
 5   0  0.7335091E-07  0.2704579E+04  0.7818609E-02  0.8333521E-01
       -1   -1    0    0    0  501  0.00000000000E+00  0.00000000000E+00  0.13623214123E+04  0.13623214123E+04  0.50400001928E-02 0.  1.
        1   -1    0    0  501    0  0.00000000000E+00  0.00000000000E+00 -0.13423312963E+04  0.13423312964E+04  0.50400001928E-02 0. -1.
    10030    2    1    2    0    0  0.00000000000E+00  0.00000000000E+00  0.19990115984E+02  0.27046527087E+04  0.27045788341E+04 0.  0.
        3    1    3    3  502    0 -0.61676907396E+03 -0.11619659376E+04 -0.30325099037E+03  0.13500111496E+04  0.10100000352E+00 0. -1.
       -3    1    3    3    0  502  0.61676907396E+03  0.11619659376E+04  0.32324110635E+03  0.13546415591E+04  0.10100000352E+00 0.  1.
</event>
<event>
 5   0  0.7768032E-07  0.2694409E+04  0.7818609E-02  0.8336821E-01
       -1   -1    0    0    0  501  0.00000000000E+00  0.00000000000E+00  0.13706421557E+04  0.13706421557E+04  0.50400001928E-02 0.  1.
        1   -1    0    0  501    0  0.00000000000E+00  0.00000000000E+00 -0.13241672728E+04  0.13241672728E+04  0.50400001928E-02 0. -1.
    10030    2    1    2    0    0  0.00000000000E+00  0.00000000000E+00  0.46474882831E+02  0.26948094285E+04  0.26944086441E+04 0.  0.
        4    1    3    3  502    0 -0.33079131083E+03 -0.12664070023E+04 -0.29579007678E+03  0.13419027421E+04  0.12699999809E+01 0.  1.
       -4    1    3    3    0  502  0.33079131083E+03  0.12664070023E+04  0.34226495961E+03  0.13529066864E+04  0.12699999809E+01 0. -1.
</event>
<event>
 5   0  0.7806808E-07  0.2699929E+04  0.7818609E-02  0.8335028E-01
        1   -1    0    0  501    0  0.00000000000E+00  0.00000000000E+00  0.25862809344E+04  0.25862809344E+04  0.50400001928E-02 0.  1.
       -1   -1    0    0    0  501  0.00000000000E+00  0.00000000000E+00 -0.70464251951E+03  0.70464251952E+03  0.50400001928E-02 0. -1.
    10030    2    1    2    0    0  0.00000000000E+00  0.00000000000E+00  0.18816384149E+04  0.32909234539E+04  0.26999285278E+04 0.  0.
        5    1    3    3  502    0  0.40190689418E+03  0.63582896064E+03 -0.42552309395E+03  0.86423354035E+03  0.46999998093E+01 0. -1.
       -5    1    3    3    0  502 -0.40190689418E+03 -0.63582896064E+03  0.23071615088E+04  0.24266899135E+04  0.46999998093E+01 0.  1.
</event>
<event>
 5   0  0.6561875E-07  0.2698583E+04  0.7818609E-02  0.8335465E-01
       -4   -1    0    0    0  501  0.00000000000E+00  0.00000000000E+00  0.16068894509E+04  0.16068899527E+04  0.12699999809E+01 0. -1.
        4   -1    0    0  501    0  0.00000000000E+00  0.00000000000E+00 -0.11329880257E+04  0.11329887375E+04  0.12699999809E+01 0.  1.
    10030    2    1    2    0    0  0.00000000000E+00  0.00000000000E+00  0.47390142516E+03  0.27398786903E+04  0.26985834574E+04 0.  0.
        2    1    3    3  502    0  0.87850474495E+03  0.10058419133E+04  0.43251081537E+03  0.14037642775E+04  0.25500000920E-02 0. -1.
       -2    1    3    3    0  502 -0.87850474495E+03 -0.10058419133E+04  0.41390609790E+02  0.13361144128E+04  0.25500000920E-02 0.  1.
</event>
<event>
 5   0  0.6561875E-07  0.2697323E+04  0.7818609E-02  0.8335874E-01
        3   -1    0    0  501    0  0.00000000000E+00  0.00000000000E+00  0.18090775816E+04  0.18090775844E+04  0.10100000352E+00 0. -1.
       -3   -1    0    0    0  501  0.00000000000E+00  0.00000000000E+00 -0.10054224304E+04  0.10054224355E+04  0.10100000352E+00 0.  1.
    10030    2    1    2    0    0  0.00000000000E+00  0.00000000000E+00  0.80365515116E+03  0.28145000198E+04  0.26973225168E+04 0.  0.
        4    1    3    3  502    0 -0.85119689098E+02 -0.46546747359E+03  0.17196170447E+04  0.17835329332E+04  0.12699999809E+01 0. -1.
       -4    1    3    3    0  502  0.85119689098E+02  0.46546747359E+03 -0.91596189354E+03  0.10309670867E+04  0.12699999809E+01 0.  1.
</event>
<event>
 5   0  0.2030645E-06  0.2733843E+04  0.7818609E-02  0.8324107E-01
        2   -1    0    0  501    0  0.00000000000E+00  0.00000000000E+00  0.18495224546E+04  0.18495224546E+04  0.25500000920E-02 0.  1.
       -2   -1    0    0    0  501  0.00000000000E+00  0.00000000000E+00 -0.10102470063E+04  0.10102470063E+04  0.25500000920E-02 0. -1.
    10030    2    1    2    0    0  0.00000000000E+00  0.00000000000E+00  0.83927544832E+03  0.28597694610E+04  0.27338430993E+04 0.  0.
        1    1    3    3  502    0  0.50482103787E+03  0.46106452621E+03  0.16578189536E+04  0.17932619609E+04  0.50400001928E-02 0.  1.
       -1    1    3    3    0  502 -0.50482103787E+03 -0.46106452621E+03 -0.81854350527E+03  0.10665075000E+04  0.50400001928E-02 0. -1.
</event>
<event>
 5   0  0.7566905E-07  0.2696785E+04  0.7818609E-02  0.8336049E-01
       -1   -1    0    0    0  501  0.00000000000E+00  0.00000000000E+00  0.16942756068E+04  0.16942756068E+04  0.50400001928E-02 0.  1.
        1   -1    0    0  501    0  0.00000000000E+00  0.00000000000E+00 -0.10731207442E+04  0.10731207442E+04  0.50400001928E-02 0. -1.
    10030    2    1    2    0    0  0.00000000000E+00  0.00000000000E+00  0.62115486255E+03  0.27673963510E+04  0.26967849748E+04 0.  0.
        1    1    3    3  502    0 -0.30351351108E+03  0.80677992704E+03  0.13746204078E+04  0.16225275245E+04  0.50400001928E-02 0.  1.
       -1    1    3    3    0  502  0.30351351108E+03 -0.80677992704E+03 -0.75346554526E+03  0.11448688265E+04  0.50400001928E-02 0. -1.
</event>
<event>
 5   0  0.1999104E-06  0.2699136E+04  0.7818609E-02  0.8335285E-01
        2   -1    0    0  501    0  0.00000000000E+00  0.00000000000E+00  0.19144947468E+04  0.19144947468E+04  0.25500000920E-02 0. -1.
       -2   -1    0    0    0  501  0.00000000000E+00  0.00000000000E+00 -0.95133920132E+03  0.95133920132E+03  0.25500000920E-02 0.  1.
    10030    2    1    2    0    0  0.00000000000E+00  0.00000000000E+00  0.96315554550E+03  0.28658339482E+04  0.26991360865E+04 0.  0.
        4    1    3    3  502    0 -0.36844347390E+03  0.10582188873E+04  0.12801978857E+04  0.17013189138E+04  0.12699999809E+01 0. -1.
       -4    1    3    3    0  502  0.36844347390E+03 -0.10582188873E+04 -0.31704234018E+03  0.11645150344E+04  0.12699999809E+01 0.  1.
</event>
<event>
 5   0  0.2063087E-06  0.2696989E+04  0.7818609E-02  0.8335983E-01
       -2   -1    0    0    0  501  0.00000000000E+00  0.00000000000E+00  0.94851314364E+03  0.94851314365E+03  0.25500000920E-02 0. -1.
        2   -1    0    0  501    0  0.00000000000E+00  0.00000000000E+00 -0.19171451083E+04  0.19171451083E+04  0.25500000920E-02 0.  1.
    10030    2    1    2    0    0  0.00000000000E+00  0.00000000000E+00 -0.96863196461E+03  0.28656582519E+04  0.26969889384E+04 0.  0.
        3    1    3    3  502    0 -0.66864800079E+03  0.11020670468E+04 -0.63577836824E+02  0.12906138370E+04  0.10100000352E+00 0. -1.
       -3    1    3    3    0  502  0.66864800079E+03 -0.11020670468E+04 -0.90505412779E+03  0.15750444149E+04  0.10100000352E+00 0.  1.
</event>
<event>
 5   0  0.7335091E-07  0.2686623E+04  0.7818609E-02  0.8339358E-01
       -1   -1    0    0    0  501  0.00000000000E+00  0.00000000000E+00  0.12195229294E+04  0.12195229294E+04  0.50400001928E-02 0. -1.
        1   -1    0    0  501    0  0.00000000000E+00  0.00000000000E+00 -0.14796652296E+04  0.14796652296E+04  0.50400001928E-02 0.  1.
    10030    2    1    2    0    0  0.00000000000E+00  0.00000000000E+00 -0.26014230023E+03  0.26991881591E+04  0.26866229176E+04 0.  0.
        3    1    3    3  502    0  0.12644969619E+04 -0.23038635435E+03 -0.52235244777E+03  0.13874013583E+04  0.10100000352E+00 0. -1.
       -3    1    3    3    0  502 -0.12644969619E+04  0.23038635435E+03  0.26221014754E+03  0.13117868008E+04  0.10100000352E+00 0.  1.
</event>
<event>
 5   0  0.7806808E-07  0.2696606E+04  0.7818609E-02  0.8336107E-01
       -1   -1    0    0    0  501  0.00000000000E+00  0.00000000000E+00  0.73659360454E+03  0.73659360456E+03  0.50400001928E-02 0. -1.
        1   -1    0    0  501    0  0.00000000000E+00  0.00000000000E+00 -0.24680105519E+04  0.24680105519E+04  0.50400001928E-02 0.  1.
    10030    2    1    2    0    0  0.00000000000E+00  0.00000000000E+00 -0.17314169474E+04  0.32046041565E+04  0.26966058581E+04 0.  0.
        5    1    3    3  502    0  0.45144892255E+03 -0.11914048922E+03 -0.23688611037E+04  0.24144410542E+04  0.46999998093E+01 0.  1.
       -5    1    3    3    0  502 -0.45144892255E+03  0.11914048922E+03  0.63744415627E+03  0.79016310228E+03  0.46999998093E+01 0. -1.
</event>
<event>
 5   0  0.7768032E-07  0.2695626E+04  0.7818609E-02  0.8336426E-01
        1   -1    0    0  501    0  0.00000000000E+00  0.00000000000E+00  0.20542719601E+04  0.20542719601E+04  0.50400001928E-02 0.  1.
       -1   -1    0    0    0  501  0.00000000000E+00  0.00000000000E+00 -0.88430329311E+03  0.88430329312E+03  0.50400001928E-02 0. -1.
    10030    2    1    2    0    0  0.00000000000E+00  0.00000000000E+00  0.11699686670E+04  0.29385752532E+04  0.26956256856E+04 0.  0.
        4    1    3    3  502    0 -0.79161573704E+03 -0.72959775381E+03 -0.29904743201E+03  0.11173179212E+04  0.12699999809E+01 0. -1.
       -4    1    3    3    0  502  0.79161573704E+03  0.72959775381E+03  0.14690160990E+04  0.18212573320E+04  0.12699999809E+01 0.  1.
</event>
<event>
 5   0  0.1991277E-06  0.2701068E+04  0.7818609E-02  0.8334659E-01
        2   -1    0    0  501    0  0.00000000000E+00  0.00000000000E+00  0.15869381845E+04  0.15869381845E+04  0.25500000920E-02 0. -1.
       -2   -1    0    0    0  501  0.00000000000E+00  0.00000000000E+00 -0.11493466847E+04  0.11493466848E+04  0.25500000920E-02 0.  1.
    10030    2    1    2    0    0  0.00000000000E+00  0.00000000000E+00  0.43759149973E+03  0.27362848692E+04  0.27010680415E+04 0.  0.
        5    1    3    3  502    0  0.12106874396E+04  0.14781137342E+03  0.80627730646E+03  0.14620935207E+04  0.46999998093E+01 0. -1.
       -5    1    3    3    0  502 -0.12106874396E+04 -0.14781137342E+03 -0.36868580674E+03  0.12741913485E+04  0.46999998093E+01 0.  1.
</event>
<event>
 5   0  0.1932012E-06  0.2699691E+04  0.7818609E-02  0.8335105E-01
       -2   -1    0    0    0  501  0.00000000000E+00  0.00000000000E+00  0.13245713353E+04  0.13245713353E+04  0.25500000920E-02 0. -1.
        2   -1    0    0  501    0  0.00000000000E+00  0.00000000000E+00 -0.13756023426E+04  0.13756023426E+04  0.25500000920E-02 0.  1.
    10030    2    1    2    0    0  0.00000000000E+00  0.00000000000E+00 -0.51031007299E+02  0.27001736779E+04  0.26996914133E+04 0.  0.
        2    1    3    3  502    0 -0.40959287966E+03 -0.42876263132E+03 -0.12383655033E+04  0.13730086820E+04  0.25500000920E-02 0.  1.
       -2    1    3    3    0  502  0.40959287966E+03  0.42876263132E+03  0.11873344960E+04  0.13271649959E+04  0.25500000920E-02 0. -1.
</event>
<event>
 5   0  0.2063087E-06  0.2699958E+04  0.7818609E-02  0.8335018E-01
        2   -1    0    0  501    0  0.00000000000E+00  0.00000000000E+00  0.23803511101E+04  0.23803511101E+04  0.25500000920E-02 0.  1.
       -2   -1    0    0    0  501  0.00000000000E+00  0.00000000000E+00 -0.76561979729E+03  0.76561979729E+03  0.25500000920E-02 0. -1.
    10030    2    1    2    0    0  0.00000000000E+00  0.00000000000E+00  0.16147313128E+04  0.31459709074E+04  0.26999584696E+04 0.  0.
        3    1    3    3  502    0  0.58700973512E+03  0.65538224377E+03 -0.38565565438E+03  0.96064385103E+03  0.10100000352E+00 0. -1.
       -3    1    3    3    0  502 -0.58700973512E+03 -0.65538224377E+03  0.20003869672E+04  0.21853270564E+04  0.10100000352E+00 0.  1.
</event>
<event>
 5   0  0.1932012E-06  0.2699758E+04  0.7818609E-02  0.8335083E-01
        2   -1    0    0  501    0  0.00000000000E+00  0.00000000000E+00  0.19491970860E+04  0.19491970860E+04  0.25500000920E-02 0. -1.
       -2   -1    0    0    0  501  0.00000000000E+00  0.00000000000E+00 -0.93483278156E+03  0.93483278156E+03  0.25500000920E-02 0.  1.
    10030    2    1    2    0    0  0.00000000000E+00  0.00000000000E+00  0.10143643044E+04  0.28840298675E+04  0.26997580141E+04 0.  0.
        2    1    3    3  502    0 -0.40209623934E+03  0.26900771390E+02 -0.86907201524E+03  0.95796200596E+03  0.25500000920E-02 0.  1.
       -2    1    3    3    0  502  0.40209623934E+03 -0.26900771390E+02  0.18834363197E+04  0.19260678616E+04  0.25500000920E-02 0. -1.
</event>
<event>
 5   0  0.2063087E-06  0.2711439E+04  0.7818609E-02  0.8331303E-01
       -2   -1    0    0    0  501  0.00000000000E+00  0.00000000000E+00  0.16848186194E+04  0.16848186194E+04  0.25500000920E-02 0.  1.
        2   -1    0    0  501    0  0.00000000000E+00  0.00000000000E+00 -0.10909041511E+04  0.10909041511E+04  0.25500000920E-02 0. -1.
    10030    2    1    2    0    0  0.00000000000E+00  0.00000000000E+00  0.59391446829E+03  0.27757227704E+04  0.27114391940E+04 0.  0.
        3    1    3    3  502    0  0.15237582605E+03 -0.13469805314E+04  0.31744856870E+03  0.13922458649E+04  0.10100000352E+00 0. -1.
       -3    1    3    3    0  502 -0.15237582605E+03  0.13469805314E+04  0.27646589960E+03  0.13834769055E+04  0.10100000352E+00 0.  1.
</event>
<event>
 5   0  0.1991277E-06  0.2700960E+04  0.7818609E-02  0.8334694E-01
       -2   -1    0    0    0  501  0.00000000000E+00  0.00000000000E+00  0.15467343934E+04  0.15467343934E+04  0.25500000920E-02 0.  1.
        2   -1    0    0  501    0  0.00000000000E+00  0.00000000000E+00 -0.11791269159E+04  0.11791269159E+04  0.25500000920E-02 0. -1.
    10030    2    1    2    0    0  0.00000000000E+00  0.00000000000E+00  0.36760747750E+03  0.27258613093E+04  0.27009599442E+04 0.  0.
        5    1    3    3  502    0 -0.42450526848E+03 -0.12786625309E+04  0.90258980294E+02  0.13503152833E+04  0.46999998093E+01 0.  1.
       -5    1    3    3    0  502  0.42450526848E+03  0.12786625309E+04  0.27734849721E+03  0.13755460260E+04  0.46999998093E+01 0. -1.
</event>
<event>
 5   0  0.1999104E-06  0.2700578E+04  0.7818609E-02  0.8334817E-01
       -2   -1    0    0    0  501  0.00000000000E+00  0.00000000000E+00  0.87176977942E+03  0.87176977943E+03  0.25500000920E-02 0. -1.
        2   -1    0    0  501    0  0.00000000000E+00  0.00000000000E+00 -0.20914699751E+04  0.20914699752E+04  0.25500000920E-02 0.  1.
    10030    2    1    2    0    0  0.00000000000E+00  0.00000000000E+00 -0.12197001957E+04  0.29632397546E+04  0.27005779522E+04 0.  0.
        4    1    3    3  502    0 -0.97532221250E+03 -0.54499897949E+03  0.22219051439E+03  0.11391433375E+04  0.12699999809E+01 0. -1.
       -4    1    3    3    0  502  0.97532221250E+03  0.54499897949E+03 -0.14418907101E+04  0.18240964170E+04  0.12699999809E+01 0.  1.
</event>
<event>
 5   0  0.1999104E-06  0.2705843E+04  0.7818609E-02  0.8333111E-01
        2   -1    0    0  501    0  0.00000000000E+00  0.00000000000E+00  0.12812340409E+04  0.12812340409E+04  0.25500000920E-02 0.  1.
       -2   -1    0    0    0  501  0.00000000000E+00  0.00000000000E+00 -0.14286203985E+04  0.14286203985E+04  0.25500000920E-02 0. -1.
    10030    2    1    2    0    0  0.00000000000E+00  0.00000000000E+00 -0.14738635762E+03  0.27098544394E+04  0.27058433702E+04 0.  0.
        4    1    3    3  502    0  0.56354191746E+03  0.67989698879E+02  0.11562125516E+04  0.12880338385E+04  0.12699999809E+01 0.  1.
       -4    1    3    3    0  502 -0.56354191746E+03 -0.67989698879E+02 -0.13035989092E+04  0.14218206008E+04  0.12699999809E+01 0. -1.
</event>
<event>
 5   0  0.7566905E-07  0.2695914E+04  0.7818609E-02  0.8336332E-01
       -1   -1    0    0    0  501  0.00000000000E+00  0.00000000000E+00  0.89986070839E+03  0.89986070840E+03  0.50400001928E-02 0. -1.
        1   -1    0    0  501    0  0.00000000000E+00  0.00000000000E+00 -0.20191887253E+04  0.20191887253E+04  0.50400001928E-02 0.  1.
    10030    2    1    2    0    0  0.00000000000E+00  0.00000000000E+00 -0.11193280169E+04  0.29190494337E+04  0.26959143879E+04 0.  0.
        1    1    3    3  502    0 -0.72472632543E+03 -0.11330509190E+04 -0.65624280393E+03  0.14965584684E+04  0.50400001928E-02 0.  1.
       -1    1    3    3    0  502  0.72472632543E+03  0.11330509190E+04 -0.46308521297E+03  0.14224909653E+04  0.50400001928E-02 0. -1.
</event>
<event>
 5   0  0.1932012E-06  0.2696192E+04  0.7818609E-02  0.8336241E-01
       -2   -1    0    0    0  501  0.00000000000E+00  0.00000000000E+00  0.12717594289E+04  0.12717594289E+04  0.25500000920E-02 0.  1.
        2   -1    0    0  501    0  0.00000000000E+00  0.00000000000E+00 -0.14290151382E+04  0.14290151382E+04  0.25500000920E-02 0. -1.
    10030    2    1    2    0    0  0.00000000000E+00  0.00000000000E+00 -0.15725570932E+03  0.27007745671E+04  0.26961924828E+04 0.  0.
        2    1    3    3  502    0  0.10693827924E+04 -0.59451342361E+03  0.48831785615E+03  0.13173762167E+04  0.25500000920E-02 0.  1.
       -2    1    3    3    0  502 -0.10693827924E+04  0.59451342361E+03 -0.64557356547E+03  0.13833983505E+04  0.25500000920E-02 0. -1.
</event>
<event>
 5   0  0.7806808E-07  0.2696120E+04  0.7818609E-02  0.8336265E-01
       -1   -1    0    0    0  501  0.00000000000E+00  0.00000000000E+00  0.10725356030E+04  0.10725356030E+04  0.50400001928E-02 0. -1.
        1   -1    0    0  501    0  0.00000000000E+00  0.00000000000E+00 -0.16943634343E+04  0.16943634343E+04  0.50400001928E-02 0.  1.
    10030    2    1    2    0    0  0.00000000000E+00  0.00000000000E+00 -0.62182783124E+03  0.27668990373E+04  0.26961195135E+04 0.  0.
        5    1    3    3  502    0 -0.84580463560E+03 -0.97508367230E+03 -0.70979402383E+03  0.14730931049E+04  0.46999998093E+01 0. -1.
       -5    1    3    3    0  502  0.84580463560E+03  0.97508367230E+03  0.87966192593E+02  0.12938059324E+04  0.46999998093E+01 0.  1.
</event>
<event>
 5   0  0.7566905E-07  0.2701738E+04  0.7818609E-02  0.8334441E-01
        1   -1    0    0  501    0  0.00000000000E+00  0.00000000000E+00  0.11187732380E+04  0.11187732380E+04  0.50400001928E-02 0.  1.
       -1   -1    0    0    0  501  0.00000000000E+00  0.00000000000E+00 -0.16311141837E+04  0.16311141837E+04  0.50400001928E-02 0. -1.
    10030    2    1    2    0    0  0.00000000000E+00  0.00000000000E+00 -0.51234094570E+03  0.27498874217E+04  0.27017378828E+04 0.  0.
        1    1    3    3  502    0 -0.11498562166E+04  0.70330537747E+03 -0.34742954896E+03  0.13919465019E+04  0.50400001928E-02 0. -1.
       -1    1    3    3    0  502  0.11498562166E+04 -0.70330537747E+03 -0.16491139674E+03  0.13579409197E+04  0.50400001928E-02 0.  1.
</event>
<event>
 5   0  0.7806808E-07  0.2703005E+04  0.7818609E-02  0.8334031E-01
        1   -1    0    0  501    0  0.00000000000E+00  0.00000000000E+00  0.11235256588E+04  0.11235256588E+04  0.50400001928E-02 0. -1.
       -1   -1    0    0    0  501  0.00000000000E+00  0.00000000000E+00 -0.16257384831E+04  0.16257384831E+04  0.50400001928E-02 0.  1.
    10030    2    1    2    0    0  0.00000000000E+00  0.00000000000E+00 -0.50221282427E+03  0.27492641419E+04  0.27030049206E+04 0.  0.
        5    1    3    3  502    0 -0.10442849946E+04  0.70493661245E+03 -0.74842214874E+03  0.14654775946E+04  0.46999998093E+01 0.  1.
       -5    1    3    3    0  502  0.10442849946E+04 -0.70493661245E+03  0.24620932447E+03  0.12837865473E+04  0.46999998093E+01 0. -1.
</event>
<event>
 5   0  0.2030645E-06  0.2717730E+04  0.7818609E-02  0.8329275E-01
        2   -1    0    0  501    0  0.00000000000E+00  0.00000000000E+00  0.10393172173E+04  0.10393172173E+04  0.25500000920E-02 0. -1.
       -2   -1    0    0    0  501  0.00000000000E+00  0.00000000000E+00 -0.17766610156E+04  0.17766610156E+04  0.25500000920E-02 0.  1.
    10030    2    1    2    0    0  0.00000000000E+00  0.00000000000E+00 -0.73734379833E+03  0.28159782329E+04  0.27177302168E+04 0.  0.
        1    1    3    3  502    0  0.60661046264E+03  0.11324069772E+04 -0.82762068543E+03  0.15281615799E+04  0.50400001928E-02 0.  1.
       -1    1    3    3    0  502 -0.60661046264E+03 -0.11324069772E+04  0.90276887095E+02  0.12878166530E+04  0.50400001928E-02 0. -1.
</event>
<event>
 5   0  0.2063087E-06  0.2699783E+04  0.7818609E-02  0.8335075E-01
        2   -1    0    0  501    0  0.00000000000E+00  0.00000000000E+00  0.14006693321E+04  0.14006693321E+04  0.25500000920E-02 0. -1.
       -2   -1    0    0    0  501  0.00000000000E+00  0.00000000000E+00 -0.13009543466E+04  0.13009543466E+04  0.25500000920E-02 0.  1.
    10030    2    1    2    0    0  0.00000000000E+00  0.00000000000E+00  0.99714985507E+02  0.27016236787E+04  0.26997828473E+04 0.  0.
        3    1    3    3  502    0  0.53851957301E+03  0.12116319241E+04 -0.20359685847E+03  0.13414570217E+04  0.10100000352E+00 0. -1.
       -3    1    3    3    0  502 -0.53851957301E+03 -0.12116319241E+04  0.30331184398E+03  0.13601666570E+04  0.10100000352E+00 0.  1.
</event>
<event>
 5   0  0.1991277E-06  0.2758267E+04  0.7818609E-02  0.8316343E-01
        2   -1    0    0  501    0  0.00000000000E+00  0.00000000000E+00  0.23526973536E+04  0.23526973536E+04  0.25500000920E-02 0.  1.
       -2   -1    0    0    0  501  0.00000000000E+00  0.00000000000E+00 -0.80843775248E+03  0.80843775249E+03  0.25500000920E-02 0. -1.
    10030    2    1    2    0    0  0.00000000000E+00  0.00000000000E+00  0.15442596011E+04  0.31611351061E+04  0.27582671088E+04 0.  0.
        5    1    3    3  502    0  0.21524976165E+03  0.11008857036E+04 -0.14736724874E+03  0.11313801255E+04  0.46999998093E+01 0. -1.
       -5    1    3    3    0  502 -0.21524976165E+03 -0.11008857036E+04  0.16916268499E+04  0.20297549807E+04  0.46999998093E+01 0.  1.
</event>
<event>
 5   0  0.7806808E-07  0.2699704E+04  0.7818609E-02  0.8335101E-01
       -1   -1    0    0    0  501  0.00000000000E+00  0.00000000000E+00  0.17458079115E+04  0.17458079115E+04  0.50400001928E-02 0.  1.
        1   -1    0    0  501    0  0.00000000000E+00  0.00000000000E+00 -0.10437003554E+04  0.10437003554E+04  0.50400001928E-02 0. -1.
    10030    2    1    2    0    0  0.00000000000E+00  0.00000000000E+00  0.70210755611E+03  0.27895082668E+04  0.26997039376E+04 0.  0.
        5    1    3    3  502    0 -0.97642780365E+03 -0.93196932755E+03  0.36139491219E+03  0.13973569536E+04  0.46999998093E+01 0.  1.
       -5    1    3    3    0  502  0.97642780365E+03  0.93196932755E+03  0.34071264392E+03  0.13921513132E+04  0.46999998093E+01 0. -1.
</event>
<event>
 5   0  0.2063087E-06  0.2697272E+04  0.7818609E-02  0.8335890E-01
       -2   -1    0    0    0  501  0.00000000000E+00  0.00000000000E+00  0.86564927350E+03  0.86564927350E+03  0.25500000920E-02 0.  1.
        2   -1    0    0  501    0  0.00000000000E+00  0.00000000000E+00 -0.21011046043E+04  0.21011046043E+04  0.25500000920E-02 0. -1.
    10030    2    1    2    0    0  0.00000000000E+00  0.00000000000E+00 -0.12354553308E+04  0.29667538778E+04  0.26972724551E+04 0.  0.
        3    1    3    3  502    0 -0.57934307855E+03  0.11124538362E+04 -0.72603552142E+02  0.12563690645E+04  0.10100000352E+00 0.  1.
       -3    1    3    3    0  502  0.57934307855E+03 -0.11124538362E+04 -0.11628517787E+04  0.17103848133E+04  0.10100000352E+00 0. -1.
</event>
<event>
 5   0  0.1999104E-06  0.2699781E+04  0.7818609E-02  0.8335076E-01
       -2   -1    0    0    0  501  0.00000000000E+00  0.00000000000E+00  0.21664303518E+04  0.21664303518E+04  0.25500000920E-02 0.  1.
        2   -1    0    0  501    0  0.00000000000E+00  0.00000000000E+00 -0.84110917495E+03  0.84110917495E+03  0.25500000920E-02 0. -1.
    10030    2    1    2    0    0  0.00000000000E+00  0.00000000000E+00  0.13253211768E+04  0.30075395267E+04  0.26997810621E+04 0.  0.
        4    1    3    3  502    0  0.49085857520E+03  0.96904706608E+03 -0.23007081821E+03  0.11103731586E+04  0.12699999809E+01 0. -1.
       -4    1    3    3    0  502 -0.49085857520E+03 -0.96904706608E+03  0.15553919950E+04  0.18971663681E+04  0.12699999809E+01 0.  1.
</event>
<event>
 5   0  0.1991277E-06  0.2702457E+04  0.7818609E-02  0.8334208E-01
       -2   -1    0    0    0  501  0.00000000000E+00  0.00000000000E+00  0.12181191665E+04  0.12181191665E+04  0.25500000920E-02 0.  1.
        2   -1    0    0  501    0  0.00000000000E+00  0.00000000000E+00 -0.14988835466E+04  0.14988835466E+04  0.25500000920E-02 0. -1.
    10030    2    1    2    0    0  0.00000000000E+00  0.00000000000E+00 -0.28076438005E+03  0.27170027131E+04  0.27024572348E+04 0.  0.
        5    1    3    3  502    0 -0.88331932716E+03 -0.82195878729E+03 -0.75187238084E+03  0.14216903491E+04  0.46999998093E+01 0. -1.
       -5    1    3    3    0  502  0.88331932716E+03  0.82195878729E+03  0.47110800079E+03  0.12953123639E+04  0.46999998093E+01 0.  1.
</event>
<event>
 5   0  0.7806808E-07  0.2700525E+04  0.7818609E-02  0.8334834E-01
        1   -1    0    0  501    0  0.00000000000E+00  0.00000000000E+00  0.22086048415E+04  0.22086048415E+04  0.50400001928E-02 0.  1.
       -1   -1    0    0    0  501  0.00000000000E+00  0.00000000000E+00 -0.82550277428E+03  0.82550277430E+03  0.50400001928E-02 0. -1.
    10030    2    1    2    0    0  0.00000000000E+00  0.00000000000E+00  0.13831020672E+04  0.30341076158E+04  0.27005254481E+04 0.  0.
        5    1    3    3  502    0  0.10942184687E+04  0.62726882258E+03  0.12331868852E+04  0.17639592446E+04  0.46999998093E+01 0.  1.
       -5    1    3    3    0  502 -0.10942184687E+04 -0.62726882258E+03  0.14991518200E+03  0.12701483711E+04  0.46999998093E+01 0. -1.
</event>
<event>
 5   0  0.2063087E-06  0.2653923E+04  0.7818609E-02  0.8350112E-01
        2   -1    0    0  501    0  0.00000000000E+00  0.00000000000E+00  0.22402992664E+04  0.22402992664E+04  0.25500000920E-02 0.  1.
       -2   -1    0    0    0  501  0.00000000000E+00  0.00000000000E+00 -0.78597865813E+03  0.78597865813E+03  0.25500000920E-02 0. -1.
    10030    2    1    2    0    0  0.00000000000E+00  0.00000000000E+00  0.14543206083E+04  0.30262779246E+04  0.26539234437E+04 0.  0.
        3    1    3    3  502    0  0.12693275027E+04  0.31303406196E+03  0.98629978518E+03  0.16376721007E+04  0.10100000352E+00 0.  1.
       -3    1    3    3    0  502 -0.12693275027E+04 -0.31303406196E+03  0.46802082314E+03  0.13886058239E+04  0.10100000352E+00 0. -1.
</event>
<event>
 5   0  0.2030645E-06  0.2691955E+04  0.7818609E-02  0.8337620E-01
        2   -1    0    0  501    0  0.00000000000E+00  0.00000000000E+00  0.19299212640E+04  0.19299212640E+04  0.25500000920E-02 0. -1.
       -2   -1    0    0    0  501  0.00000000000E+00  0.00000000000E+00 -0.93871972182E+03  0.93871972182E+03  0.25500000920E-02 0.  1.
    10030    2    1    2    0    0  0.00000000000E+00  0.00000000000E+00  0.99120154214E+03  0.28686409858E+04  0.26919547931E+04 0.  0.
        1    1    3    3  502    0  0.85062941227E+03  0.52127706513E+03  0.14584271028E+04  0.17670058828E+04  0.50400001928E-02 0. -1.
       -1    1    3    3    0  502 -0.85062941227E+03 -0.52127706513E+03 -0.46722556063E+03  0.11016351030E+04  0.50400001928E-02 0.  1.
</event>
<event>
 5   0  0.1999104E-06  0.2685851E+04  0.7818609E-02  0.8339610E-01
       -2   -1    0    0    0  501  0.00000000000E+00  0.00000000000E+00  0.14417320668E+04  0.14417320668E+04  0.25500000920E-02 0. -1.
        2   -1    0    0  501    0  0.00000000000E+00  0.00000000000E+00 -0.12508907319E+04  0.12508907319E+04  0.25500000920E-02 0.  1.
    10030    2    1    2    0    0  0.00000000000E+00  0.00000000000E+00  0.19084133488E+03  0.26926227987E+04  0.26858512843E+04 0.  0.
        4    1    3    3  502    0  0.20750970866E+03  0.59739177548E+03 -0.10922646364E+04  0.12621334562E+04  0.12699999809E+01 0.  1.
       -4    1    3    3    0  502 -0.20750970866E+03 -0.59739177548E+03  0.12831059713E+04  0.14304893425E+04  0.12699999809E+01 0. -1.
</event>
<event>
 5   0  0.2030645E-06  0.2699675E+04  0.7818609E-02  0.8335110E-01
       -2   -1    0    0    0  501  0.00000000000E+00  0.00000000000E+00  0.93245309629E+03  0.93245309630E+03  0.25500000920E-02 0.  1.
        2   -1    0    0  501    0  0.00000000000E+00  0.00000000000E+00 -0.19540513285E+04  0.19540513285E+04  0.25500000920E-02 0. -1.
    10030    2    1    2    0    0  0.00000000000E+00  0.00000000000E+00 -0.10215982322E+04  0.28865044248E+04  0.26996749520E+04 0.  0.
        1    1    3    3  502    0  0.81774910397E+02  0.59431376552E+03 -0.18036813739E+04  0.19008320511E+04  0.50400001928E-02 0. -1.
       -1    1    3    3    0  502 -0.81774910397E+02 -0.59431376552E+03  0.78208314167E+03  0.98567237374E+03  0.50400001928E-02 0.  1.
</event>
<event>
 5   0  0.2063087E-06  0.2701351E+04  0.7818609E-02  0.8334567E-01
        2   -1    0    0  501    0  0.00000000000E+00  0.00000000000E+00  0.17223152389E+04  0.17223152389E+04  0.25500000920E-02 0. -1.
       -2   -1    0    0    0  501  0.00000000000E+00  0.00000000000E+00 -0.10592281899E+04  0.10592281899E+04  0.25500000920E-02 0.  1.
    10030    2    1    2    0    0  0.00000000000E+00  0.00000000000E+00  0.66308704903E+03  0.27815434288E+04  0.27013514047E+04 0.  0.
        3    1    3    3  502    0  0.13065927616E+04  0.25777615902E+03  0.99711741692E+02  0.13355057598E+04  0.10100000352E+00 0.  1.
       -3    1    3    3    0  502 -0.13065927616E+04 -0.25777615902E+03  0.56337530734E+03  0.14460376690E+04  0.10100000352E+00 0. -1.
</event>
<event>
 5   0  0.1932012E-06  0.2698720E+04  0.7818609E-02  0.8335420E-01
       -2   -1    0    0    0  501  0.00000000000E+00  0.00000000000E+00  0.93260983846E+03  0.93260983846E+03  0.25500000920E-02 0.  1.
        2   -1    0    0  501    0  0.00000000000E+00  0.00000000000E+00 -0.19523412389E+04  0.19523412389E+04  0.25500000920E-02 0. -1.
    10030    2    1    2    0    0  0.00000000000E+00  0.00000000000E+00 -0.10197314004E+04  0.28849510773E+04  0.26987201762E+04 0.  0.
        2    1    3    3  502    0  0.18749571893E+03 -0.94120198021E+03 -0.15238778861E+04  0.18008941179E+04  0.25500000920E-02 0. -1.
       -2    1    3    3    0  502 -0.18749571893E+03  0.94120198021E+03  0.50414648571E+03  0.10840569594E+04  0.25500000920E-02 0.  1.
</event>
<event>
 5   0  0.2030645E-06  0.2690225E+04  0.7818609E-02  0.8338184E-01
        2   -1    0    0  501    0  0.00000000000E+00  0.00000000000E+00  0.18756518829E+04  0.18756518829E+04  0.25500000920E-02 0. -1.
       -2   -1    0    0    0  501  0.00000000000E+00  0.00000000000E+00 -0.96463927146E+03  0.96463927146E+03  0.25500000920E-02 0.  1.
    10030    2    1    2    0    0  0.00000000000E+00  0.00000000000E+00  0.91101261141E+03  0.28402911543E+04  0.26902248722E+04 0.  0.
        1    1    3    3  502    0  0.31150527735E+02 -0.28438532631E+03  0.18431598689E+04  0.18652301927E+04  0.50400001928E-02 0. -1.
       -1    1    3    3    0  502 -0.31150527735E+02  0.28438532631E+03 -0.93214725752E+03  0.97506096165E+03  0.50400001928E-02 0.  1.
</event>
<event>
 5   0  0.1932012E-06  0.2701025E+04  0.7818609E-02  0.8334672E-01
        2   -1    0    0  501    0  0.00000000000E+00  0.00000000000E+00  0.10449079183E+04  0.10449079183E+04  0.25500000920E-02 0.  1.
       -2   -1    0    0    0  501  0.00000000000E+00  0.00000000000E+00 -0.17454975403E+04  0.17454975403E+04  0.25500000920E-02 0. -1.
    10030    2    1    2    0    0  0.00000000000E+00  0.00000000000E+00 -0.70058962204E+03  0.27904054586E+04  0.27010251397E+04 0.  0.
        2    1    3    3  502    0 -0.11078201620E+04  0.36826353084E+03  0.35114346525E+03  0.12190919869E+04  0.25500000920E-02 0.  1.
       -2    1    3    3    0  502  0.11078201620E+04 -0.36826353084E+03 -0.10517330873E+04  0.15713134717E+04  0.25500000920E-02 0. -1.
</event>
<event>
 5   0  0.7566905E-07  0.2699831E+04  0.7818609E-02  0.8335060E-01
       -1   -1    0    0    0  501  0.00000000000E+00  0.00000000000E+00  0.84813351350E+03  0.84813351352E+03  0.50400001928E-02 0. -1.
        1   -1    0    0  501    0  0.00000000000E+00  0.00000000000E+00 -0.21485674241E+04  0.21485674241E+04  0.50400001928E-02 0.  1.
    10030    2    1    2    0    0  0.00000000000E+00  0.00000000000E+00 -0.13004339106E+04  0.29967009376E+04  0.26998311343E+04 0.  0.
        1    1    3    3  502    0  0.28968564974E+03  0.54904696318E+03 -0.19807336584E+04  0.20757350912E+04  0.50400001928E-02 0.  1.
       -1    1    3    3    0  502 -0.28968564974E+03 -0.54904696318E+03  0.68029974777E+03  0.92096584642E+03  0.50400001928E-02 0. -1.
</event>
<event>
 5   0  0.7436613E-07  0.2686882E+04  0.7818609E-02  0.8339274E-01
       -1   -1    0    0    0  501  0.00000000000E+00  0.00000000000E+00  0.82953204414E+03  0.82953204416E+03  0.50400001928E-02 0. -1.
        1   -1    0    0  501    0  0.00000000000E+00  0.00000000000E+00 -0.21757244858E+04  0.21757244858E+04  0.50400001928E-02 0.  1.
    10030    2    1    2    0    0  0.00000000000E+00  0.00000000000E+00 -0.13461924417E+04  0.30052565300E+04  0.26868815979E+04 0.  0.
        2    1    3    3  502    0 -0.13356104410E+04 -0.83584552114E+02 -0.80539808978E+03  0.15618923492E+04  0.25500000920E-02 0. -1.
       -2    1    3    3    0  502  0.13356104410E+04  0.83584552114E+02 -0.54079435187E+03  0.14433641808E+04  0.25500000920E-02 0.  1.
</event>
<event>
 5   0  0.7768032E-07  0.2697951E+04  0.7818609E-02  0.8335670E-01
       -1   -1    0    0    0  501  0.00000000000E+00  0.00000000000E+00  0.89827580676E+03  0.89827580677E+03  0.50400001928E-02 0.  1.
        1   -1    0    0  501    0  0.00000000000E+00  0.00000000000E+00 -0.20258084308E+04  0.20258084308E+04  0.50400001928E-02 0. -1.
    10030    2    1    2    0    0  0.00000000000E+00  0.00000000000E+00 -0.11275326240E+04  0.29240842375E+04  0.26979508539E+04 0.  0.
        4    1    3    3  502    0  0.10464688175E+04 -0.77545725121E+02 -0.14825353064E+04  0.18163212472E+04  0.12699999809E+01 0. -1.
       -4    1    3    3    0  502 -0.10464688175E+04  0.77545725121E+02  0.35500268239E+03  0.11077629904E+04  0.12699999809E+01 0.  1.
</event>
<event>
 5   0  0.7806808E-07  0.2702140E+04  0.7818609E-02  0.8334311E-01
        1   -1    0    0  501    0  0.00000000000E+00  0.00000000000E+00  0.22235007667E+04  0.22235007667E+04  0.50400001928E-02 0. -1.
       -1   -1    0    0    0  501  0.00000000000E+00  0.00000000000E+00 -0.82095320200E+03  0.82095320201E+03  0.50400001928E-02 0.  1.
    10030    2    1    2    0    0  0.00000000000E+00  0.00000000000E+00  0.14025475647E+04  0.30444539687E+04  0.27021399476E+04 0.  0.
        5    1    3    3  502    0  0.28802471626E+03 -0.21221004785E+03 -0.76660666251E+03  0.84599007476E+03  0.46999998093E+01 0.  1.
       -5    1    3    3    0  502 -0.28802471626E+03  0.21221004785E+03  0.21691542272E+04  0.21984638939E+04  0.46999998093E+01 0. -1.
</event>
<event>
 5   0  0.2063087E-06  0.2701240E+04  0.7818609E-02  0.8334603E-01
        2   -1    0    0  501    0  0.00000000000E+00  0.00000000000E+00  0.21443184383E+04  0.21443184383E+04  0.25500000920E-02 0. -1.
       -2   -1    0    0    0  501  0.00000000000E+00  0.00000000000E+00 -0.85070099426E+03  0.85070099426E+03  0.25500000920E-02 0.  1.
    10030    2    1    2    0    0  0.00000000000E+00  0.00000000000E+00  0.12936174441E+04  0.29950194326E+04  0.27012395877E+04 0.  0.
        3    1    3    3  502    0  0.11280688264E+04  0.12024093728E+03  0.14594429390E+04  0.18485050345E+04  0.10100000352E+00 0. -1.
       -3    1    3    3    0  502 -0.11280688264E+04 -0.12024093728E+03 -0.16582549489E+03  0.11465143981E+04  0.10100000352E+00 0.  1.
</event>
<event>
 5   0  0.2063087E-06  0.2699810E+04  0.7818609E-02  0.8335067E-01
       -2   -1    0    0    0  501  0.00000000000E+00  0.00000000000E+00  0.17482495489E+04  0.17482495489E+04  0.25500000920E-02 0.  1.
        2   -1    0    0  501    0  0.00000000000E+00  0.00000000000E+00 -0.10423245257E+04  0.10423245257E+04  0.25500000920E-02 0. -1.
    10030    2    1    2    0    0  0.00000000000E+00  0.00000000000E+00  0.70592502323E+03  0.27905740746E+04  0.26998099058E+04 0.  0.
        3    1    3    3  502    0  0.58689471729E+03 -0.42598173521E+03  0.15298079136E+04  0.16929908773E+04  0.10100000352E+00 0.  1.
       -3    1    3    3    0  502 -0.58689471729E+03  0.42598173521E+03 -0.82388289035E+03  0.10975831974E+04  0.10100000352E+00 0. -1.
</event>
<event>
 5   0  0.7335091E-07  0.2700452E+04  0.7818609E-02  0.8334858E-01
        1   -1    0    0  501    0  0.00000000000E+00  0.00000000000E+00  0.15086557447E+04  0.15086557447E+04  0.50400001928E-02 0.  1.
       -1   -1    0    0    0  501  0.00000000000E+00  0.00000000000E+00 -0.12084334024E+04  0.12084334024E+04  0.50400001928E-02 0. -1.
    10030    2    1    2    0    0  0.00000000000E+00  0.00000000000E+00  0.30022234235E+03  0.27170891471E+04  0.27004518100E+04 0.  0.
        3    1    3    3  502    0 -0.78508452048E+03 -0.71443280735E+03 -0.68949866483E+03  0.12657726334E+04  0.10100000352E+00 0. -1.
       -3    1    3    3    0  502  0.78508452048E+03  0.71443280735E+03  0.98972100718E+03  0.14513165136E+04  0.10100000352E+00 0.  1.
</event>
<event>
 5   0  0.7768032E-07  0.2703128E+04  0.7818609E-02  0.8333991E-01
        1   -1    0    0  501    0  0.00000000000E+00  0.00000000000E+00  0.79950848155E+03  0.79950848157E+03  0.50400001928E-02 0. -1.
       -1   -1    0    0    0  501  0.00000000000E+00  0.00000000000E+00 -0.22848100689E+04  0.22848100689E+04  0.50400001928E-02 0.  1.
    10030    2    1    2    0    0  0.00000000000E+00  0.00000000000E+00 -0.14853015873E+04  0.30843185504E+04  0.27031278393E+04 0.  0.
        4    1    3    3  502    0  0.34859463887E+03  0.12519518982E+04 -0.11662463002E+04  0.17461482822E+04  0.12699999809E+01 0.  1.
       -4    1    3    3    0  502 -0.34859463887E+03 -0.12519518982E+04 -0.31905528716E+03  0.13381702683E+04  0.12699999809E+01 0. -1.
</event>
<event>
 5   0  0.7806808E-07  0.2699469E+04  0.7818609E-02  0.8335177E-01
        1   -1    0    0  501    0  0.00000000000E+00  0.00000000000E+00  0.21881782544E+04  0.21881782544E+04  0.50400001928E-02 0. -1.
       -1   -1    0    0    0  501  0.00000000000E+00  0.00000000000E+00 -0.83255679248E+03  0.83255679249E+03  0.50400001928E-02 0.  1.
    10030    2    1    2    0    0  0.00000000000E+00  0.00000000000E+00  0.13556214620E+04  0.30207350469E+04  0.26994685913E+04 0.  0.
        5    1    3    3  502    0  0.70976683510E+03  0.20044679712E+03  0.19427449921E+04  0.20780346660E+04  0.46999998093E+01 0. -1.
       -5    1    3    3    0  502 -0.70976683510E+03 -0.20044679712E+03 -0.58712353011E+03  0.94270038098E+03  0.46999998093E+01 0.  1.
</event>
<event>
 5   0  0.1999104E-06  0.2696724E+04  0.7818609E-02  0.8336069E-01
       -2   -1    0    0    0  501  0.00000000000E+00  0.00000000000E+00  0.90960436149E+03  0.90960436149E+03  0.25500000920E-02 0. -1.
        2   -1    0    0  501    0  0.00000000000E+00  0.00000000000E+00 -0.19987591152E+04  0.19987591152E+04  0.25500000920E-02 0.  1.
    10030    2    1    2    0    0  0.00000000000E+00  0.00000000000E+00 -0.10891547537E+04  0.29083634767E+04  0.26967239449E+04 0.  0.
        4    1    3    3  502    0  0.72164482058E+03  0.68130255025E+03 -0.15289728676E+04  0.18228285863E+04  0.12699999809E+01 0.  1.
       -4    1    3    3    0  502 -0.72164482058E+03 -0.68130255025E+03  0.43981811395E+03  0.10855348904E+04  0.12699999809E+01 0. -1.
</event>
<event>
 5   0  0.1999104E-06  0.2702174E+04  0.7818609E-02  0.8334300E-01
       -2   -1    0    0    0  501  0.00000000000E+00  0.00000000000E+00  0.11352717492E+04  0.11352717492E+04  0.25500000920E-02 0.  1.
        2   -1    0    0  501    0  0.00000000000E+00  0.00000000000E+00 -0.16079291244E+04  0.16079291244E+04  0.25500000920E-02 0. -1.
    10030    2    1    2    0    0  0.00000000000E+00  0.00000000000E+00 -0.47265737519E+03  0.27432008735E+04  0.27021743168E+04 0.  0.
        4    1    3    3  502    0  0.30314371558E+03  0.19453550216E+02  0.11001548705E+04  0.11413224368E+04  0.12699999809E+01 0.  1.
       -4    1    3    3    0  502 -0.30314371558E+03 -0.19453550216E+02 -0.15728122457E+04  0.16018784367E+04  0.12699999809E+01 0. -1.
</event>
<event>
 5   0  0.2063087E-06  0.2681693E+04  0.7818609E-02  0.8340969E-01
        2   -1    0    0  501    0  0.00000000000E+00  0.00000000000E+00  0.16565098438E+04  0.16565098438E+04  0.25500000920E-02 0. -1.
       -2   -1    0    0    0  501  0.00000000000E+00  0.00000000000E+00 -0.10853360522E+04  0.10853360522E+04  0.25500000920E-02 0.  1.
    10030    2    1    2    0    0  0.00000000000E+00  0.00000000000E+00  0.57117379163E+03  0.27418458960E+04  0.26816933861E+04 0.  0.
        3    1    3    3  502    0  0.28919705392E+03  0.54126088825E+03 -0.93332538781E+03  0.11170024955E+04  0.10100000352E+00 0.  1.
       -3    1    3    3    0  502 -0.28919705392E+03 -0.54126088825E+03  0.15044991794E+04  0.16248434005E+04  0.10100000352E+00 0. -1.
</event>
<event>
 5   0  0.7566905E-07  0.2703964E+04  0.7818609E-02  0.8333720E-01
       -1   -1    0    0    0  501  0.00000000000E+00  0.00000000000E+00  0.84218939943E+03  0.84218939944E+03  0.50400001928E-02 0.  1.
        1   -1    0    0  501    0  0.00000000000E+00  0.00000000000E+00 -0.21703606181E+04  0.21703606181E+04  0.50400001928E-02 0. -1.
    10030    2    1    2    0    0  0.00000000000E+00  0.00000000000E+00 -0.13281712187E+04  0.30125500176E+04  0.27039635394E+04 0.  0.
        1    1    3    3  502    0 -0.13464565920E+04 -0.12179349335E+03 -0.67377889244E+03  0.15105485775E+04  0.50400001928E-02 0. -1.
       -1    1    3    3    0  502  0.13464565920E+04  0.12179349335E+03 -0.65439232625E+03  0.15020014400E+04  0.50400001928E-02 0.  1.
</event>
<event>
 5   0  0.1999104E-06  0.2747414E+04  0.7818609E-02  0.8319783E-01
        2   -1    0    0  501    0  0.00000000000E+00  0.00000000000E+00  0.23033362745E+04  0.23033362745E+04  0.25500000920E-02 0. -1.
       -2   -1    0    0    0  501  0.00000000000E+00  0.00000000000E+00 -0.81927725922E+03  0.81927725923E+03  0.25500000920E-02 0.  1.
    10030    2    1    2    0    0  0.00000000000E+00  0.00000000000E+00  0.14840590153E+04  0.31226135337E+04  0.27474140788E+04 0.  0.
        4    1    3    3  502    0  0.95938404214E+03 -0.23766247728E+03  0.18263432272E+04  0.20766396870E+04  0.12699999809E+01 0. -1.
       -4    1    3    3    0  502 -0.95938404214E+03  0.23766247728E+03 -0.34228421187E+03  0.10459738467E+04  0.12699999809E+01 0.  1.
</event>
<event>
 5   0  0.7768032E-07  0.2697233E+04  0.7818609E-02  0.8335903E-01
       -1   -1    0    0    0  501  0.00000000000E+00  0.00000000000E+00  0.12016389662E+04  0.12016389662E+04  0.50400001928E-02 0.  1.
        1   -1    0    0  501    0  0.00000000000E+00  0.00000000000E+00 -0.15135719193E+04  0.15135719193E+04  0.50400001928E-02 0. -1.
    10030    2    1    2    0    0  0.00000000000E+00  0.00000000000E+00 -0.31193295315E+03  0.27152108855E+04  0.26972333947E+04 0.  0.
        4    1    3    3  502    0  0.58065973963E+02  0.12095753748E+04 -0.75348914856E+03  0.14262509438E+04  0.12699999809E+01 0. -1.
       -4    1    3    3    0  502 -0.58065973963E+02 -0.12095753748E+04  0.44155619541E+03  0.12889599417E+04  0.12699999809E+01 0.  1.
</event>
<event>
 5   0  0.2030645E-06  0.2701362E+04  0.7818609E-02  0.8334563E-01
        2   -1    0    0  501    0  0.00000000000E+00  0.00000000000E+00  0.21135202656E+04  0.21135202656E+04  0.25500000920E-02 0.  1.
       -2   -1    0    0    0  501  0.00000000000E+00  0.00000000000E+00 -0.86317545561E+03  0.86317545561E+03  0.25500000920E-02 0. -1.
    10030    2    1    2    0    0  0.00000000000E+00  0.00000000000E+00  0.12503448100E+04  0.29766957213E+04  0.27013617442E+04 0.  0.
        1    1    3    3  502    0  0.10971391035E+04  0.42389235412E+03  0.13568864424E+04  0.17957003530E+04  0.50400001928E-02 0.  1.
       -1    1    3    3    0  502 -0.10971391035E+04 -0.42389235412E+03 -0.10654163234E+03  0.11809953682E+04  0.50400001928E-02 0. -1.
</event>
<event>
 5   0  0.1991277E-06  0.2694405E+04  0.7818609E-02  0.8336823E-01
        2   -1    0    0  501    0  0.00000000000E+00  0.00000000000E+00  0.11928859553E+04  0.11928859553E+04  0.25500000920E-02 0. -1.
       -2   -1    0    0    0  501  0.00000000000E+00  0.00000000000E+00 -0.15214815197E+04  0.15214815197E+04  0.25500000920E-02 0.  1.
    10030    2    1    2    0    0  0.00000000000E+00  0.00000000000E+00 -0.32859556440E+03  0.27143674750E+04  0.26944045250E+04 0.  0.
        5    1    3    3  502    0 -0.41779278098E+03  0.43630669509E+03 -0.13773862281E+04  0.15040376496E+04  0.46999998093E+01 0.  1.
       -5    1    3    3    0  502  0.41779278098E+03 -0.43630669509E+03  0.10487906637E+04  0.12103298254E+04  0.46999998093E+01 0. -1.
</event>
<event>
 5   0  0.7566905E-07  0.2697855E+04  0.7818609E-02  0.8335701E-01
        1   -1    0    0  501    0  0.00000000000E+00  0.00000000000E+00  0.20499631292E+04  0.20499631292E+04  0.50400001928E-02 0.  1.
       -1   -1    0    0    0  501  0.00000000000E+00  0.00000000000E+00 -0.88762809193E+03  0.88762809194E+03  0.50400001928E-02 0. -1.
    10030    2    1    2    0    0  0.00000000000E+00  0.00000000000E+00  0.11623350373E+04  0.29375912212E+04  0.26978546002E+04 0.  0.
        1    1    3    3  502    0  0.46630344236E+03 -0.12645506205E+04  0.64157422796E+03  0.14926971100E+04  0.50400001928E-02 0.  1.
       -1    1    3    3    0  502 -0.46630344236E+03  0.12645506205E+04  0.52076080935E+03  0.14448941112E+04  0.50400001928E-02 0. -1.
</event>
<event>
 5   0  0.7566905E-07  0.2696195E+04  0.7818609E-02  0.8336241E-01
        1   -1    0    0  501    0  0.00000000000E+00  0.00000000000E+00  0.14823753399E+04  0.14823753399E+04  0.50400001928E-02 0.  1.
       -1   -1    0    0    0  501  0.00000000000E+00  0.00000000000E+00 -0.12259828749E+04  0.12259828749E+04  0.50400001928E-02 0. -1.
    10030    2    1    2    0    0  0.00000000000E+00  0.00000000000E+00  0.25639246499E+03  0.27083582148E+04  0.26961949343E+04 0.  0.
        1    1    3    3  502    0 -0.82240920138E+03  0.99515037045E+03  0.51812989647E+03  0.13910930033E+04  0.50400001928E-02 0.  1.
       -1    1    3    3    0  502  0.82240920138E+03 -0.99515037045E+03 -0.26173743148E+03  0.13172652115E+04  0.50400001928E-02 0. -1.
</event>
<event>
 5   0  0.7768032E-07  0.2700685E+04  0.7818609E-02  0.8334783E-01
        1   -1    0    0  501    0  0.00000000000E+00  0.00000000000E+00  0.14371014659E+04  0.14371014659E+04  0.50400001928E-02 0. -1.
       -1   -1    0    0    0  501  0.00000000000E+00  0.00000000000E+00 -0.12688210608E+04  0.12688210608E+04  0.50400001928E-02 0.  1.
    10030    2    1    2    0    0  0.00000000000E+00  0.00000000000E+00  0.16828040509E+03  0.27059225268E+04  0.27006848069E+04 0.  0.
        4    1    3    3  502    0  0.72439809865E+03  0.55639032598E+03  0.10806041729E+04  0.14149310201E+04  0.12699999809E+01 0. -1.
       -4    1    3    3    0  502 -0.72439809865E+03 -0.55639032598E+03 -0.91232376781E+03  0.12909915067E+04  0.12699999809E+01 0.  1.
</event>
<event>
 5   0  0.1999104E-06  0.2698096E+04  0.7818609E-02  0.8335623E-01
        2   -1    0    0  501    0  0.00000000000E+00  0.00000000000E+00  0.16121945178E+04  0.16121945178E+04  0.25500000920E-02 0. -1.
       -2   -1    0    0    0  501  0.00000000000E+00  0.00000000000E+00 -0.11288527176E+04  0.11288527176E+04  0.25500000920E-02 0.  1.
    10030    2    1    2    0    0  0.00000000000E+00  0.00000000000E+00  0.48334180016E+03  0.27410472355E+04  0.26980957454E+04 0.  0.
        4    1    3    3  502    0  0.60258872114E+01 -0.45924599964E+03 -0.10469797806E+04  0.11432897592E+04  0.12699999809E+01 0.  1.
       -4    1    3    3    0  502 -0.60258872114E+01  0.45924599964E+03  0.15303215808E+04  0.15977574763E+04  0.12699999809E+01 0. -1.
</event>
<event>
 5   0  0.7566905E-07  0.2686341E+04  0.7818609E-02  0.8339450E-01
       -1   -1    0    0    0  501  0.00000000000E+00  0.00000000000E+00  0.13670008148E+04  0.13670008149E+04  0.50400001928E-02 0.  1.
        1   -1    0    0  501    0  0.00000000000E+00  0.00000000000E+00 -0.13197558338E+04  0.13197558338E+04  0.50400001928E-02 0. -1.
    10030    2    1    2    0    0  0.00000000000E+00  0.00000000000E+00  0.47244981038E+02  0.26867566487E+04  0.26863412294E+04 0.  0.
        1    1    3    3  502    0  0.16915793709E+03 -0.13151359769E+04  0.23792240911E+03  0.13471466580E+04  0.50400001928E-02 0. -1.
       -1    1    3    3    0  502 -0.16915793709E+03  0.13151359769E+04 -0.19067742807E+03  0.13396099906E+04  0.50400001928E-02 0.  1.
</event>
<event>
 5   0  0.2030645E-06  0.2699790E+04  0.7818609E-02  0.8335073E-01
        2   -1    0    0  501    0  0.00000000000E+00  0.00000000000E+00  0.14198962165E+04  0.14198962165E+04  0.25500000920E-02 0.  1.
       -2   -1    0    0    0  501  0.00000000000E+00  0.00000000000E+00 -0.12833444244E+04  0.12833444244E+04  0.25500000920E-02 0. -1.
    10030    2    1    2    0    0  0.00000000000E+00  0.00000000000E+00  0.13655179211E+03  0.27032406408E+04  0.26997895419E+04 0.  0.
        1    1    3    3  502    0 -0.13213329583E+04  0.18245229726E+03 -0.13936871326E+03  0.13411313380E+04  0.50400001928E-02 0. -1.
       -1    1    3    3    0  502  0.13213329583E+04 -0.18245229726E+03  0.27592050537E+03  0.13621093028E+04  0.50400001928E-02 0.  1.
</event>
<event>
 5   0  0.6561875E-07  0.2700245E+04  0.7818609E-02  0.8334926E-01
       -3   -1    0    0    0  501  0.00000000000E+00  0.00000000000E+00  0.96730279070E+03  0.96730279597E+03  0.10100000352E+00 0.  1.
        3   -1    0    0  501    0  0.00000000000E+00  0.00000000000E+00 -0.18844466683E+04  0.18844466710E+04  0.10100000352E+00 0. -1.
    10030    2    1    2    0    0  0.00000000000E+00  0.00000000000E+00 -0.91714387755E+03  0.28517494669E+04  0.27002448278E+04 0.  0.
        2    1    3    3  502    0  0.81744222165E+03  0.56360547384E+03  0.50761809537E+03  0.11151408192E+04  0.25500000920E-02 0.  1.
       -2    1    3    3    0  502 -0.81744222165E+03 -0.56360547384E+03 -0.14247619729E+04  0.17366086477E+04  0.25500000920E-02 0. -1.
</event>
<event>
 5   0  0.2063087E-06  0.2697048E+04  0.7818609E-02  0.8335964E-01
       -2   -1    0    0    0  501  0.00000000000E+00  0.00000000000E+00  0.75585627965E+03  0.75585627965E+03  0.25500000920E-02 0. -1.
        2   -1    0    0  501    0  0.00000000000E+00  0.00000000000E+00 -0.24059025691E+04  0.24059025691E+04  0.25500000920E-02 0.  1.
    10030    2    1    2    0    0  0.00000000000E+00  0.00000000000E+00 -0.16500462894E+04  0.31617588487E+04  0.26970476934E+04 0.  0.
        3    1    3    3  502    0  0.10923231184E+03  0.28464066720E+03  0.71492366706E+03  0.77721803074E+03  0.10100000352E+00 0. -1.
       -3    1    3    3    0  502 -0.10923231184E+03 -0.28464066720E+03 -0.23649699565E+04  0.23845408180E+04  0.10100000352E+00 0.  1.
</event>
<event>
 5   0  0.7566905E-07  0.2699703E+04  0.7818609E-02  0.8335101E-01
       -1   -1    0    0    0  501  0.00000000000E+00  0.00000000000E+00  0.73249056590E+03  0.73249056592E+03  0.50400001928E-02 0. -1.
        1   -1    0    0  501    0  0.00000000000E+00  0.00000000000E+00 -0.24875396955E+04  0.24875396955E+04  0.50400001928E-02 0.  1.
    10030    2    1    2    0    0  0.00000000000E+00  0.00000000000E+00 -0.17550491296E+04  0.32200302615E+04  0.26997032128E+04 0.  0.
        1    1    3    3  502    0 -0.11525483681E+04  0.56916249416E+03 -0.13689916655E+04  0.18778849448E+04  0.50400001928E-02 0. -1.
       -1    1    3    3    0  502  0.11525483681E+04 -0.56916249416E+03 -0.38605746410E+03  0.13421453167E+04  0.50400001928E-02 0.  1.
</event>
<event>
 5   0  0.6561875E-07  0.2697869E+04  0.7818609E-02  0.8335697E-01
        3   -1    0    0  501    0  0.00000000000E+00  0.00000000000E+00  0.10588479251E+04  0.10588479299E+04  0.10100000352E+00 0.  1.
       -3   -1    0    0    0  501  0.00000000000E+00  0.00000000000E+00 -0.17184944109E+04  0.17184944138E+04  0.10100000352E+00 0. -1.
    10030    2    1    2    0    0  0.00000000000E+00  0.00000000000E+00 -0.65964648576E+03  0.27773423438E+04  0.26978689754E+04 0.  0.
        2    1    3    3  502    0 -0.95813332631E+03 -0.87046447739E+03 -0.72033443730E+03  0.14814214724E+04  0.25500000920E-02 0. -1.
       -2    1    3    3    0  502  0.95813332631E+03  0.87046447739E+03  0.60687951544E+02  0.12959208714E+04  0.25500000920E-02 0.  1.
</event>
<event>
 5   0  0.1991277E-06  0.2698445E+04  0.7818609E-02  0.8335510E-01
        2   -1    0    0  501    0  0.00000000000E+00  0.00000000000E+00  0.15599118054E+04  0.15599118054E+04  0.25500000920E-02 0.  1.
       -2   -1    0    0    0  501  0.00000000000E+00  0.00000000000E+00 -0.11669902639E+04  0.11669902639E+04  0.25500000920E-02 0. -1.
    10030    2    1    2    0    0  0.00000000000E+00  0.00000000000E+00  0.39292154149E+03  0.27269020694E+04  0.26984453965E+04 0.  0.
        5    1    3    3  502    0 -0.10773014118E+04 -0.35130956719E+03 -0.54364438919E+03  0.12568086790E+04  0.46999998093E+01 0. -1.
       -5    1    3    3    0  502  0.10773014118E+04  0.35130956719E+03  0.93656593068E+03  0.14700933903E+04  0.46999998093E+01 0.  1.
</event>
<event>
 5   0  0.7566905E-07  0.2700113E+04  0.7818609E-02  0.8334968E-01
       -1   -1    0    0    0  501  0.00000000000E+00  0.00000000000E+00  0.13312604757E+04  0.13312604757E+04  0.50400001928E-02 0. -1.
        1   -1    0    0  501    0  0.00000000000E+00  0.00000000000E+00 -0.13691180408E+04  0.13691180408E+04  0.50400001928E-02 0.  1.
    10030    2    1    2    0    0  0.00000000000E+00  0.00000000000E+00 -0.37857565132E+02  0.27003785165E+04  0.27001131341E+04 0.  0.
        1    1    3    3  502    0  0.51114212714E+02  0.60335741497E+03 -0.12256955882E+04  0.13671073505E+04  0.50400001928E-02 0.  1.
       -1    1    3    3    0  502 -0.51114212714E+02 -0.60335741497E+03  0.11878380230E+04  0.13332711660E+04  0.50400001928E-02 0. -1.
</event>
<event>
 5   0  0.7806808E-07  0.2674859E+04  0.7818609E-02  0.8343209E-01
       -1   -1    0    0    0  501  0.00000000000E+00  0.00000000000E+00  0.13413535164E+04  0.13413535165E+04  0.50400001928E-02 0. -1.
        1   -1    0    0  501    0  0.00000000000E+00  0.00000000000E+00 -0.13335167841E+04  0.13335167841E+04  0.50400001928E-02 0.  1.
    10030    2    1    2    0    0  0.00000000000E+00  0.00000000000E+00  0.78367323291E+01  0.26748703006E+04  0.26748588207E+04 0.  0.
        5    1    3    3  502    0  0.61224519663E+03  0.67358727442E+01 -0.11851223902E+04  0.13339515443E+04  0.46999998093E+01 0.  1.
       -5    1    3    3    0  502 -0.61224519663E+03 -0.67358727442E+01  0.11929591226E+04  0.13409187563E+04  0.46999998093E+01 0. -1.
</event>
<event>
 5   0  0.7335091E-07  0.2701928E+04  0.7818609E-02  0.8334380E-01
       -1   -1    0    0    0  501  0.00000000000E+00  0.00000000000E+00  0.10165435314E+04  0.10165435314E+04  0.50400001928E-02 0. -1.
        1   -1    0    0  501    0  0.00000000000E+00  0.00000000000E+00 -0.17954018235E+04  0.17954018235E+04  0.50400001928E-02 0.  1.
    10030    2    1    2    0    0  0.00000000000E+00  0.00000000000E+00 -0.77885829213E+03  0.28119453549E+04  0.27019282817E+04 0.  0.
        3    1    3    3  502    0 -0.51868359705E+03 -0.20663542371E+03  0.89085416067E+03  0.10513572266E+04  0.10100000352E+00 0. -1.
       -3    1    3    3    0  502  0.51868359705E+03  0.20663542371E+03 -0.16697124528E+04  0.17605881283E+04  0.10100000352E+00 0.  1.
</event>
<event>
 5   0  0.1999104E-06  0.2697949E+04  0.7818609E-02  0.8335671E-01
       -2   -1    0    0    0  501  0.00000000000E+00  0.00000000000E+00  0.11598414129E+04  0.11598414129E+04  0.25500000920E-02 0.  1.
        2   -1    0    0  501    0  0.00000000000E+00  0.00000000000E+00 -0.15689488431E+04  0.15689488431E+04  0.25500000920E-02 0. -1.
    10030    2    1    2    0    0  0.00000000000E+00  0.00000000000E+00 -0.40910743020E+03  0.27287902561E+04  0.26979487342E+04 0.  0.
        4    1    3    3  502    0 -0.56703957473E+03  0.71573127310E+03  0.79973463119E+03  0.12138295712E+04  0.12699999809E+01 0.  1.
       -4    1    3    3    0  502  0.56703957473E+03 -0.71573127310E+03 -0.12088420614E+04  0.15149606849E+04  0.12699999809E+01 0. -1.
</event>
<event>
 5   0  0.7436613E-07  0.2707811E+04  0.7818609E-02  0.8332475E-01
        1   -1    0    0  501    0  0.00000000000E+00  0.00000000000E+00  0.10340022315E+04  0.10340022316E+04  0.50400001928E-02 0. -1.
       -1   -1    0    0    0  501  0.00000000000E+00  0.00000000000E+00 -0.17727813841E+04  0.17727813841E+04  0.50400001928E-02 0.  1.
    10030    2    1    2    0    0  0.00000000000E+00  0.00000000000E+00 -0.73877915257E+03  0.28067836157E+04  0.27078108555E+04 0.  0.
        2    1    3    3  502    0 -0.12832879269E+04 -0.36885445682E+03 -0.60158250221E+03  0.14645077742E+04  0.25500000920E-02 0.  1.
       -2    1    3    3    0  502  0.12832879269E+04  0.36885445682E+03 -0.13719665036E+03  0.13422758415E+04  0.25500000920E-02 0. -1.
</event>
<event>
 5   0  0.6561875E-07  0.2700870E+04  0.7818609E-02  0.8334723E-01
       -3   -1    0    0    0  501  0.00000000000E+00  0.00000000000E+00  0.18764088919E+04  0.18764088946E+04  0.10100000352E+00 0.  1.
        3   -1    0    0  501    0  0.00000000000E+00  0.00000000000E+00 -0.97189654433E+03  0.97189654958E+03  0.10100000352E+00 0. -1.
    10030    2    1    2    0    0  0.00000000000E+00  0.00000000000E+00  0.90451234755E+03  0.28483054442E+04  0.27008704738E+04 0.  0.
        5    1    3    3  502    0  0.57054111917E+03 -0.60585175980E+03  0.15738339875E+04  0.17803227331E+04  0.46999998093E+01 0.  1.
       -5    1    3    3    0  502 -0.57054111917E+03  0.60585175980E+03 -0.66932163998E+03  0.10679827111E+04  0.46999998093E+01 0. -1.
</event>
<event>
 5   0  0.2030645E-06  0.2699950E+04  0.7818609E-02  0.8335021E-01
       -2   -1    0    0    0  501  0.00000000000E+00  0.00000000000E+00  0.18343309066E+04  0.18343309066E+04  0.25500000920E-02 0.  1.
        2   -1    0    0  501    0  0.00000000000E+00  0.00000000000E+00 -0.99351343274E+03  0.99351343274E+03  0.25500000920E-02 0. -1.
    10030    2    1    2    0    0  0.00000000000E+00  0.00000000000E+00  0.84081747385E+03  0.28278443393E+04  0.26999499223E+04 0.  0.
        1    1    3    3  502    0 -0.15094248171E+03 -0.21188369765E+01 -0.98464561694E+03  0.99615014593E+03  0.50400001928E-02 0. -1.
       -1    1    3    3    0  502  0.15094248171E+03  0.21188369765E+01  0.18254630908E+04  0.18316941934E+04  0.50400001928E-02 0.  1.
</event>
<event>
 5   0  0.1999104E-06  0.2689876E+04  0.7818609E-02  0.8338297E-01
       -2   -1    0    0    0  501  0.00000000000E+00  0.00000000000E+00  0.90840567272E+03  0.90840567273E+03  0.25500000920E-02 0. -1.
        2   -1    0    0  501    0  0.00000000000E+00  0.00000000000E+00 -0.19912452280E+04  0.19912452280E+04  0.25500000920E-02 0.  1.
    10030    2    1    2    0    0  0.00000000000E+00  0.00000000000E+00 -0.10828395553E+04  0.28996509007E+04  0.26898761763E+04 0.  0.
        4    1    3    3  502    0  0.12898280636E+04  0.37467234764E+03 -0.46657110931E+03  0.14218741205E+04  0.12699999809E+01 0. -1.
       -4    1    3    3    0  502 -0.12898280636E+04 -0.37467234764E+03 -0.61626844597E+03  0.14777767802E+04  0.12699999809E+01 0.  1.
</event>
<event>
 5   0  0.1999104E-06  0.2704581E+04  0.7818609E-02  0.8333520E-01
       -2   -1    0    0    0  501  0.00000000000E+00  0.00000000000E+00  0.11733329614E+04  0.11733329614E+04  0.25500000920E-02 0. -1.
        2   -1    0    0  501    0  0.00000000000E+00  0.00000000000E+00 -0.15585422547E+04  0.15585422547E+04  0.25500000920E-02 0.  1.
    10030    2    1    2    0    0  0.00000000000E+00  0.00000000000E+00 -0.38520929328E+03  0.27318752161E+04  0.27045805583E+04 0.  0.
        4    1    3    3  502    0  0.92849789534E+03  0.86481388946E+03 -0.66495199131E+03  0.14325411578E+04  0.12699999809E+01 0.  1.
       -4    1    3    3    0  502 -0.92849789534E+03 -0.86481388946E+03  0.27974269804E+03  0.12993340583E+04  0.12699999809E+01 0. -1.
</event>
<event>
 5   0  0.1932012E-06  0.2703851E+04  0.7818609E-02  0.8333757E-01
        2   -1    0    0  501    0  0.00000000000E+00  0.00000000000E+00  0.21642788328E+04  0.21642788328E+04  0.25500000920E-02 0. -1.
       -2   -1    0    0    0  501  0.00000000000E+00  0.00000000000E+00 -0.84448558498E+03  0.84448558499E+03  0.25500000920E-02 0.  1.
    10030    2    1    2    0    0  0.00000000000E+00  0.00000000000E+00  0.13197932478E+04  0.30087644178E+04  0.27038507919E+04 0.  0.
        2    1    3    3  502    0 -0.10061145935E+04  0.53572969496E+03  0.14688042809E+04  0.18592092128E+04  0.25500000920E-02 0. -1.
       -2    1    3    3    0  502  0.10061145935E+04 -0.53572969496E+03 -0.14901103307E+03  0.11495552050E+04  0.25500000920E-02 0.  1.
</event>
<event>
 5   0  0.2063087E-06  0.2699279E+04  0.7818609E-02  0.8335239E-01
       -2   -1    0    0    0  501  0.00000000000E+00  0.00000000000E+00  0.91216815023E+03  0.91216815023E+03  0.25500000920E-02 0. -1.
        2   -1    0    0  501    0  0.00000000000E+00  0.00000000000E+00 -0.19969199433E+04  0.19969199433E+04  0.25500000920E-02 0.  1.
    10030    2    1    2    0    0  0.00000000000E+00  0.00000000000E+00 -0.10847517931E+04  0.29090880936E+04  0.26992789933E+04 0.  0.
        3    1    3    3  502    0 -0.11737302047E+04  0.53361789215E+03 -0.97230165893E+03  0.16148563944E+04  0.10100000352E+00 0.  1.
       -3    1    3    3    0  502  0.11737302047E+04 -0.53361789215E+03 -0.11245013418E+03  0.12942316992E+04  0.10100000352E+00 0. -1.
</event>
<event>
 5   0  0.7335091E-07  0.2699980E+04  0.7818609E-02  0.8335011E-01
       -1   -1    0    0    0  501  0.00000000000E+00  0.00000000000E+00  0.12835570195E+04  0.12835570195E+04  0.50400001928E-02 0.  1.
        1   -1    0    0  501    0  0.00000000000E+00  0.00000000000E+00 -0.14198615871E+04  0.14198615871E+04  0.50400001928E-02 0. -1.
    10030    2    1    2    0    0  0.00000000000E+00  0.00000000000E+00 -0.13630456756E+03  0.27034186066E+04  0.26999802272E+04 0.  0.
        3    1    3    3  502    0 -0.10864781656E+03 -0.86465244071E+02 -0.14126924675E+04  0.14195001248E+04  0.10100000352E+00 0. -1.
       -3    1    3    3    0  502  0.10864781656E+03  0.86465244071E+02  0.12763878999E+04  0.12839184818E+04  0.10100000352E+00 0.  1.
</event>
<event>
 5   0  0.7768032E-07  0.2700584E+04  0.7818609E-02  0.8334816E-01
        1   -1    0    0  501    0  0.00000000000E+00  0.00000000000E+00  0.16847647866E+04  0.16847647866E+04  0.50400001928E-02 0. -1.
       -1   -1    0    0    0  501  0.00000000000E+00  0.00000000000E+00 -0.10822210566E+04  0.10822210567E+04  0.50400001928E-02 0.  1.
    10030    2    1    2    0    0  0.00000000000E+00  0.00000000000E+00  0.60254372992E+03  0.27669858432E+04  0.27005835869E+04 0.  0.
        4    1    3    3  502    0  0.24632762170E+03  0.14911871429E+03 -0.10503973893E+04  0.10891510347E+04  0.12699999809E+01 0.  1.
       -4    1    3    3    0  502 -0.24632762170E+03 -0.14911871429E+03  0.16529411192E+04  0.16778348085E+04  0.12699999809E+01 0. -1.
</event>
<event>
 5   0  0.2063087E-06  0.2691288E+04  0.7818609E-02  0.8337837E-01
        2   -1    0    0  501    0  0.00000000000E+00  0.00000000000E+00  0.17195482041E+04  0.17195482041E+04  0.25500000920E-02 0. -1.
       -2   -1    0    0    0  501  0.00000000000E+00  0.00000000000E+00 -0.10530427028E+04  0.10530427028E+04  0.25500000920E-02 0.  1.
    10030    2    1    2    0    0  0.00000000000E+00  0.00000000000E+00  0.66650550124E+03  0.27725909069E+04  0.26912879359E+04 0.  0.
        3    1    3    3  502    0 -0.30297124867E+03  0.12996771543E+04  0.51111061480E+03  0.14290508577E+04  0.10100000352E+00 0. -1.
       -3    1    3    3    0  502  0.30297124867E+03 -0.12996771543E+04  0.15539488644E+03  0.13435400493E+04  0.10100000352E+00 0.  1.
</event>
<event>
 5   0  0.1932012E-06  0.2698508E+04  0.7818609E-02  0.8335489E-01
        2   -1    0    0  501    0  0.00000000000E+00  0.00000000000E+00  0.21652834356E+04  0.21652834356E+04  0.25500000920E-02 0. -1.
       -2   -1    0    0    0  501  0.00000000000E+00  0.00000000000E+00 -0.84076149438E+03  0.84076149438E+03  0.25500000920E-02 0.  1.
    10030    2    1    2    0    0  0.00000000000E+00  0.00000000000E+00  0.13245219412E+04  0.30060449300E+04  0.26985084303E+04 0.  0.
        2    1    3    3  502    0  0.12878228964E+04  0.25994790573E+02  0.11096860928E+04  0.17001666878E+04  0.25500000920E-02 0.  1.
       -2    1    3    3    0  502 -0.12878228964E+04 -0.25994790573E+02  0.21483584843E+03  0.13058782422E+04  0.25500000920E-02 0. -1.
</event>
<event>
 5   0  0.7566905E-07  0.2721209E+04  0.7818609E-02  0.8328156E-01
       -1   -1    0    0    0  501  0.00000000000E+00  0.00000000000E+00  0.79035582783E+03  0.79035582785E+03  0.50400001928E-02 0. -1.
        1   -1    0    0  501    0  0.00000000000E+00  0.00000000000E+00 -0.23422928186E+04  0.23422928186E+04  0.50400001928E-02 0.  1.
    10030    2    1    2    0    0  0.00000000000E+00  0.00000000000E+00 -0.15519369908E+04  0.31326486465E+04  0.27212091281E+04 0.  0.
        1    1    3    3  502    0  0.13441077155E+04 -0.47870536168E+02 -0.53912481581E+03  0.14489902367E+04  0.50400001928E-02 0. -1.
       -1    1    3    3    0  502 -0.13441077155E+04  0.47870536168E+02 -0.10128121750E+04  0.16836584098E+04  0.50400001928E-02 0.  1.
</event>
<event>
 5   0  0.2030645E-06  0.2698906E+04  0.7818609E-02  0.8335360E-01
       -2   -1    0    0    0  501  0.00000000000E+00  0.00000000000E+00  0.80279223418E+03  0.80279223419E+03  0.25500000920E-02 0.  1.
        2   -1    0    0  501    0  0.00000000000E+00  0.00000000000E+00 -0.22683620241E+04  0.22683620241E+04  0.25500000920E-02 0. -1.
    10030    2    1    2    0    0  0.00000000000E+00  0.00000000000E+00 -0.14655697899E+04  0.30711542583E+04  0.26989060134E+04 0.  0.
        1    1    3    3  502    0  0.12513965341E+04  0.17453569920E+03 -0.12720312844E+04  0.17929081361E+04  0.50400001928E-02 0.  1.
       -1    1    3    3    0  502 -0.12513965341E+04 -0.17453569920E+03 -0.19353850555E+03  0.12782461222E+04  0.50400001928E-02 0. -1.
</event>
<event>
 5   0  0.7436613E-07  0.2698705E+04  0.7818609E-02  0.8335425E-01
       -1   -1    0    0    0  501  0.00000000000E+00  0.00000000000E+00  0.11885492289E+04  0.11885492289E+04  0.50400001928E-02 0. -1.
        1   -1    0    0  501    0  0.00000000000E+00  0.00000000000E+00 -0.15319109741E+04  0.15319109741E+04  0.50400001928E-02 0.  1.
    10030    2    1    2    0    0  0.00000000000E+00  0.00000000000E+00 -0.34336174520E+03  0.27204602029E+04  0.26987045833E+04 0.  0.
        2    1    3    3  502    0  0.70312627861E+03 -0.35740359440E+03  0.93196358832E+03  0.12209340780E+04  0.25500000920E-02 0. -1.
       -2    1    3    3    0  502 -0.70312627861E+03  0.35740359440E+03 -0.12753253335E+04  0.14995261249E+04  0.25500000920E-02 0.  1.
</event>
<event>
 5   0  0.1991277E-06  0.2702286E+04  0.7818609E-02  0.8334264E-01
        2   -1    0    0  501    0  0.00000000000E+00  0.00000000000E+00  0.16688795418E+04  0.16688795418E+04  0.25500000920E-02 0. -1.
       -2   -1    0    0    0  501  0.00000000000E+00  0.00000000000E+00 -0.10939002290E+04  0.10939002290E+04  0.25500000920E-02 0.  1.
    10030    2    1    2    0    0  0.00000000000E+00  0.00000000000E+00  0.57497931285E+03  0.27627797708E+04  0.27022862269E+04 0.  0.
        5    1    3    3  502    0 -0.67930278611E+03  0.95918095895E+03 -0.39382555770E+03  0.12395971310E+04  0.46999998093E+01 0.  1.
       -5    1    3    3    0  502  0.67930278611E+03 -0.95918095895E+03  0.96880487055E+03  0.15231826399E+04  0.46999998093E+01 0. -1.
</event>
<event>
 5   0  0.7436613E-07  0.2690128E+04  0.7818609E-02  0.8338215E-01
        1   -1    0    0  501    0  0.00000000000E+00  0.00000000000E+00  0.10629351813E+04  0.10629351813E+04  0.50400001928E-02 0. -1.
       -1   -1    0    0    0  501  0.00000000000E+00  0.00000000000E+00 -0.17020771699E+04  0.17020771699E+04  0.50400001928E-02 0.  1.
    10030    2    1    2    0    0  0.00000000000E+00  0.00000000000E+00 -0.63914198863E+03  0.27650123512E+04  0.26901284023E+04 0.  0.
        2    1    3    3  502    0  0.12693162184E-01 -0.76119648601E+03 -0.14593938405E+04  0.16459800947E+04  0.25500000920E-02 0.  1.
       -2    1    3    3    0  502 -0.12693162184E-01  0.76119648601E+03  0.82025185191E+03  0.11190322565E+04  0.25500000920E-02 0. -1.
</event>
<event>
 5   0  0.7335091E-07  0.2695497E+04  0.7818609E-02  0.8336467E-01
        1   -1    0    0  501    0  0.00000000000E+00  0.00000000000E+00  0.11439192685E+04  0.11439192685E+04  0.50400001928E-02 0.  1.
       -1   -1    0    0    0  501  0.00000000000E+00  0.00000000000E+00 -0.15878974711E+04  0.15878974711E+04  0.50400001928E-02 0. -1.
    10030    2    1    2    0    0  0.00000000000E+00  0.00000000000E+00 -0.44397820256E+03  0.27318167396E+04  0.26954973668E+04 0.  0.
        3    1    3    3  502    0 -0.87654037907E+03  0.76250755591E+03  0.47035961963E+03  0.12533870076E+04  0.10100000352E+00 0.  1.
       -3    1    3    3    0  502  0.87654037907E+03 -0.76250755591E+03 -0.91433782218E+03  0.14784297319E+04  0.10100000352E+00 0. -1.
</event>
<event>
 5   0  0.7806808E-07  0.2689815E+04  0.7818609E-02  0.8338317E-01
        1   -1    0    0  501    0  0.00000000000E+00  0.00000000000E+00  0.11542005469E+04  0.11542005469E+04  0.50400001928E-02 0.  1.
       -1   -1    0    0    0  501  0.00000000000E+00  0.00000000000E+00 -0.15671250587E+04  0.15671250587E+04  0.50400001928E-02 0. -1.
    10030    2    1    2    0    0  0.00000000000E+00  0.00000000000E+00 -0.41292451180E+03  0.27213256056E+04  0.26898153095E+04 0.  0.
        5    1    3    3  502    0  0.72073721816E+03 -0.87771308508E+03 -0.93525652856E+03  0.14712475188E+04  0.46999998093E+01 0. -1.
       -5    1    3    3    0  502 -0.72073721816E+03  0.87771308508E+03  0.52233201676E+03  0.12500780868E+04  0.46999998093E+01 0.  1.
</event>
<event>
 5   0  0.2030645E-06  0.2707607E+04  0.7818609E-02  0.8332541E-01
       -2   -1    0    0    0  501  0.00000000000E+00  0.00000000000E+00  0.11779619053E+04  0.11779619053E+04  0.25500000920E-02 0. -1.
        2   -1    0    0  501    0  0.00000000000E+00  0.00000000000E+00 -0.15558937073E+04  0.15558937073E+04  0.25500000920E-02 0.  1.
    10030    2    1    2    0    0  0.00000000000E+00  0.00000000000E+00 -0.37793180199E+03  0.27338556126E+04  0.27076067040E+04 0.  0.
        1    1    3    3  502    0  0.21124405436E+03  0.11861146106E+04  0.43450847537E+03  0.12807378870E+04  0.50400001928E-02 0. -1.
       -1    1    3    3    0  502 -0.21124405436E+03 -0.11861146106E+04 -0.81244027736E+03  0.14531177256E+04  0.50400001928E-02 0.  1.
</event>
<event>
 5   0  0.7335091E-07  0.2682276E+04  0.7818609E-02  0.8340779E-01
       -1   -1    0    0    0  501  0.00000000000E+00  0.00000000000E+00  0.17511068582E+04  0.17511068582E+04  0.50400001928E-02 0.  1.
        1   -1    0    0  501    0  0.00000000000E+00  0.00000000000E+00 -0.10271508774E+04  0.10271508774E+04  0.50400001928E-02 0. -1.
    10030    2    1    2    0    0  0.00000000000E+00  0.00000000000E+00  0.72395598080E+03  0.27782577356E+04  0.26822758589E+04 0.  0.
        3    1    3    3  502    0 -0.10976385101E+04 -0.48701177223E+03 -0.25660275531E+03  0.12279396359E+04  0.10100000352E+00 0. -1.
       -3    1    3    3    0  502  0.10976385101E+04  0.48701177223E+03  0.98055873610E+03  0.15503180997E+04  0.10100000352E+00 0.  1.
</event>
<event>
 5   0  0.1932012E-06  0.2700840E+04  0.7818609E-02  0.8334733E-01
        2   -1    0    0  501    0  0.00000000000E+00  0.00000000000E+00  0.19535838689E+04  0.19535838689E+04  0.25500000920E-02 0. -1.
       -2   -1    0    0    0  501  0.00000000000E+00  0.00000000000E+00 -0.93348107727E+03  0.93348107728E+03  0.25500000920E-02 0.  1.
    10030    2    1    2    0    0  0.00000000000E+00  0.00000000000E+00  0.10201027917E+04  0.28870649462E+04  0.27008395543E+04 0.  0.
        2    1    3    3  502    0 -0.80866536205E+03  0.98466013504E+03  0.31836721090E+02  0.12745622096E+04  0.25500000920E-02 0.  1.
       -2    1    3    3    0  502  0.80866536205E+03 -0.98466013504E+03  0.98826607057E+03  0.16125027366E+04  0.25500000920E-02 0. -1.
</event>
<event>
 5   0  0.7768032E-07  0.2698513E+04  0.7818609E-02  0.8335488E-01
       -1   -1    0    0    0  501  0.00000000000E+00  0.00000000000E+00  0.22223575590E+04  0.22223575591E+04  0.50400001928E-02 0.  1.
        1   -1    0    0  501    0  0.00000000000E+00  0.00000000000E+00 -0.81917206004E+03  0.81917206006E+03  0.50400001928E-02 0. -1.
    10030    2    1    2    0    0  0.00000000000E+00  0.00000000000E+00  0.14031854990E+04  0.30415296191E+04  0.26985130867E+04 0.  0.
        4    1    3    3  502    0 -0.58193454389E+03  0.59610557476E+03 -0.49468904352E+03  0.96886971896E+03  0.12699999809E+01 0. -1.
       -4    1    3    3    0  502  0.58193454389E+03 -0.59610557476E+03  0.18978745425E+04  0.20726599002E+04  0.12699999809E+01 0.  1.
</event>
<event>
 5   0  0.7806808E-07  0.2703002E+04  0.7818609E-02  0.8334032E-01
        1   -1    0    0  501    0  0.00000000000E+00  0.00000000000E+00  0.12576253387E+04  0.12576253387E+04  0.50400001928E-02 0. -1.
       -1   -1    0    0    0  501  0.00000000000E+00  0.00000000000E+00 -0.14523837334E+04  0.14523837334E+04  0.50400001928E-02 0.  1.
    10030    2    1    2    0    0  0.00000000000E+00  0.00000000000E+00 -0.19475839471E+03  0.27100090721E+04  0.27030017274E+04 0.  0.
        5    1    3    3  502    0  0.28089416792E+03  0.32954544844E+03 -0.13809445137E+04  0.14472496592E+04  0.46999998093E+01 0.  1.
       -5    1    3    3    0  502 -0.28089416792E+03 -0.32954544844E+03  0.11861861189E+04  0.12627594129E+04  0.46999998093E+01 0. -1.
</event>
<event>
 5   0  0.1991277E-06  0.2700805E+04  0.7818609E-02  0.8334744E-01
        2   -1    0    0  501    0  0.00000000000E+00  0.00000000000E+00  0.15672039827E+04  0.15672039827E+04  0.25500000920E-02 0. -1.
       -2   -1    0    0    0  501  0.00000000000E+00  0.00000000000E+00 -0.11635923158E+04  0.11635923158E+04  0.25500000920E-02 0.  1.
    10030    2    1    2    0    0  0.00000000000E+00  0.00000000000E+00  0.40361166687E+03  0.27307962985E+04  0.27008047035E+04 0.  0.
        5    1    3    3  502    0  0.56970248067E+03 -0.10748196305E+04  0.79463253058E+03  0.14530179295E+04  0.46999998093E+01 0. -1.
       -5    1    3    3    0  502 -0.56970248067E+03  0.10748196305E+04 -0.39102086372E+03  0.12777783691E+04  0.46999998093E+01 0.  1.
</event>
<event>
 5   0  0.7806808E-07  0.2696609E+04  0.7818609E-02  0.8336106E-01
        1   -1    0    0  501    0  0.00000000000E+00  0.00000000000E+00  0.83110283084E+03  0.83110283086E+03  0.50400001928E-02 0. -1.
       -1   -1    0    0    0  501  0.00000000000E+00  0.00000000000E+00 -0.21873648847E+04  0.21873648847E+04  0.50400001928E-02 0.  1.
    10030    2    1    2    0    0  0.00000000000E+00  0.00000000000E+00 -0.13562620539E+04  0.30184677156E+04  0.26966090913E+04 0.  0.
        5    1    3    3  502    0 -0.59721504377E+03  0.88395263911E+03  0.24482259136E+03  0.10945310722E+04  0.46999998093E+01 0. -1.
       -5    1    3    3    0  502  0.59721504377E+03 -0.88395263911E+03 -0.16010846453E+04  0.19239366434E+04  0.46999998093E+01 0.  1.
</event>
<event>
 5   0  0.7436613E-07  0.2707992E+04  0.7818609E-02  0.8332416E-01
       -1   -1    0    0    0  501  0.00000000000E+00  0.00000000000E+00  0.14266937340E+04  0.14266937340E+04  0.50400001928E-02 0.  1.
        1   -1    0    0  501    0  0.00000000000E+00  0.00000000000E+00 -0.12850026357E+04  0.12850026357E+04  0.50400001928E-02 0. -1.
    10030    2    1    2    0    0  0.00000000000E+00  0.00000000000E+00  0.14169109833E+03  0.27116963697E+04  0.27079920299E+04 0.  0.
        2    1    3    3  502    0 -0.53254654059E+03  0.12155374996E+04 -0.19816291545E+03  0.13417920002E+04  0.25500000920E-02 0. -1.
       -2    1    3    3    0  502  0.53254654059E+03 -0.12155374996E+04  0.33985401378E+03  0.13699043695E+04  0.25500000920E-02 0.  1.
</event>
<event>
 5   0  0.2030645E-06  0.2708917E+04  0.7818609E-02  0.8332117E-01
        2   -1    0    0  501    0  0.00000000000E+00  0.00000000000E+00  0.14438448193E+04  0.14438448193E+04  0.25500000920E-02 0. -1.
       -2   -1    0    0    0  501  0.00000000000E+00  0.00000000000E+00 -0.12706062855E+04  0.12706062855E+04  0.25500000920E-02 0.  1.
    10030    2    1    2    0    0  0.00000000000E+00  0.00000000000E+00  0.17323853385E+03  0.27144511048E+04  0.27089173503E+04 0.  0.
        1    1    3    3  502    0 -0.11519945041E+04  0.28953254214E+03 -0.56558503248E+03  0.13156013300E+04  0.50400001928E-02 0.  1.
       -1    1    3    3    0  502  0.11519945041E+04 -0.28953254214E+03  0.73882356634E+03  0.13988497748E+04  0.50400001928E-02 0. -1.
</event>
<event>
 5   0  0.7566905E-07  0.2672921E+04  0.7818609E-02  0.8343845E-01
        1   -1    0    0  501    0  0.00000000000E+00  0.00000000000E+00  0.18953673583E+04  0.18953673583E+04  0.50400001928E-02 0. -1.
       -1   -1    0    0    0  501  0.00000000000E+00  0.00000000000E+00 -0.94236432904E+03  0.94236432905E+03  0.50400001928E-02 0.  1.
    10030    2    1    2    0    0  0.00000000000E+00  0.00000000000E+00  0.95300302928E+03  0.28377316874E+04  0.26729209408E+04 0.  0.
        1    1    3    3  502    0 -0.24866978926E+03  0.40347705534E+03 -0.85014640651E+03  0.97333412085E+03  0.50400001928E-02 0.  1.
       -1    1    3    3    0  502  0.24866978926E+03 -0.40347705534E+03  0.18031494358E+04  0.18643975665E+04  0.50400001928E-02 0. -1.
</event>
<event>
 5   0  0.2030645E-06  0.2700770E+04  0.7818609E-02  0.8334755E-01
       -2   -1    0    0    0  501  0.00000000000E+00  0.00000000000E+00  0.12056505933E+04  0.12056505933E+04  0.25500000920E-02 0.  1.
        2   -1    0    0  501    0  0.00000000000E+00  0.00000000000E+00 -0.15124939832E+04  0.15124939832E+04  0.25500000920E-02 0. -1.
    10030    2    1    2    0    0  0.00000000000E+00  0.00000000000E+00 -0.30684338989E+03  0.27181445765E+04  0.27007697186E+04 0.  0.
        1    1    3    3  502    0 -0.99823985592E+03  0.50537001031E+03 -0.91436621225E+03  0.14449730888E+04  0.50400001928E-02 0. -1.
       -1    1    3    3    0  502  0.99823985592E+03 -0.50537001031E+03  0.60752282236E+03  0.12731714877E+04  0.50400001928E-02 0.  1.
</event>
<event>
 5   0  0.2030645E-06  0.2703601E+04  0.7818609E-02  0.8333838E-01
       -2   -1    0    0    0  501  0.00000000000E+00  0.00000000000E+00  0.10074462265E+04  0.10074462265E+04  0.25500000920E-02 0.  1.
        2   -1    0    0  501    0  0.00000000000E+00  0.00000000000E+00 -0.18138577626E+04  0.18138577626E+04  0.25500000920E-02 0. -1.
    10030    2    1    2    0    0  0.00000000000E+00  0.00000000000E+00 -0.80641153607E+03  0.28213039891E+04  0.27036006793E+04 0.  0.
        1    1    3    3  502    0 -0.34806994264E+03 -0.22955360637E+03 -0.17450793957E+04  0.17941988854E+04  0.50400001928E-02 0. -1.
       -1    1    3    3    0  502  0.34806994264E+03  0.22955360637E+03  0.93866785964E+03  0.10271051036E+04  0.50400001928E-02 0.  1.
</event>
<event>
 5   0  0.7768032E-07  0.2705729E+04  0.7818609E-02  0.8333149E-01
        1   -1    0    0  501    0  0.00000000000E+00  0.00000000000E+00  0.16118183636E+04  0.16118183636E+04  0.50400001928E-02 0.  1.
       -1   -1    0    0    0  501  0.00000000000E+00  0.00000000000E+00 -0.11355137895E+04  0.11355137895E+04  0.50400001928E-02 0. -1.
    10030    2    1    2    0    0  0.00000000000E+00  0.00000000000E+00  0.47630457414E+03  0.27473321532E+04  0.27057287211E+04 0.  0.
        4    1    3    3  502    0  0.12181482168E+04 -0.16358377675E+03 -0.33586812598E+03  0.12741482414E+04  0.12699999809E+01 0.  1.
       -4    1    3    3    0  502 -0.12181482168E+04  0.16358377675E+03  0.81217270012E+03  0.14731839117E+04  0.12699999809E+01 0. -1.
</event>
<event>
 5   0  0.7335091E-07  0.2697994E+04  0.7818609E-02  0.8335656E-01
       -1   -1    0    0    0  501  0.00000000000E+00  0.00000000000E+00  0.96798107178E+03  0.96798107179E+03  0.50400001928E-02 0.  1.
        1   -1    0    0  501    0  0.00000000000E+00  0.00000000000E+00 -0.18799883695E+04  0.18799883695E+04  0.50400001928E-02 0. -1.
    10030    2    1    2    0    0  0.00000000000E+00  0.00000000000E+00 -0.91200729770E+03  0.28479694413E+04  0.26979941859E+04 0.  0.
        3    1    3    3  502    0 -0.50941939733E+03  0.11053545886E+04 -0.10701309732E+04  0.16206471544E+04  0.10100000352E+00 0. -1.
       -3    1    3    3    0  502  0.50941939733E+03 -0.11053545886E+04  0.15812367548E+03  0.12273222869E+04  0.10100000352E+00 0.  1.
</event>
<event>
 5   0  0.1999104E-06  0.2703287E+04  0.7818609E-02  0.8333939E-01
       -2   -1    0    0    0  501  0.00000000000E+00  0.00000000000E+00  0.14311276095E+04  0.14311276095E+04  0.25500000920E-02 0. -1.
        2   -1    0    0  501    0  0.00000000000E+00  0.00000000000E+00 -0.12765741280E+04  0.12765741280E+04  0.25500000920E-02 0.  1.
    10030    2    1    2    0    0  0.00000000000E+00  0.00000000000E+00  0.15455348148E+03  0.27077017375E+04  0.27032872434E+04 0.  0.
        4    1    3    3  502    0 -0.95449862902E+03 -0.27411626913E+03 -0.84113470991E+03  0.13014286669E+04  0.12699999809E+01 0.  1.
       -4    1    3    3    0  502  0.95449862902E+03  0.27411626913E+03  0.99568819139E+03  0.14062730706E+04  0.12699999809E+01 0. -1.
</event>
<event>
 5   0  0.7768032E-07  0.2702229E+04  0.7818609E-02  0.8334282E-01
        1   -1    0    0  501    0  0.00000000000E+00  0.00000000000E+00  0.10128652651E+04  0.10128652651E+04  0.50400001928E-02 0. -1.
       -1   -1    0    0    0  501  0.00000000000E+00  0.00000000000E+00 -0.18023236258E+04  0.18023236258E+04  0.50400001928E-02 0.  1.
    10030    2    1    2    0    0  0.00000000000E+00  0.00000000000E+00 -0.78945836074E+03  0.28151888909E+04  0.27022294477E+04 0.  0.
        4    1    3    3  502    0  0.11544582701E+02 -0.69274277784E+03 -0.16031675712E+04  0.17464746514E+04  0.12699999809E+01 0.  1.
       -4    1    3    3    0  502 -0.11544582701E+02  0.69274277784E+03  0.81370921048E+03  0.10687142395E+04  0.12699999809E+01 0. -1.
</event>
<event>
 5   0  0.7566905E-07  0.2701504E+04  0.7818609E-02  0.8334517E-01
        1   -1    0    0  501    0  0.00000000000E+00  0.00000000000E+00  0.14100858103E+04  0.14100858103E+04  0.50400001928E-02 0. -1.
       -1   -1    0    0    0  501  0.00000000000E+00  0.00000000000E+00 -0.12939147316E+04  0.12939147317E+04  0.50400001928E-02 0.  1.
    10030    2    1    2    0    0  0.00000000000E+00  0.00000000000E+00  0.11617107866E+03  0.27040005420E+04  0.27015038796E+04 0.  0.
        1    1    3    3  502    0 -0.18917491598E+03  0.35215321711E+03 -0.12333517199E+04  0.12965166802E+04  0.50400001928E-02 0.  1.
       -1    1    3    3    0  502  0.18917491598E+03 -0.35215321711E+03  0.13495227986E+04  0.14074838617E+04  0.50400001928E-02 0. -1.
</event>
<event>
 5   0  0.7806808E-07  0.2699953E+04  0.7818609E-02  0.8335020E-01
        1   -1    0    0  501    0  0.00000000000E+00  0.00000000000E+00  0.21439716220E+04  0.21439716220E+04  0.50400001928E-02 0.  1.
       -1   -1    0    0    0  501  0.00000000000E+00  0.00000000000E+00 -0.85002801865E+03  0.85002801867E+03  0.50400001928E-02 0. -1.
    10030    2    1    2    0    0  0.00000000000E+00  0.00000000000E+00  0.12939436034E+04  0.29939996407E+04  0.26999525551E+04 0.  0.
        5    1    3    3  502    0  0.62771007480E+03 -0.33497230372E+03  0.19191691575E+04  0.20468167303E+04  0.46999998093E+01 0.  1.
       -5    1    3    3    0  502 -0.62771007480E+03  0.33497230372E+03 -0.62522555412E+03  0.94718291042E+03  0.46999998093E+01 0. -1.
</event>
<event>
 5   0  0.1999104E-06  0.2700268E+04  0.7818609E-02  0.8334918E-01
        2   -1    0    0  501    0  0.00000000000E+00  0.00000000000E+00  0.13670567105E+04  0.13670567105E+04  0.25500000920E-02 0. -1.
       -2   -1    0    0    0  501  0.00000000000E+00  0.00000000000E+00 -0.13334207991E+04  0.13334207991E+04  0.25500000920E-02 0.  1.
    10030    2    1    2    0    0  0.00000000000E+00  0.00000000000E+00  0.33635911397E+02  0.27004775096E+04  0.27002680247E+04 0.  0.
        4    1    3    3  502    0 -0.70916833483E+02  0.12487598058E+04 -0.49158157989E+03  0.13439063630E+04  0.12699999809E+01 0.  1.
       -4    1    3    3    0  502  0.70916833483E+02 -0.12487598058E+04  0.52521749129E+03  0.13565711466E+04  0.12699999809E+01 0. -1.
</event>
<event>
 5   0  0.1932012E-06  0.2701777E+04  0.7818609E-02  0.8334429E-01
       -2   -1    0    0    0  501  0.00000000000E+00  0.00000000000E+00  0.13353692676E+04  0.13353692676E+04  0.25500000920E-02 0. -1.
        2   -1    0    0  501    0  0.00000000000E+00  0.00000000000E+00 -0.13665879331E+04  0.13665879331E+04  0.25500000920E-02 0.  1.
    10030    2    1    2    0    0  0.00000000000E+00  0.00000000000E+00 -0.31218665526E+02  0.27019572007E+04  0.27017768430E+04 0.  0.
        2    1    3    3  502    0  0.97914209564E+03 -0.93053290828E+03  0.13856378736E+01  0.13507822389E+04  0.25500000920E-02 0. -1.
       -2    1    3    3    0  502 -0.97914209564E+03  0.93053290828E+03 -0.32604303400E+02  0.13511749618E+04  0.25500000920E-02 0.  1.
</event>
<event>
 5   0  0.7806808E-07  0.2683566E+04  0.7818609E-02  0.8340357E-01
        1   -1    0    0  501    0  0.00000000000E+00  0.00000000000E+00  0.24982947251E+04  0.24982947251E+04  0.50400001928E-02 0.  1.
       -1   -1    0    0    0  501  0.00000000000E+00  0.00000000000E+00 -0.72064433819E+03  0.72064433820E+03  0.50400001928E-02 0. -1.
    10030    2    1    2    0    0  0.00000000000E+00  0.00000000000E+00  0.17776503869E+04  0.32189390633E+04  0.26835662457E+04 0.  0.
        5    1    3    3  502    0  0.47525552088E+02 -0.89489324583E+03  0.20866856139E+04  0.22709847073E+04  0.46999998093E+01 0.  1.
       -5    1    3    3    0  502 -0.47525552088E+02  0.89489324583E+03 -0.30903522700E+03  0.94795435600E+03  0.46999998093E+01 0. -1.
</event>
<event>
 5   0  0.7566905E-07  0.2697143E+04  0.7818609E-02  0.8335932E-01
        1   -1    0    0  501    0  0.00000000000E+00  0.00000000000E+00  0.21565369945E+04  0.21565369945E+04  0.50400001928E-02 0. -1.
       -1   -1    0    0    0  501  0.00000000000E+00  0.00000000000E+00 -0.84331747688E+03  0.84331747689E+03  0.50400001928E-02 0.  1.
    10030    2    1    2    0    0  0.00000000000E+00  0.00000000000E+00  0.13132195176E+04  0.29998544714E+04  0.26971431827E+04 0.  0.
        1    1    3    3  502    0  0.62220156129E+03  0.53555360378E+03 -0.53337302261E+03  0.97899909432E+03  0.50400001928E-02 0.  1.
       -1    1    3    3    0  502 -0.62220156129E+03 -0.53555360378E+03  0.18465925402E+04  0.20208553770E+04  0.50400001928E-02 0. -1.
</event>
<event>
 5   0  0.2063087E-06  0.2694239E+04  0.7818609E-02  0.8336877E-01
        2   -1    0    0  501    0  0.00000000000E+00  0.00000000000E+00  0.10398174623E+04  0.10398174623E+04  0.25500000920E-02 0. -1.
       -2   -1    0    0    0  501  0.00000000000E+00  0.00000000000E+00 -0.17452396262E+04  0.17452396262E+04  0.25500000920E-02 0.  1.
    10030    2    1    2    0    0  0.00000000000E+00  0.00000000000E+00 -0.70542216395E+03  0.27850570885E+04  0.26942387713E+04 0.  0.
        3    1    3    3  502    0  0.12202722953E+03  0.12700223918E+04  0.94160816752E+02  0.12793411546E+04  0.10100000352E+00 0. -1.
       -3    1    3    3    0  502 -0.12202722953E+03 -0.12700223918E+04 -0.79958298070E+03  0.15057159339E+04  0.10100000352E+00 0.  1.
</event>
<event>
 5   0  0.1999104E-06  0.2702483E+04  0.7818609E-02  0.8334200E-01
       -2   -1    0    0    0  501  0.00000000000E+00  0.00000000000E+00  0.10816402837E+04  0.10816402837E+04  0.25500000920E-02 0. -1.
        2   -1    0    0  501    0  0.00000000000E+00  0.00000000000E+00 -0.16880419275E+04  0.16880419275E+04  0.25500000920E-02 0.  1.
    10030    2    1    2    0    0  0.00000000000E+00  0.00000000000E+00 -0.60640164381E+03  0.27696822113E+04  0.27024834130E+04 0.  0.
        4    1    3    3  502    0 -0.43979896094E+03  0.75399211819E+03  0.75391475440E+03  0.11533933892E+04  0.12699999809E+01 0. -1.
       -4    1    3    3    0  502  0.43979896094E+03 -0.75399211819E+03 -0.13603163982E+04  0.16162888221E+04  0.12699999809E+01 0.  1.
</event>
<event>
 5   0  0.1999104E-06  0.2695855E+04  0.7818609E-02  0.8336351E-01
       -2   -1    0    0    0  501  0.00000000000E+00  0.00000000000E+00  0.19718971650E+04  0.19718971650E+04  0.25500000920E-02 0.  1.
        2   -1    0    0  501    0  0.00000000000E+00  0.00000000000E+00 -0.92140116128E+03  0.92140116128E+03  0.25500000920E-02 0. -1.
    10030    2    1    2    0    0  0.00000000000E+00  0.00000000000E+00  0.10504960037E+04  0.28932983263E+04  0.26958548461E+04 0.  0.
        4    1    3    3  502    0  0.40986694787E+03  0.96817113541E+02  0.18994735505E+04  0.19456016679E+04  0.12699999809E+01 0.  1.
       -4    1    3    3    0  502 -0.40986694787E+03 -0.96817113541E+02 -0.84897754676E+03  0.94769665834E+03  0.12699999809E+01 0. -1.
</event>
<event>
 5   0  0.7335091E-07  0.2708381E+04  0.7818609E-02  0.8332291E-01
        1   -1    0    0  501    0  0.00000000000E+00  0.00000000000E+00  0.91111963875E+03  0.91111963876E+03  0.50400001928E-02 0. -1.
       -1   -1    0    0    0  501  0.00000000000E+00  0.00000000000E+00 -0.20127241889E+04  0.20127241889E+04  0.50400001928E-02 0.  1.
    10030    2    1    2    0    0  0.00000000000E+00  0.00000000000E+00 -0.11016045502E+04  0.29238438277E+04  0.27083814620E+04 0.  0.
        3    1    3    3  502    0 -0.88096202000E+03 -0.69632644040E+03  0.26629092409E+03  0.11540690875E+04  0.10100000352E+00 0. -1.
       -3    1    3    3    0  502  0.88096202000E+03  0.69632644040E+03 -0.13678954742E+04  0.17697747402E+04  0.10100000352E+00 0.  1.
</event>
<event>
 5   0  0.7335091E-07  0.2703669E+04  0.7818609E-02  0.8333815E-01
       -1   -1    0    0    0  501  0.00000000000E+00  0.00000000000E+00  0.12485394641E+04  0.12485394641E+04  0.50400001928E-02 0.  1.
        1   -1    0    0  501    0  0.00000000000E+00  0.00000000000E+00 -0.14636758721E+04  0.14636758721E+04  0.50400001928E-02 0. -1.
    10030    2    1    2    0    0  0.00000000000E+00  0.00000000000E+00 -0.21513640804E+03  0.27122153362E+04  0.27036694243E+04 0.  0.
        3    1    3    3  502    0  0.82983727894E+03  0.65367027130E+03 -0.95376417522E+03  0.14232290207E+04  0.10100000352E+00 0. -1.
       -3    1    3    3    0  502 -0.82983727894E+03 -0.65367027130E+03  0.73862776718E+03  0.12889863156E+04  0.10100000352E+00 0.  1.
</event>
<event>
 5   0  0.7335091E-07  0.2676582E+04  0.7818609E-02  0.8342644E-01
       -1   -1    0    0    0  501  0.00000000000E+00  0.00000000000E+00  0.15928679430E+04  0.15928679430E+04  0.50400001928E-02 0.  1.
        1   -1    0    0  501    0  0.00000000000E+00  0.00000000000E+00 -0.11244010436E+04  0.11244010436E+04  0.50400001928E-02 0. -1.
    10030    2    1    2    0    0  0.00000000000E+00  0.00000000000E+00  0.46846689940E+03  0.27172689867E+04  0.26765816838E+04 0.  0.
        3    1    3    3  502    0  0.11475113755E+04 -0.50358671827E+03  0.71109760154E+03  0.14408475800E+04  0.10100000352E+00 0.  1.
       -3    1    3    3    0  502 -0.11475113755E+04  0.50358671827E+03 -0.24263070215E+03  0.12764214067E+04  0.10100000352E+00 0. -1.
</event>
<event>
 5   0  0.7436613E-07  0.2700867E+04  0.7818609E-02  0.8334724E-01
       -1   -1    0    0    0  501  0.00000000000E+00  0.00000000000E+00  0.14470926471E+04  0.14470926471E+04  0.50400001928E-02 0. -1.
        1   -1    0    0  501    0  0.00000000000E+00  0.00000000000E+00 -0.12602302874E+04  0.12602302874E+04  0.50400001928E-02 0.  1.
    10030    2    1    2    0    0  0.00000000000E+00  0.00000000000E+00  0.18686235967E+03  0.27073229345E+04  0.27008665147E+04 0.  0.
        2    1    3    3  502    0  0.12698200227E+04 -0.13693233604E+03  0.53320152692E+03  0.13840148927E+04  0.25500000920E-02 0. -1.
       -2    1    3    3    0  502 -0.12698200227E+04  0.13693233604E+03 -0.34633916725E+03  0.13233080418E+04  0.25500000920E-02 0.  1.
</event>
<event>
 5   0  0.2063087E-06  0.2700638E+04  0.7818609E-02  0.8334798E-01
       -2   -1    0    0    0  501  0.00000000000E+00  0.00000000000E+00  0.90332395758E+03  0.90332395758E+03  0.25500000920E-02 0.  1.
        2   -1    0    0  501    0  0.00000000000E+00  0.00000000000E+00 -0.20185021341E+04  0.20185021342E+04  0.25500000920E-02 0. -1.
    10030    2    1    2    0    0  0.00000000000E+00  0.00000000000E+00 -0.11151781766E+04  0.29218260917E+04  0.27006379515E+04 0.  0.
        3    1    3    3  502    0 -0.11566584482E+03 -0.11294437862E+03 -0.20079943944E+04  0.20144916278E+04  0.10100000352E+00 0. -1.
       -3    1    3    3    0  502  0.11566584482E+03  0.11294437862E+03  0.89281621786E+03  0.90733446391E+03  0.10100000352E+00 0.  1.
</event>
<event>
 5   0  0.2063087E-06  0.2700868E+04  0.7818609E-02  0.8334723E-01
       -2   -1    0    0    0  501  0.00000000000E+00  0.00000000000E+00  0.10138067241E+04  0.10138067241E+04  0.25500000920E-02 0. -1.
        2   -1    0    0  501    0  0.00000000000E+00  0.00000000000E+00 -0.17988358810E+04  0.17988358810E+04  0.25500000920E-02 0.  1.
    10030    2    1    2    0    0  0.00000000000E+00  0.00000000000E+00 -0.78502915691E+03  0.28126426050E+04  0.27008679432E+04 0.  0.
        3    1    3    3  502    0  0.70611031180E+03 -0.63841734383E+03 -0.13900195013E+04  0.16847322343E+04  0.10100000352E+00 0. -1.
       -3    1    3    3    0  502 -0.70611031180E+03  0.63841734383E+03  0.60499034435E+03  0.11279103707E+04  0.10100000352E+00 0.  1.
</event>
<event>
 5   0  0.7335091E-07  0.2697733E+04  0.7818609E-02  0.8335741E-01
       -1   -1    0    0    0  501  0.00000000000E+00  0.00000000000E+00  0.16183867318E+04  0.16183867318E+04  0.50400001928E-02 0.  1.
        1   -1    0    0  501    0  0.00000000000E+00  0.00000000000E+00 -0.11242309817E+04  0.11242309817E+04  0.50400001928E-02 0. -1.
    10030    2    1    2    0    0  0.00000000000E+00  0.00000000000E+00  0.49415575007E+03  0.27426177135E+04  0.26977327550E+04 0.  0.
        3    1    3    3  502    0 -0.25037005806E+03 -0.16918580584E+03  0.15835341171E+04  0.16121071034E+04  0.10100000352E+00 0.  1.
       -3    1    3    3    0  502  0.25037005806E+03  0.16918580584E+03 -0.10893783670E+04  0.11305106101E+04  0.10100000352E+00 0. -1.
</event>
<event>
 5   0  0.1932012E-06  0.2704668E+04  0.7818609E-02  0.8333492E-01
        2   -1    0    0  501    0  0.00000000000E+00  0.00000000000E+00  0.12322292466E+04  0.12322292466E+04  0.25500000920E-02 0. -1.
       -2   -1    0    0    0  501  0.00000000000E+00  0.00000000000E+00 -0.14841457922E+04  0.14841457922E+04  0.25500000920E-02 0.  1.
    10030    2    1    2    0    0  0.00000000000E+00  0.00000000000E+00 -0.25191654558E+03  0.27163750388E+04  0.27046684465E+04 0.  0.
        2    1    3    3  502    0  0.26484453322E+02 -0.53654181643E+02  0.12308991556E+04  0.12323525992E+04  0.25500000920E-02 0. -1.
       -2    1    3    3    0  502 -0.26484453322E+02  0.53654181643E+02 -0.14828157012E+04  0.14840224396E+04  0.25500000920E-02 0.  1.
</event>
<event>
 5   0  0.2030645E-06  0.2696449E+04  0.7818609E-02  0.8336158E-01
       -2   -1    0    0    0  501  0.00000000000E+00  0.00000000000E+00  0.76153176656E+03  0.76153176656E+03  0.25500000920E-02 0. -1.
        2   -1    0    0  501    0  0.00000000000E+00  0.00000000000E+00 -0.23869123687E+04  0.23869123687E+04  0.25500000920E-02 0.  1.
    10030    2    1    2    0    0  0.00000000000E+00  0.00000000000E+00 -0.16253806021E+04  0.31484441352E+04  0.26964492154E+04 0.  0.
        1    1    3    3  502    0  0.11663947135E+04  0.33181488419E+03 -0.15006309575E+04  0.19293706268E+04  0.50400001928E-02 0.  1.
       -1    1    3    3    0  502 -0.11663947135E+04 -0.33181488419E+03 -0.12474964461E+03  0.12190735084E+04  0.50400001928E-02 0. -1.
</event>
<event>
 5   0  0.1999104E-06  0.2697450E+04  0.7818609E-02  0.8335833E-01
       -2   -1    0    0    0  501  0.00000000000E+00  0.00000000000E+00  0.10273203779E+04  0.10273203779E+04  0.25500000920E-02 0. -1.
        2   -1    0    0  501    0  0.00000000000E+00  0.00000000000E+00 -0.17706831083E+04  0.17706831083E+04  0.25500000920E-02 0.  1.
    10030    2    1    2    0    0  0.00000000000E+00  0.00000000000E+00 -0.74336273034E+03  0.27980034862E+04  0.26974497882E+04 0.  0.
        4    1    3    3  502    0 -0.28710874799E+03 -0.77110768238E+03 -0.14801706428E+04  0.16935008815E+04  0.12699999809E+01 0.  1.
       -4    1    3    3    0  502  0.28710874799E+03  0.77110768238E+03  0.73680791244E+03  0.11045026047E+04  0.12699999809E+01 0. -1.
</event>
<event>
 5   0  0.7806808E-07  0.2699226E+04  0.7818609E-02  0.8335256E-01
       -1   -1    0    0    0  501  0.00000000000E+00  0.00000000000E+00  0.21851782558E+04  0.21851782558E+04  0.50400001928E-02 0.  1.
        1   -1    0    0  501    0  0.00000000000E+00  0.00000000000E+00 -0.83354968469E+03  0.83354968470E+03  0.50400001928E-02 0. -1.
    10030    2    1    2    0    0  0.00000000000E+00  0.00000000000E+00  0.13516285711E+04  0.30187279405E+04  0.26992255527E+04 0.  0.
        5    1    3    3  502    0  0.10286995234E+04 -0.37781507410E+03  0.15567488650E+04  0.19038004251E+04  0.46999998093E+01 0.  1.
       -5    1    3    3    0  502 -0.10286995234E+04  0.37781507410E+03 -0.20512029397E+03  0.11149275154E+04  0.46999998093E+01 0. -1.
</event>
<event>
 5   0  0.2030645E-06  0.2702295E+04  0.7818609E-02  0.8334261E-01
        2   -1    0    0  501    0  0.00000000000E+00  0.00000000000E+00  0.18957183498E+04  0.18957183498E+04  0.25500000920E-02 0.  1.
       -2   -1    0    0    0  501  0.00000000000E+00  0.00000000000E+00 -0.96301170843E+03  0.96301170843E+03  0.25500000920E-02 0. -1.
    10030    2    1    2    0    0  0.00000000000E+00  0.00000000000E+00  0.93270664137E+03  0.28587300582E+04  0.27022945559E+04 0.  0.
        1    1    3    3  502    0  0.28715375577E+03 -0.11488481400E+04  0.11546240187E+04  0.16539244097E+04  0.50400001928E-02 0.  1.
       -1    1    3    3    0  502 -0.28715375577E+03  0.11488481400E+04 -0.22191737736E+03  0.12048056485E+04  0.50400001928E-02 0. -1.
</event>
<event>
 5   0  0.1991277E-06  0.2698234E+04  0.7818609E-02  0.8335578E-01
       -2   -1    0    0    0  501  0.00000000000E+00  0.00000000000E+00  0.95250247582E+03  0.95250247582E+03  0.25500000920E-02 0.  1.
        2   -1    0    0  501    0  0.00000000000E+00  0.00000000000E+00 -0.19108783828E+04  0.19108783828E+04  0.25500000920E-02 0. -1.
    10030    2    1    2    0    0  0.00000000000E+00  0.00000000000E+00 -0.95837590699E+03  0.28633808586E+04  0.26982337857E+04 0.  0.
        5    1    3    3  502    0  0.62789494705E+02  0.13376388922E+04 -0.65315439787E+03  0.14899171400E+04  0.46999998093E+01 0.  1.
       -5    1    3    3    0  502 -0.62789494705E+02 -0.13376388922E+04 -0.30522150912E+03  0.13734637186E+04  0.46999998093E+01 0. -1.
</event>
<event>
 5   0  0.7768032E-07  0.2700366E+04  0.7818609E-02  0.8334886E-01
        1   -1    0    0  501    0  0.00000000000E+00  0.00000000000E+00  0.19946488366E+04  0.19946488366E+04  0.50400001928E-02 0. -1.
       -1   -1    0    0    0  501  0.00000000000E+00  0.00000000000E+00 -0.91394270905E+03  0.91394270906E+03  0.50400001928E-02 0.  1.
    10030    2    1    2    0    0  0.00000000000E+00  0.00000000000E+00  0.10807061276E+04  0.29085915457E+04  0.27003664650E+04 0.  0.
        4    1    3    3  502    0  0.14196048264E+03 -0.12412485095E+04 -0.11125652726E+02  0.12493902649E+04  0.12699999809E+01 0.  1.
       -4    1    3    3    0  502 -0.14196048264E+03  0.12412485095E+04  0.10918317803E+04  0.16592012808E+04  0.12699999809E+01 0. -1.
</event>
<event>
 5   0  0.1991277E-06  0.2699735E+04  0.7818609E-02  0.8335091E-01
       -2   -1    0    0    0  501  0.00000000000E+00  0.00000000000E+00  0.14821527102E+04  0.14821527102E+04  0.25500000920E-02 0.  1.
        2   -1    0    0  501    0  0.00000000000E+00  0.00000000000E+00 -0.12293888870E+04  0.12293888870E+04  0.25500000920E-02 0. -1.
    10030    2    1    2    0    0  0.00000000000E+00  0.00000000000E+00  0.25276382315E+03  0.27115415972E+04  0.26997348542E+04 0.  0.
        5    1    3    3  502    0 -0.97805633169E+03  0.92509792306E+03  0.22540122800E+03  0.13650011571E+04  0.46999998093E+01 0. -1.
       -5    1    3    3    0  502  0.97805633169E+03 -0.92509792306E+03  0.27362595160E+02  0.13465404401E+04  0.46999998093E+01 0.  1.
</event>
<event>
 5   0  0.1932012E-06  0.2700031E+04  0.7818609E-02  0.8334995E-01
        2   -1    0    0  501    0  0.00000000000E+00  0.00000000000E+00  0.10063381038E+04  0.10063381038E+04  0.25500000920E-02 0.  1.
       -2   -1    0    0    0  501  0.00000000000E+00  0.00000000000E+00 -0.18110626851E+04  0.18110626851E+04  0.25500000920E-02 0. -1.
    10030    2    1    2    0    0  0.00000000000E+00  0.00000000000E+00 -0.80472458129E+03  0.28174007889E+04  0.27000306579E+04 0.  0.
        2    1    3    3  502    0  0.97339065165E+02 -0.46378870462E+02 -0.18065624850E+04  0.18097773083E+04  0.25500000920E-02 0. -1.
       -2    1    3    3    0  502 -0.97339065165E+02  0.46378870462E+02  0.10018379038E+04  0.10076234806E+04  0.25500000920E-02 0.  1.
</event>
<event>
 5   0  0.1932012E-06  0.2698681E+04  0.7818609E-02  0.8335433E-01
       -2   -1    0    0    0  501  0.00000000000E+00  0.00000000000E+00  0.12065879146E+04  0.12065879146E+04  0.25500000920E-02 0. -1.
        2   -1    0    0  501    0  0.00000000000E+00  0.00000000000E+00 -0.15089825011E+04  0.15089825011E+04  0.25500000920E-02 0.  1.
    10030    2    1    2    0    0  0.00000000000E+00  0.00000000000E+00 -0.30239458653E+03  0.27155704157E+04  0.26986811959E+04 0.  0.
        2    1    3    3  502    0 -0.92028035130E+03 -0.37535827218E+03 -0.10695480749E+04  0.14600489177E+04  0.25500000920E-02 0.  1.
       -2    1    3    3    0  502  0.92028035130E+03  0.37535827218E+03  0.76715348834E+03  0.12555214981E+04  0.25500000920E-02 0. -1.
</event>
<event>
 5   0  0.7335091E-07  0.2695005E+04  0.7818609E-02  0.8336628E-01
       -1   -1    0    0    0  501  0.00000000000E+00  0.00000000000E+00  0.23540415512E+04  0.23540415512E+04  0.50400001928E-02 0.  1.
        1   -1    0    0  501    0  0.00000000000E+00  0.00000000000E+00 -0.77133848328E+03  0.77133848329E+03  0.50400001928E-02 0. -1.
    10030    2    1    2    0    0  0.00000000000E+00  0.00000000000E+00  0.15827030679E+04  0.31253800345E+04  0.26950048903E+04 0.  0.
        3    1    3    3  502    0 -0.17577103676E+03  0.99593338400E+03  0.18240546953E+04  0.20856544068E+04  0.10100000352E+00 0.  1.
       -3    1    3    3    0  502  0.17577103676E+03 -0.99593338400E+03 -0.24135162739E+03  0.10397256277E+04  0.10100000352E+00 0. -1.
</event>
<event>
 5   0  0.7436613E-07  0.2697169E+04  0.7818609E-02  0.8335924E-01
       -1   -1    0    0    0  501  0.00000000000E+00  0.00000000000E+00  0.10036108886E+04  0.10036108887E+04  0.50400001928E-02 0.  1.
        1   -1    0    0  501    0  0.00000000000E+00  0.00000000000E+00 -0.18121369135E+04  0.18121369135E+04  0.50400001928E-02 0. -1.
    10030    2    1    2    0    0  0.00000000000E+00  0.00000000000E+00 -0.80852602482E+03  0.28157478021E+04  0.26971691368E+04 0.  0.
        2    1    3    3  502    0  0.80462054080E+02 -0.97437703834E+03  0.56544175083E+03  0.11294286735E+04  0.25500000920E-02 0.  1.
       -2    1    3    3    0  502 -0.80462054080E+02  0.97437703834E+03 -0.13739677756E+04  0.16863191286E+04  0.25500000920E-02 0. -1.
</event>
<event>
 5   0  0.2030645E-06  0.2699226E+04  0.7818609E-02  0.8335256E-01
       -2   -1    0    0    0  501  0.00000000000E+00  0.00000000000E+00  0.11020357667E+04  0.11020357667E+04  0.25500000920E-02 0. -1.
        2   -1    0    0  501    0  0.00000000000E+00  0.00000000000E+00 -0.16528100859E+04  0.16528100859E+04  0.25500000920E-02 0.  1.
    10030    2    1    2    0    0  0.00000000000E+00  0.00000000000E+00 -0.55077431924E+03  0.27548458526E+04  0.26992264301E+04 0.  0.
        1    1    3    3  502    0 -0.11541721267E+04 -0.11780328261E+02  0.43845612206E+03  0.12347047604E+04  0.50400001928E-02 0. -1.
       -1    1    3    3    0  502  0.11541721267E+04  0.11780328261E+02 -0.98923044130E+03  0.15201410922E+04  0.50400001928E-02 0.  1.
</event>
<event>
 5   0  0.7436613E-07  0.2690828E+04  0.7818609E-02  0.8337987E-01
        1   -1    0    0  501    0  0.00000000000E+00  0.00000000000E+00  0.21112214910E+04  0.21112214910E+04  0.50400001928E-02 0. -1.
       -1   -1    0    0    0  501  0.00000000000E+00  0.00000000000E+00 -0.85738954782E+03  0.85738954783E+03  0.50400001928E-02 0.  1.
    10030    2    1    2    0    0  0.00000000000E+00  0.00000000000E+00  0.12538319432E+04  0.29686110389E+04  0.26908283034E+04 0.  0.
        2    1    3    3  502    0  0.88359035734E+03 -0.50200588173E+02  0.17448822026E+04  0.19564932710E+04  0.25500000920E-02 0. -1.
       -2    1    3    3    0  502 -0.88359035734E+03  0.50200588173E+02 -0.49105025942E+03  0.10121177678E+04  0.25500000920E-02 0.  1.
</event>
<event>
 5   0  0.7806808E-07  0.2684160E+04  0.7818609E-02  0.8340163E-01
        1   -1    0    0  501    0  0.00000000000E+00  0.00000000000E+00  0.18790318612E+04  0.18790318612E+04  0.50400001928E-02 0.  1.
       -1   -1    0    0    0  501  0.00000000000E+00  0.00000000000E+00 -0.95856711529E+03  0.95856711530E+03  0.50400001928E-02 0. -1.
    10030    2    1    2    0    0  0.00000000000E+00  0.00000000000E+00  0.92046474590E+03  0.28375989765E+04  0.26841595711E+04 0.  0.
        5    1    3    3  502    0  0.10076131604E+04  0.67051588604E+03  0.10732787830E+04  0.16176604312E+04  0.46999998093E+01 0.  1.
       -5    1    3    3    0  502 -0.10076131604E+04 -0.67051588604E+03 -0.15281403712E+03  0.12199385453E+04  0.46999998093E+01 0. -1.
</event>
<event>
 5   0  0.1991277E-06  0.2703883E+04  0.7818609E-02  0.8333746E-01
        2   -1    0    0  501    0  0.00000000000E+00  0.00000000000E+00  0.15195885031E+04  0.15195885031E+04  0.25500000920E-02 0.  1.
       -2   -1    0    0    0  501  0.00000000000E+00  0.00000000000E+00 -0.12027902195E+04  0.12027902195E+04  0.25500000920E-02 0. -1.
    10030    2    1    2    0    0  0.00000000000E+00  0.00000000000E+00  0.31679828355E+03  0.27223787226E+04  0.27038832735E+04 0.  0.
        5    1    3    3  502    0  0.92042607036E+03 -0.96701314931E+03 -0.56191383811E+02  0.13362178503E+04  0.46999998093E+01 0. -1.
       -5    1    3    3    0  502 -0.92042607036E+03  0.96701314931E+03  0.37298966736E+03  0.13861608723E+04  0.46999998093E+01 0.  1.
</event>
<event>
 5   0  0.7436613E-07  0.2700150E+04  0.7818609E-02  0.8334956E-01
       -1   -1    0    0    0  501  0.00000000000E+00  0.00000000000E+00  0.13692710607E+04  0.13692710607E+04  0.50400001928E-02 0.  1.
        1   -1    0    0  501    0  0.00000000000E+00  0.00000000000E+00 -0.13311482931E+04  0.13311482931E+04  0.50400001928E-02 0. -1.
    10030    2    1    2    0    0  0.00000000000E+00  0.00000000000E+00  0.38122767580E+02  0.27004193538E+04  0.27001502441E+04 0.  0.
        2    1    3    3  502    0  0.19780559336E+03  0.12286981363E+04  0.54244581874E+03  0.13575984786E+04  0.25500000920E-02 0.  1.
       -2    1    3    3    0  502 -0.19780559336E+03 -0.12286981363E+04 -0.50432305116E+03  0.13428208752E+04  0.25500000920E-02 0. -1.
</event>
<event>
 5   0  0.7335091E-07  0.2697311E+04  0.7818609E-02  0.8335878E-01
       -1   -1    0    0    0  501  0.00000000000E+00  0.00000000000E+00  0.77664155849E+03  0.77664155850E+03  0.50400001928E-02 0.  1.
        1   -1    0    0  501    0  0.00000000000E+00  0.00000000000E+00 -0.23419706393E+04  0.23419706393E+04  0.50400001928E-02 0. -1.
    10030    2    1    2    0    0  0.00000000000E+00  0.00000000000E+00 -0.15653290808E+04  0.31186121978E+04  0.26973110516E+04 0.  0.
        3    1    3    3  502    0 -0.73031272774E+03 -0.57374487640E+03  0.34800229107E+03  0.99178902408E+03  0.10100000352E+00 0.  1.
       -3    1    3    3    0  502  0.73031272774E+03  0.57374487640E+03 -0.19133313718E+04  0.21268231737E+04  0.10100000352E+00 0. -1.
</event>
<event>
 5   0  0.7806808E-07  0.2700829E+04  0.7818609E-02  0.8334736E-01
       -1   -1    0    0    0  501  0.00000000000E+00  0.00000000000E+00  0.12856028777E+04  0.12856028777E+04  0.50400001928E-02 0. -1.
        1   -1    0    0  501    0  0.00000000000E+00  0.00000000000E+00 -0.14184935709E+04  0.14184935709E+04  0.50400001928E-02 0.  1.
    10030    2    1    2    0    0  0.00000000000E+00  0.00000000000E+00 -0.13289069319E+03  0.27040964486E+04  0.27008290703E+04 0.  0.
        5    1    3    3  502    0  0.99258381433E+03 -0.91406171985E+03 -0.12846756726E+02  0.13494141637E+04  0.46999998093E+01 0.  1.
       -5    1    3    3    0  502 -0.99258381433E+03  0.91406171985E+03 -0.12004393646E+03  0.13546822848E+04  0.46999998093E+01 0. -1.
</event>
<event>
 5   0  0.1932012E-06  0.2710376E+04  0.7818609E-02  0.8331646E-01
        2   -1    0    0  501    0  0.00000000000E+00  0.00000000000E+00  0.22881388114E+04  0.22881388114E+04  0.25500000920E-02 0.  1.
       -2   -1    0    0    0  501  0.00000000000E+00  0.00000000000E+00 -0.80263218528E+03  0.80263218528E+03  0.25500000920E-02 0. -1.
    10030    2    1    2    0    0  0.00000000000E+00  0.00000000000E+00  0.14855066261E+04  0.30907709967E+04  0.27103755123E+04 0.  0.
        2    1    3    3  502    0  0.53269202473E+03  0.10614991606E+04  0.14870368065E+04  0.19031079120E+04  0.25500000920E-02 0.  1.
       -2    1    3    3    0  502 -0.53269202473E+03 -0.10614991606E+04 -0.15301803722E+01  0.11876630846E+04  0.25500000920E-02 0. -1.
</event>
<event>
 5   0  0.2063087E-06  0.2696889E+04  0.7818609E-02  0.8336015E-01
        2   -1    0    0  501    0  0.00000000000E+00  0.00000000000E+00  0.14747089141E+04  0.14747089141E+04  0.25500000920E-02 0. -1.
       -2   -1    0    0    0  501  0.00000000000E+00  0.00000000000E+00 -0.12329912097E+04  0.12329912097E+04  0.25500000920E-02 0.  1.
    10030    2    1    2    0    0  0.00000000000E+00  0.00000000000E+00  0.24171770442E+03  0.27077001238E+04  0.26968894140E+04 0.  0.
        3    1    3    3  502    0 -0.83977409120E+03 -0.49075009899E+03  0.10585442478E+04  0.14375576923E+04  0.10100000352E+00 0. -1.
       -3    1    3    3    0  502  0.83977409120E+03  0.49075009899E+03 -0.81682654343E+03  0.12701424314E+04  0.10100000352E+00 0.  1.
</event>
<event>
 5   0  0.7335091E-07  0.2703174E+04  0.7818609E-02  0.8333976E-01
       -1   -1    0    0    0  501  0.00000000000E+00  0.00000000000E+00  0.75808183573E+03  0.75808183575E+03  0.50400001928E-02 0.  1.
        1   -1    0    0  501    0  0.00000000000E+00  0.00000000000E+00 -0.24097496987E+04  0.24097496987E+04  0.50400001928E-02 0. -1.
    10030    2    1    2    0    0  0.00000000000E+00  0.00000000000E+00 -0.16516678630E+04  0.31678315345E+04  0.27031740420E+04 0.  0.
        3    1    3    3  502    0  0.11379648853E+04 -0.71393152333E+03 -0.10001475539E+04  0.16748007165E+04  0.10100000352E+00 0.  1.
       -3    1    3    3    0  502 -0.11379648853E+04  0.71393152333E+03 -0.65152030906E+03  0.14930308180E+04  0.10100000352E+00 0. -1.
</event>
<event>
 5   0  0.2030645E-06  0.2700880E+04  0.7818609E-02  0.8334720E-01
        2   -1    0    0  501    0  0.00000000000E+00  0.00000000000E+00  0.77195301784E+03  0.77195301784E+03  0.25500000920E-02 0.  1.
       -2   -1    0    0    0  501  0.00000000000E+00  0.00000000000E+00 -0.23624338908E+04  0.23624338908E+04  0.25500000920E-02 0. -1.
    10030    2    1    2    0    0  0.00000000000E+00  0.00000000000E+00 -0.15904808729E+04  0.31343869086E+04  0.27008798355E+04 0.  0.
        1    1    3    3  502    0 -0.89349886103E+03 -0.53844086733E+03 -0.17904574087E+04  0.20721960608E+04  0.50400001928E-02 0. -1.
       -1    1    3    3    0  502  0.89349886103E+03  0.53844086733E+03  0.19997653571E+03  0.10621908478E+04  0.50400001928E-02 0.  1.
</event>
<event>
 5   0  0.2030645E-06  0.2695422E+04  0.7818609E-02  0.8336492E-01
       -2   -1    0    0    0  501  0.00000000000E+00  0.00000000000E+00  0.18008226127E+04  0.18008226127E+04  0.25500000920E-02 0.  1.
        2   -1    0    0  501    0  0.00000000000E+00  0.00000000000E+00 -0.10086083365E+04  0.10086083365E+04  0.25500000920E-02 0. -1.
    10030    2    1    2    0    0  0.00000000000E+00  0.00000000000E+00  0.79221427617E+03  0.28094309492E+04  0.26954218221E+04 0.  0.
        1    1    3    3  502    0 -0.65589214131E+03 -0.66799275336E+03 -0.61439239197E+03  0.11197708832E+04  0.50400001928E-02 0. -1.
       -1    1    3    3    0  502  0.65589214131E+03  0.66799275336E+03  0.14066066681E+04  0.16896600660E+04  0.50400001928E-02 0.  1.
</event>
<event>
 5   0  0.1991277E-06  0.2698903E+04  0.7818609E-02  0.8335361E-01
        2   -1    0    0  501    0  0.00000000000E+00  0.00000000000E+00  0.20488750975E+04  0.20488750975E+04  0.25500000920E-02 0.  1.
       -2   -1    0    0    0  501  0.00000000000E+00  0.00000000000E+00 -0.88878984086E+03  0.88878984086E+03  0.25500000920E-02 0. -1.
    10030    2    1    2    0    0  0.00000000000E+00  0.00000000000E+00  0.11600852567E+04  0.29376649384E+04  0.26989030156E+04 0.  0.
        5    1    3    3  502    0  0.24649897332E+03 -0.41062444828E+02 -0.86337587872E+03  0.89882582638E+03  0.46999998093E+01 0. -1.
       -5    1    3    3    0  502 -0.24649897332E+03  0.41062444828E+02  0.20234611354E+04  0.20388391120E+04  0.46999998093E+01 0.  1.
</event>
<event>
 5   0  0.2063087E-06  0.2701248E+04  0.7818609E-02  0.8334600E-01
       -2   -1    0    0    0  501  0.00000000000E+00  0.00000000000E+00  0.96112122848E+03  0.96112122848E+03  0.25500000920E-02 0.  1.
        2   -1    0    0  501    0  0.00000000000E+00  0.00000000000E+00 -0.18979754977E+04  0.18979754977E+04  0.25500000920E-02 0. -1.
    10030    2    1    2    0    0  0.00000000000E+00  0.00000000000E+00 -0.93685426919E+03  0.28590967261E+04  0.27012475206E+04 0.  0.
        3    1    3    3  502    0  0.26914822155E+03  0.12853424345E+04 -0.13432576259E+03  0.13200717253E+04  0.10100000352E+00 0.  1.
       -3    1    3    3    0  502 -0.26914822155E+03 -0.12853424345E+04 -0.80252850660E+03  0.15390250009E+04  0.10100000352E+00 0. -1.
</event>
<event>
 5   0  0.7566905E-07  0.2680611E+04  0.7818609E-02  0.8341324E-01
       -1   -1    0    0    0  501  0.00000000000E+00  0.00000000000E+00  0.11552981319E+04  0.11552981319E+04  0.50400001928E-02 0. -1.
        1   -1    0    0  501    0  0.00000000000E+00  0.00000000000E+00 -0.15549394329E+04  0.15549394329E+04  0.50400001928E-02 0.  1.
    10030    2    1    2    0    0  0.00000000000E+00  0.00000000000E+00 -0.39964130106E+03  0.27102375648E+04  0.26806108424E+04 0.  0.
        1    1    3    3  502    0 -0.50347285171E+03 -0.12391243555E+04 -0.28740684660E+03  0.13680339091E+04  0.50400001928E-02 0.  1.
       -1    1    3    3    0  502  0.50347285171E+03  0.12391243555E+04 -0.11223445446E+03  0.13422036558E+04  0.50400001928E-02 0. -1.
</event>
<event>
 5   0  0.7566905E-07  0.2700766E+04  0.7818609E-02  0.8334756E-01
        1   -1    0    0  501    0  0.00000000000E+00  0.00000000000E+00  0.20301429790E+04  0.20301429791E+04  0.50400001928E-02 0.  1.
       -1   -1    0    0    0  501  0.00000000000E+00  0.00000000000E+00 -0.89822976979E+03  0.89822976981E+03  0.50400001928E-02 0. -1.
    10030    2    1    2    0    0  0.00000000000E+00  0.00000000000E+00  0.11319132093E+04  0.29283727489E+04  0.27007664547E+04 0.  0.
        1    1    3    3  502    0 -0.44175291742E+03 -0.47361063435E+03  0.18507567909E+04  0.19608042666E+04  0.50400001928E-02 0.  1.
       -1    1    3    3    0  502  0.44175291742E+03  0.47361063435E+03 -0.71884358160E+03  0.96756848226E+03  0.50400001928E-02 0. -1.
</event>
<event>
 5   0  0.7335091E-07  0.2699375E+04  0.7818609E-02  0.8335208E-01
       -1   -1    0    0    0  501  0.00000000000E+00  0.00000000000E+00  0.63003816904E+03  0.63003816906E+03  0.50400001928E-02 0.  1.
        1   -1    0    0  501    0  0.00000000000E+00  0.00000000000E+00 -0.28913428578E+04  0.28913428578E+04  0.50400001928E-02 0. -1.
    10030    2    1    2    0    0  0.00000000000E+00  0.00000000000E+00 -0.22613046887E+04  0.35213810268E+04  0.26993750093E+04 0.  0.
        3    1    3    3  502    0  0.32766547213E+03  0.45004482281E+03  0.47329452791E+03  0.73069331769E+03  0.10100000352E+00 0.  1.
       -3    1    3    3    0  502 -0.32766547213E+03 -0.45004482281E+03 -0.27345992166E+04  0.27906877091E+04  0.10100000352E+00 0. -1.
</event>
<event>
 5   0  0.1991277E-06  0.2708470E+04  0.7818609E-02  0.8332262E-01
        2   -1    0    0  501    0  0.00000000000E+00  0.00000000000E+00  0.18791311710E+04  0.18791311710E+04  0.25500000920E-02 0.  1.
       -2   -1    0    0    0  501  0.00000000000E+00  0.00000000000E+00 -0.97595754492E+03  0.97595754493E+03  0.25500000920E-02 0. -1.
    10030    2    1    2    0    0  0.00000000000E+00  0.00000000000E+00  0.90317362611E+03  0.28550887160E+04  0.27084698590E+04 0.  0.
        5    1    3    3  502    0 -0.59209919865E+03  0.79974435480E+03 -0.51670099815E+03  0.11212379344E+04  0.46999998093E+01 0. -1.
       -5    1    3    3    0  502  0.59209919865E+03 -0.79974435480E+03  0.14198746243E+04  0.17338507816E+04  0.46999998093E+01 0.  1.
</event>
<event>
 5   0  0.2030645E-06  0.2701761E+04  0.7818609E-02  0.8334434E-01
       -2   -1    0    0    0  501  0.00000000000E+00  0.00000000000E+00  0.17318142937E+04  0.17318142937E+04  0.25500000920E-02 0.  1.
        2   -1    0    0  501    0  0.00000000000E+00  0.00000000000E+00 -0.10537376309E+04  0.10537376309E+04  0.25500000920E-02 0. -1.
    10030    2    1    2    0    0  0.00000000000E+00  0.00000000000E+00  0.67807666278E+03  0.27855519246E+04  0.27017608266E+04 0.  0.
        1    1    3    3  502    0 -0.74079454105E+03 -0.11129508807E+04  0.13953874526E+03  0.13442125116E+04  0.50400001928E-02 0. -1.
       -1    1    3    3    0  502  0.74079454105E+03  0.11129508807E+04  0.53853791752E+03  0.14413394130E+04  0.50400001928E-02 0.  1.
</event>
<event>
 5   0  0.7806808E-07  0.2702281E+04  0.7818609E-02  0.8334265E-01
       -1   -1    0    0    0  501  0.00000000000E+00  0.00000000000E+00  0.20215708270E+04  0.20215708270E+04  0.50400001928E-02 0. -1.
        1   -1    0    0  501    0  0.00000000000E+00  0.00000000000E+00 -0.90305047401E+03  0.90305047402E+03  0.50400001928E-02 0.  1.
    10030    2    1    2    0    0  0.00000000000E+00  0.00000000000E+00  0.11185203530E+04  0.29246213011E+04  0.27022808837E+04 0.  0.
        5    1    3    3  502    0 -0.73403140682E+03  0.36565834553E+03 -0.60289272555E+03  0.10178456958E+04  0.46999998093E+01 0.  1.
       -5    1    3    3    0  502  0.73403140682E+03 -0.36565834553E+03  0.17214130786E+04  0.19067756053E+04  0.46999998093E+01 0. -1.
</event>
<event>
 5   0  0.7806808E-07  0.2696490E+04  0.7818609E-02  0.8336145E-01
       -1   -1    0    0    0  501  0.00000000000E+00  0.00000000000E+00  0.96065930340E+03  0.96065930341E+03  0.50400001928E-02 0.  1.
        1   -1    0    0  501    0  0.00000000000E+00  0.00000000000E+00 -0.18922054707E+04  0.18922054707E+04  0.50400001928E-02 0. -1.
    10030    2    1    2    0    0  0.00000000000E+00  0.00000000000E+00 -0.93154616732E+03  0.28528647741E+04  0.26964901553E+04 0.  0.
        5    1    3    3  502    0 -0.18799754676E+02 -0.10264340351E+04  0.45887942907E+03  0.11245055267E+04  0.46999998093E+01 0.  1.
       -5    1    3    3    0  502  0.18799754676E+02  0.10264340351E+04 -0.13904255964E+04  0.17283592474E+04  0.46999998093E+01 0. -1.
</event>
<event>
 5   0  0.2030645E-06  0.2690873E+04  0.7818609E-02  0.8337972E-01
        2   -1    0    0  501    0  0.00000000000E+00  0.00000000000E+00  0.19333214851E+04  0.19333214851E+04  0.25500000920E-02 0. -1.
       -2   -1    0    0    0  501  0.00000000000E+00  0.00000000000E+00 -0.93631587202E+03  0.93631587202E+03  0.25500000920E-02 0.  1.
    10030    2    1    2    0    0  0.00000000000E+00  0.00000000000E+00  0.99700561312E+03  0.28696373572E+04  0.26908731611E+04 0.  0.
        1    1    3    3  502    0  0.38722858820E+03 -0.91998019621E+03 -0.46358931942E+03  0.11005564947E+04  0.50400001928E-02 0.  1.
       -1    1    3    3    0  502 -0.38722858820E+03  0.91998019621E+03  0.14605949325E+04  0.17690808625E+04  0.50400001928E-02 0. -1.
</event>
<event>
 5   0  0.7335091E-07  0.2699629E+04  0.7818609E-02  0.8335125E-01
       -1   -1    0    0    0  501  0.00000000000E+00  0.00000000000E+00  0.83789933688E+03  0.83789933689E+03  0.50400001928E-02 0. -1.
        1   -1    0    0  501    0  0.00000000000E+00  0.00000000000E+00 -0.21744852066E+04  0.21744852066E+04  0.50400001928E-02 0.  1.
    10030    2    1    2    0    0  0.00000000000E+00  0.00000000000E+00 -0.13365858697E+04  0.30123845435E+04  0.26996293914E+04 0.  0.
        3    1    3    3  502    0 -0.46029729644E+03  0.91813612348E+03  0.30905009258E+03  0.10725481398E+04  0.10100000352E+00 0. -1.
       -3    1    3    3    0  502  0.46029729644E+03 -0.91813612348E+03 -0.16456359623E+04  0.19398364037E+04  0.10100000352E+00 0.  1.
</event>
<event>
 5   0  0.7436613E-07  0.2702194E+04  0.7818609E-02  0.8334294E-01
       -1   -1    0    0    0  501  0.00000000000E+00  0.00000000000E+00  0.90771477452E+03  0.90771477453E+03  0.50400001928E-02 0. -1.
        1   -1    0    0  501    0  0.00000000000E+00  0.00000000000E+00 -0.20110529568E+04  0.20110529568E+04  0.50400001928E-02 0.  1.
    10030    2    1    2    0    0  0.00000000000E+00  0.00000000000E+00 -0.11033381823E+04  0.29187677314E+04  0.27021935396E+04 0.  0.
        2    1    3    3  502    0  0.34957127284E+03 -0.29448710860E+03 -0.19250034288E+04  0.19785249387E+04  0.25500000920E-02 0.  1.
       -2    1    3    3    0  502 -0.34957127284E+03  0.29448710860E+03  0.82166524650E+03  0.94024279271E+03  0.25500000920E-02 0. -1.
</event>
<event>
 5   0  0.7768032E-07  0.2700628E+04  0.7818609E-02  0.8334801E-01
       -1   -1    0    0    0  501  0.00000000000E+00  0.00000000000E+00  0.95862120693E+03  0.95862120694E+03  0.50400001928E-02 0. -1.
        1   -1    0    0  501    0  0.00000000000E+00  0.00000000000E+00 -0.19020520124E+04  0.19020520124E+04  0.50400001928E-02 0.  1.
    10030    2    1    2    0    0  0.00000000000E+00  0.00000000000E+00 -0.94343080543E+03  0.28606732193E+04  0.27006276276E+04 0.  0.
        4    1    3    3  502    0 -0.52556562929E+02 -0.71390836375E+03  0.74109071810E+03  0.10303613005E+04  0.12699999809E+01 0. -1.
       -4    1    3    3    0  502  0.52556562929E+02  0.71390836375E+03 -0.16845215235E+04  0.18303119188E+04  0.12699999809E+01 0.  1.
</event>
<event>
 5   0  0.7768032E-07  0.2700944E+04  0.7818609E-02  0.8334699E-01
        1   -1    0    0  501    0  0.00000000000E+00  0.00000000000E+00  0.24782287494E+04  0.24782287494E+04  0.50400001928E-02 0.  1.
       -1   -1    0    0    0  501  0.00000000000E+00  0.00000000000E+00 -0.73591846622E+03  0.73591846624E+03  0.50400001928E-02 0. -1.
    10030    2    1    2    0    0  0.00000000000E+00  0.00000000000E+00  0.17423102832E+04  0.32141472156E+04  0.27009437612E+04 0.  0.
        4    1    3    3  502    0 -0.63007700325E+03 -0.11651847376E+04  0.11840170337E+04  0.17766683573E+04  0.12699999809E+01 0.  1.
       -4    1    3    3    0  502  0.63007700325E+03  0.11651847376E+04  0.55829324943E+03  0.14374788583E+04  0.12699999809E+01 0. -1.
</event>
<event>
 5   0  0.7566905E-07  0.2704809E+04  0.7818609E-02  0.8333446E-01
       -1   -1    0    0    0  501  0.00000000000E+00  0.00000000000E+00  0.72801046498E+03  0.72801046499E+03  0.50400001928E-02 0.  1.
        1   -1    0    0  501    0  0.00000000000E+00  0.00000000000E+00 -0.25123228733E+04  0.25123228733E+04  0.50400001928E-02 0. -1.
    10030    2    1    2    0    0  0.00000000000E+00  0.00000000000E+00 -0.17843124083E+04  0.32403333383E+04  0.27048085649E+04 0.  0.
        1    1    3    3  502    0 -0.90195553176E+03  0.17277596278E+03  0.29719018060E+03  0.96524469336E+03  0.50400001928E-02 0.  1.
       -1    1    3    3    0  502  0.90195553176E+03 -0.17277596278E+03 -0.20815025889E+04  0.22750886449E+04  0.50400001928E-02 0. -1.
</event>
<event>
 5   0  0.7335091E-07  0.2703228E+04  0.7818609E-02  0.8333958E-01
        1   -1    0    0  501    0  0.00000000000E+00  0.00000000000E+00  0.21555234233E+04  0.21555234233E+04  0.50400001928E-02 0.  1.
       -1   -1    0    0    0  501  0.00000000000E+00  0.00000000000E+00 -0.84752532259E+03  0.84752532261E+03  0.50400001928E-02 0. -1.
    10030    2    1    2    0    0  0.00000000000E+00  0.00000000000E+00  0.13079981007E+04  0.30030487459E+04  0.27032282070E+04 0.  0.
        3    1    3    3  502    0 -0.20906340309E+03 -0.13170852386E+04  0.40949833488E+03  0.13950304401E+04  0.10100000352E+00 0.  1.
       -3    1    3    3    0  502  0.20906340309E+03  0.13170852386E+04  0.89849976583E+03  0.16080183058E+04  0.10100000352E+00 0. -1.
</event>
<event>
 5   0  0.7768032E-07  0.2702312E+04  0.7818609E-02  0.8334255E-01
        1   -1    0    0  501    0  0.00000000000E+00  0.00000000000E+00  0.11958854345E+04  0.11958854345E+04  0.50400001928E-02 0.  1.
       -1   -1    0    0    0  501  0.00000000000E+00  0.00000000000E+00 -0.15265868257E+04  0.15265868257E+04  0.50400001928E-02 0. -1.
    10030    2    1    2    0    0  0.00000000000E+00  0.00000000000E+00 -0.33070139123E+03  0.27224722602E+04  0.27023123057E+04 0.  0.
        4    1    3    3  502    0  0.11719016709E+04 -0.49209184665E+03  0.29645025790E+03  0.13051407127E+04  0.12699999809E+01 0.  1.
       -4    1    3    3    0  502 -0.11719016709E+04  0.49209184665E+03 -0.62715164912E+03  0.14173315475E+04  0.12699999809E+01 0. -1.
</event>
<event>
 5   0  0.1991277E-06  0.2721962E+04  0.7818609E-02  0.8327914E-01
       -2   -1    0    0    0  501  0.00000000000E+00  0.00000000000E+00  0.10700388669E+04  0.10700388669E+04  0.25500000920E-02 0.  1.
        2   -1    0    0  501    0  0.00000000000E+00  0.00000000000E+00 -0.17310295634E+04  0.17310295634E+04  0.25500000920E-02 0. -1.
    10030    2    1    2    0    0  0.00000000000E+00  0.00000000000E+00 -0.66099069646E+03  0.28010684303E+04  0.27219617283E+04 0.  0.
        5    1    3    3  502    0  0.10698130952E+04 -0.13326003986E+03  0.52430096130E+03  0.11988210396E+04  0.46999998093E+01 0.  1.
       -5    1    3    3    0  502 -0.10698130952E+04  0.13326003986E+03 -0.11852916578E+04  0.16022473907E+04  0.46999998093E+01 0. -1.
</event>
<event>
 5   0  0.7436613E-07  0.2700612E+04  0.7818609E-02  0.8334806E-01
       -1   -1    0    0    0  501  0.00000000000E+00  0.00000000000E+00  0.79680003037E+03  0.79680003039E+03  0.50400001928E-02 0.  1.
        1   -1    0    0  501    0  0.00000000000E+00  0.00000000000E+00 -0.22883115374E+04  0.22883115374E+04  0.50400001928E-02 0. -1.
    10030    2    1    2    0    0  0.00000000000E+00  0.00000000000E+00 -0.14915115070E+04  0.30851115678E+04  0.27006123028E+04 0.  0.
        2    1    3    3  502    0  0.59952733641E+02  0.53967189375E+03 -0.21580963834E+04  0.22253584168E+04  0.25500000920E-02 0. -1.
       -2    1    3    3    0  502 -0.59952733641E+02 -0.53967189375E+03  0.66658487639E+03  0.85975315097E+03  0.25500000920E-02 0.  1.
</event>
<event>
 5   0  0.7335091E-07  0.2699284E+04  0.7818609E-02  0.8335237E-01
        1   -1    0    0  501    0  0.00000000000E+00  0.00000000000E+00  0.14632276624E+04  0.14632276624E+04  0.50400001928E-02 0.  1.
       -1   -1    0    0    0  501  0.00000000000E+00  0.00000000000E+00 -0.12448733846E+04  0.12448733846E+04  0.50400001928E-02 0. -1.
    10030    2    1    2    0    0  0.00000000000E+00  0.00000000000E+00  0.21835427780E+03  0.27081010470E+04  0.26992837365E+04 0.  0.
        3    1    3    3  502    0  0.44374535934E+03  0.32430206575E+03 -0.11275096809E+04  0.12543364240E+04  0.10100000352E+00 0. -1.
       -3    1    3    3    0  502 -0.44374535934E+03 -0.32430206575E+03  0.13458639587E+04  0.14537646231E+04  0.10100000352E+00 0.  1.
</event>
<event>
 5   0  0.7436613E-07  0.2700332E+04  0.7818609E-02  0.8334897E-01
        1   -1    0    0  501    0  0.00000000000E+00  0.00000000000E+00  0.12195515520E+04  0.12195515520E+04  0.50400001928E-02 0.  1.
       -1   -1    0    0    0  501  0.00000000000E+00  0.00000000000E+00 -0.14947690625E+04  0.14947690625E+04  0.50400001928E-02 0. -1.
    10030    2    1    2    0    0  0.00000000000E+00  0.00000000000E+00 -0.27521751051E+03  0.27143206145E+04  0.27003317796E+04 0.  0.
        2    1    3    3  502    0 -0.73327787906E+03 -0.41960951336E+03  0.92102296542E+03  0.12498207449E+04  0.25500000920E-02 0.  1.
       -2    1    3    3    0  502  0.73327787906E+03  0.41960951336E+03 -0.11962404759E+04  0.14644998695E+04  0.25500000920E-02 0. -1.
</event>
<event>
 5   0  0.2030645E-06  0.2698958E+04  0.7818609E-02  0.8335343E-01
        2   -1    0    0  501    0  0.00000000000E+00  0.00000000000E+00  0.92204434057E+03  0.92204434058E+03  0.25500000920E-02 0. -1.
       -2   -1    0    0    0  501  0.00000000000E+00  0.00000000000E+00 -0.19750609042E+04  0.19750609042E+04  0.25500000920E-02 0.  1.
    10030    2    1    2    0    0  0.00000000000E+00  0.00000000000E+00 -0.10530165637E+04  0.28971052448E+04  0.26989581168E+04 0.  0.
        1    1    3    3  502    0  0.14173943134E+03 -0.15222682900E+01  0.91403113396E+03  0.92495691661E+03  0.50400001928E-02 0. -1.
       -1    1    3    3    0  502 -0.14173943134E+03  0.15222682900E+01 -0.19670476976E+04  0.19721483282E+04  0.50400001928E-02 0.  1.
</event>
<event>
 5   0  0.7566905E-07  0.2701701E+04  0.7818609E-02  0.8334453E-01
        1   -1    0    0  501    0  0.00000000000E+00  0.00000000000E+00  0.17548440579E+04  0.17548440579E+04  0.50400001928E-02 0. -1.
       -1   -1    0    0    0  501  0.00000000000E+00  0.00000000000E+00 -0.10398628950E+04  0.10398628950E+04  0.50400001928E-02 0.  1.
    10030    2    1    2    0    0  0.00000000000E+00  0.00000000000E+00  0.71498116283E+03  0.27947069529E+04  0.27017011103E+04 0.  0.
        1    1    3    3  502    0 -0.18092106798E+03 -0.10659565247E+04  0.11951841272E+04  0.16116639983E+04  0.50400001928E-02 0.  1.
       -1    1    3    3    0  502  0.18092106798E+03  0.10659565247E+04 -0.48020296439E+03  0.11830429546E+04  0.50400001928E-02 0. -1.
</event>
<event>
 5   0  0.1932012E-06  0.2699302E+04  0.7818609E-02  0.8335232E-01
       -2   -1    0    0    0  501  0.00000000000E+00  0.00000000000E+00  0.18069286016E+04  0.18069286016E+04  0.25500000920E-02 0.  1.
        2   -1    0    0  501    0  0.00000000000E+00  0.00000000000E+00 -0.10080959528E+04  0.10080959528E+04  0.25500000920E-02 0. -1.
    10030    2    1    2    0    0  0.00000000000E+00  0.00000000000E+00  0.79883264889E+03  0.28150245544E+04  0.26993016951E+04 0.  0.
        2    1    3    3  502    0 -0.12607764967E+04 -0.11108716892E+03 -0.89355237751E+02  0.12688112911E+04  0.25500000920E-02 0. -1.
       -2    1    3    3    0  502  0.12607764967E+04  0.11108716892E+03  0.88818788665E+03  0.15462132634E+04  0.25500000920E-02 0.  1.
</event>
<event>
 5   0  0.6561875E-07  0.2687337E+04  0.7818609E-02  0.8339125E-01
        3   -1    0    0  501    0  0.00000000000E+00  0.00000000000E+00  0.15419563491E+04  0.15419563524E+04  0.10100000352E+00 0.  1.
       -3   -1    0    0    0  501  0.00000000000E+00  0.00000000000E+00 -0.11708797621E+04  0.11708797664E+04  0.10100000352E+00 0. -1.
    10030    2    1    2    0    0  0.00000000000E+00  0.00000000000E+00  0.37107658708E+03  0.27128361189E+04  0.26873373391E+04 0.  0.
        4    1    3    3  502    0  0.85583037500E+02  0.11701976202E+04  0.84654666703E+03  0.14468344062E+04  0.12699999809E+01 0.  1.
       -4    1    3    3    0  502 -0.85583037500E+02 -0.11701976202E+04 -0.47547007995E+03  0.12660017127E+04  0.12699999809E+01 0. -1.
</event>
<event>
 5   0  0.7566905E-07  0.2699487E+04  0.7818609E-02  0.8335172E-01
       -1   -1    0    0    0  501  0.00000000000E+00  0.00000000000E+00  0.96238262358E+03  0.96238262359E+03  0.50400001928E-02 0. -1.
        1   -1    0    0  501    0  0.00000000000E+00  0.00000000000E+00 -0.18930172981E+04  0.18930172981E+04  0.50400001928E-02 0.  1.
    10030    2    1    2    0    0  0.00000000000E+00  0.00000000000E+00 -0.93063467449E+03  0.28553999217E+04  0.26994865836E+04 0.  0.
        1    1    3    3  502    0 -0.61883566783E+03 -0.54415162554E+03 -0.15960529660E+04  0.17962303988E+04  0.50400001928E-02 0.  1.
       -1    1    3    3    0  502  0.61883566783E+03  0.54415162554E+03  0.66541829153E+03  0.10591695228E+04  0.50400001928E-02 0. -1.
</event>
<event>
 5   0  0.7335091E-07  0.2709653E+04  0.7818609E-02  0.8331880E-01
       -1   -1    0    0    0  501  0.00000000000E+00  0.00000000000E+00  0.13460867485E+04  0.13460867485E+04  0.50400001928E-02 0.  1.
        1   -1    0    0  501    0  0.00000000000E+00  0.00000000000E+00 -0.13636233818E+04  0.13636233818E+04  0.50400001928E-02 0. -1.
    10030    2    1    2    0    0  0.00000000000E+00  0.00000000000E+00 -0.17536633280E+02  0.27097101303E+04  0.27096533831E+04 0.  0.
        3    1    3    3  502    0 -0.11513402807E+04 -0.71266103250E+03  0.36896244771E+02  0.13545595344E+04  0.10100000352E+00 0.  1.
       -3    1    3    3    0  502  0.11513402807E+04  0.71266103250E+03 -0.54432878050E+02  0.13551505959E+04  0.10100000352E+00 0. -1.
</event>
<event>
 5   0  0.1991277E-06  0.2702259E+04  0.7818609E-02  0.8334272E-01
       -2   -1    0    0    0  501  0.00000000000E+00  0.00000000000E+00  0.15675946929E+04  0.15675946929E+04  0.25500000920E-02 0.  1.
        2   -1    0    0  501    0  0.00000000000E+00  0.00000000000E+00 -0.11645556413E+04  0.11645556413E+04  0.25500000920E-02 0. -1.
    10030    2    1    2    0    0  0.00000000000E+00  0.00000000000E+00  0.40303905157E+03  0.27321503342E+04  0.27022592347E+04 0.  0.
        5    1    3    3  502    0 -0.33014578534E+03 -0.97238062704E+03 -0.68626436123E+03  0.12351118115E+04  0.46999998093E+01 0. -1.
       -5    1    3    3    0  502  0.33014578534E+03  0.97238062704E+03  0.10893034128E+04  0.14970385227E+04  0.46999998093E+01 0.  1.
</event>
<event>
 5   0  0.1999104E-06  0.2701635E+04  0.7818609E-02  0.8334475E-01
       -2   -1    0    0    0  501  0.00000000000E+00  0.00000000000E+00  0.10065646384E+04  0.10065646384E+04  0.25500000920E-02 0.  1.
        2   -1    0    0  501    0  0.00000000000E+00  0.00000000000E+00 -0.18128068255E+04  0.18128068255E+04  0.25500000920E-02 0. -1.
    10030    2    1    2    0    0  0.00000000000E+00  0.00000000000E+00 -0.80624218708E+03  0.28193714638E+04  0.27016345028E+04 0.  0.
        4    1    3    3  502    0 -0.13478119730E+04  0.89515669463E+02 -0.39292471829E+03  0.14067699232E+04  0.12699999809E+01 0.  1.
       -4    1    3    3    0  502  0.13478119730E+04 -0.89515669463E+02 -0.41331746879E+03  0.14126015406E+04  0.12699999809E+01 0. -1.
</event>
<event>
 5   0  0.7566905E-07  0.2706739E+04  0.7818609E-02  0.8332822E-01
        1   -1    0    0  501    0  0.00000000000E+00  0.00000000000E+00  0.17156795906E+04  0.17156795906E+04  0.50400001928E-02 0. -1.
       -1   -1    0    0    0  501  0.00000000000E+00  0.00000000000E+00 -0.10675704234E+04  0.10675704234E+04  0.50400001928E-02 0.  1.
    10030    2    1    2    0    0  0.00000000000E+00  0.00000000000E+00  0.64810916728E+03  0.27832500140E+04  0.27067388400E+04 0.  0.
        1    1    3    3  502    0  0.31071419193E+02  0.13366367751E+04  0.53985712965E+03  0.14418769095E+04  0.50400001928E-02 0.  1.
       -1    1    3    3    0  502 -0.31071419193E+02 -0.13366367751E+04  0.10825203763E+03  0.13413731045E+04  0.50400001928E-02 0. -1.
</event>
<event>
 5   0  0.7806808E-07  0.2700115E+04  0.7818609E-02  0.8334968E-01
       -1   -1    0    0    0  501  0.00000000000E+00  0.00000000000E+00  0.12050307015E+04  0.12050307015E+04  0.50400001928E-02 0.  1.
        1   -1    0    0  501    0  0.00000000000E+00  0.00000000000E+00 -0.15125381515E+04  0.15125381516E+04  0.50400001928E-02 0. -1.
    10030    2    1    2    0    0  0.00000000000E+00  0.00000000000E+00 -0.30750745004E+03  0.27175688531E+04  0.27001147456E+04 0.  0.
        5    1    3    3  502    0 -0.74290619297E+03  0.82744520701E+03 -0.92424637613E+03  0.14459697908E+04  0.46999998093E+01 0. -1.
       -5    1    3    3    0  502  0.74290619297E+03 -0.82744520701E+03  0.61673892609E+03  0.12715990622E+04  0.46999998093E+01 0.  1.
</event>
<event>
 5   0  0.2063087E-06  0.2753529E+04  0.7818609E-02  0.8317843E-01
       -2   -1    0    0    0  501  0.00000000000E+00  0.00000000000E+00  0.10779621427E+04  0.10779621427E+04  0.25500000920E-02 0.  1.
        2   -1    0    0  501    0  0.00000000000E+00  0.00000000000E+00 -0.17583926810E+04  0.17583926811E+04  0.25500000920E-02 0. -1.
    10030    2    1    2    0    0  0.00000000000E+00  0.00000000000E+00 -0.68043053837E+03  0.28363548237E+04  0.27535291843E+04 0.  0.
        3    1    3    3  502    0  0.12118945705E+04 -0.18729638347E+03 -0.98491057201E+03  0.15728373184E+04  0.10100000352E+00 0. -1.
       -3    1    3    3    0  502 -0.12118945705E+04  0.18729638347E+03  0.30448003364E+03  0.12635175053E+04  0.10100000352E+00 0.  1.
</event>
<event>
 5   0  0.7768032E-07  0.2707892E+04  0.7818609E-02  0.8332449E-01
        1   -1    0    0  501    0  0.00000000000E+00  0.00000000000E+00  0.21421402836E+04  0.21421402836E+04  0.50400001928E-02 0.  1.
       -1   -1    0    0    0  501  0.00000000000E+00  0.00000000000E+00 -0.85576552156E+03  0.85576552158E+03  0.50400001928E-02 0. -1.
    10030    2    1    2    0    0  0.00000000000E+00  0.00000000000E+00  0.12863747620E+04  0.29979058052E+04  0.27078920193E+04 0.  0.
        4    1    3    3  502    0  0.37877876311E+03 -0.11259467511E+04  0.13623239023E+04  0.18075279985E+04  0.12699999809E+01 0. -1.
       -4    1    3    3    0  502 -0.37877876311E+03  0.11259467511E+04 -0.75949140322E+02  0.11903778066E+04  0.12699999809E+01 0.  1.
</event>
<event>
 5   0  0.2063087E-06  0.2703100E+04  0.7818609E-02  0.8334000E-01
       -2   -1    0    0    0  501  0.00000000000E+00  0.00000000000E+00  0.13925158774E+04  0.13925158774E+04  0.25500000920E-02 0.  1.
        2   -1    0    0  501    0  0.00000000000E+00  0.00000000000E+00 -0.13117888818E+04  0.13117888818E+04  0.25500000920E-02 0. -1.
    10030    2    1    2    0    0  0.00000000000E+00  0.00000000000E+00  0.80726995602E+02  0.27043047591E+04  0.27030995880E+04 0.  0.
        3    1    3    3  502    0 -0.68977280390E+03 -0.20769900219E+03 -0.11037203383E+04  0.13179999970E+04  0.10100000352E+00 0. -1.
       -3    1    3    3    0  502  0.68977280390E+03  0.20769900219E+03  0.11844473340E+04  0.13863047622E+04  0.10100000352E+00 0.  1.
</event>
<event>
 5   0  0.6561875E-07  0.2696300E+04  0.7818609E-02  0.8336207E-01
       -3   -1    0    0    0  501  0.00000000000E+00  0.00000000000E+00  0.13102080972E+04  0.13102081011E+04  0.10100000352E+00 0. -1.
        3   -1    0    0  501    0  0.00000000000E+00  0.00000000000E+00 -0.13871904165E+04  0.13871904201E+04  0.10100000352E+00 0.  1.
    10030    2    1    2    0    0  0.00000000000E+00  0.00000000000E+00 -0.76982319254E+02  0.26973985213E+04  0.26962997802E+04 0.  0.
        4    1    3    3  502    0  0.23457196843E+03 -0.41784962758E+03  0.12221351060E+04  0.13127216574E+04  0.12699999809E+01 0. -1.
       -4    1    3    3    0  502 -0.23457196843E+03  0.41784962758E+03 -0.12991174253E+04  0.13846768638E+04  0.12699999809E+01 0.  1.
</event>
<event>
 5   0  0.7436613E-07  0.2696913E+04  0.7818609E-02  0.8336007E-01
       -1   -1    0    0    0  501  0.00000000000E+00  0.00000000000E+00  0.16084020792E+04  0.16084020792E+04  0.50400001928E-02 0.  1.
        1   -1    0    0  501    0  0.00000000000E+00  0.00000000000E+00 -0.11305230385E+04  0.11305230385E+04  0.50400001928E-02 0. -1.
    10030    2    1    2    0    0  0.00000000000E+00  0.00000000000E+00  0.47787904076E+03  0.27389251177E+04  0.26969134993E+04 0.  0.
        2    1    3    3  502    0  0.10394758127E+04  0.13117034944E+03 -0.62317764288E+03  0.12190430675E+04  0.25500000920E-02 0. -1.
       -2    1    3    3    0  502 -0.10394758127E+04 -0.13117034944E+03  0.11010566836E+04  0.15198820502E+04  0.25500000920E-02 0.  1.
</event>
<event>
 5   0  0.1991277E-06  0.2702343E+04  0.7818609E-02  0.8334245E-01
        2   -1    0    0  501    0  0.00000000000E+00  0.00000000000E+00  0.13023119599E+04  0.13023119599E+04  0.25500000920E-02 0.  1.
       -2   -1    0    0    0  501  0.00000000000E+00  0.00000000000E+00 -0.14018638063E+04  0.14018638063E+04  0.25500000920E-02 0. -1.
    10030    2    1    2    0    0  0.00000000000E+00  0.00000000000E+00 -0.99551846334E+02  0.27041757662E+04  0.27023426882E+04 0.  0.
        5    1    3    3  502    0  0.21238529932E+03  0.67707942856E+03 -0.12003810191E+04  0.13944463951E+04  0.46999998093E+01 0. -1.
       -5    1    3    3    0  502 -0.21238529932E+03 -0.67707942856E+03  0.11008291727E+04  0.13097293711E+04  0.46999998093E+01 0.  1.
</event>
<event>
 5   0  0.7566905E-07  0.2695758E+04  0.7818609E-02  0.8336383E-01
        1   -1    0    0  501    0  0.00000000000E+00  0.00000000000E+00  0.14217050802E+04  0.14217050803E+04  0.50400001928E-02 0.  1.
       -1   -1    0    0    0  501  0.00000000000E+00  0.00000000000E+00 -0.12778865525E+04  0.12778865525E+04  0.50400001928E-02 0. -1.
    10030    2    1    2    0    0  0.00000000000E+00  0.00000000000E+00  0.14381852773E+03  0.26995916328E+04  0.26957580038E+04 0.  0.
        1    1    3    3  502    0  0.12136792332E+04  0.34947038062E+03  0.54335574566E+03  0.13749117406E+04  0.50400001928E-02 0.  1.
       -1    1    3    3    0  502 -0.12136792332E+04 -0.34947038062E+03 -0.39953721793E+03  0.13246798922E+04  0.50400001928E-02 0. -1.
</event>
<event>
 5   0  0.7566905E-07  0.2698479E+04  0.7818609E-02  0.8335499E-01
        1   -1    0    0  501    0  0.00000000000E+00  0.00000000000E+00  0.11580692841E+04  0.11580692842E+04  0.50400001928E-02 0.  1.
       -1   -1    0    0    0  501  0.00000000000E+00  0.00000000000E+00 -0.15719673026E+04  0.15719673026E+04  0.50400001928E-02 0. -1.
    10030    2    1    2    0    0  0.00000000000E+00  0.00000000000E+00 -0.41389801843E+03  0.27300365867E+04  0.26984788669E+04 0.  0.
        1    1    3    3  502    0  0.80081530619E+03  0.10364427476E+04  0.12076561058E+03  0.13153338194E+04  0.50400001928E-02 0.  1.
       -1    1    3    3    0  502 -0.80081530619E+03 -0.10364427476E+04 -0.53466362901E+03  0.14147027673E+04  0.50400001928E-02 0. -1.
</event>
<event>
 5   0  0.1991277E-06  0.2701874E+04  0.7818609E-02  0.8334397E-01
       -2   -1    0    0    0  501  0.00000000000E+00  0.00000000000E+00  0.11178538341E+04  0.11178538341E+04  0.25500000920E-02 0. -1.
        2   -1    0    0  501    0  0.00000000000E+00  0.00000000000E+00 -0.16326196540E+04  0.16326196540E+04  0.25500000920E-02 0.  1.
    10030    2    1    2    0    0  0.00000000000E+00  0.00000000000E+00 -0.51476581995E+03  0.27504734881E+04  0.27018735276E+04 0.  0.
        5    1    3    3  502    0 -0.11598891279E+04 -0.28027480683E+02 -0.96184182611E+03  0.15070799969E+04  0.46999998093E+01 0.  1.
       -5    1    3    3    0  502  0.11598891279E+04  0.28027480683E+02  0.44707600615E+03  0.12433934912E+04  0.46999998093E+01 0. -1.
</event>
<event>
 5   0  0.7768032E-07  0.2705261E+04  0.7818609E-02  0.8333300E-01
       -1   -1    0    0    0  501  0.00000000000E+00  0.00000000000E+00  0.95009055116E+03  0.95009055118E+03  0.50400001928E-02 0. -1.
        1   -1    0    0  501    0  0.00000000000E+00  0.00000000000E+00 -0.19257215009E+04  0.19257215009E+04  0.50400001928E-02 0.  1.
    10030    2    1    2    0    0  0.00000000000E+00  0.00000000000E+00 -0.97563094976E+03  0.28758120521E+04  0.27052613938E+04 0.  0.
        4    1    3    3  502    0 -0.17442378136E+03  0.94565854873E+03  0.52342635199E+03  0.10948381182E+04  0.12699999809E+01 0. -1.
       -4    1    3    3    0  502  0.17442378136E+03 -0.94565854873E+03 -0.14990573018E+04  0.17809739339E+04  0.12699999809E+01 0.  1.
</event>
<event>
 5   0  0.7566905E-07  0.2700975E+04  0.7818609E-02  0.8334689E-01
        1   -1    0    0  501    0  0.00000000000E+00  0.00000000000E+00  0.11672552704E+04  0.11672552704E+04  0.50400001928E-02 0. -1.
       -1   -1    0    0    0  501  0.00000000000E+00  0.00000000000E+00 -0.15624827328E+04  0.15624827328E+04  0.50400001928E-02 0.  1.
    10030    2    1    2    0    0  0.00000000000E+00  0.00000000000E+00 -0.39522746233E+03  0.27297380032E+04  0.27009747906E+04 0.  0.
        1    1    3    3  502    0  0.10292348445E+04  0.33013814909E+03 -0.10158655814E+04  0.14833402988E+04  0.50400001928E-02 0.  1.
       -1    1    3    3    0  502 -0.10292348445E+04 -0.33013814909E+03  0.62063811911E+03  0.12463977044E+04  0.50400001928E-02 0. -1.
</event>
<event>
 5   0  0.1991277E-06  0.2704308E+04  0.7818609E-02  0.8333608E-01
       -2   -1    0    0    0  501  0.00000000000E+00  0.00000000000E+00  0.69784467752E+03  0.69784467753E+03  0.25500000920E-02 0. -1.
        2   -1    0    0  501    0  0.00000000000E+00  0.00000000000E+00 -0.26199538515E+04  0.26199538515E+04  0.25500000920E-02 0.  1.
    10030    2    1    2    0    0  0.00000000000E+00  0.00000000000E+00 -0.19221091740E+04  0.33177985290E+04  0.27043083039E+04 0.  0.
        5    1    3    3  502    0 -0.18701152064E+03  0.95592765154E+03 -0.21116392704E+04  0.23254705937E+04  0.46999998093E+01 0.  1.
       -5    1    3    3    0  502  0.18701152064E+03 -0.95592765154E+03  0.18953009641E+03  0.99232793535E+03  0.46999998093E+01 0. -1.
</event>
<event>
 5   0  0.7806808E-07  0.2701738E+04  0.7818609E-02  0.8334441E-01
       -1   -1    0    0    0  501  0.00000000000E+00  0.00000000000E+00  0.11172618737E+04  0.11172618737E+04  0.50400001928E-02 0.  1.
        1   -1    0    0  501    0  0.00000000000E+00  0.00000000000E+00 -0.16333205144E+04  0.16333205144E+04  0.50400001928E-02 0. -1.
    10030    2    1    2    0    0  0.00000000000E+00  0.00000000000E+00 -0.51605864070E+03  0.27505823881E+04  0.27017377655E+04 0.  0.
        5    1    3    3  502    0 -0.97187579269E+03 -0.55845583318E+03 -0.10255887366E+04  0.15192991215E+04  0.46999998093E+01 0. -1.
       -5    1    3    3    0  502  0.97187579269E+03  0.55845583318E+03  0.50953009590E+03  0.12312832666E+04  0.46999998093E+01 0.  1.
</event>
<event>
 5   0  0.2063087E-06  0.2699141E+04  0.7818609E-02  0.8335284E-01
        2   -1    0    0  501    0  0.00000000000E+00  0.00000000000E+00  0.21983570921E+04  0.21983570921E+04  0.25500000920E-02 0. -1.
       -2   -1    0    0    0  501  0.00000000000E+00  0.00000000000E+00 -0.82850082040E+03  0.82850082041E+03  0.25500000920E-02 0.  1.
    10030    2    1    2    0    0  0.00000000000E+00  0.00000000000E+00  0.13698562717E+04  0.30268579125E+04  0.26991410888E+04 0.  0.
        3    1    3    3  502    0  0.25851563800E+03  0.62061234292E+03  0.19971998899E+04  0.21073199629E+04  0.10100000352E+00 0. -1.
       -3    1    3    3    0  502 -0.25851563800E+03 -0.62061234292E+03 -0.62734361825E+03  0.91953794964E+03  0.10100000352E+00 0.  1.
</event>
<event>
 5   0  0.7436613E-07  0.2696231E+04  0.7818609E-02  0.8336229E-01
       -1   -1    0    0    0  501  0.00000000000E+00  0.00000000000E+00  0.10785600271E+04  0.10785600271E+04  0.50400001928E-02 0. -1.
        1   -1    0    0  501    0  0.00000000000E+00  0.00000000000E+00 -0.16850389648E+04  0.16850389648E+04  0.50400001928E-02 0.  1.
    10030    2    1    2    0    0  0.00000000000E+00  0.00000000000E+00 -0.60647893775E+03  0.27635989919E+04  0.26962312004E+04 0.  0.
        2    1    3    3  502    0  0.11014358768E+04  0.60756434976E+03 -0.80024692651E+03  0.14908690664E+04  0.25500000920E-02 0.  1.
       -2    1    3    3    0  502 -0.11014358768E+04 -0.60756434976E+03  0.19376798875E+03  0.12727299255E+04  0.25500000920E-02 0. -1.
</event>
<event>
 5   0  0.7768032E-07  0.2699682E+04  0.7818609E-02  0.8335108E-01
        1   -1    0    0  501    0  0.00000000000E+00  0.00000000000E+00  0.20728509436E+04  0.20728509436E+04  0.50400001928E-02 0. -1.
       -1   -1    0    0    0  501  0.00000000000E+00  0.00000000000E+00 -0.87901662370E+03  0.87901662371E+03  0.50400001928E-02 0.  1.
    10030    2    1    2    0    0  0.00000000000E+00  0.00000000000E+00  0.11938343199E+04  0.29518675673E+04  0.26996817871E+04 0.  0.
        4    1    3    3  502    0 -0.31517439594E+03 -0.13019990619E+04  0.41548842372E+03  0.14025579133E+04  0.12699999809E+01 0. -1.
       -4    1    3    3    0  502  0.31517439594E+03  0.13019990619E+04  0.77834589615E+03  0.15493096540E+04  0.12699999809E+01 0.  1.
</event>
<event>
 5   0  0.7566905E-07  0.2704286E+04  0.7818609E-02  0.8333616E-01
       -1   -1    0    0    0  501  0.00000000000E+00  0.00000000000E+00  0.23081181987E+04  0.23081181987E+04  0.50400001928E-02 0.  1.
        1   -1    0    0  501    0  0.00000000000E+00  0.00000000000E+00 -0.79211296810E+03  0.79211296812E+03  0.50400001928E-02 0. -1.
    10030    2    1    2    0    0  0.00000000000E+00  0.00000000000E+00  0.15160052306E+04  0.31002311669E+04  0.27042857520E+04 0.  0.
        1    1    3    3  502    0 -0.12498162336E+04 -0.29778562509E+03  0.27490985679E+03  0.13138844415E+04  0.50400001928E-02 0. -1.
       -1    1    3    3    0  502  0.12498162336E+04  0.29778562509E+03  0.12410953738E+04  0.17863467254E+04  0.50400001928E-02 0.  1.
</event>
<event>
 5   0  0.7768032E-07  0.2701038E+04  0.7818609E-02  0.8334668E-01
        1   -1    0    0  501    0  0.00000000000E+00  0.00000000000E+00  0.12023611673E+04  0.12023611673E+04  0.50400001928E-02 0.  1.
       -1   -1    0    0    0  501  0.00000000000E+00  0.00000000000E+00 -0.15169327757E+04  0.15169327757E+04  0.50400001928E-02 0. -1.
    10030    2    1    2    0    0  0.00000000000E+00  0.00000000000E+00 -0.31457160841E+03  0.27192939430E+04  0.27010376249E+04 0.  0.
        4    1    3    3  502    0 -0.96758061268E+03  0.90693239889E+03 -0.41427734669E+03  0.13893761014E+04  0.12699999809E+01 0.  1.
       -4    1    3    3    0  502  0.96758061268E+03 -0.90693239889E+03  0.99705738285E+02  0.13299178416E+04  0.12699999809E+01 0. -1.
</event>
<event>
 5   0  0.1932012E-06  0.2700905E+04  0.7818609E-02  0.8334711E-01
       -2   -1    0    0    0  501  0.00000000000E+00  0.00000000000E+00  0.87868801674E+03  0.87868801675E+03  0.25500000920E-02 0.  1.
        2   -1    0    0  501    0  0.00000000000E+00  0.00000000000E+00 -0.20755062111E+04  0.20755062111E+04  0.25500000920E-02 0. -1.
    10030    2    1    2    0    0  0.00000000000E+00  0.00000000000E+00 -0.11968181944E+04  0.29541942278E+04  0.27009053566E+04 0.  0.
        2    1    3    3  502    0  0.83165783823E+03 -0.83598255410E+03  0.12149447236E+03  0.11854461175E+04  0.25500000920E-02 0.  1.
       -2    1    3    3    0  502 -0.83165783823E+03  0.83598255410E+03 -0.13183126667E+04  0.17687481104E+04  0.25500000920E-02 0. -1.
</event>
<event>
 5   0  0.2030645E-06  0.2700069E+04  0.7818609E-02  0.8334983E-01
       -2   -1    0    0    0  501  0.00000000000E+00  0.00000000000E+00  0.91779599090E+03  0.91779599091E+03  0.25500000920E-02 0. -1.
        2   -1    0    0  501    0  0.00000000000E+00  0.00000000000E+00 -0.19858369858E+04  0.19858369858E+04  0.25500000920E-02 0.  1.
    10030    2    1    2    0    0  0.00000000000E+00  0.00000000000E+00 -0.10680409949E+04  0.29036329767E+04  0.27000690541E+04 0.  0.
        1    1    3    3  502    0  0.10110612773E+04 -0.80540067099E+03 -0.11519968446E+03  0.12977619638E+04  0.50400001928E-02 0. -1.
       -1    1    3    3    0  502 -0.10110612773E+04  0.80540067099E+03 -0.95284131044E+03  0.16058710129E+04  0.50400001928E-02 0.  1.
</event>
<event>
 5   0  0.2063087E-06  0.2702999E+04  0.7818609E-02  0.8334033E-01
        2   -1    0    0  501    0  0.00000000000E+00  0.00000000000E+00  0.19344454265E+04  0.19344454265E+04  0.25500000920E-02 0. -1.
       -2   -1    0    0    0  501  0.00000000000E+00  0.00000000000E+00 -0.94422446142E+03  0.94422446142E+03  0.25500000920E-02 0.  1.
    10030    2    1    2    0    0  0.00000000000E+00  0.00000000000E+00  0.99022096512E+03  0.28786698880E+04  0.27029988465E+04 0.  0.
        3    1    3    3  502    0  0.81530410222E+03  0.10144293387E+04  0.10706327415E+03  0.13058522953E+04  0.10100000352E+00 0.  1.
       -3    1    3    3    0  502 -0.81530410222E+03 -0.10144293387E+04  0.88315769098E+03  0.15728175926E+04  0.10100000352E+00 0. -1.
</event>
<event>
 5   0  0.2030645E-06  0.2729668E+04  0.7818609E-02  0.8325442E-01
        2   -1    0    0  501    0  0.00000000000E+00  0.00000000000E+00  0.21231446099E+04  0.21231446099E+04  0.25500000920E-02 0.  1.
       -2   -1    0    0    0  501  0.00000000000E+00  0.00000000000E+00 -0.87736483491E+03  0.87736483492E+03  0.25500000920E-02 0. -1.
    10030    2    1    2    0    0  0.00000000000E+00  0.00000000000E+00  0.12457797750E+04  0.30005094448E+04  0.27296684195E+04 0.  0.
        1    1    3    3  502    0 -0.28988192890E+03  0.55081317116E+02 -0.84188453694E+03  0.89209587924E+03  0.50400001928E-02 0. -1.
       -1    1    3    3    0  502  0.28988192890E+03 -0.55081317116E+02  0.20876643119E+04  0.21084135655E+04  0.50400001928E-02 0.  1.
</event>
<event>
 5   0  0.1999104E-06  0.2700245E+04  0.7818609E-02  0.8334925E-01
       -2   -1    0    0    0  501  0.00000000000E+00  0.00000000000E+00  0.12599135307E+04  0.12599135307E+04  0.25500000920E-02 0.  1.
        2   -1    0    0  501    0  0.00000000000E+00  0.00000000000E+00 -0.14467907479E+04  0.14467907479E+04  0.25500000920E-02 0. -1.
    10030    2    1    2    0    0  0.00000000000E+00  0.00000000000E+00 -0.18687721721E+03  0.27067042787E+04  0.27002453514E+04 0.  0.
        4    1    3    3  502    0 -0.33378145375E+03 -0.16475568383E+03 -0.13943391686E+04  0.14431693678E+04  0.12699999809E+01 0. -1.
       -4    1    3    3    0  502  0.33378145375E+03  0.16475568383E+03  0.12074619513E+04  0.12635349109E+04  0.12699999809E+01 0.  1.
</event>
<event>
 5   0  0.7335091E-07  0.2710295E+04  0.7818609E-02  0.8331672E-01
        1   -1    0    0  501    0  0.00000000000E+00  0.00000000000E+00  0.13382456549E+04  0.13382456549E+04  0.50400001928E-02 0.  1.
       -1   -1    0    0    0  501  0.00000000000E+00  0.00000000000E+00 -0.13722626003E+04  0.13722626003E+04  0.50400001928E-02 0. -1.
    10030    2    1    2    0    0  0.00000000000E+00  0.00000000000E+00 -0.34016945385E+02  0.27105082552E+04  0.27102947900E+04 0.  0.
        3    1    3    3  502    0 -0.12812457034E+04 -0.26218095545E+03 -0.37213508338E+03  0.13597109753E+04  0.10100000352E+00 0. -1.
       -3    1    3    3    0  502  0.12812457034E+04  0.26218095545E+03  0.33811813799E+03  0.13507972799E+04  0.10100000352E+00 0.  1.
</event>
<event>
 5   0  0.7566905E-07  0.2685419E+04  0.7818609E-02  0.8339751E-01
       -1   -1    0    0    0  501  0.00000000000E+00  0.00000000000E+00  0.15375111269E+04  0.15375111269E+04  0.50400001928E-02 0.  1.
        1   -1    0    0  501    0  0.00000000000E+00  0.00000000000E+00 -0.11725893488E+04  0.11725893488E+04  0.50400001928E-02 0. -1.
    10030    2    1    2    0    0  0.00000000000E+00  0.00000000000E+00  0.36492177808E+03  0.27101004757E+04  0.26854192753E+04 0.  0.
        1    1    3    3  502    0  0.33352456334E+03  0.12895314773E+04  0.35354509342E+03  0.13780871520E+04  0.50400001928E-02 0.  1.
       -1    1    3    3    0  502 -0.33352456334E+03 -0.12895314773E+04  0.11376684661E+02  0.13320133237E+04  0.50400001928E-02 0. -1.
</event>
<event>
 5   0  0.6561875E-07  0.2697634E+04  0.7818609E-02  0.8335773E-01
       -3   -1    0    0    0  501  0.00000000000E+00  0.00000000000E+00  0.13666056905E+04  0.13666056943E+04  0.10100000352E+00 0.  1.
        3   -1    0    0  501    0  0.00000000000E+00  0.00000000000E+00 -0.13312602990E+04  0.13312603028E+04  0.10100000352E+00 0. -1.
    10030    2    1    2    0    0  0.00000000000E+00  0.00000000000E+00  0.35345391514E+02  0.26978659971E+04  0.26976344529E+04 0.  0.
        1    1    3    3  502    0 -0.13458171591E+04 -0.65186861222E+02  0.79603432342E+02  0.13497443680E+04  0.50400001928E-02 0.  1.
       -1    1    3    3    0  502  0.13458171591E+04  0.65186861222E+02 -0.44258040827E+02  0.13481216291E+04  0.50400001928E-02 0. -1.
</event>
<event>
 5   0  0.7566905E-07  0.2696321E+04  0.7818609E-02  0.8336200E-01
       -1   -1    0    0    0  501  0.00000000000E+00  0.00000000000E+00  0.11496151677E+04  0.11496151678E+04  0.50400001928E-02 0.  1.
        1   -1    0    0  501    0  0.00000000000E+00  0.00000000000E+00 -0.15809957716E+04  0.15809957716E+04  0.50400001928E-02 0. -1.
    10030    2    1    2    0    0  0.00000000000E+00  0.00000000000E+00 -0.43138060387E+03  0.27306109394E+04  0.26963209892E+04 0.  0.
        1    1    3    3  502    0 -0.76830901722E+02 -0.26531153194E+03  0.11206528433E+04  0.11541906219E+04  0.50400001928E-02 0.  1.
       -1    1    3    3    0  502  0.76830901722E+02  0.26531153194E+03 -0.15520334471E+04  0.15764203175E+04  0.50400001928E-02 0. -1.
</event>
<event>
 5   0  0.7768032E-07  0.2697827E+04  0.7818609E-02  0.8335710E-01
        1   -1    0    0  501    0  0.00000000000E+00  0.00000000000E+00  0.17007394951E+04  0.17007394951E+04  0.50400001928E-02 0. -1.
       -1   -1    0    0    0  501  0.00000000000E+00  0.00000000000E+00 -0.10698686255E+04  0.10698686255E+04  0.50400001928E-02 0.  1.
    10030    2    1    2    0    0  0.00000000000E+00  0.00000000000E+00  0.63087086956E+03  0.27706081206E+04  0.26978271449E+04 0.  0.
        4    1    3    3  502    0  0.31876222551E+03  0.35501480095E+03 -0.98031626141E+03  0.10902598088E+04  0.12699999809E+01 0.  1.
       -4    1    3    3    0  502 -0.31876222551E+03 -0.35501480095E+03  0.16111871310E+04  0.16803483119E+04  0.12699999809E+01 0. -1.
</event>
<event>
 5   0  0.7335091E-07  0.2705918E+04  0.7818609E-02  0.8333087E-01
        1   -1    0    0  501    0  0.00000000000E+00  0.00000000000E+00  0.16774246362E+04  0.16774246362E+04  0.50400001928E-02 0. -1.
       -1   -1    0    0    0  501  0.00000000000E+00  0.00000000000E+00 -0.10912546525E+04  0.10912546525E+04  0.50400001928E-02 0.  1.
    10030    2    1    2    0    0  0.00000000000E+00  0.00000000000E+00  0.58616998366E+03  0.27686792887E+04  0.27059175438E+04 0.  0.
        3    1    3    3  502    0  0.73656668237E+03  0.73875663327E+03  0.11745807023E+04  0.15709652056E+04  0.10100000352E+00 0. -1.
       -3    1    3    3    0  502 -0.73656668237E+03 -0.73875663327E+03 -0.58841071866E+03  0.11977140831E+04  0.10100000352E+00 0.  1.
</event>
<event>
 5   0  0.1999104E-06  0.2684635E+04  0.7818609E-02  0.8340008E-01
        2   -1    0    0  501    0  0.00000000000E+00  0.00000000000E+00  0.80762345184E+03  0.80762345185E+03  0.25500000920E-02 0. -1.
       -2   -1    0    0    0  501  0.00000000000E+00  0.00000000000E+00 -0.22310096650E+04  0.22310096650E+04  0.25500000920E-02 0.  1.
    10030    2    1    2    0    0  0.00000000000E+00  0.00000000000E+00 -0.14233862131E+04  0.30386331168E+04  0.26846345947E+04 0.  0.
        4    1    3    3  502    0  0.12408722703E+04  0.38866052403E+03 -0.10887797186E+04  0.16959551535E+04  0.12699999809E+01 0. -1.
       -4    1    3    3    0  502 -0.12408722703E+04 -0.38866052403E+03 -0.33460649449E+03  0.13426779633E+04  0.12699999809E+01 0.  1.
</event>
<event>
 5   0  0.7436613E-07  0.2705101E+04  0.7818609E-02  0.8333352E-01
        1   -1    0    0  501    0  0.00000000000E+00  0.00000000000E+00  0.17533460777E+04  0.17533460777E+04  0.50400001928E-02 0. -1.
       -1   -1    0    0    0  501  0.00000000000E+00  0.00000000000E+00 -0.10433725004E+04  0.10433725004E+04  0.50400001928E-02 0.  1.
    10030    2    1    2    0    0  0.00000000000E+00  0.00000000000E+00  0.70997357732E+03  0.27967185781E+04  0.27051011672E+04 0.  0.
        2    1    3    3  502    0  0.36727639173E+03 -0.23035774556E+03  0.16795640372E+04  0.17346158059E+04  0.25500000920E-02 0. -1.
       -2    1    3    3    0  502 -0.36727639173E+03  0.23035774556E+03 -0.96959045991E+03  0.10621027722E+04  0.25500000920E-02 0.  1.
</event>
<event>
 5   0  0.7335091E-07  0.2698551E+04  0.7818609E-02  0.8335475E-01
        1   -1    0    0  501    0  0.00000000000E+00  0.00000000000E+00  0.23808127746E+04  0.23808127746E+04  0.50400001928E-02 0.  1.
       -1   -1    0    0    0  501  0.00000000000E+00  0.00000000000E+00 -0.76467367337E+03  0.76467367339E+03  0.50400001928E-02 0. -1.
    10030    2    1    2    0    0  0.00000000000E+00  0.00000000000E+00  0.16161391012E+04  0.31454864479E+04  0.26985513521E+04 0.  0.
        3    1    3    3  502    0  0.51711439301E+03  0.22882039223E+02 -0.64433925877E+03  0.82650104281E+03  0.10100000352E+00 0. -1.
       -3    1    3    3    0  502 -0.51711439301E+03 -0.22882039223E+02  0.22604783600E+04  0.23189854051E+04  0.10100000352E+00 0.  1.
</event>
<event>
 5   0  0.1991277E-06  0.2704045E+04  0.7818609E-02  0.8333694E-01
        2   -1    0    0  501    0  0.00000000000E+00  0.00000000000E+00  0.15704640172E+04  0.15704640172E+04  0.25500000920E-02 0.  1.
       -2   -1    0    0    0  501  0.00000000000E+00  0.00000000000E+00 -0.11639651092E+04  0.11639651092E+04  0.25500000920E-02 0. -1.
    10030    2    1    2    0    0  0.00000000000E+00  0.00000000000E+00  0.40649890806E+03  0.27344291264E+04  0.27040453556E+04 0.  0.
        5    1    3    3  502    0 -0.10593643805E+04  0.83472397625E+03  0.10770915604E+03  0.13530115888E+04  0.46999998093E+01 0.  1.
       -5    1    3    3    0  502  0.10593643805E+04 -0.83472397625E+03  0.29878975202E+03  0.13814175376E+04  0.46999998093E+01 0. -1.
</event>
<event>
 5   0  0.7436613E-07  0.2697236E+04  0.7818609E-02  0.8335902E-01
        1   -1    0    0  501    0  0.00000000000E+00  0.00000000000E+00  0.10002807597E+04  0.10002807597E+04  0.50400001928E-02 0. -1.
       -1   -1    0    0    0  501  0.00000000000E+00  0.00000000000E+00 -0.18182602562E+04  0.18182602562E+04  0.50400001928E-02 0.  1.
    10030    2    1    2    0    0  0.00000000000E+00  0.00000000000E+00 -0.81797949647E+03  0.28185410159E+04  0.26972361784E+04 0.  0.
        2    1    3    3  502    0  0.88283369612E+03 -0.60648172803E+03  0.44735035458E+03  0.11607487933E+04  0.25500000920E-02 0. -1.
       -2    1    3    3    0  502 -0.88283369612E+03  0.60648172803E+03 -0.12653298511E+04  0.16577922226E+04  0.25500000920E-02 0.  1.
</event>
<event>
 5   0  0.7806808E-07  0.2654192E+04  0.7818609E-02  0.8350023E-01
        1   -1    0    0  501    0  0.00000000000E+00  0.00000000000E+00  0.19160569915E+04  0.19160569915E+04  0.50400001928E-02 0.  1.
       -1   -1    0    0    0  501  0.00000000000E+00  0.00000000000E+00 -0.91917117785E+03  0.91917117786E+03  0.50400001928E-02 0. -1.
    10030    2    1    2    0    0  0.00000000000E+00  0.00000000000E+00  0.99688581363E+03  0.28352281693E+04  0.26541924284E+04 0.  0.
        5    1    3    3  502    0  0.60066686258E+03  0.90764253214E+03  0.13095399657E+04  0.17028014146E+04  0.46999998093E+01 0.  1.
       -5    1    3    3    0  502 -0.60066686258E+03 -0.90764253214E+03 -0.31265415207E+03  0.11324267547E+04  0.46999998093E+01 0. -1.
</event>
<event>
 5   0  0.7806808E-07  0.2699130E+04  0.7818609E-02  0.8335287E-01
        1   -1    0    0  501    0  0.00000000000E+00  0.00000000000E+00  0.15840038686E+04  0.15840038686E+04  0.50400001928E-02 0. -1.
       -1   -1    0    0    0  501  0.00000000000E+00  0.00000000000E+00 -0.11498241812E+04  0.11498241812E+04  0.50400001928E-02 0.  1.
    10030    2    1    2    0    0  0.00000000000E+00  0.00000000000E+00  0.43417968736E+03  0.27338280498E+04  0.26991301941E+04 0.  0.
        5    1    3    3  502    0  0.55753124368E+03  0.38557480792E+03  0.13990509992E+04  0.15546301196E+04  0.46999998093E+01 0. -1.
       -5    1    3    3    0  502 -0.55753124368E+03 -0.38557480792E+03 -0.96487131188E+03  0.11791979302E+04  0.46999998093E+01 0.  1.
</event>
<event>
 5   0  0.1932012E-06  0.2700689E+04  0.7818609E-02  0.8334782E-01
       -2   -1    0    0    0  501  0.00000000000E+00  0.00000000000E+00  0.15388777439E+04  0.15388777439E+04  0.25500000920E-02 0.  1.
        2   -1    0    0  501    0  0.00000000000E+00  0.00000000000E+00 -0.11849087613E+04  0.11849087613E+04  0.25500000920E-02 0. -1.
    10030    2    1    2    0    0  0.00000000000E+00  0.00000000000E+00  0.35396898256E+03  0.27237865052E+04  0.27006885947E+04 0.  0.
        2    1    3    3  502    0  0.12341775142E+04 -0.16718567359E+03 -0.34928723870E+03  0.12935017438E+04  0.25500000920E-02 0. -1.
       -2    1    3    3    0  502 -0.12341775142E+04  0.16718567359E+03  0.70325622126E+03  0.14302847614E+04  0.25500000920E-02 0.  1.
</event>
<event>
 5   0  0.1932012E-06  0.2681936E+04  0.7818609E-02  0.8340890E-01
        2   -1    0    0  501    0  0.00000000000E+00  0.00000000000E+00  0.13939999315E+04  0.13939999315E+04  0.25500000920E-02 0. -1.
       -2   -1    0    0    0  501  0.00000000000E+00  0.00000000000E+00 -0.12899534430E+04  0.12899534430E+04  0.25500000920E-02 0.  1.
    10030    2    1    2    0    0  0.00000000000E+00  0.00000000000E+00  0.10404648856E+03  0.26839533745E+04  0.26819358763E+04 0.  0.
        2    1    3    3  502    0  0.92483528129E+03  0.26286100953E+03 -0.88344129582E+03  0.13057123462E+04  0.25500000920E-02 0.  1.
       -2    1    3    3    0  502 -0.92483528129E+03 -0.26286100953E+03  0.98748778437E+03  0.13782410283E+04  0.25500000920E-02 0. -1.
</event>
<event>
 5   0  0.1991277E-06  0.2698967E+04  0.7818609E-02  0.8335340E-01
        2   -1    0    0  501    0  0.00000000000E+00  0.00000000000E+00  0.13251065773E+04  0.13251065773E+04  0.25500000920E-02 0. -1.
       -2   -1    0    0    0  501  0.00000000000E+00  0.00000000000E+00 -0.13743087385E+04  0.13743087385E+04  0.25500000920E-02 0.  1.
    10030    2    1    2    0    0  0.00000000000E+00  0.00000000000E+00 -0.49202161272E+02  0.26994153158E+04  0.26989668754E+04 0.  0.
        5    1    3    3  502    0 -0.47459657987E+03  0.95626578857E+03  0.80100399281E+03  0.13346593792E+04  0.46999998093E+01 0. -1.
       -5    1    3    3    0  502  0.47459657987E+03 -0.95626578857E+03 -0.85020615408E+03  0.13647559366E+04  0.46999998093E+01 0.  1.
</event>
<event>
 5   0  0.1999104E-06  0.2685927E+04  0.7818609E-02  0.8339586E-01
        2   -1    0    0  501    0  0.00000000000E+00  0.00000000000E+00  0.13054127028E+04  0.13054127028E+04  0.25500000920E-02 0.  1.
       -2   -1    0    0    0  501  0.00000000000E+00  0.00000000000E+00 -0.13815945013E+04  0.13815945013E+04  0.25500000920E-02 0. -1.
    10030    2    1    2    0    0  0.00000000000E+00  0.00000000000E+00 -0.76181798527E+02  0.26870072041E+04  0.26859270370E+04 0.  0.
        4    1    3    3  502    0 -0.23868534369E+03  0.15920500143E+03  0.12743942117E+04  0.13062921364E+04  0.12699999809E+01 0.  1.
       -4    1    3    3    0  502  0.23868534369E+03 -0.15920500143E+03 -0.13505760103E+04  0.13807150677E+04  0.12699999809E+01 0. -1.
</event>
<event>
 5   0  0.7566905E-07  0.2700312E+04  0.7818609E-02  0.8334904E-01
       -1   -1    0    0    0  501  0.00000000000E+00  0.00000000000E+00  0.17752771025E+04  0.17752771025E+04  0.50400001928E-02 0. -1.
        1   -1    0    0  501    0  0.00000000000E+00  0.00000000000E+00 -0.10268374238E+04  0.10268374238E+04  0.50400001928E-02 0.  1.
    10030    2    1    2    0    0  0.00000000000E+00  0.00000000000E+00  0.74843967867E+03  0.28021145263E+04  0.27003118090E+04 0.  0.
        1    1    3    3  502    0  0.85798697555E+03  0.34077668429E+03 -0.64813915542E+03  0.11279870405E+04  0.50400001928E-02 0.  1.
       -1    1    3    3    0  502 -0.85798697555E+03 -0.34077668429E+03  0.13965788341E+04  0.16741274858E+04  0.50400001928E-02 0. -1.
</event>
<event>
 5   0  0.1999104E-06  0.2700141E+04  0.7818609E-02  0.8334959E-01
        2   -1    0    0  501    0  0.00000000000E+00  0.00000000000E+00  0.16554647080E+04  0.16554647080E+04  0.25500000920E-02 0.  1.
       -2   -1    0    0    0  501  0.00000000000E+00  0.00000000000E+00 -0.11010145375E+04  0.11010145375E+04  0.25500000920E-02 0. -1.
    10030    2    1    2    0    0  0.00000000000E+00  0.00000000000E+00  0.55445017048E+03  0.27564792455E+04  0.27001412629E+04 0.  0.
        4    1    3    3  502    0 -0.12215815134E+04  0.19241261124E+03  0.83019571272E+03  0.14894665290E+04  0.12699999809E+01 0.  1.
       -4    1    3    3    0  502  0.12215815134E+04 -0.19241261124E+03 -0.27574554224E+03  0.12670127165E+04  0.12699999809E+01 0. -1.
</event>
<event>
 5   0  0.7768032E-07  0.2697406E+04  0.7818609E-02  0.8335847E-01
        1   -1    0    0  501    0  0.00000000000E+00  0.00000000000E+00  0.13219582145E+04  0.13219582145E+04  0.50400001928E-02 0.  1.
       -1   -1    0    0    0  501  0.00000000000E+00  0.00000000000E+00 -0.13759889206E+04  0.13759889206E+04  0.50400001928E-02 0. -1.
    10030    2    1    2    0    0  0.00000000000E+00  0.00000000000E+00 -0.54030706096E+02  0.26979471351E+04  0.26974060552E+04 0.  0.
        4    1    3    3  502    0 -0.93289466893E+03  0.60304448948E+03 -0.79204990024E+03  0.13642946078E+04  0.12699999809E+01 0. -1.
       -4    1    3    3    0  502  0.93289466893E+03 -0.60304448948E+03  0.73801919414E+03  0.13336525272E+04  0.12699999809E+01 0.  1.
</event>
<event>
 5   0  0.2030645E-06  0.2694632E+04  0.7818609E-02  0.8336749E-01
        2   -1    0    0  501    0  0.00000000000E+00  0.00000000000E+00  0.79382155869E+03  0.79382155869E+03  0.25500000920E-02 0.  1.
       -2   -1    0    0    0  501  0.00000000000E+00  0.00000000000E+00 -0.22867366270E+04  0.22867366270E+04  0.25500000920E-02 0. -1.
    10030    2    1    2    0    0  0.00000000000E+00  0.00000000000E+00 -0.14929150683E+04  0.30805581857E+04  0.26946323189E+04 0.  0.
        1    1    3    3  502    0  0.41268403695E+03 -0.59069175764E+02 -0.22111468841E+04  0.22501039587E+04  0.50400001928E-02 0. -1.
       -1    1    3    3    0  502 -0.41268403695E+03  0.59069175764E+02  0.71823181579E+03  0.83045422699E+03  0.50400001928E-02 0.  1.
</event>
<event>
 5   0  0.7335091E-07  0.2699494E+04  0.7818609E-02  0.8335169E-01
       -1   -1    0    0    0  501  0.00000000000E+00  0.00000000000E+00  0.11289141407E+04  0.11289141407E+04  0.50400001928E-02 0. -1.
        1   -1    0    0  501    0  0.00000000000E+00  0.00000000000E+00 -0.16137787013E+04  0.16137787013E+04  0.50400001928E-02 0.  1.
    10030    2    1    2    0    0  0.00000000000E+00  0.00000000000E+00 -0.48486456064E+03  0.27426928420E+04  0.26994944681E+04 0.  0.
        3    1    3    3  502    0  0.66173711985E+03 -0.67954845375E+03 -0.12180778903E+04  0.15438250788E+04  0.10100000352E+00 0.  1.
       -3    1    3    3    0  502 -0.66173711985E+03  0.67954845375E+03  0.73321332966E+03  0.11988677633E+04  0.10100000352E+00 0. -1.
</event>
<event>
 5   0  0.2063087E-06  0.2696225E+04  0.7818609E-02  0.8336231E-01
        2   -1    0    0  501    0  0.00000000000E+00  0.00000000000E+00  0.12923635720E+04  0.12923635720E+04  0.25500000920E-02 0.  1.
       -2   -1    0    0    0  501  0.00000000000E+00  0.00000000000E+00 -0.14062662639E+04  0.14062662639E+04  0.25500000920E-02 0. -1.
    10030    2    1    2    0    0  0.00000000000E+00  0.00000000000E+00 -0.11390269194E+03  0.26986298359E+04  0.26962249846E+04 0.  0.
        3    1    3    3  502    0 -0.28640504186E+03  0.13025342177E+04 -0.25406365370E+03  0.13576345556E+04  0.10100000352E+00 0. -1.
       -3    1    3    3    0  502  0.28640504186E+03 -0.13025342177E+04  0.14016096176E+03  0.13409952803E+04  0.10100000352E+00 0.  1.
</event>
<event>
 5   0  0.7806808E-07  0.2698759E+04  0.7818609E-02  0.8335408E-01
       -1   -1    0    0    0  501  0.00000000000E+00  0.00000000000E+00  0.85365329638E+03  0.85365329639E+03  0.50400001928E-02 0.  1.
        1   -1    0    0  501    0  0.00000000000E+00  0.00000000000E+00 -0.21329789206E+04  0.21329789206E+04  0.50400001928E-02 0. -1.
    10030    2    1    2    0    0  0.00000000000E+00  0.00000000000E+00 -0.12793256242E+04  0.29866322170E+04  0.26987585936E+04 0.  0.
        5    1    3    3  502    0 -0.82508952262E+02  0.13308887715E+04 -0.86842427734E+03  0.15913062134E+04  0.46999998093E+01 0. -1.
       -5    1    3    3    0  502  0.82508952262E+02 -0.13308887715E+04 -0.41090134686E+03  0.13953260036E+04  0.46999998093E+01 0.  1.
</event>
<event>
 5   0  0.2030645E-06  0.2704286E+04  0.7818609E-02  0.8333616E-01
       -2   -1    0    0    0  501  0.00000000000E+00  0.00000000000E+00  0.17023208134E+04  0.17023208134E+04  0.25500000920E-02 0. -1.
        2   -1    0    0  501    0  0.00000000000E+00  0.00000000000E+00 -0.10739989879E+04  0.10739989879E+04  0.25500000920E-02 0.  1.
    10030    2    1    2    0    0  0.00000000000E+00  0.00000000000E+00  0.62832182546E+03  0.27763198013E+04  0.27042861023E+04 0.  0.
        1    1    3    3  502    0  0.99340593681E+03 -0.36758547513E+03  0.11769735503E+04  0.15834270350E+04  0.50400001928E-02 0. -1.
       -1    1    3    3    0  502 -0.99340593681E+03  0.36758547513E+03 -0.54865172489E+03  0.11928927664E+04  0.50400001928E-02 0.  1.
</event>
<event>
 5   0  0.2063087E-06  0.2704281E+04  0.7818609E-02  0.8333617E-01
       -2   -1    0    0    0  501  0.00000000000E+00  0.00000000000E+00  0.14083516319E+04  0.14083516319E+04  0.25500000920E-02 0.  1.
        2   -1    0    0  501    0  0.00000000000E+00  0.00000000000E+00 -0.12981727961E+04  0.12981727961E+04  0.25500000920E-02 0. -1.
    10030    2    1    2    0    0  0.00000000000E+00  0.00000000000E+00  0.11017883585E+03  0.27065244280E+04  0.27042808847E+04 0.  0.
        3    1    3    3  502    0  0.56862947088E+03 -0.73959574288E+03  0.10346467445E+04  0.13931386270E+04  0.10100000352E+00 0.  1.
       -3    1    3    3    0  502 -0.56862947088E+03  0.73959574288E+03 -0.92446790861E+03  0.13133858010E+04  0.10100000352E+00 0. -1.
</event>
<event>
 5   0  0.6561875E-07  0.2719907E+04  0.7818609E-02  0.8328574E-01
       -3   -1    0    0    0  501  0.00000000000E+00  0.00000000000E+00  0.22748404478E+04  0.22748404501E+04  0.10100000352E+00 0.  1.
        3   -1    0    0  501    0  0.00000000000E+00  0.00000000000E+00 -0.81301266728E+03  0.81301267355E+03  0.10100000352E+00 0. -1.
    10030    2    1    2    0    0  0.00000000000E+00  0.00000000000E+00  0.14618277805E+04  0.30878531236E+04  0.27199074346E+04 0.  0.
        1    1    3    3  502    0 -0.77239995225E+03  0.37324784388E+03 -0.46709219489E+03  0.97677569470E+03  0.50400001928E-02 0. -1.
       -1    1    3    3    0  502  0.77239995225E+03 -0.37324784388E+03  0.19289199754E+04  0.21110774289E+04  0.50400001928E-02 0.  1.
</event>
<event>
 5   0  0.7768032E-07  0.2702356E+04  0.7818609E-02  0.8334241E-01
        1   -1    0    0  501    0  0.00000000000E+00  0.00000000000E+00  0.15903074021E+04  0.15903074021E+04  0.50400001928E-02 0.  1.
       -1   -1    0    0    0  501  0.00000000000E+00  0.00000000000E+00 -0.11480056902E+04  0.11480056902E+04  0.50400001928E-02 0. -1.
    10030    2    1    2    0    0  0.00000000000E+00  0.00000000000E+00  0.44230171186E+03  0.27383130923E+04  0.27023559697E+04 0.  0.
        4    1    3    3  502    0  0.90011901672E+03  0.10060820603E+04  0.27905113328E+03  0.13785087973E+04  0.12699999809E+01 0. -1.
       -4    1    3    3    0  502 -0.90011901672E+03 -0.10060820603E+04  0.16325057858E+03  0.13598042950E+04  0.12699999809E+01 0.  1.
</event>
<event>
 5   0  0.7436613E-07  0.2737685E+04  0.7818609E-02  0.8322880E-01
       -1   -1    0    0    0  501  0.00000000000E+00  0.00000000000E+00  0.78544332031E+03  0.78544332033E+03  0.50400001928E-02 0. -1.
        1   -1    0    0  501    0  0.00000000000E+00  0.00000000000E+00 -0.23855693590E+04  0.23855693590E+04  0.50400001928E-02 0.  1.
    10030    2    1    2    0    0  0.00000000000E+00  0.00000000000E+00 -0.16001260386E+04  0.31710126793E+04  0.27376848016E+04 0.  0.
        2    1    3    3  502    0  0.10155745033E+04  0.79034613714E+03 -0.25963892820E+03  0.13128027123E+04  0.25500000920E-02 0. -1.
       -2    1    3    3    0  502 -0.10155745033E+04 -0.79034613714E+03 -0.13404871104E+04  0.18582099670E+04  0.25500000920E-02 0.  1.
</event>
<event>
 5   0  0.1999104E-06  0.2694770E+04  0.7818609E-02  0.8336704E-01
        2   -1    0    0  501    0  0.00000000000E+00  0.00000000000E+00  0.14510643312E+04  0.14510643312E+04  0.25500000920E-02 0. -1.
       -2   -1    0    0    0  501  0.00000000000E+00  0.00000000000E+00 -0.12511134861E+04  0.12511134861E+04  0.25500000920E-02 0.  1.
    10030    2    1    2    0    0  0.00000000000E+00  0.00000000000E+00  0.19995084514E+03  0.27021778173E+04  0.26947698633E+04 0.  0.
        4    1    3    3  502    0  0.11973391141E+04 -0.58460516684E+03  0.30067654771E+03  0.13659400259E+04  0.12699999809E+01 0. -1.
       -4    1    3    3    0  502 -0.11973391141E+04  0.58460516684E+03 -0.10072570256E+03  0.13362377914E+04  0.12699999809E+01 0.  1.
</event>
<event>
 5   0  0.2030645E-06  0.2703258E+04  0.7818609E-02  0.8333949E-01
       -2   -1    0    0    0  501  0.00000000000E+00  0.00000000000E+00  0.16894145289E+04  0.16894145289E+04  0.25500000920E-02 0.  1.
        2   -1    0    0  501    0  0.00000000000E+00  0.00000000000E+00 -0.10813812107E+04  0.10813812107E+04  0.25500000920E-02 0. -1.
    10030    2    1    2    0    0  0.00000000000E+00  0.00000000000E+00  0.60803331817E+03  0.27707957396E+04  0.27032581295E+04 0.  0.
        1    1    3    3  502    0  0.67166977026E+03  0.11281926416E+04  0.63287869513E+03  0.14575645301E+04  0.50400001928E-02 0.  1.
       -1    1    3    3    0  502 -0.67166977026E+03 -0.11281926416E+04 -0.24845376962E+02  0.13132312095E+04  0.50400001928E-02 0. -1.
</event>
<event>
 5   0  0.7566905E-07  0.2702384E+04  0.7818609E-02  0.8334232E-01
       -1   -1    0    0    0  501  0.00000000000E+00  0.00000000000E+00  0.12940944559E+04  0.12940944559E+04  0.50400001928E-02 0. -1.
        1   -1    0    0  501    0  0.00000000000E+00  0.00000000000E+00 -0.14108092566E+04  0.14108092566E+04  0.50400001928E-02 0.  1.
    10030    2    1    2    0    0  0.00000000000E+00  0.00000000000E+00 -0.11671480073E+03  0.27049037125E+04  0.27023844562E+04 0.  0.
        1    1    3    3  502    0  0.20553910645E+03  0.12433512993E+04  0.42948967981E+03  0.13314015784E+04  0.50400001928E-02 0. -1.
       -1    1    3    3    0  502 -0.20553910645E+03 -0.12433512993E+04 -0.54620448054E+03  0.13735021341E+04  0.50400001928E-02 0.  1.
</event>
<event>
 5   0  0.1991277E-06  0.2665589E+04  0.7818609E-02  0.8346257E-01
        2   -1    0    0  501    0  0.00000000000E+00  0.00000000000E+00  0.15913741814E+04  0.15913741814E+04  0.25500000920E-02 0. -1.
       -2   -1    0    0    0  501  0.00000000000E+00  0.00000000000E+00 -0.11162309209E+04  0.11162309209E+04  0.25500000920E-02 0.  1.
    10030    2    1    2    0    0  0.00000000000E+00  0.00000000000E+00  0.47514326057E+03  0.27076051023E+04  0.26655889165E+04 0.  0.
        5    1    3    3  502    0  0.42585427933E+03 -0.46957704904E+03 -0.95328345189E+03  0.11448257081E+04  0.46999998093E+01 0.  1.
       -5    1    3    3    0  502 -0.42585427933E+03  0.46957704904E+03  0.14284267125E+04  0.15627793942E+04  0.46999998093E+01 0. -1.
</event>
<event>
 5   0  0.7768032E-07  0.2697832E+04  0.7818609E-02  0.8335709E-01
       -1   -1    0    0    0  501  0.00000000000E+00  0.00000000000E+00  0.11618572636E+04  0.11618572636E+04  0.50400001928E-02 0.  1.
        1   -1    0    0  501    0  0.00000000000E+00  0.00000000000E+00 -0.15660911565E+04  0.15660911565E+04  0.50400001928E-02 0. -1.
    10030    2    1    2    0    0  0.00000000000E+00  0.00000000000E+00 -0.40423389290E+03  0.27279484201E+04  0.26978320078E+04 0.  0.
        4    1    3    3  502    0  0.12982822113E+04  0.22019084596E+03  0.93641050950E+02  0.13201480857E+04  0.12699999809E+01 0. -1.
       -4    1    3    3    0  502 -0.12982822113E+04 -0.22019084596E+03 -0.49787494385E+03  0.14078003344E+04  0.12699999809E+01 0.  1.
</event>
<event>
 5   0  0.7335091E-07  0.2702936E+04  0.7818609E-02  0.8334053E-01
        1   -1    0    0  501    0  0.00000000000E+00  0.00000000000E+00  0.20885753610E+04  0.20885753610E+04  0.50400001928E-02 0. -1.
       -1   -1    0    0    0  501  0.00000000000E+00  0.00000000000E+00 -0.87450337163E+03  0.87450337164E+03  0.50400001928E-02 0.  1.
    10030    2    1    2    0    0  0.00000000000E+00  0.00000000000E+00  0.12140719893E+04  0.29630787326E+04  0.27029363256E+04 0.  0.
        3    1    3    3  502    0  0.30144932868E+03  0.11230391746E+04 -0.14800306170E+03  0.11721747318E+04  0.10100000352E+00 0.  1.
       -3    1    3    3    0  502 -0.30144932868E+03 -0.11230391746E+04  0.13620750510E+04  0.17909040008E+04  0.10100000352E+00 0. -1.
</event>
<event>
 5   0  0.7436613E-07  0.2689106E+04  0.7818609E-02  0.8338548E-01
        1   -1    0    0  501    0  0.00000000000E+00  0.00000000000E+00  0.19360924136E+04  0.19360924136E+04  0.50400001928E-02 0. -1.
       -1   -1    0    0    0  501  0.00000000000E+00  0.00000000000E+00 -0.93374833039E+03  0.93374833040E+03  0.50400001928E-02 0.  1.
    10030    2    1    2    0    0  0.00000000000E+00  0.00000000000E+00  0.10023440832E+04  0.28698407440E+04  0.26891062148E+04 0.  0.
        2    1    3    3  502    0 -0.54426232326E+03 -0.40754946775E+03 -0.73674773421E+03  0.10025543721E+04  0.25500000920E-02 0.  1.
       -2    1    3    3    0  502  0.54426232326E+03  0.40754946775E+03  0.17390918174E+04  0.18672863718E+04  0.25500000920E-02 0. -1.
</event>
<event>
 5   0  0.1999104E-06  0.2700422E+04  0.7818609E-02  0.8334868E-01
       -2   -1    0    0    0  501  0.00000000000E+00  0.00000000000E+00  0.64360952423E+03  0.64360952424E+03  0.25500000920E-02 0.  1.
        2   -1    0    0  501    0  0.00000000000E+00  0.00000000000E+00 -0.28325709634E+04  0.28325709634E+04  0.25500000920E-02 0. -1.
    10030    2    1    2    0    0  0.00000000000E+00  0.00000000000E+00 -0.21889614392E+04  0.34761804876E+04  0.27004219301E+04 0.  0.
        4    1    3    3  502    0 -0.98196019394E+02 -0.11866455042E+04 -0.27496377872E+03  0.12220379305E+04  0.12699999809E+01 0.  1.
       -4    1    3    3    0  502  0.98196019394E+02  0.11866455042E+04 -0.19139976604E+04  0.22541425572E+04  0.12699999809E+01 0. -1.
</event>
<event>
 5   0  0.7566905E-07  0.2695123E+04  0.7818609E-02  0.8336589E-01
        1   -1    0    0  501    0  0.00000000000E+00  0.00000000000E+00  0.27292063588E+04  0.27292063588E+04  0.50400001928E-02 0. -1.
       -1   -1    0    0    0  501  0.00000000000E+00  0.00000000000E+00 -0.66536642157E+03  0.66536642159E+03  0.50400001928E-02 0.  1.
    10030    2    1    2    0    0  0.00000000000E+00  0.00000000000E+00  0.20638399373E+04  0.33945727804E+04  0.26951232022E+04 0.  0.
        1    1    3    3  502    0 -0.10012458987E+04  0.66607031586E+03  0.17978300256E+04  0.21629460965E+04  0.50400001928E-02 0.  1.
       -1    1    3    3    0  502  0.10012458987E+04 -0.66607031586E+03  0.26600991167E+03  0.12316266839E+04  0.50400001928E-02 0. -1.
</event>
<event>
 5   0  0.7335091E-07  0.2700927E+04  0.7818609E-02  0.8334704E-01
       -1   -1    0    0    0  501  0.00000000000E+00  0.00000000000E+00  0.69970110413E+03  0.69970110415E+03  0.50400001928E-02 0. -1.
        1   -1    0    0  501    0  0.00000000000E+00  0.00000000000E+00 -0.26064728252E+04  0.26064728252E+04  0.50400001928E-02 0.  1.
    10030    2    1    2    0    0  0.00000000000E+00  0.00000000000E+00 -0.19067717211E+04  0.33061739294E+04  0.27009271843E+04 0.  0.
        3    1    3    3  502    0  0.38031021457E+03  0.73109642520E+03 -0.22629969966E+04  0.24083797996E+04  0.10100000352E+00 0.  1.
       -3    1    3    3    0  502 -0.38031021457E+03 -0.73109642520E+03  0.35622527556E+03  0.89779412974E+03  0.10100000352E+00 0. -1.
</event>
<event>
 5   0  0.1932012E-06  0.2699850E+04  0.7818609E-02  0.8335054E-01
       -2   -1    0    0    0  501  0.00000000000E+00  0.00000000000E+00  0.97461399360E+03  0.97461399360E+03  0.25500000920E-02 0.  1.
        2   -1    0    0  501    0  0.00000000000E+00  0.00000000000E+00 -0.18697636985E+04  0.18697636985E+04  0.25500000920E-02 0. -1.
    10030    2    1    2    0    0  0.00000000000E+00  0.00000000000E+00 -0.89514970491E+03  0.28443776921E+04  0.26998502664E+04 0.  0.
        2    1    3    3  502    0  0.66739216584E+03  0.11636256507E+04 -0.60686698146E+03  0.14723194256E+04  0.25500000920E-02 0. -1.
       -2    1    3    3    0  502 -0.66739216584E+03 -0.11636256507E+04 -0.28828272344E+03  0.13720582665E+04  0.25500000920E-02 0.  1.
</event>
<event>
 5   0  0.1999104E-06  0.2701723E+04  0.7818609E-02  0.8334446E-01
       -2   -1    0    0    0  501  0.00000000000E+00  0.00000000000E+00  0.87534736018E+03  0.87534736018E+03  0.25500000920E-02 0.  1.
        2   -1    0    0  501    0  0.00000000000E+00  0.00000000000E+00 -0.20846892717E+04  0.20846892717E+04  0.25500000920E-02 0. -1.
    10030    2    1    2    0    0  0.00000000000E+00  0.00000000000E+00 -0.12093419115E+04  0.29600366319E+04  0.27017233395E+04 0.  0.
        4    1    3    3  502    0 -0.55996175902E+03  0.80542468823E+03  0.41286731392E+03  0.10642965432E+04  0.12699999809E+01 0.  1.
       -4    1    3    3    0  502  0.55996175902E+03 -0.80542468823E+03 -0.16222092255E+04  0.18957400887E+04  0.12699999809E+01 0. -1.
</event>
<event>
 5   0  0.7806808E-07  0.2689681E+04  0.7818609E-02  0.8338361E-01
       -1   -1    0    0    0  501  0.00000000000E+00  0.00000000000E+00  0.85586329375E+03  0.85586329377E+03  0.50400001928E-02 0. -1.
        1   -1    0    0  501    0  0.00000000000E+00  0.00000000000E+00 -0.21131827855E+04  0.21131827855E+04  0.50400001928E-02 0.  1.
    10030    2    1    2    0    0  0.00000000000E+00  0.00000000000E+00 -0.12573194917E+04  0.29690460792E+04  0.26896807090E+04 0.  0.
        5    1    3    3  502    0  0.84302944631E+03 -0.20119513060E+03  0.50644230966E+03  0.10038346632E+04  0.46999998093E+01 0. -1.
       -5    1    3    3    0  502 -0.84302944631E+03  0.20119513060E+03 -0.17637618014E+04  0.19652114161E+04  0.46999998093E+01 0.  1.
</event>
<event>
 5   0  0.1999104E-06  0.2704788E+04  0.7818609E-02  0.8333453E-01
       -2   -1    0    0    0  501  0.00000000000E+00  0.00000000000E+00  0.83235317628E+03  0.83235317629E+03  0.25500000920E-02 0.  1.
        2   -1    0    0  501    0  0.00000000000E+00  0.00000000000E+00 -0.21973480920E+04  0.21973480920E+04  0.25500000920E-02 0. -1.
    10030    2    1    2    0    0  0.00000000000E+00  0.00000000000E+00 -0.13649949157E+04  0.30297012683E+04  0.27047880980E+04 0.  0.
        4    1    3    3  502    0  0.38082176429E+02  0.92803139246E+03  0.41857792622E+03  0.10187745633E+04  0.12699999809E+01 0.  1.
       -4    1    3    3    0  502 -0.38082176429E+02 -0.92803139246E+03 -0.17835728419E+04  0.20109267050E+04  0.12699999809E+01 0. -1.
</event>
<event>
 5   0  0.7436613E-07  0.2701683E+04  0.7818609E-02  0.8334459E-01
        1   -1    0    0  501    0  0.00000000000E+00  0.00000000000E+00  0.18776694391E+04  0.18776694391E+04  0.50400001928E-02 0. -1.
       -1   -1    0    0    0  501  0.00000000000E+00  0.00000000000E+00 -0.97182836247E+03  0.97182836249E+03  0.50400001928E-02 0.  1.
    10030    2    1    2    0    0  0.00000000000E+00  0.00000000000E+00  0.90584107661E+03  0.28494978016E+04  0.27016827469E+04 0.  0.
        2    1    3    3  502    0 -0.17240348943E+03  0.22007107451E+01  0.18660163198E+04  0.18739649708E+04  0.25500000920E-02 0. -1.
       -2    1    3    3    0  502  0.17240348943E+03 -0.22007107451E+01 -0.96017524315E+03  0.97553283074E+03  0.25500000920E-02 0.  1.
</event>
<event>
 5   0  0.1991277E-06  0.2700063E+04  0.7818609E-02  0.8334984E-01
       -2   -1    0    0    0  501  0.00000000000E+00  0.00000000000E+00  0.85226993817E+03  0.85226993817E+03  0.25500000920E-02 0.  1.
        2   -1    0    0  501    0  0.00000000000E+00  0.00000000000E+00 -0.21385074496E+04  0.21385074496E+04  0.25500000920E-02 0. -1.
    10030    2    1    2    0    0  0.00000000000E+00  0.00000000000E+00 -0.12862375114E+04  0.29907773878E+04  0.27000634154E+04 0.  0.
        5    1    3    3  502    0 -0.91279134601E+03  0.52531161548E+03  0.29246728684E+03  0.10930231190E+04  0.46999998093E+01 0.  1.
       -5    1    3    3    0  502  0.91279134601E+03 -0.52531161548E+03 -0.15787047983E+04  0.18977542688E+04  0.46999998093E+01 0. -1.
</event>
<event>
 5   0  0.7768032E-07  0.2696106E+04  0.7818609E-02  0.8336269E-01
       -1   -1    0    0    0  501  0.00000000000E+00  0.00000000000E+00  0.26993118383E+04  0.26993118383E+04  0.50400001928E-02 0. -1.
        1   -1    0    0  501    0  0.00000000000E+00  0.00000000000E+00 -0.67322618163E+03  0.67322618165E+03  0.50400001928E-02 0.  1.
    10030    2    1    2    0    0  0.00000000000E+00  0.00000000000E+00  0.20260856567E+04  0.33725380200E+04  0.26961063792E+04 0.  0.
        4    1    3    3  502    0  0.47808308502E+03  0.30955424619E+03  0.25414151217E+04  0.26044538202E+04  0.12699999809E+01 0. -1.
       -4    1    3    3    0  502 -0.47808308502E+03 -0.30955424619E+03 -0.51532946506E+03  0.76808419980E+03  0.12699999809E+01 0.  1.
</event>
<event>
 5   0  0.2063087E-06  0.2707065E+04  0.7818609E-02  0.8332716E-01
        2   -1    0    0  501    0  0.00000000000E+00  0.00000000000E+00  0.16248085432E+04  0.16248085432E+04  0.25500000920E-02 0. -1.
       -2   -1    0    0    0  501  0.00000000000E+00  0.00000000000E+00 -0.11275480391E+04  0.11275480391E+04  0.25500000920E-02 0.  1.
    10030    2    1    2    0    0  0.00000000000E+00  0.00000000000E+00  0.49726050412E+03  0.27523565823E+04  0.27070645997E+04 0.  0.
        3    1    3    3  502    0 -0.10493190060E+04 -0.63598766914E+03 -0.33233077118E+03  0.12712177010E+04  0.10100000352E+00 0.  1.
       -3    1    3    3    0  502  0.10493190060E+04  0.63598766914E+03  0.82959127530E+03  0.14811388813E+04  0.10100000352E+00 0. -1.
</event>
<event>
 5   0  0.7436613E-07  0.2699985E+04  0.7818609E-02  0.8335010E-01
       -1   -1    0    0    0  501  0.00000000000E+00  0.00000000000E+00  0.71595810010E+03  0.71595810012E+03  0.50400001928E-02 0. -1.
        1   -1    0    0  501    0  0.00000000000E+00  0.00000000000E+00 -0.25455126152E+04  0.25455126152E+04  0.50400001928E-02 0.  1.
    10030    2    1    2    0    0  0.00000000000E+00  0.00000000000E+00 -0.18295545151E+04  0.32614707153E+04  0.26999854635E+04 0.  0.
        2    1    3    3  502    0  0.67034074825E+03  0.27980153276E+03 -0.22893231110E+04  0.24018005586E+04  0.25500000920E-02 0.  1.
       -2    1    3    3    0  502 -0.67034074825E+03 -0.27980153276E+03  0.45976859597E+03  0.85967015671E+03  0.25500000920E-02 0. -1.
</event>
<event>
 5   0  0.1932012E-06  0.2701531E+04  0.7818609E-02  0.8334509E-01
       -2   -1    0    0    0  501  0.00000000000E+00  0.00000000000E+00  0.15631055047E+04  0.15631055047E+04  0.25500000920E-02 0. -1.
        2   -1    0    0  501    0  0.00000000000E+00  0.00000000000E+00 -0.11672704038E+04  0.11672704038E+04  0.25500000920E-02 0.  1.
    10030    2    1    2    0    0  0.00000000000E+00  0.00000000000E+00  0.39583510084E+03  0.27303759085E+04  0.27015305245E+04 0.  0.
        2    1    3    3  502    0  0.11252660057E+04  0.73928199819E+03  0.88105054268E+02  0.13492679337E+04  0.25500000920E-02 0. -1.
       -2    1    3    3    0  502 -0.11252660057E+04 -0.73928199819E+03  0.30773004657E+03  0.13811079748E+04  0.25500000920E-02 0.  1.
</event>
<event>
 5   0  0.6561875E-07  0.2695824E+04  0.7818609E-02  0.8336361E-01
       -3   -1    0    0    0  501  0.00000000000E+00  0.00000000000E+00  0.15521672410E+04  0.15521672443E+04  0.10100000352E+00 0. -1.
        3   -1    0    0  501    0  0.00000000000E+00  0.00000000000E+00 -0.11705353262E+04  0.11705353306E+04  0.10100000352E+00 0.  1.
    10030    2    1    2    0    0  0.00000000000E+00  0.00000000000E+00  0.38163191478E+03  0.27227025748E+04  0.26958238801E+04 0.  0.
        5    1    3    3  502    0  0.10417594480E+04 -0.67911201151E+03 -0.33435766379E+03  0.12877394958E+04  0.46999998093E+01 0. -1.
       -5    1    3    3    0  502 -0.10417594480E+04  0.67911201151E+03  0.71598957858E+03  0.14349630791E+04  0.46999998093E+01 0.  1.
</event>
<event>
 5   0  0.1999104E-06  0.2699108E+04  0.7818609E-02  0.8335294E-01
       -2   -1    0    0    0  501  0.00000000000E+00  0.00000000000E+00  0.18207651466E+04  0.18207651466E+04  0.25500000920E-02 0. -1.
        2   -1    0    0  501    0  0.00000000000E+00  0.00000000000E+00 -0.10002914877E+04  0.10002914877E+04  0.25500000920E-02 0.  1.
    10030    2    1    2    0    0  0.00000000000E+00  0.00000000000E+00  0.82047365882E+03  0.28210566343E+04  0.26991079099E+04 0.  0.
        4    1    3    3  502    0 -0.17266261552E+03 -0.10243640946E+04  0.13106469221E+04  0.16724028057E+04  0.12699999809E+01 0. -1.
       -4    1    3    3    0  502  0.17266261552E+03  0.10243640946E+04 -0.49017326323E+03  0.11486538286E+04  0.12699999809E+01 0.  1.
</event>
<event>
 5   0  0.1991277E-06  0.2709794E+04  0.7818609E-02  0.8331834E-01
       -2   -1    0    0    0  501  0.00000000000E+00  0.00000000000E+00  0.87513112296E+03  0.87513112296E+03  0.25500000920E-02 0.  1.
        2   -1    0    0  501    0  0.00000000000E+00  0.00000000000E+00 -0.20976813205E+04  0.20976813205E+04  0.25500000920E-02 0. -1.
    10030    2    1    2    0    0  0.00000000000E+00  0.00000000000E+00 -0.12225501975E+04  0.29728124434E+04  0.27097942428E+04 0.  0.
        5    1    3    3  502    0 -0.25179316418E+02  0.13908263784E+03 -0.20895621044E+04  0.20943423445E+04  0.46999998093E+01 0. -1.
       -5    1    3    3    0  502  0.25179316418E+02 -0.13908263784E+03  0.86701190683E+03  0.87847009892E+03  0.46999998093E+01 0.  1.
</event>
<event>
 5   0  0.7566905E-07  0.2698819E+04  0.7818609E-02  0.8335388E-01
        1   -1    0    0  501    0  0.00000000000E+00  0.00000000000E+00  0.11112252277E+04  0.11112252277E+04  0.50400001928E-02 0. -1.
       -1   -1    0    0    0  501  0.00000000000E+00  0.00000000000E+00 -0.16386469949E+04  0.16386469949E+04  0.50400001928E-02 0.  1.
    10030    2    1    2    0    0  0.00000000000E+00  0.00000000000E+00 -0.52742176716E+03  0.27498722226E+04  0.26988189121E+04 0.  0.
        1    1    3    3  502    0 -0.10118142032E+04 -0.20852819167E+03  0.62084391384E+03  0.12052796994E+04  0.50400001928E-02 0. -1.
       -1    1    3    3    0  502  0.10118142032E+04  0.20852819167E+03 -0.11482656810E+04  0.15445925232E+04  0.50400001928E-02 0.  1.
</event>
<event>
 5   0  0.7436613E-07  0.2699059E+04  0.7818609E-02  0.8335310E-01
        1   -1    0    0  501    0  0.00000000000E+00  0.00000000000E+00  0.82644108241E+03  0.82644108242E+03  0.50400001928E-02 0.  1.
       -1   -1    0    0    0  501  0.00000000000E+00  0.00000000000E+00 -0.22037020052E+04  0.22037020052E+04  0.50400001928E-02 0. -1.
    10030    2    1    2    0    0  0.00000000000E+00  0.00000000000E+00 -0.13772609228E+04  0.30301430876E+04  0.26990589994E+04 0.  0.
        2    1    3    3  502    0  0.61921920253E+03  0.91665819517E+02  0.65359929320E+03  0.90500114880E+03  0.25500000920E-02 0.  1.
       -2    1    3    3    0  502 -0.61921920253E+03 -0.91665819517E+02 -0.20308602160E+04  0.21251419388E+04  0.25500000920E-02 0. -1.
</event>
<event>
 5   0  0.1991277E-06  0.2694795E+04  0.7818609E-02  0.8336696E-01
       -2   -1    0    0    0  501  0.00000000000E+00  0.00000000000E+00  0.70731486841E+03  0.70731486841E+03  0.25500000920E-02 0.  1.
        2   -1    0    0  501    0  0.00000000000E+00  0.00000000000E+00 -0.25667206662E+04  0.25667206662E+04  0.25500000920E-02 0. -1.
    10030    2    1    2    0    0  0.00000000000E+00  0.00000000000E+00 -0.18594057978E+04  0.32740355347E+04  0.26947947531E+04 0.  0.
        5    1    3    3  502    0 -0.35646810525E+03 -0.28326509427E+03 -0.24704126633E+04  0.25120249682E+04  0.46999998093E+01 0. -1.
       -5    1    3    3    0  502  0.35646810525E+03  0.28326509427E+03  0.61100686550E+03  0.76201056645E+03  0.46999998093E+01 0.  1.
</event>
<event>
 5   0  0.7335091E-07  0.2698805E+04  0.7818609E-02  0.8335393E-01
        1   -1    0    0  501    0  0.00000000000E+00  0.00000000000E+00  0.13267925113E+04  0.13267925113E+04  0.50400001928E-02 0.  1.
       -1   -1    0    0    0  501  0.00000000000E+00  0.00000000000E+00 -0.13723978219E+04  0.13723978219E+04  0.50400001928E-02 0. -1.
    10030    2    1    2    0    0  0.00000000000E+00  0.00000000000E+00 -0.45605310678E+02  0.26991903332E+04  0.26988050338E+04 0.  0.
        3    1    3    3  502    0 -0.11618742279E+04 -0.25154110815E+03  0.61577302655E+03  0.13388058414E+04  0.10100000352E+00 0.  1.
       -3    1    3    3    0  502  0.11618742279E+04  0.25154110815E+03 -0.66137833722E+03  0.13603844918E+04  0.10100000352E+00 0. -1.
</event>
<event>
 5   0  0.2030645E-06  0.2701375E+04  0.7818609E-02  0.8334559E-01
       -2   -1    0    0    0  501  0.00000000000E+00  0.00000000000E+00  0.10731296749E+04  0.10731296749E+04  0.25500000920E-02 0. -1.
        2   -1    0    0  501    0  0.00000000000E+00  0.00000000000E+00 -0.17000337740E+04  0.17000337740E+04  0.25500000920E-02 0.  1.
    10030    2    1    2    0    0  0.00000000000E+00  0.00000000000E+00 -0.62690409909E+03  0.27731634488E+04  0.27013749767E+04 0.  0.
        1    1    3    3  502    0 -0.25169320881E+03  0.11152751388E+04 -0.10517075012E+04  0.15534724892E+04  0.50400001928E-02 0.  1.
       -1    1    3    3    0  502  0.25169320881E+03 -0.11152751388E+04  0.42480340207E+03  0.12196909596E+04  0.50400001928E-02 0. -1.
</event>
<event>
 5   0  0.7566905E-07  0.2702159E+04  0.7818609E-02  0.8334305E-01
       -1   -1    0    0    0  501  0.00000000000E+00  0.00000000000E+00  0.75961920914E+03  0.75961920916E+03  0.50400001928E-02 0.  1.
        1   -1    0    0  501    0  0.00000000000E+00  0.00000000000E+00 -0.24030677904E+04  0.24030677904E+04  0.50400001928E-02 0. -1.
    10030    2    1    2    0    0  0.00000000000E+00  0.00000000000E+00 -0.16434485812E+04  0.31626869995E+04  0.27021594731E+04 0.  0.
        1    1    3    3  502    0  0.38160108229E+03 -0.10269135679E+03  0.69046490859E+03  0.79555432925E+03  0.50400001928E-02 0.  1.
       -1    1    3    3    0  502 -0.38160108229E+03  0.10269135679E+03 -0.23339134898E+04  0.23671326703E+04  0.50400001928E-02 0. -1.
</event>
<event>
 5   0  0.2030645E-06  0.2707522E+04  0.7818609E-02  0.8332568E-01
       -2   -1    0    0    0  501  0.00000000000E+00  0.00000000000E+00  0.12971261846E+04  0.12971261846E+04  0.25500000920E-02 0. -1.
        2   -1    0    0  501    0  0.00000000000E+00  0.00000000000E+00 -0.14128689309E+04  0.14128689309E+04  0.25500000920E-02 0.  1.
    10030    2    1    2    0    0  0.00000000000E+00  0.00000000000E+00 -0.11574274633E+03  0.27099951155E+04  0.27075223254E+04 0.  0.
        1    1    3    3  502    0 -0.26301816785E+03  0.13077471320E+04  0.17318175649E+03  0.13451293762E+04  0.50400001928E-02 0.  1.
       -1    1    3    3    0  502  0.26301816785E+03 -0.13077471320E+04 -0.28892450282E+03  0.13648657393E+04  0.50400001928E-02 0. -1.
</event>
<event>
 5   0  0.2030645E-06  0.2682573E+04  0.7818609E-02  0.8340682E-01
       -2   -1    0    0    0  501  0.00000000000E+00  0.00000000000E+00  0.16918900680E+04  0.16918900680E+04  0.25500000920E-02 0.  1.
        2   -1    0    0  501    0  0.00000000000E+00  0.00000000000E+00 -0.10633368994E+04  0.10633368994E+04  0.25500000920E-02 0. -1.
    10030    2    1    2    0    0  0.00000000000E+00  0.00000000000E+00  0.62855316864E+03  0.27552269674E+04  0.26825727495E+04 0.  0.
        1    1    3    3  502    0  0.13317949128E+04 -0.12130545126E+03  0.20825070647E+03  0.13534256755E+04  0.50400001928E-02 0. -1.
       -1    1    3    3    0  502 -0.13317949128E+04  0.12130545126E+03  0.42030246217E+03  0.14018012919E+04  0.50400001928E-02 0.  1.
</event>
<event>
 5   0  0.1991277E-06  0.2704667E+04  0.7818609E-02  0.8333492E-01
        2   -1    0    0  501    0  0.00000000000E+00  0.00000000000E+00  0.10938952041E+04  0.10938952042E+04  0.25500000920E-02 0. -1.
       -2   -1    0    0    0  501  0.00000000000E+00  0.00000000000E+00 -0.16718294888E+04  0.16718294888E+04  0.25500000920E-02 0.  1.
    10030    2    1    2    0    0  0.00000000000E+00  0.00000000000E+00 -0.57793428470E+03  0.27657246930E+04  0.27046672697E+04 0.  0.
        5    1    3    3  502    0 -0.62097170650E+03  0.11354634978E+04 -0.69012542078E+03  0.14666896064E+04  0.46999998093E+01 0.  1.
       -5    1    3    3    0  502  0.62097170650E+03 -0.11354634978E+04  0.11219113608E+03  0.12990350866E+04  0.46999998093E+01 0. -1.
</event>
<event>
 5   0  0.2063087E-06  0.2691380E+04  0.7818609E-02  0.8337807E-01
       -2   -1    0    0    0  501  0.00000000000E+00  0.00000000000E+00  0.10191901728E+04  0.10191901728E+04  0.25500000920E-02 0. -1.
        2   -1    0    0  501    0  0.00000000000E+00  0.00000000000E+00 -0.17767846587E+04  0.17767846587E+04  0.25500000920E-02 0.  1.
    10030    2    1    2    0    0  0.00000000000E+00  0.00000000000E+00 -0.75759448585E+03  0.27959748315E+04  0.26913799162E+04 0.  0.
        3    1    3    3  502    0 -0.29038167784E+03 -0.85030399288E+03  0.66190443579E+03  0.11159999514E+04  0.10100000352E+00 0. -1.
       -3    1    3    3    0  502  0.29038167784E+03  0.85030399288E+03 -0.14194989216E+04  0.16799748801E+04  0.10100000352E+00 0.  1.
</event>
<event>
 5   0  0.7768032E-07  0.2710006E+04  0.7818609E-02  0.8331766E-01
        1   -1    0    0  501    0  0.00000000000E+00  0.00000000000E+00  0.75496335198E+03  0.75496335200E+03  0.50400001928E-02 0. -1.
       -1   -1    0    0    0  501  0.00000000000E+00  0.00000000000E+00 -0.24319491802E+04  0.24319491802E+04  0.50400001928E-02 0.  1.
    10030    2    1    2    0    0  0.00000000000E+00  0.00000000000E+00 -0.16769858282E+04  0.31869125322E+04  0.27100055387E+04 0.  0.
        4    1    3    3  502    0  0.11956085147E+03 -0.45290671638E+03  0.65671921394E+03  0.80666041790E+03  0.12699999809E+01 0. -1.
       -4    1    3    3    0  502 -0.11956085147E+03  0.45290671638E+03 -0.23337050421E+04  0.23802521143E+04  0.12699999809E+01 0.  1.
</event>
<event>
 5   0  0.7335091E-07  0.2698919E+04  0.7818609E-02  0.8335356E-01
        1   -1    0    0  501    0  0.00000000000E+00  0.00000000000E+00  0.12781776961E+04  0.12781776961E+04  0.50400001928E-02 0. -1.
       -1   -1    0    0    0  501  0.00000000000E+00  0.00000000000E+00 -0.14247170880E+04  0.14247170880E+04  0.50400001928E-02 0.  1.
    10030    2    1    2    0    0  0.00000000000E+00  0.00000000000E+00 -0.14653939191E+03  0.27028947840E+04  0.26989194913E+04 0.  0.
        3    1    3    3  502    0 -0.11369653723E+04 -0.36408201171E+03  0.55677985384E+03  0.13172888009E+04  0.10100000352E+00 0. -1.
       -3    1    3    3    0  502  0.11369653723E+04  0.36408201171E+03 -0.70331924575E+03  0.13856059832E+04  0.10100000352E+00 0.  1.
</event>
<event>
 5   0  0.7436613E-07  0.2643968E+04  0.7818609E-02  0.8353418E-01
       -1   -1    0    0    0  501  0.00000000000E+00  0.00000000000E+00  0.81847706086E+03  0.81847706087E+03  0.50400001928E-02 0.  1.
        1   -1    0    0  501    0  0.00000000000E+00  0.00000000000E+00 -0.21352355693E+04  0.21352355693E+04  0.50400001928E-02 0. -1.
    10030    2    1    2    0    0  0.00000000000E+00  0.00000000000E+00 -0.13167585085E+04  0.29537126302E+04  0.26439677253E+04 0.  0.
        2    1    3    3  502    0  0.80393146851E+01 -0.91112854332E+03 -0.17284107048E+04  0.19538739513E+04  0.25500000920E-02 0. -1.
       -2    1    3    3    0  502 -0.80393146851E+01  0.91112854332E+03  0.41165219637E+03  0.99983867889E+03  0.25500000920E-02 0.  1.
</event>
<event>
 5   0  0.7566905E-07  0.2700406E+04  0.7818609E-02  0.8334873E-01
       -1   -1    0    0    0  501  0.00000000000E+00  0.00000000000E+00  0.10861469845E+04  0.10861469845E+04  0.50400001928E-02 0. -1.
        1   -1    0    0  501    0  0.00000000000E+00  0.00000000000E+00 -0.16784542689E+04  0.16784542690E+04  0.50400001928E-02 0.  1.
    10030    2    1    2    0    0  0.00000000000E+00  0.00000000000E+00 -0.59230728448E+03  0.27646012534E+04  0.27004059271E+04 0.  0.
        1    1    3    3  502    0 -0.87686926744E+03 -0.79591771844E+03  0.36785046932E+03  0.12400397955E+04  0.50400001928E-02 0. -1.
       -1    1    3    3    0  502  0.87686926744E+03  0.79591771844E+03 -0.96015775379E+03  0.15245614579E+04  0.50400001928E-02 0.  1.
</event>
<event>
 5   0  0.2030645E-06  0.2708483E+04  0.7818609E-02  0.8332258E-01
       -2   -1    0    0    0  501  0.00000000000E+00  0.00000000000E+00  0.85908499060E+03  0.85908499061E+03  0.25500000920E-02 0. -1.
        2   -1    0    0  501    0  0.00000000000E+00  0.00000000000E+00 -0.21347951682E+04  0.21347951682E+04  0.25500000920E-02 0.  1.
    10030    2    1    2    0    0  0.00000000000E+00  0.00000000000E+00 -0.12757101776E+04  0.29938801588E+04  0.27084833298E+04 0.  0.
        1    1    3    3  502    0 -0.77336039831E+02  0.11091533295E+04  0.21676827950E+03  0.11327799691E+04  0.50400001928E-02 0. -1.
       -1    1    3    3    0  502  0.77336039831E+02 -0.11091533295E+04 -0.14924784571E+04  0.18611001897E+04  0.50400001928E-02 0.  1.
</event>
<event>
 5   0  0.7335091E-07  0.2697584E+04  0.7818609E-02  0.8335789E-01
        1   -1    0    0  501    0  0.00000000000E+00  0.00000000000E+00  0.28048342874E+04  0.28048342874E+04  0.50400001928E-02 0. -1.
       -1   -1    0    0    0  501  0.00000000000E+00  0.00000000000E+00 -0.64860862888E+03  0.64860862890E+03  0.50400001928E-02 0.  1.
    10030    2    1    2    0    0  0.00000000000E+00  0.00000000000E+00  0.21562256586E+04  0.34534429163E+04  0.26975838978E+04 0.  0.
        3    1    3    3  502    0 -0.10134718008E+04 -0.30198485233E+03  0.63184486144E+01  0.10575253544E+04  0.10100000352E+00 0.  1.
       -3    1    3    3    0  502  0.10134718008E+04  0.30198485233E+03  0.21499072099E+04  0.23959175620E+04  0.10100000352E+00 0. -1.
</event>
<event>
 5   0  0.1932012E-06  0.2696982E+04  0.7818609E-02  0.8335985E-01
       -2   -1    0    0    0  501  0.00000000000E+00  0.00000000000E+00  0.11059026580E+04  0.11059026580E+04  0.25500000920E-02 0. -1.
        2   -1    0    0  501    0  0.00000000000E+00  0.00000000000E+00 -0.16442925849E+04  0.16442925849E+04  0.25500000920E-02 0.  1.
    10030    2    1    2    0    0  0.00000000000E+00  0.00000000000E+00 -0.53838992684E+03  0.27501952429E+04  0.26969816760E+04 0.  0.
        2    1    3    3  502    0  0.77092436172E+03  0.10248743522E+04 -0.69423525776E+03  0.14583053186E+04  0.25500000920E-02 0.  1.
       -2    1    3    3    0  502 -0.77092436172E+03 -0.10248743522E+04  0.15584533092E+03  0.12918899243E+04  0.25500000920E-02 0. -1.
</event>
<event>
 5   0  0.7806808E-07  0.2702330E+04  0.7818609E-02  0.8334249E-01
        1   -1    0    0  501    0  0.00000000000E+00  0.00000000000E+00  0.17046792264E+04  0.17046792264E+04  0.50400001928E-02 0.  1.
       -1   -1    0    0    0  501  0.00000000000E+00  0.00000000000E+00 -0.10709618459E+04  0.10709618459E+04  0.50400001928E-02 0. -1.
    10030    2    1    2    0    0  0.00000000000E+00  0.00000000000E+00  0.63371738056E+03  0.27756410723E+04  0.27023296697E+04 0.  0.
        5    1    3    3  502    0 -0.44625360113E+03  0.69298287385E+03 -0.78282031753E+03  0.11367485560E+04  0.46999998093E+01 0.  1.
       -5    1    3    3    0  502  0.44625360113E+03 -0.69298287385E+03  0.14165376981E+04  0.16388925163E+04  0.46999998093E+01 0. -1.
</event>
<event>
 5   0  0.1999104E-06  0.2690724E+04  0.7818609E-02  0.8338021E-01
        2   -1    0    0  501    0  0.00000000000E+00  0.00000000000E+00  0.18694207014E+04  0.18694207014E+04  0.25500000920E-02 0. -1.
       -2   -1    0    0    0  501  0.00000000000E+00  0.00000000000E+00 -0.96821364664E+03  0.96821364665E+03  0.25500000920E-02 0.  1.
    10030    2    1    2    0    0  0.00000000000E+00  0.00000000000E+00  0.90120705479E+03  0.28376343481E+04  0.26907237944E+04 0.  0.
        4    1    3    3  502    0 -0.83099346923E+03 -0.87389032079E+03 -0.17842080847E+03  0.12190447229E+04  0.12699999809E+01 0.  1.
       -4    1    3    3    0  502  0.83099346923E+03  0.87389032079E+03  0.10796278633E+04  0.16185896252E+04  0.12699999809E+01 0. -1.
</event>
<event>
 5   0  0.2030645E-06  0.2688766E+04  0.7818609E-02  0.8338659E-01
        2   -1    0    0  501    0  0.00000000000E+00  0.00000000000E+00  0.28789648874E+04  0.28789648874E+04  0.25500000920E-02 0.  1.
       -2   -1    0    0    0  501  0.00000000000E+00  0.00000000000E+00 -0.62778311564E+03  0.62778311565E+03  0.25500000920E-02 0. -1.
    10030    2    1    2    0    0  0.00000000000E+00  0.00000000000E+00  0.22511817717E+04  0.35067480030E+04  0.26887659227E+04 0.  0.
        1    1    3    3  502    0  0.47964671524E+03  0.10289228155E+04  0.20648322372E+04  0.23563266538E+04  0.50400001928E-02 0.  1.
       -1    1    3    3    0  502 -0.47964671524E+03 -0.10289228155E+04  0.18634953454E+03  0.11504213492E+04  0.50400001928E-02 0. -1.
</event>
<event>
 5   0  0.2030645E-06  0.2719048E+04  0.7818609E-02  0.8328851E-01
       -2   -1    0    0    0  501  0.00000000000E+00  0.00000000000E+00  0.92801182691E+03  0.92801182692E+03  0.25500000920E-02 0. -1.
        2   -1    0    0  501    0  0.00000000000E+00  0.00000000000E+00 -0.19916831248E+04  0.19916831248E+04  0.25500000920E-02 0.  1.
    10030    2    1    2    0    0  0.00000000000E+00  0.00000000000E+00 -0.10636712979E+04  0.29196949517E+04  0.27190479917E+04 0.  0.
        1    1    3    3  502    0  0.11287161188E+04 -0.44851793000E+03  0.12409030122E+03  0.12208877152E+04  0.50400001928E-02 0. -1.
       -1    1    3    3    0  502 -0.11287161188E+04  0.44851793000E+03 -0.11877615991E+04  0.16988072365E+04  0.50400001928E-02 0.  1.
</event>
<event>
 5   0  0.7768032E-07  0.2699421E+04  0.7818609E-02  0.8335193E-01
       -1   -1    0    0    0  501  0.00000000000E+00  0.00000000000E+00  0.10582631538E+04  0.10582631538E+04  0.50400001928E-02 0. -1.
        1   -1    0    0  501    0  0.00000000000E+00  0.00000000000E+00 -0.17214225450E+04  0.17214225450E+04  0.50400001928E-02 0.  1.
    10030    2    1    2    0    0  0.00000000000E+00  0.00000000000E+00 -0.66315939124E+03  0.27796856989E+04  0.26994207168E+04 0.  0.
        4    1    3    3  502    0 -0.19308660527E+03 -0.11417943334E+04  0.38239054649E+03  0.12195084583E+04  0.12699999809E+01 0. -1.
       -4    1    3    3    0  502  0.19308660527E+03  0.11417943334E+04 -0.10455499377E+04  0.15601772406E+04  0.12699999809E+01 0.  1.
</event>
<event>
 5   0  0.1999104E-06  0.2698666E+04  0.7818609E-02  0.8335438E-01
        2   -1    0    0  501    0  0.00000000000E+00  0.00000000000E+00  0.15832393044E+04  0.15832393044E+04  0.25500000920E-02 0.  1.
       -2   -1    0    0    0  501  0.00000000000E+00  0.00000000000E+00 -0.11499836145E+04  0.11499836145E+04  0.25500000920E-02 0. -1.
    10030    2    1    2    0    0  0.00000000000E+00  0.00000000000E+00  0.43325568989E+03  0.27332229189E+04  0.26986657873E+04 0.  0.
        4    1    3    3  502    0 -0.77328651751E+03  0.93788760269E+03  0.80986935556E+03  0.14606488898E+04  0.12699999809E+01 0. -1.
       -4    1    3    3    0  502  0.77328651751E+03 -0.93788760269E+03 -0.37661366567E+03  0.12725740291E+04  0.12699999809E+01 0.  1.
</event>
<event>
 5   0  0.1999104E-06  0.2700107E+04  0.7818609E-02  0.8334970E-01
        2   -1    0    0  501    0  0.00000000000E+00  0.00000000000E+00  0.22472574915E+04  0.22472574915E+04  0.25500000920E-02 0. -1.
       -2   -1    0    0    0  501  0.00000000000E+00  0.00000000000E+00 -0.81105274235E+03  0.81105274236E+03  0.25500000920E-02 0.  1.
    10030    2    1    2    0    0  0.00000000000E+00  0.00000000000E+00  0.14362047492E+04  0.30583102339E+04  0.27001069248E+04 0.  0.
        4    1    3    3  502    0 -0.47441849536E+02 -0.60266915271E+03 -0.64917762065E+03  0.88707047790E+03  0.12699999809E+01 0.  1.
       -4    1    3    3    0  502  0.47441849536E+02  0.60266915271E+03  0.20853823698E+04  0.21712397560E+04  0.12699999809E+01 0. -1.
</event>
<event>
 5   0  0.7436613E-07  0.2699216E+04  0.7818609E-02  0.8335259E-01
        1   -1    0    0  501    0  0.00000000000E+00  0.00000000000E+00  0.23714929294E+04  0.23714929294E+04  0.50400001928E-02 0.  1.
       -1   -1    0    0    0  501  0.00000000000E+00  0.00000000000E+00 -0.76805710825E+03  0.76805710827E+03  0.50400001928E-02 0. -1.
    10030    2    1    2    0    0  0.00000000000E+00  0.00000000000E+00  0.16034358211E+04  0.31395500376E+04  0.26992161837E+04 0.  0.
        2    1    3    3  502    0 -0.55992469971E+03  0.46104200095E+03 -0.52209340323E+03  0.89367606977E+03  0.25500000920E-02 0. -1.
       -2    1    3    3    0  502  0.55992469971E+03 -0.46104200095E+03  0.21255292243E+04  0.22458739679E+04  0.25500000920E-02 0.  1.
</event>
<event>
 5   0  0.2030645E-06  0.2707666E+04  0.7818609E-02  0.8332522E-01
       -2   -1    0    0    0  501  0.00000000000E+00  0.00000000000E+00  0.10630048925E+04  0.10630048925E+04  0.25500000920E-02 0.  1.
        2   -1    0    0  501    0  0.00000000000E+00  0.00000000000E+00 -0.17242284643E+04  0.17242284643E+04  0.25500000920E-02 0. -1.
    10030    2    1    2    0    0  0.00000000000E+00  0.00000000000E+00 -0.66122357175E+03  0.27872333568E+04  0.27076656318E+04 0.  0.
        1    1    3    3  502    0  0.58951308350E+03  0.11982837382E+04 -0.55952860102E+03  0.14479232881E+04  0.50400001928E-02 0.  1.
       -1    1    3    3    0  502 -0.58951308350E+03 -0.11982837382E+04 -0.10169497073E+03  0.13393100687E+04  0.50400001928E-02 0. -1.
</event>
<event>
 5   0  0.7806808E-07  0.2705792E+04  0.7818609E-02  0.8333128E-01
       -1   -1    0    0    0  501  0.00000000000E+00  0.00000000000E+00  0.88770273132E+03  0.88770273134E+03  0.50400001928E-02 0.  1.
        1   -1    0    0  501    0  0.00000000000E+00  0.00000000000E+00 -0.20618696965E+04  0.20618696965E+04  0.50400001928E-02 0. -1.
    10030    2    1    2    0    0  0.00000000000E+00  0.00000000000E+00 -0.11741669652E+04  0.29495724279E+04  0.27057918333E+04 0.  0.
        5    1    3    3  502    0  0.11690306813E+04 -0.42158932927E+03 -0.11699892113E+04  0.17068295582E+04  0.46999998093E+01 0. -1.
       -5    1    3    3    0  502 -0.11690306813E+04  0.42158932927E+03 -0.41777539221E+01  0.12427428696E+04  0.46999998093E+01 0.  1.
</event>
<event>
 5   0  0.7806808E-07  0.2697874E+04  0.7818609E-02  0.8335695E-01
        1   -1    0    0  501    0  0.00000000000E+00  0.00000000000E+00  0.17235530814E+04  0.17235530814E+04  0.50400001928E-02 0. -1.
       -1   -1    0    0    0  501  0.00000000000E+00  0.00000000000E+00 -0.10557444135E+04  0.10557444135E+04  0.50400001928E-02 0.  1.
    10030    2    1    2    0    0  0.00000000000E+00  0.00000000000E+00  0.66780866792E+03  0.27792974950E+04  0.26978743760E+04 0.  0.
        5    1    3    3  502    0 -0.54100081157E+03 -0.33900930244E+03 -0.89023457284E+03  0.10955130624E+04  0.46999998093E+01 0.  1.
       -5    1    3    3    0  502  0.54100081157E+03  0.33900930244E+03  0.15580432408E+04  0.16837844326E+04  0.46999998093E+01 0. -1.
</event>
<event>
 5   0  0.7806808E-07  0.2698808E+04  0.7818609E-02  0.8335392E-01
        1   -1    0    0  501    0  0.00000000000E+00  0.00000000000E+00  0.14804035504E+04  0.14804035504E+04  0.50400001928E-02 0. -1.
       -1   -1    0    0    0  501  0.00000000000E+00  0.00000000000E+00 -0.12299964436E+04  0.12299964436E+04  0.50400001928E-02 0.  1.
    10030    2    1    2    0    0  0.00000000000E+00  0.00000000000E+00  0.25040710681E+03  0.27103999940E+04  0.26988079607E+04 0.  0.
        5    1    3    3  502    0 -0.21834551752E+03 -0.48324856790E+03  0.13713656385E+04  0.14703298092E+04  0.46999998093E+01 0. -1.
       -5    1    3    3    0  502  0.21834551752E+03  0.48324856790E+03 -0.11209585317E+04  0.12400701848E+04  0.46999998093E+01 0.  1.
</event>
<event>
 5   0  0.7436613E-07  0.2699462E+04  0.7818609E-02  0.8335180E-01
       -1   -1    0    0    0  501  0.00000000000E+00  0.00000000000E+00  0.14675013118E+04  0.14675013118E+04  0.50400001928E-02 0. -1.
        1   -1    0    0  501    0  0.00000000000E+00  0.00000000000E+00 -0.12414120521E+04  0.12414120521E+04  0.50400001928E-02 0.  1.
    10030    2    1    2    0    0  0.00000000000E+00  0.00000000000E+00  0.22608925966E+03  0.27089133639E+04  0.26994620316E+04 0.  0.
        2    1    3    3  502    0 -0.11252100014E+04 -0.73513616823E+03  0.23697228074E+03  0.13647998370E+04  0.25500000920E-02 0. -1.
       -2    1    3    3    0  502  0.11252100014E+04  0.73513616823E+03 -0.10883021075E+02  0.13441135270E+04  0.25500000920E-02 0.  1.
</event>
<event>
 5   0  0.2063087E-06  0.2699250E+04  0.7818609E-02  0.8335248E-01
       -2   -1    0    0    0  501  0.00000000000E+00  0.00000000000E+00  0.10744321212E+04  0.10744321212E+04  0.25500000920E-02 0.  1.
        2   -1    0    0  501    0  0.00000000000E+00  0.00000000000E+00 -0.16953028886E+04  0.16953028886E+04  0.25500000920E-02 0. -1.
    10030    2    1    2    0    0  0.00000000000E+00  0.00000000000E+00 -0.62087076746E+03  0.27697350098E+04  0.26992501764E+04 0.  0.
        3    1    3    3  502    0 -0.88450040262E+03 -0.61835238131E+03  0.52115112542E+03  0.11984569810E+04  0.10100000352E+00 0.  1.
       -3    1    3    3    0  502  0.88450040262E+03  0.61835238131E+03 -0.11420218929E+04  0.15712780288E+04  0.10100000352E+00 0. -1.
</event>
<event>
 5   0  0.1991277E-06  0.2698963E+04  0.7818609E-02  0.8335342E-01
        2   -1    0    0  501    0  0.00000000000E+00  0.00000000000E+00  0.11190929310E+04  0.11190929310E+04  0.25500000920E-02 0. -1.
       -2   -1    0    0    0  501  0.00000000000E+00  0.00000000000E+00 -0.16272997589E+04  0.16272997589E+04  0.25500000920E-02 0.  1.
    10030    2    1    2    0    0  0.00000000000E+00  0.00000000000E+00 -0.50820682794E+03  0.27463926900E+04  0.26989625095E+04 0.  0.
        5    1    3    3  502    0 -0.72988006011E+03 -0.60576371573E+03 -0.12308695402E+04  0.15539422436E+04  0.46999998093E+01 0.  1.
       -5    1    3    3    0  502  0.72988006011E+03  0.60576371573E+03  0.72266271223E+03  0.11924504464E+04  0.46999998093E+01 0. -1.
</event>
<event>
 5   0  0.1932012E-06  0.2696985E+04  0.7818609E-02  0.8335984E-01
       -2   -1    0    0    0  501  0.00000000000E+00  0.00000000000E+00  0.14104733180E+04  0.14104733180E+04  0.25500000920E-02 0. -1.
        2   -1    0    0  501    0  0.00000000000E+00  0.00000000000E+00 -0.12892348847E+04  0.12892348847E+04  0.25500000920E-02 0.  1.
    10030    2    1    2    0    0  0.00000000000E+00  0.00000000000E+00  0.12123843335E+03  0.26997082027E+04  0.26969845424E+04 0.  0.
        2    1    3    3  502    0  0.11404619227E+04 -0.46933801977E+02  0.77938002664E+03  0.13821321952E+04  0.25500000920E-02 0. -1.
       -2    1    3    3    0  502 -0.11404619227E+04  0.46933801977E+02 -0.65814159329E+03  0.13175760076E+04  0.25500000920E-02 0.  1.
</event>
<event>
 5   0  0.7768032E-07  0.2702356E+04  0.7818609E-02  0.8334241E-01
       -1   -1    0    0    0  501  0.00000000000E+00  0.00000000000E+00  0.19745852100E+04  0.19745852100E+04  0.50400001928E-02 0.  1.
        1   -1    0    0  501    0  0.00000000000E+00  0.00000000000E+00 -0.92458993782E+03  0.92458993784E+03  0.50400001928E-02 0. -1.
    10030    2    1    2    0    0  0.00000000000E+00  0.00000000000E+00  0.10499952722E+04  0.28991751479E+04  0.27023557254E+04 0.  0.
        4    1    3    3  502    0 -0.86413994727E+03  0.60157553839E+03 -0.38346351812E+03  0.11205698816E+04  0.12699999809E+01 0. -1.
       -4    1    3    3    0  502  0.86413994727E+03 -0.60157553839E+03  0.14334587903E+04  0.17786052663E+04  0.12699999809E+01 0.  1.
</event>
<event>
 5   0  0.2030645E-06  0.2680101E+04  0.7818609E-02  0.8341490E-01
       -2   -1    0    0    0  501  0.00000000000E+00  0.00000000000E+00  0.11679585598E+04  0.11679585598E+04  0.25500000920E-02 0. -1.
        2   -1    0    0  501    0  0.00000000000E+00  0.00000000000E+00 -0.15374991734E+04  0.15374991734E+04  0.25500000920E-02 0.  1.
    10030    2    1    2    0    0  0.00000000000E+00  0.00000000000E+00 -0.36954061361E+03  0.27054577333E+04  0.26801009835E+04 0.  0.
        1    1    3    3  502    0  0.32968524465E+03 -0.20319569538E+03 -0.14797773096E+04  0.15296148984E+04  0.50400001928E-02 0.  1.
       -1    1    3    3    0  502 -0.32968524465E+03  0.20319569538E+03  0.11102366960E+04  0.11758428349E+04  0.50400001928E-02 0. -1.
</event>
<event>
 5   0  0.7436613E-07  0.2706068E+04  0.7818609E-02  0.8333039E-01
        1   -1    0    0  501    0  0.00000000000E+00  0.00000000000E+00  0.11496380045E+04  0.11496380045E+04  0.50400001928E-02 0. -1.
       -1   -1    0    0    0  501  0.00000000000E+00  0.00000000000E+00 -0.15924154045E+04  0.15924154045E+04  0.50400001928E-02 0.  1.
    10030    2    1    2    0    0  0.00000000000E+00  0.00000000000E+00 -0.44277740005E+03  0.27420534090E+04  0.27060681942E+04 0.  0.
        2    1    3    3  502    0 -0.27953606719E+02  0.32618801951E+03 -0.15516761461E+04  0.15858369685E+04  0.25500000920E-02 0.  1.
       -2    1    3    3    0  502  0.27953606719E+02 -0.32618801951E+03  0.11088987461E+04  0.11562164405E+04  0.25500000920E-02 0. -1.
</event>
<event>
 5   0  0.7566905E-07  0.2701423E+04  0.7818609E-02  0.8334543E-01
       -1   -1    0    0    0  501  0.00000000000E+00  0.00000000000E+00  0.10731006725E+04  0.10731006725E+04  0.50400001928E-02 0. -1.
        1   -1    0    0  501    0  0.00000000000E+00  0.00000000000E+00 -0.17001401164E+04  0.17001401164E+04  0.50400001928E-02 0.  1.
    10030    2    1    2    0    0  0.00000000000E+00  0.00000000000E+00 -0.62703944396E+03  0.27732407889E+04  0.27014229600E+04 0.  0.
        1    1    3    3  502    0 -0.27368654391E+03 -0.87964633341E+03 -0.13275757174E+04  0.16159020025E+04  0.50400001928E-02 0.  1.
       -1    1    3    3    0  502  0.27368654391E+03  0.87964633341E+03  0.70053627341E+03  0.11573387864E+04  0.50400001928E-02 0. -1.
</event>
<event>
 5   0  0.7335091E-07  0.2699650E+04  0.7818609E-02  0.8335119E-01
        1   -1    0    0  501    0  0.00000000000E+00  0.00000000000E+00  0.28038657067E+04  0.28038657067E+04  0.50400001928E-02 0. -1.
       -1   -1    0    0    0  501  0.00000000000E+00  0.00000000000E+00 -0.64982697869E+03  0.64982697871E+03  0.50400001928E-02 0.  1.
    10030    2    1    2    0    0  0.00000000000E+00  0.00000000000E+00  0.21540387280E+04  0.34536926854E+04  0.26996500372E+04 0.  0.
        3    1    3    3  502    0 -0.27217454405E+03 -0.12101025256E+04  0.17583057202E+04  0.21517588435E+04  0.10100000352E+00 0. -1.
       -3    1    3    3    0  502  0.27217454405E+03  0.12101025256E+04  0.39573300778E+03  0.13019338418E+04  0.10100000352E+00 0.  1.
</event>
<event>
 5   0  0.7436613E-07  0.2702206E+04  0.7818609E-02  0.8334289E-01
        1   -1    0    0  501    0  0.00000000000E+00  0.00000000000E+00  0.13812250259E+04  0.13812250259E+04  0.50400001928E-02 0. -1.
       -1   -1    0    0    0  501  0.00000000000E+00  0.00000000000E+00 -0.13216381253E+04  0.13216381253E+04  0.50400001928E-02 0.  1.
    10030    2    1    2    0    0  0.00000000000E+00  0.00000000000E+00  0.59586900536E+02  0.27028631512E+04  0.27022062496E+04 0.  0.
        2    1    3    3  502    0 -0.10549770713E+04  0.50127264066E+03  0.70909680486E+03  0.13664073917E+04  0.25500000920E-02 0.  1.
       -2    1    3    3    0  502  0.10549770713E+04 -0.50127264066E+03 -0.64950990432E+03  0.13364557595E+04  0.25500000920E-02 0. -1.
</event>
<event>
 5   0  0.7335091E-07  0.2690777E+04  0.7818609E-02  0.8338004E-01
        1   -1    0    0  501    0  0.00000000000E+00  0.00000000000E+00  0.12112309321E+04  0.12112309321E+04  0.50400001928E-02 0. -1.
       -1   -1    0    0    0  501  0.00000000000E+00  0.00000000000E+00 -0.14944057147E+04  0.14944057147E+04  0.50400001928E-02 0.  1.
    10030    2    1    2    0    0  0.00000000000E+00  0.00000000000E+00 -0.28317478259E+03  0.27056366468E+04  0.26907771567E+04 0.  0.
        3    1    3    3  502    0  0.45951090946E+03 -0.19605486625E+03 -0.13976786982E+04  0.14842821632E+04  0.10100000352E+00 0.  1.
       -3    1    3    3    0  502 -0.45951090946E+03  0.19605486625E+03  0.11145039156E+04  0.12213544836E+04  0.10100000352E+00 0. -1.
</event>
<event>
 5   0  0.7566905E-07  0.2700574E+04  0.7818609E-02  0.8334819E-01
        1   -1    0    0  501    0  0.00000000000E+00  0.00000000000E+00  0.15233452240E+04  0.15233452240E+04  0.50400001928E-02 0. -1.
       -1   -1    0    0    0  501  0.00000000000E+00  0.00000000000E+00 -0.11968892791E+04  0.11968892792E+04  0.50400001928E-02 0.  1.
    10030    2    1    2    0    0  0.00000000000E+00  0.00000000000E+00  0.32645594485E+03  0.27202345031E+04  0.27005744330E+04 0.  0.
        1    1    3    3  502    0 -0.46959148353E+03  0.98037165813E+02  0.14346164488E+04  0.15126968640E+04  0.50400001928E-02 0. -1.
       -1    1    3    3    0  502  0.46959148353E+03 -0.98037165813E+02 -0.11081605040E+04  0.12075376391E+04  0.50400001928E-02 0.  1.
</event>
<event>
 5   0  0.7436613E-07  0.2697240E+04  0.7818609E-02  0.8335901E-01
        1   -1    0    0  501    0  0.00000000000E+00  0.00000000000E+00  0.19675131097E+04  0.19675131097E+04  0.50400001928E-02 0. -1.
       -1   -1    0    0    0  501  0.00000000000E+00  0.00000000000E+00 -0.92440310895E+03  0.92440310896E+03  0.50400001928E-02 0.  1.
    10030    2    1    2    0    0  0.00000000000E+00  0.00000000000E+00  0.10431100008E+04  0.28919162187E+04  0.26972395041E+04 0.  0.
        2    1    3    3  502    0  0.94683950537E+03  0.33666398924E+03 -0.44276462877E+03  0.10981294127E+04  0.25500000920E-02 0.  1.
       -2    1    3    3    0  502 -0.94683950537E+03 -0.33666398924E+03  0.14858746296E+04  0.17937868060E+04  0.25500000920E-02 0. -1.
</event>
<event>
 5   0  0.1932012E-06  0.2706278E+04  0.7818609E-02  0.8332971E-01
       -2   -1    0    0    0  501  0.00000000000E+00  0.00000000000E+00  0.15432203234E+04  0.15432203234E+04  0.25500000920E-02 0. -1.
        2   -1    0    0  501    0  0.00000000000E+00  0.00000000000E+00 -0.11864700324E+04  0.11864700324E+04  0.25500000920E-02 0.  1.
    10030    2    1    2    0    0  0.00000000000E+00  0.00000000000E+00  0.35675029101E+03  0.27296903558E+04  0.27062776407E+04 0.  0.
        2    1    3    3  502    0  0.16626102017E+03 -0.12478082543E+04 -0.32222133184E+03  0.12994209298E+04  0.25500000920E-02 0.  1.
       -2    1    3    3    0  502 -0.16626102017E+03  0.12478082543E+04  0.67897162285E+03  0.14302694260E+04  0.25500000920E-02 0. -1.
</event>
<event>
 5   0  0.7436613E-07  0.2688198E+04  0.7818609E-02  0.8338844E-01
       -1   -1    0    0    0  501  0.00000000000E+00  0.00000000000E+00  0.15615495363E+04  0.15615495363E+04  0.50400001928E-02 0.  1.
        1   -1    0    0  501    0  0.00000000000E+00  0.00000000000E+00 -0.11569291597E+04  0.11569291598E+04  0.50400001928E-02 0. -1.
    10030    2    1    2    0    0  0.00000000000E+00  0.00000000000E+00  0.40462037653E+03  0.27184786960E+04  0.26881980529E+04 0.  0.
        2    1    3    3  502    0 -0.11617718159E+04  0.75495759265E+02  0.88158238965E+03  0.14603427241E+04  0.25500000920E-02 0.  1.
       -2    1    3    3    0  502  0.11617718159E+04 -0.75495759265E+02 -0.47696201313E+03  0.12581359720E+04  0.25500000920E-02 0. -1.
</event>
<event>
 5   0  0.7806808E-07  0.2778094E+04  0.7818609E-02  0.8310102E-01
        1   -1    0    0  501    0  0.00000000000E+00  0.00000000000E+00  0.23244556259E+04  0.23244556259E+04  0.50400001928E-02 0.  1.
       -1   -1    0    0    0  501  0.00000000000E+00  0.00000000000E+00 -0.83006587980E+03  0.83006587981E+03  0.50400001928E-02 0. -1.
    10030    2    1    2    0    0  0.00000000000E+00  0.00000000000E+00  0.14943897461E+04  0.31545215057E+04  0.27780938099E+04 0.  0.
        5    1    3    3  502    0  0.13817454811E+03 -0.16990642815E+03 -0.81033038344E+03  0.83941516570E+03  0.46999998093E+01 0. -1.
       -5    1    3    3    0  502 -0.13817454811E+03  0.16990642815E+03  0.23047201296E+04  0.23151063400E+04  0.46999998093E+01 0.  1.
</event>
<event>
 5   0  0.2063087E-06  0.2693292E+04  0.7818609E-02  0.8337185E-01
       -2   -1    0    0    0  501  0.00000000000E+00  0.00000000000E+00  0.81866848095E+03  0.81866848095E+03  0.25500000920E-02 0.  1.
        2   -1    0    0  501    0  0.00000000000E+00  0.00000000000E+00 -0.22151278757E+04  0.22151278757E+04  0.25500000920E-02 0. -1.
    10030    2    1    2    0    0  0.00000000000E+00  0.00000000000E+00 -0.13964593947E+04  0.30337963566E+04  0.26932919434E+04 0.  0.
        3    1    3    3  502    0 -0.12872245416E+04 -0.19430384072E+03 -0.31005450691E+03  0.13382207630E+04  0.10100000352E+00 0.  1.
       -3    1    3    3    0  502  0.12872245416E+04  0.19430384072E+03 -0.10864048878E+04  0.16955755936E+04  0.10100000352E+00 0. -1.
</event>
<event>
 5   0  0.2063087E-06  0.2719631E+04  0.7818609E-02  0.8328663E-01
       -2   -1    0    0    0  501  0.00000000000E+00  0.00000000000E+00  0.13790547463E+04  0.13790547463E+04  0.25500000920E-02 0.  1.
        2   -1    0    0  501    0  0.00000000000E+00  0.00000000000E+00 -0.13408443683E+04  0.13408443683E+04  0.25500000920E-02 0. -1.
    10030    2    1    2    0    0  0.00000000000E+00  0.00000000000E+00  0.38210378009E+02  0.27198991147E+04  0.27196307031E+04 0.  0.
        3    1    3    3  502    0  0.10342563410E+04 -0.22610736685E+02  0.90174560791E+03  0.13723492908E+04  0.10100000352E+00 0.  1.
       -3    1    3    3    0  502 -0.10342563410E+04  0.22610736685E+02 -0.86353522990E+03  0.13475498239E+04  0.10100000352E+00 0. -1.
</event>
<event>
 5   0  0.1999104E-06  0.2701058E+04  0.7818609E-02  0.8334662E-01
        2   -1    0    0  501    0  0.00000000000E+00  0.00000000000E+00  0.12778484351E+04  0.12778484352E+04  0.25500000920E-02 0.  1.
       -2   -1    0    0    0  501  0.00000000000E+00  0.00000000000E+00 -0.14273434108E+04  0.14273434108E+04  0.25500000920E-02 0. -1.
    10030    2    1    2    0    0  0.00000000000E+00  0.00000000000E+00 -0.14949497565E+03  0.27051918459E+04  0.27010579734E+04 0.  0.
        4    1    3    3  502    0  0.25505687914E+03 -0.49515813888E+03 -0.13069520907E+04  0.14206903161E+04  0.12699999809E+01 0. -1.
       -4    1    3    3    0  502 -0.25505687914E+03  0.49515813888E+03  0.11574571150E+04  0.12845015298E+04  0.12699999809E+01 0.  1.
</event>
<event>
 5   0  0.2063087E-06  0.2703577E+04  0.7818609E-02  0.8333845E-01
       -2   -1    0    0    0  501  0.00000000000E+00  0.00000000000E+00  0.11096107208E+04  0.11096107208E+04  0.25500000920E-02 0. -1.
        2   -1    0    0  501    0  0.00000000000E+00  0.00000000000E+00 -0.16468226009E+04  0.16468226009E+04  0.25500000920E-02 0.  1.
    10030    2    1    2    0    0  0.00000000000E+00  0.00000000000E+00 -0.53721188014E+03  0.27564333217E+04  0.27035768997E+04 0.  0.
        3    1    3    3  502    0 -0.11461848788E+03 -0.12705867251E+04  0.18712743106E+03  0.12893970332E+04  0.10100000352E+00 0. -1.
       -3    1    3    3    0  502  0.11461848788E+03  0.12705867251E+04 -0.72433931120E+03  0.14670362885E+04  0.10100000352E+00 0.  1.
</event>
<event>
 5   0  0.2030645E-06  0.2688941E+04  0.7818609E-02  0.8338602E-01
       -2   -1    0    0    0  501  0.00000000000E+00  0.00000000000E+00  0.18003842585E+04  0.18003842585E+04  0.25500000920E-02 0. -1.
        2   -1    0    0  501    0  0.00000000000E+00  0.00000000000E+00 -0.10040081530E+04  0.10040081530E+04  0.25500000920E-02 0.  1.
    10030    2    1    2    0    0  0.00000000000E+00  0.00000000000E+00  0.79637610552E+03  0.28043924115E+04  0.26889406643E+04 0.  0.
        1    1    3    3  502    0 -0.26536934403E+03  0.13064253104E+04  0.21624883068E+03  0.13505300949E+04  0.50400001928E-02 0.  1.
       -1    1    3    3    0  502  0.26536934403E+03 -0.13064253104E+04  0.58012727484E+03  0.14538623166E+04  0.50400001928E-02 0. -1.
</event>
<event>
 5   0  0.1991277E-06  0.2706435E+04  0.7818609E-02  0.8332920E-01
       -2   -1    0    0    0  501  0.00000000000E+00  0.00000000000E+00  0.10608289764E+04  0.10608289764E+04  0.25500000920E-02 0. -1.
        2   -1    0    0  501    0  0.00000000000E+00  0.00000000000E+00 -0.17261952004E+04  0.17261952004E+04  0.25500000920E-02 0.  1.
    10030    2    1    2    0    0  0.00000000000E+00  0.00000000000E+00 -0.66536622396E+03  0.27870241768E+04  0.27064352107E+04 0.  0.
        5    1    3    3  502    0  0.11369453437E+04 -0.62856836051E+03  0.57319476406E+02  0.13004039798E+04  0.46999998093E+01 0. -1.
       -5    1    3    3    0  502 -0.11369453437E+04  0.62856836051E+03 -0.72268570037E+03  0.14866201969E+04  0.46999998093E+01 0.  1.
</event>
<event>
 5   0  0.1991277E-06  0.2705859E+04  0.7818609E-02  0.8333107E-01
        2   -1    0    0  501    0  0.00000000000E+00  0.00000000000E+00  0.15827171838E+04  0.15827171838E+04  0.25500000920E-02 0.  1.
       -2   -1    0    0    0  501  0.00000000000E+00  0.00000000000E+00 -0.11565034484E+04  0.11565034484E+04  0.25500000920E-02 0. -1.
    10030    2    1    2    0    0  0.00000000000E+00  0.00000000000E+00  0.42621373533E+03  0.27392206322E+04  0.27058587405E+04 0.  0.
        5    1    3    3  502    0  0.96455761464E+03  0.92285361884E+03 -0.95264564757E+01  0.13349693019E+04  0.46999998093E+01 0.  1.
       -5    1    3    3    0  502 -0.96455761464E+03 -0.92285361884E+03  0.43574019180E+03  0.14042513303E+04  0.46999998093E+01 0. -1.
</event>
<event>
 5   0  0.7335091E-07  0.2696734E+04  0.7818609E-02  0.8336066E-01
       -1   -1    0    0    0  501  0.00000000000E+00  0.00000000000E+00  0.13719608294E+04  0.13719608294E+04  0.50400001928E-02 0. -1.
        1   -1    0    0  501    0  0.00000000000E+00  0.00000000000E+00 -0.13251786326E+04  0.13251786326E+04  0.50400001928E-02 0.  1.
    10030    2    1    2    0    0  0.00000000000E+00  0.00000000000E+00  0.46782196724E+02  0.26971394620E+04  0.26967337102E+04 0.  0.
        3    1    3    3  502    0 -0.30863022154E+03  0.12175391769E+04  0.51381057524E+03  0.13570761137E+04  0.10100000352E+00 0. -1.
       -3    1    3    3    0  502  0.30863022154E+03 -0.12175391769E+04 -0.46702837852E+03  0.13400633483E+04  0.10100000352E+00 0.  1.
</event>
<event>
 5   0  0.7566905E-07  0.2701958E+04  0.7818609E-02  0.8334370E-01
       -1   -1    0    0    0  501  0.00000000000E+00  0.00000000000E+00  0.13582599642E+04  0.13582599642E+04  0.50400001928E-02 0.  1.
        1   -1    0    0  501    0  0.00000000000E+00  0.00000000000E+00 -0.13437375021E+04  0.13437375021E+04  0.50400001928E-02 0. -1.
    10030    2    1    2    0    0  0.00000000000E+00  0.00000000000E+00  0.14522462053E+02  0.27019974663E+04  0.27019584390E+04 0.  0.
        1    1    3    3  502    0  0.94538411816E+03  0.42128905134E+03 -0.86103079073E+03  0.13463319124E+04  0.50400001928E-02 0. -1.
       -1    1    3    3    0  502 -0.94538411816E+03 -0.42128905134E+03  0.87555325278E+03  0.13556655539E+04  0.50400001928E-02 0.  1.
</event>
<event>
 5   0  0.7335091E-07  0.2710025E+04  0.7818609E-02  0.8331760E-01
       -1   -1    0    0    0  501  0.00000000000E+00  0.00000000000E+00  0.85068563890E+03  0.85068563892E+03  0.50400001928E-02 0.  1.
        1   -1    0    0  501    0  0.00000000000E+00  0.00000000000E+00 -0.21583279482E+04  0.21583279482E+04  0.50400001928E-02 0. -1.
    10030    2    1    2    0    0  0.00000000000E+00  0.00000000000E+00 -0.13076423093E+04  0.30090135871E+04  0.27100247893E+04 0.  0.
        3    1    3    3  502    0 -0.20275619743E+03  0.12359047851E+04 -0.79568610078E+02  0.12549509502E+04  0.10100000352E+00 0.  1.
       -3    1    3    3    0  502  0.20275619743E+03 -0.12359047851E+04 -0.12280736992E+04  0.17540626369E+04  0.10100000352E+00 0. -1.
</event>
<event>
 5   0  0.7566905E-07  0.2702376E+04  0.7818609E-02  0.8334235E-01
        1   -1    0    0  501    0  0.00000000000E+00  0.00000000000E+00  0.11296292314E+04  0.11296292314E+04  0.50400001928E-02 0.  1.
       -1   -1    0    0    0  501  0.00000000000E+00  0.00000000000E+00 -0.16162014949E+04  0.16162014949E+04  0.50400001928E-02 0. -1.
    10030    2    1    2    0    0  0.00000000000E+00  0.00000000000E+00 -0.48657226355E+03  0.27458307263E+04  0.27023755864E+04 0.  0.
        1    1    3    3  502    0 -0.44738225220E+03 -0.22818797604E+03 -0.15178445465E+04  0.15987722475E+04  0.50400001928E-02 0. -1.
       -1    1    3    3    0  502  0.44738225220E+03  0.22818797604E+03  0.10312722830E+04  0.11470584787E+04  0.50400001928E-02 0.  1.
</event>
<event>
 5   0  0.7768032E-07  0.2696821E+04  0.7818609E-02  0.8336037E-01
       -1   -1    0    0    0  501  0.00000000000E+00  0.00000000000E+00  0.12522477685E+04  0.12522477685E+04  0.50400001928E-02 0. -1.
        1   -1    0    0  501    0  0.00000000000E+00  0.00000000000E+00 -0.14519582062E+04  0.14519582062E+04  0.50400001928E-02 0.  1.
    10030    2    1    2    0    0  0.00000000000E+00  0.00000000000E+00 -0.19971043774E+03  0.27042059747E+04  0.26968214058E+04 0.  0.
        4    1    3    3  502    0 -0.40404095269E+02  0.91532967189E+03 -0.10918816132E+04  0.14253659072E+04  0.12699999809E+01 0.  1.
       -4    1    3    3    0  502  0.40404095269E+02 -0.91532967189E+03  0.89217117545E+03  0.12788400675E+04  0.12699999809E+01 0. -1.
</event>
<event>
 5   0  0.1999104E-06  0.2699292E+04  0.7818609E-02  0.8335235E-01
        2   -1    0    0  501    0  0.00000000000E+00  0.00000000000E+00  0.27619542747E+04  0.27619542747E+04  0.25500000920E-02 0. -1.
       -2   -1    0    0    0  501  0.00000000000E+00  0.00000000000E+00 -0.65951262938E+03  0.65951262938E+03  0.25500000920E-02 0.  1.
    10030    2    1    2    0    0  0.00000000000E+00  0.00000000000E+00  0.21024416453E+04  0.34214669041E+04  0.26992915559E+04 0.  0.
        4    1    3    3  502    0 -0.44784165247E+03 -0.11706768356E+04  0.16856201255E+04  0.21005625959E+04  0.12699999809E+01 0. -1.
       -4    1    3    3    0  502  0.44784165247E+03  0.11706768356E+04  0.41682151982E+03  0.13209043081E+04  0.12699999809E+01 0.  1.
</event>
<event>
 5   0  0.1991277E-06  0.2688032E+04  0.7818609E-02  0.8338899E-01
       -2   -1    0    0    0  501  0.00000000000E+00  0.00000000000E+00  0.60632906615E+03  0.60632906616E+03  0.25500000920E-02 0. -1.
        2   -1    0    0  501    0  0.00000000000E+00  0.00000000000E+00 -0.29792053975E+04  0.29792053975E+04  0.25500000920E-02 0.  1.
    10030    2    1    2    0    0  0.00000000000E+00  0.00000000000E+00 -0.23728763314E+04  0.35855344637E+04  0.26880318648E+04 0.  0.
        5    1    3    3  502    0 -0.53356866749E+02 -0.12507695322E+04 -0.18386609697E+04  0.22244027579E+04  0.46999998093E+01 0.  1.
       -5    1    3    3    0  502  0.53356866749E+02  0.12507695322E+04 -0.53421536163E+03  0.13611317058E+04  0.46999998093E+01 0. -1.
</event>
<event>
 5   0  0.7566905E-07  0.2700519E+04  0.7818609E-02  0.8334837E-01
        1   -1    0    0  501    0  0.00000000000E+00  0.00000000000E+00  0.14500162490E+04  0.14500162490E+04  0.50400001928E-02 0.  1.
       -1   -1    0    0    0  501  0.00000000000E+00  0.00000000000E+00 -0.12573658050E+04  0.12573658050E+04  0.50400001928E-02 0. -1.
    10030    2    1    2    0    0  0.00000000000E+00  0.00000000000E+00  0.19265044402E+03  0.27073820540E+04  0.27005190969E+04 0.  0.
        1    1    3    3  502    0 -0.84649691718E+03 -0.28729676456E+03  0.11108774437E+04  0.14258839913E+04  0.50400001928E-02 0.  1.
       -1    1    3    3    0  502  0.84649691718E+03  0.28729676456E+03 -0.91822699971E+03  0.12814980627E+04  0.50400001928E-02 0. -1.
</event>
<event>
 5   0  0.2063087E-06  0.2696969E+04  0.7818609E-02  0.8335989E-01
       -2   -1    0    0    0  501  0.00000000000E+00  0.00000000000E+00  0.77676759641E+03  0.77676759642E+03  0.25500000920E-02 0.  1.
        2   -1    0    0  501    0  0.00000000000E+00  0.00000000000E+00 -0.23409961000E+04  0.23409961000E+04  0.25500000920E-02 0. -1.
    10030    2    1    2    0    0  0.00000000000E+00  0.00000000000E+00 -0.15642285036E+04  0.31177636964E+04  0.26969686048E+04 0.  0.
        3    1    3    3  502    0  0.27753357487E+03 -0.72096518465E+03  0.49559132287E+03  0.91783792260E+03  0.10100000352E+00 0.  1.
       -3    1    3    3    0  502 -0.27753357487E+03  0.72096518465E+03 -0.20598198264E+04  0.21999257738E+04  0.10100000352E+00 0. -1.
</event>
<event>
 5   0  0.2030645E-06  0.2700678E+04  0.7818609E-02  0.8334785E-01
       -2   -1    0    0    0  501  0.00000000000E+00  0.00000000000E+00  0.10127251271E+04  0.10127251271E+04  0.25500000920E-02 0. -1.
        2   -1    0    0  501    0  0.00000000000E+00  0.00000000000E+00 -0.18005042368E+04  0.18005042368E+04  0.25500000920E-02 0.  1.
    10030    2    1    2    0    0  0.00000000000E+00  0.00000000000E+00 -0.78777910975E+03  0.28132293639E+04  0.27006783460E+04 0.  0.
        1    1    3    3  502    0  0.12002549086E+04  0.48682299739E+03 -0.79165043761E+03  0.15179983175E+04  0.50400001928E-02 0.  1.
       -1    1    3    3    0  502 -0.12002549086E+04 -0.48682299739E+03  0.38713278684E+01  0.12952310465E+04  0.50400001928E-02 0. -1.
</event>
<event>
 5   0  0.1932012E-06  0.2701095E+04  0.7818609E-02  0.8334650E-01
        2   -1    0    0  501    0  0.00000000000E+00  0.00000000000E+00  0.22350971540E+04  0.22350971540E+04  0.25500000920E-02 0. -1.
       -2   -1    0    0    0  501  0.00000000000E+00  0.00000000000E+00 -0.81606221271E+03  0.81606221271E+03  0.25500000920E-02 0.  1.
    10030    2    1    2    0    0  0.00000000000E+00  0.00000000000E+00  0.14190349413E+04  0.30511593667E+04  0.27010948366E+04 0.  0.
        2    1    3    3  502    0 -0.95731798438E+03  0.94073101221E+03  0.87912986365E+03  0.16044631120E+04  0.25500000920E-02 0.  1.
       -2    1    3    3    0  502  0.95731798438E+03 -0.94073101221E+03  0.53990507763E+03  0.14466962547E+04  0.25500000920E-02 0. -1.
</event>
<event>
 5   0  0.7436613E-07  0.2679030E+04  0.7818609E-02  0.8341841E-01
       -1   -1    0    0    0  501  0.00000000000E+00  0.00000000000E+00  0.11350565038E+04  0.11350565038E+04  0.50400001928E-02 0.  1.
        1   -1    0    0  501    0  0.00000000000E+00  0.00000000000E+00 -0.15808022498E+04  0.15808022498E+04  0.50400001928E-02 0. -1.
    10030    2    1    2    0    0  0.00000000000E+00  0.00000000000E+00 -0.44574574605E+03  0.27158587536E+04  0.26790295816E+04 0.  0.
        2    1    3    3  502    0 -0.60399344248E+03  0.10480914035E+04  0.36035890404E+03  0.12622052957E+04  0.25500000920E-02 0.  1.
       -2    1    3    3    0  502  0.60399344248E+03 -0.10480914035E+04 -0.80610465009E+03  0.14536534579E+04  0.25500000920E-02 0. -1.
</event>
<event>
 5   0  0.7768032E-07  0.2707789E+04  0.7818609E-02  0.8332482E-01
       -1   -1    0    0    0  501  0.00000000000E+00  0.00000000000E+00  0.12377523876E+04  0.12377523876E+04  0.50400001928E-02 0.  1.
        1   -1    0    0  501    0  0.00000000000E+00  0.00000000000E+00 -0.14809340563E+04  0.14809340563E+04  0.50400001928E-02 0. -1.
    10030    2    1    2    0    0  0.00000000000E+00  0.00000000000E+00 -0.24318166873E+03  0.27186864439E+04  0.27077885176E+04 0.  0.
        4    1    3    3  502    0  0.65571804374E+03 -0.96312221393E+03 -0.81390023745E+03  0.14212690672E+04  0.12699999809E+01 0. -1.
       -4    1    3    3    0  502 -0.65571804374E+03  0.96312221393E+03  0.57071856872E+03  0.12974173767E+04  0.12699999809E+01 0.  1.
</event>
<event>
 5   0  0.1991277E-06  0.2711938E+04  0.7818609E-02  0.8331142E-01
        2   -1    0    0  501    0  0.00000000000E+00  0.00000000000E+00  0.17005096517E+04  0.17005096517E+04  0.25500000920E-02 0.  1.
       -2   -1    0    0    0  501  0.00000000000E+00  0.00000000000E+00 -0.10812360116E+04  0.10812360116E+04  0.25500000920E-02 0. -1.
    10030    2    1    2    0    0  0.00000000000E+00  0.00000000000E+00  0.61927364012E+03  0.27817456633E+04  0.27119382541E+04 0.  0.
        5    1    3    3  502    0  0.33908408287E+03 -0.10392405885E+04 -0.51328041012E+03  0.12076745776E+04  0.46999998093E+01 0. -1.
       -5    1    3    3    0  502 -0.33908408287E+03  0.10392405885E+04  0.11325540502E+04  0.15740710857E+04  0.46999998093E+01 0.  1.
</event>
<event>
 5   0  0.7436613E-07  0.2673802E+04  0.7818609E-02  0.8343556E-01
        1   -1    0    0  501    0  0.00000000000E+00  0.00000000000E+00  0.18606339933E+04  0.18606339933E+04  0.50400001928E-02 0.  1.
       -1   -1    0    0    0  501  0.00000000000E+00  0.00000000000E+00 -0.96058883881E+03  0.96058883882E+03  0.50400001928E-02 0. -1.
    10030    2    1    2    0    0  0.00000000000E+00  0.00000000000E+00  0.90004515451E+03  0.28212228321E+04  0.26738019726E+04 0.  0.
        2    1    3    3  502    0  0.79101491708E+03  0.10004441533E+04  0.27031557502E+02  0.12756660252E+04  0.25500000920E-02 0.  1.
       -2    1    3    3    0  502 -0.79101491708E+03 -0.10004441533E+04  0.87301359701E+03  0.15455568069E+04  0.25500000920E-02 0. -1.
</event>
<event>
 5   0  0.7806808E-07  0.2699587E+04  0.7818609E-02  0.8335139E-01
        1   -1    0    0  501    0  0.00000000000E+00  0.00000000000E+00  0.15544731975E+04  0.15544731975E+04  0.50400001928E-02 0.  1.
       -1   -1    0    0    0  501  0.00000000000E+00  0.00000000000E+00 -0.11720645450E+04  0.11720645451E+04  0.50400001928E-02 0. -1.
    10030    2    1    2    0    0  0.00000000000E+00  0.00000000000E+00  0.38240865247E+03  0.27265377426E+04  0.26995873174E+04 0.  0.
        5    1    3    3  502    0  0.16992929763E+03 -0.97359695786E+02 -0.11576303474E+04  0.11740890034E+04  0.46999998093E+01 0. -1.
       -5    1    3    3    0  502 -0.16992929763E+03  0.97359695786E+02  0.15400389999E+04  0.15524487392E+04  0.46999998093E+01 0.  1.
</event>
<event>
 5   0  0.7768032E-07  0.2700733E+04  0.7818609E-02  0.8334767E-01
       -1   -1    0    0    0  501  0.00000000000E+00  0.00000000000E+00  0.84670970849E+03  0.84670970851E+03  0.50400001928E-02 0.  1.
        1   -1    0    0  501    0  0.00000000000E+00  0.00000000000E+00 -0.21536182671E+04  0.21536182671E+04  0.50400001928E-02 0. -1.
    10030    2    1    2    0    0  0.00000000000E+00  0.00000000000E+00 -0.13069085586E+04  0.30003279756E+04  0.27007328599E+04 0.  0.
        4    1    3    3  502    0 -0.45542173731E+03 -0.73179643941E+03  0.50135461056E+03  0.99714244016E+03  0.12699999809E+01 0.  1.
       -4    1    3    3    0  502  0.45542173731E+03  0.73179643941E+03 -0.18082631692E+04  0.20031855354E+04  0.12699999809E+01 0. -1.
</event>
<event>
 5   0  0.7335091E-07  0.2697124E+04  0.7818609E-02  0.8335939E-01
        1   -1    0    0  501    0  0.00000000000E+00  0.00000000000E+00  0.99307659057E+03  0.99307659058E+03  0.50400001928E-02 0. -1.
       -1   -1    0    0    0  501  0.00000000000E+00  0.00000000000E+00 -0.18312982262E+04  0.18312982262E+04  0.50400001928E-02 0.  1.
    10030    2    1    2    0    0  0.00000000000E+00  0.00000000000E+00 -0.83822163562E+03  0.28243748168E+04  0.26971239488E+04 0.  0.
        3    1    3    3  502    0  0.37769068560E+03  0.26863272863E+03 -0.17452749780E+04  0.18057681346E+04  0.10100000352E+00 0.  1.
       -3    1    3    3    0  502 -0.37769068560E+03 -0.26863272863E+03  0.90705334237E+03  0.10186066822E+04  0.10100000352E+00 0. -1.
</event>
<event>
 5   0  0.7806808E-07  0.2698712E+04  0.7818609E-02  0.8335423E-01
        1   -1    0    0  501    0  0.00000000000E+00  0.00000000000E+00  0.80727906596E+03  0.80727906597E+03  0.50400001928E-02 0. -1.
       -1   -1    0    0    0  501  0.00000000000E+00  0.00000000000E+00 -0.22554309775E+04  0.22554309775E+04  0.50400001928E-02 0.  1.
    10030    2    1    2    0    0  0.00000000000E+00  0.00000000000E+00 -0.14481519115E+04  0.30627100435E+04  0.26987124433E+04 0.  0.
        5    1    3    3  502    0  0.77017665623E+02  0.13374742437E+04 -0.54118424508E+03  0.14448776939E+04  0.46999998093E+01 0. -1.
       -5    1    3    3    0  502 -0.77017665623E+02 -0.13374742437E+04 -0.90696766646E+03  0.16178323496E+04  0.46999998093E+01 0.  1.
</event>
<event>
 5   0  0.7566905E-07  0.2725289E+04  0.7818609E-02  0.8326846E-01
        1   -1    0    0  501    0  0.00000000000E+00  0.00000000000E+00  0.94607081136E+03  0.94607081137E+03  0.50400001928E-02 0. -1.
       -1   -1    0    0    0  501  0.00000000000E+00  0.00000000000E+00 -0.19626442606E+04  0.19626442606E+04  0.50400001928E-02 0.  1.
    10030    2    1    2    0    0  0.00000000000E+00  0.00000000000E+00 -0.10165734493E+04  0.29087150720E+04  0.27252893043E+04 0.  0.
        1    1    3    3  502    0 -0.35705606747E+03 -0.42686952355E+03  0.81925107413E+03  0.99039332991E+03  0.50400001928E-02 0. -1.
       -1    1    3    3    0  502  0.35705606747E+03  0.42686952355E+03 -0.18358245234E+04  0.19183217421E+04  0.50400001928E-02 0.  1.
</event>
<event>
 5   0  0.2030645E-06  0.2701851E+04  0.7818609E-02  0.8334405E-01
        2   -1    0    0  501    0  0.00000000000E+00  0.00000000000E+00  0.71765517991E+03  0.71765517992E+03  0.25500000920E-02 0.  1.
       -2   -1    0    0    0  501  0.00000000000E+00  0.00000000000E+00 -0.25430029545E+04  0.25430029545E+04  0.25500000920E-02 0. -1.
    10030    2    1    2    0    0  0.00000000000E+00  0.00000000000E+00 -0.18253477746E+04  0.32606581344E+04  0.27018506567E+04 0.  0.
        1    1    3    3  502    0 -0.12167274707E+04  0.54828374371E+03 -0.65964793409E+03  0.14886827058E+04  0.50400001928E-02 0.  1.
       -1    1    3    3    0  502  0.12167274707E+04 -0.54828374371E+03 -0.11656998405E+04  0.17719754286E+04  0.50400001928E-02 0. -1.
</event>
<event>
 5   0  0.7566905E-07  0.2724846E+04  0.7818609E-02  0.8326988E-01
        1   -1    0    0  501    0  0.00000000000E+00  0.00000000000E+00  0.33376347474E+04  0.33376347474E+04  0.50400001928E-02 0. -1.
       -1   -1    0    0    0  501  0.00000000000E+00  0.00000000000E+00 -0.55614146290E+03  0.55614146292E+03  0.50400001928E-02 0.  1.
    10030    2    1    2    0    0  0.00000000000E+00  0.00000000000E+00  0.27814932845E+04  0.38937762103E+04  0.27248464699E+04 0.  0.
        1    1    3    3  502    0 -0.79304940839E+03 -0.21121905333E+03  0.29447723897E+04  0.30569961204E+04  0.50400001928E-02 0. -1.
       -1    1    3    3    0  502  0.79304940839E+03  0.21121905333E+03 -0.16327910526E+03  0.83678008991E+03  0.50400001928E-02 0.  1.
</event>
<event>
 5   0  0.1999104E-06  0.2701582E+04  0.7818609E-02  0.8334492E-01
       -2   -1    0    0    0  501  0.00000000000E+00  0.00000000000E+00  0.10313182403E+04  0.10313182403E+04  0.25500000920E-02 0. -1.
        2   -1    0    0  501    0  0.00000000000E+00  0.00000000000E+00 -0.17692276014E+04  0.17692276015E+04  0.25500000920E-02 0.  1.
    10030    2    1    2    0    0  0.00000000000E+00  0.00000000000E+00 -0.73790936112E+03  0.28005458418E+04  0.27015822747E+04 0.  0.
        4    1    3    3  502    0  0.32305958924E+03 -0.69886463757E+02 -0.17266586818E+04  0.17580112150E+04  0.12699999809E+01 0.  1.
       -4    1    3    3    0  502 -0.32305958924E+03  0.69886463757E+02  0.98874932064E+03  0.10425346268E+04  0.12699999809E+01 0. -1.
</event>
<event>
 5   0  0.1991277E-06  0.2702136E+04  0.7818609E-02  0.8334312E-01
       -2   -1    0    0    0  501  0.00000000000E+00  0.00000000000E+00  0.12209421145E+04  0.12209421145E+04  0.25500000920E-02 0.  1.
        2   -1    0    0  501    0  0.00000000000E+00  0.00000000000E+00 -0.14950621480E+04  0.14950621480E+04  0.25500000920E-02 0. -1.
    10030    2    1    2    0    0  0.00000000000E+00  0.00000000000E+00 -0.27412003342E+03  0.27160042625E+04  0.27021357037E+04 0.  0.
        5    1    3    3  502    0  0.14819271187E+03 -0.57741109185E+03  0.10815973114E+04  0.12350058635E+04  0.46999998093E+01 0.  1.
       -5    1    3    3    0  502 -0.14819271187E+03  0.57741109185E+03 -0.13557173448E+04  0.14809983990E+04  0.46999998093E+01 0. -1.
</event>
<event>
 5   0  0.7436613E-07  0.2708713E+04  0.7818609E-02  0.8332184E-01
       -1   -1    0    0    0  501  0.00000000000E+00  0.00000000000E+00  0.13128635165E+04  0.13128635166E+04  0.50400001928E-02 0.  1.
        1   -1    0    0  501    0  0.00000000000E+00  0.00000000000E+00 -0.13971604914E+04  0.13971604915E+04  0.50400001928E-02 0. -1.
    10030    2    1    2    0    0  0.00000000000E+00  0.00000000000E+00 -0.84296974903E+02  0.27100240080E+04  0.27087126359E+04 0.  0.
        2    1    3    3  502    0 -0.21502823859E+03 -0.12448293116E+04  0.44639507231E+03  0.13398155541E+04  0.25500000920E-02 0.  1.
       -2    1    3    3    0  502  0.21502823859E+03  0.12448293116E+04 -0.53069204721E+03  0.13702084540E+04  0.25500000920E-02 0. -1.
</event>
<event>
 5   0  0.7566905E-07  0.2694289E+04  0.7818609E-02  0.8336860E-01
       -1   -1    0    0    0  501  0.00000000000E+00  0.00000000000E+00  0.15134413758E+04  0.15134413758E+04  0.50400001928E-02 0.  1.
        1   -1    0    0  501    0  0.00000000000E+00  0.00000000000E+00 -0.11991205065E+04  0.11991205065E+04  0.50400001928E-02 0. -1.
    10030    2    1    2    0    0  0.00000000000E+00  0.00000000000E+00  0.31432086930E+03  0.27125618824E+04  0.26942892118E+04 0.  0.
        1    1    3    3  502    0  0.63923952012E+03  0.63976509718E+03  0.11623666177E+04  0.14727602309E+04  0.50400001928E-02 0.  1.
       -1    1    3    3    0  502 -0.63923952012E+03 -0.63976509718E+03 -0.84804574840E+03  0.12398016515E+04  0.50400001928E-02 0. -1.
</event>
<event>
 5   0  0.1932012E-06  0.2697385E+04  0.7818609E-02  0.8335854E-01
        2   -1    0    0  501    0  0.00000000000E+00  0.00000000000E+00  0.12469563023E+04  0.12469563023E+04  0.25500000920E-02 0.  1.
       -2   -1    0    0    0  501  0.00000000000E+00  0.00000000000E+00 -0.14587291452E+04  0.14587291452E+04  0.25500000920E-02 0. -1.
    10030    2    1    2    0    0  0.00000000000E+00  0.00000000000E+00 -0.21177284293E+03  0.27056854475E+04  0.26973850307E+04 0.  0.
        2    1    3    3  502    0  0.43052791646E+03  0.69369707264E+03  0.97091665170E+03  0.12685618077E+04  0.25500000920E-02 0.  1.
       -2    1    3    3    0  502 -0.43052791646E+03 -0.69369707264E+03 -0.11826894946E+04  0.14371236398E+04  0.25500000920E-02 0. -1.
</event>
<event>
 5   0  0.7335091E-07  0.2697084E+04  0.7818609E-02  0.8335952E-01
        1   -1    0    0  501    0  0.00000000000E+00  0.00000000000E+00  0.19474176577E+04  0.19474176577E+04  0.50400001928E-02 0.  1.
       -1   -1    0    0    0  501  0.00000000000E+00  0.00000000000E+00 -0.93383419948E+03  0.93383419950E+03  0.50400001928E-02 0. -1.
    10030    2    1    2    0    0  0.00000000000E+00  0.00000000000E+00  0.10135834582E+04  0.28812518572E+04  0.26970837655E+04 0.  0.
        3    1    3    3  502    0  0.68781722670E+02  0.81446152073E+03  0.16526412566E+04  0.18437195088E+04  0.10100000352E+00 0.  1.
       -3    1    3    3    0  502 -0.68781722670E+02 -0.81446152073E+03 -0.63905779834E+03  0.10375323484E+04  0.10100000352E+00 0. -1.
</event>
<event>
 5   0  0.7335091E-07  0.2699810E+04  0.7818609E-02  0.8335067E-01
       -1   -1    0    0    0  501  0.00000000000E+00  0.00000000000E+00  0.83634715650E+03  0.83634715651E+03  0.50400001928E-02 0.  1.
        1   -1    0    0  501    0  0.00000000000E+00  0.00000000000E+00 -0.21788125608E+04  0.21788125608E+04  0.50400001928E-02 0. -1.
    10030    2    1    2    0    0  0.00000000000E+00  0.00000000000E+00 -0.13424654043E+04  0.30151597173E+04  0.26998101339E+04 0.  0.
        3    1    3    3  502    0  0.79697373534E+03 -0.10597681122E+04 -0.95369390336E+03  0.16333424803E+04  0.10100000352E+00 0. -1.
       -3    1    3    3    0  502 -0.79697373534E+03  0.10597681122E+04 -0.38877150093E+03  0.13818172370E+04  0.10100000352E+00 0.  1.
</event>
<event>
 5   0  0.1932012E-06  0.2700444E+04  0.7818609E-02  0.8334861E-01
        2   -1    0    0  501    0  0.00000000000E+00  0.00000000000E+00  0.19124587835E+04  0.19124587835E+04  0.25500000920E-02 0.  1.
       -2   -1    0    0    0  501  0.00000000000E+00  0.00000000000E+00 -0.95327501720E+03  0.95327501720E+03  0.25500000920E-02 0. -1.
    10030    2    1    2    0    0  0.00000000000E+00  0.00000000000E+00  0.95918376628E+03  0.28657338007E+04  0.27004438004E+04 0.  0.
        2    1    3    3  502    0  0.10857294002E+04 -0.54970558125E+03 -0.14111494305E+03  0.12251114169E+04  0.25500000920E-02 0. -1.
       -2    1    3    3    0  502 -0.10857294002E+04  0.54970558125E+03  0.11002987093E+04  0.16406223838E+04  0.25500000920E-02 0.  1.
</event>
<event>
 5   0  0.7806808E-07  0.2701437E+04  0.7818609E-02  0.8334539E-01
       -1   -1    0    0    0  501  0.00000000000E+00  0.00000000000E+00  0.11355607654E+04  0.11355607654E+04  0.50400001928E-02 0.  1.
        1   -1    0    0  501    0  0.00000000000E+00  0.00000000000E+00 -0.16066422960E+04  0.16066422960E+04  0.50400001928E-02 0. -1.
    10030    2    1    2    0    0  0.00000000000E+00  0.00000000000E+00 -0.47108153061E+03  0.27422030615E+04  0.27014366218E+04 0.  0.
        5    1    3    3  502    0 -0.43596497419E+02 -0.67719946468E+03  0.94995218039E+03  0.11674463605E+04  0.46999998093E+01 0.  1.
       -5    1    3    3    0  502  0.43596497419E+02  0.67719946468E+03 -0.14210337110E+04  0.15747567010E+04  0.46999998093E+01 0. -1.
</event>
<event>
 5   0  0.2063087E-06  0.2699800E+04  0.7818609E-02  0.8335070E-01
        2   -1    0    0  501    0  0.00000000000E+00  0.00000000000E+00  0.20060568363E+04  0.20060568363E+04  0.25500000920E-02 0. -1.
       -2   -1    0    0    0  501  0.00000000000E+00  0.00000000000E+00 -0.90836422842E+03  0.90836422842E+03  0.25500000920E-02 0.  1.
    10030    2    1    2    0    0  0.00000000000E+00  0.00000000000E+00  0.10976926079E+04  0.29144210647E+04  0.26998001928E+04 0.  0.
        3    1    3    3  502    0 -0.10382529494E+04 -0.36376824291E+03  0.13932942280E+04  0.17752648640E+04  0.10100000352E+00 0. -1.
       -3    1    3    3    0  502  0.10382529494E+04  0.36376824291E+03 -0.29560162011E+03  0.11391562007E+04  0.10100000352E+00 0.  1.
</event>
<event>
 5   0  0.2063087E-06  0.2706463E+04  0.7818609E-02  0.8332911E-01
       -2   -1    0    0    0  501  0.00000000000E+00  0.00000000000E+00  0.11134266245E+04  0.11134266245E+04  0.25500000920E-02 0.  1.
        2   -1    0    0  501    0  0.00000000000E+00  0.00000000000E+00 -0.16446843782E+04  0.16446843782E+04  0.25500000920E-02 0. -1.
    10030    2    1    2    0    0  0.00000000000E+00  0.00000000000E+00 -0.53125775373E+03  0.27581110027E+04  0.27064629135E+04 0.  0.
        3    1    3    3  502    0 -0.10272035999E+04  0.11322342947E+03  0.62469568410E+03  0.12075642793E+04  0.10100000352E+00 0.  1.
       -3    1    3    3    0  502  0.10272035999E+04 -0.11322342947E+03 -0.11559534378E+04  0.15505467234E+04  0.10100000352E+00 0. -1.
</event>
<event>
 5   0  0.1932012E-06  0.2697742E+04  0.7818609E-02  0.8335738E-01
       -2   -1    0    0    0  501  0.00000000000E+00  0.00000000000E+00  0.16568773261E+04  0.16568773261E+04  0.25500000920E-02 0.  1.
        2   -1    0    0  501    0  0.00000000000E+00  0.00000000000E+00 -0.10981216465E+04  0.10981216465E+04  0.25500000920E-02 0. -1.
    10030    2    1    2    0    0  0.00000000000E+00  0.00000000000E+00  0.55875567967E+03  0.27549989726E+04  0.26977419131E+04 0.  0.
        2    1    3    3  502    0 -0.42119155750E+03  0.37084568946E+03  0.15320014764E+04  0.16315506052E+04  0.25500000920E-02 0.  1.
       -2    1    3    3    0  502  0.42119155750E+03 -0.37084568946E+03 -0.97324579673E+03  0.11234483675E+04  0.25500000920E-02 0. -1.
</event>
<event>
 5   0  0.7768032E-07  0.2701624E+04  0.7818609E-02  0.8334478E-01
        1   -1    0    0  501    0  0.00000000000E+00  0.00000000000E+00  0.15489222462E+04  0.15489222462E+04  0.50400001928E-02 0. -1.
       -1   -1    0    0    0  501  0.00000000000E+00  0.00000000000E+00 -0.11780406184E+04  0.11780406184E+04  0.50400001928E-02 0.  1.
    10030    2    1    2    0    0  0.00000000000E+00  0.00000000000E+00  0.37088162774E+03  0.27269628646E+04  0.27016241936E+04 0.  0.
        4    1    3    3  502    0  0.56206961481E+03 -0.40998050090E+03 -0.98329871859E+03  0.12045265650E+04  0.12699999809E+01 0.  1.
       -4    1    3    3    0  502 -0.56206961481E+03  0.40998050090E+03  0.13541803463E+04  0.15224362996E+04  0.12699999809E+01 0. -1.
</event>
<event>
 5   0  0.2030645E-06  0.2700125E+04  0.7818609E-02  0.8334965E-01
        2   -1    0    0  501    0  0.00000000000E+00  0.00000000000E+00  0.13147944587E+04  0.13147944587E+04  0.25500000920E-02 0. -1.
       -2   -1    0    0    0  501  0.00000000000E+00  0.00000000000E+00 -0.13862761818E+04  0.13862761818E+04  0.25500000920E-02 0.  1.
    10030    2    1    2    0    0  0.00000000000E+00  0.00000000000E+00 -0.71481723026E+02  0.27010706405E+04  0.27001246209E+04 0.  0.
        1    1    3    3  502    0 -0.12107891789E+04 -0.37326372676E+03 -0.50209299546E+03  0.13628769649E+04  0.50400001928E-02 0. -1.
       -1    1    3    3    0  502  0.12107891789E+04  0.37326372676E+03  0.43061127244E+03  0.13381936756E+04  0.50400001928E-02 0.  1.
</event>
<event>
 5   0  0.1932012E-06  0.2697936E+04  0.7818609E-02  0.8335675E-01
        2   -1    0    0  501    0  0.00000000000E+00  0.00000000000E+00  0.16616098013E+04  0.16616098013E+04  0.25500000920E-02 0.  1.
       -2   -1    0    0    0  501  0.00000000000E+00  0.00000000000E+00 -0.10951516107E+04  0.10951516107E+04  0.25500000920E-02 0. -1.
    10030    2    1    2    0    0  0.00000000000E+00  0.00000000000E+00  0.56645819057E+03  0.27567614120E+04  0.26979359891E+04 0.  0.
        2    1    3    3  502    0  0.30426325088E+03 -0.27797721131E+03 -0.10292489072E+04  0.11086932709E+04  0.25500000920E-02 0. -1.
       -2    1    3    3    0  502 -0.30426325088E+03  0.27797721131E+03  0.15957070978E+04  0.16480681411E+04  0.25500000920E-02 0.  1.
</event>
<event>
 5   0  0.2030645E-06  0.2686405E+04  0.7818609E-02  0.8339430E-01
       -2   -1    0    0    0  501  0.00000000000E+00  0.00000000000E+00  0.12069087198E+04  0.12069087198E+04  0.25500000920E-02 0. -1.
        2   -1    0    0  501    0  0.00000000000E+00  0.00000000000E+00 -0.14948871422E+04  0.14948871422E+04  0.25500000920E-02 0.  1.
    10030    2    1    2    0    0  0.00000000000E+00  0.00000000000E+00 -0.28797842241E+03  0.27017958621E+04  0.26864045318E+04 0.  0.
        1    1    3    3  502    0 -0.10545392663E+04 -0.32914523291E+03 -0.91243664116E+03  0.14328050365E+04  0.50400001928E-02 0.  1.
       -1    1    3    3    0  502  0.10545392663E+04  0.32914523291E+03  0.62445821875E+03  0.12689908256E+04  0.50400001928E-02 0. -1.
</event>
<event>
 5   0  0.2063087E-06  0.2701163E+04  0.7818609E-02  0.8334628E-01
       -2   -1    0    0    0  501  0.00000000000E+00  0.00000000000E+00  0.14636060363E+04  0.14636060363E+04  0.25500000920E-02 0.  1.
        2   -1    0    0  501    0  0.00000000000E+00  0.00000000000E+00 -0.12462851857E+04  0.12462851857E+04  0.25500000920E-02 0. -1.
    10030    2    1    2    0    0  0.00000000000E+00  0.00000000000E+00  0.21732085065E+03  0.27098912220E+04  0.27011630981E+04 0.  0.
        3    1    3    3  502    0  0.10096928734E+04  0.66300945377E+03 -0.49745174015E+03  0.13063381944E+04  0.10100000352E+00 0. -1.
       -3    1    3    3    0  502 -0.10096928734E+04 -0.66300945377E+03  0.71477259080E+03  0.14035530275E+04  0.10100000352E+00 0.  1.
</event>
<event>
 5   0  0.7436613E-07  0.2696366E+04  0.7818609E-02  0.8336185E-01
       -1   -1    0    0    0  501  0.00000000000E+00  0.00000000000E+00  0.67267376813E+03  0.67267376815E+03  0.50400001928E-02 0. -1.
        1   -1    0    0  501    0  0.00000000000E+00  0.00000000000E+00 -0.27020485420E+04  0.27020485420E+04  0.50400001928E-02 0.  1.
    10030    2    1    2    0    0  0.00000000000E+00  0.00000000000E+00 -0.20293747738E+04  0.33747223101E+04  0.26963658316E+04 0.  0.
        2    1    3    3  502    0  0.51181401572E+03  0.11480990016E+04 -0.40472612691E+03  0.13205635699E+04  0.25500000920E-02 0. -1.
       -2    1    3    3    0  502 -0.51181401572E+03 -0.11480990016E+04 -0.16246486469E+04  0.20541587403E+04  0.25500000920E-02 0.  1.
</event>
<event>
 5   0  0.2063087E-06  0.2689499E+04  0.7818609E-02  0.8338420E-01
       -2   -1    0    0    0  501  0.00000000000E+00  0.00000000000E+00  0.10332437963E+04  0.10332437963E+04  0.25500000920E-02 0. -1.
        2   -1    0    0  501    0  0.00000000000E+00  0.00000000000E+00 -0.17501693058E+04  0.17501693058E+04  0.25500000920E-02 0.  1.
    10030    2    1    2    0    0  0.00000000000E+00  0.00000000000E+00 -0.71692550954E+03  0.27834131021E+04  0.26894992676E+04 0.  0.
        3    1    3    3  502    0 -0.22137817289E+03 -0.25853318382E+03 -0.17048533563E+04  0.17384972474E+04  0.10100000352E+00 0.  1.
       -3    1    3    3    0  502  0.22137817289E+03  0.25853318382E+03  0.98792784680E+03  0.10449158546E+04  0.10100000352E+00 0. -1.
</event>
<event>
 5   0  0.1999104E-06  0.2702322E+04  0.7818609E-02  0.8334252E-01
        2   -1    0    0  501    0  0.00000000000E+00  0.00000000000E+00  0.88815405826E+03  0.88815405826E+03  0.25500000920E-02 0.  1.
       -2   -1    0    0    0  501  0.00000000000E+00  0.00000000000E+00 -0.20555393396E+04  0.20555393396E+04  0.25500000920E-02 0. -1.
    10030    2    1    2    0    0  0.00000000000E+00  0.00000000000E+00 -0.11673852813E+04  0.29436933979E+04  0.27023216732E+04 0.  0.
        4    1    3    3  502    0 -0.39258070439E+03 -0.51545129479E+03  0.70788661057E+03  0.95964301336E+03  0.12699999809E+01 0.  1.
       -4    1    3    3    0  502  0.39258070439E+03  0.51545129479E+03 -0.18752718919E+04  0.19840503845E+04  0.12699999809E+01 0. -1.
</event>
<event>
 5   0  0.7566905E-07  0.2700560E+04  0.7818609E-02  0.8334823E-01
       -1   -1    0    0    0  501  0.00000000000E+00  0.00000000000E+00  0.12670515270E+04  0.12670515271E+04  0.50400001928E-02 0. -1.
        1   -1    0    0  501    0  0.00000000000E+00  0.00000000000E+00 -0.14389756410E+04  0.14389756410E+04  0.50400001928E-02 0.  1.
    10030    2    1    2    0    0  0.00000000000E+00  0.00000000000E+00 -0.17192411399E+03  0.27060271681E+04  0.27005601518E+04 0.  0.
        1    1    3    3  502    0 -0.54098557376E+03 -0.79759907998E+03 -0.10336179130E+04  0.14132217354E+04  0.50400001928E-02 0.  1.
       -1    1    3    3    0  502  0.54098557376E+03  0.79759907998E+03  0.86169379903E+03  0.12928054327E+04  0.50400001928E-02 0. -1.
</event>
<event>
 5   0  0.7436613E-07  0.2699838E+04  0.7818609E-02  0.8335058E-01
       -1   -1    0    0    0  501  0.00000000000E+00  0.00000000000E+00  0.31996296806E+04  0.31996296806E+04  0.50400001928E-02 0.  1.
        1   -1    0    0  501    0  0.00000000000E+00  0.00000000000E+00 -0.56952877557E+03  0.56952877559E+03  0.50400001928E-02 0. -1.
    10030    2    1    2    0    0  0.00000000000E+00  0.00000000000E+00  0.26301009050E+04  0.37691584562E+04  0.26998379020E+04 0.  0.
        2    1    3    3  502    0  0.11673194247E+04 -0.63903453480E+03  0.99890522154E+03  0.16639745844E+04  0.25500000920E-02 0.  1.
       -2    1    3    3    0  502 -0.11673194247E+04  0.63903453480E+03  0.16311956835E+04  0.21051838717E+04  0.25500000920E-02 0. -1.
</event>
<event>
 5   0  0.7806808E-07  0.2700716E+04  0.7818609E-02  0.8334773E-01
        1   -1    0    0  501    0  0.00000000000E+00  0.00000000000E+00  0.14487821261E+04  0.14487821261E+04  0.50400001928E-02 0.  1.
       -1   -1    0    0    0  501  0.00000000000E+00  0.00000000000E+00 -0.12586207843E+04  0.12586207843E+04  0.50400001928E-02 0. -1.
    10030    2    1    2    0    0  0.00000000000E+00  0.00000000000E+00  0.19016134184E+03  0.27074029104E+04  0.27007164204E+04 0.  0.
        5    1    3    3  502    0  0.72710117082E+03 -0.10820182797E+04 -0.25793537214E+03  0.13289064739E+04  0.46999998093E+01 0.  1.
       -5    1    3    3    0  502 -0.72710117082E+03  0.10820182797E+04  0.44809671398E+03  0.13784964365E+04  0.46999998093E+01 0. -1.
</event>
<event>
 5   0  0.7335091E-07  0.2702864E+04  0.7818609E-02  0.8334076E-01
        1   -1    0    0  501    0  0.00000000000E+00  0.00000000000E+00  0.18440587876E+04  0.18440587876E+04  0.50400001928E-02 0. -1.
       -1   -1    0    0    0  501  0.00000000000E+00  0.00000000000E+00 -0.99040654965E+03  0.99040654966E+03  0.50400001928E-02 0.  1.
    10030    2    1    2    0    0  0.00000000000E+00  0.00000000000E+00  0.85365223792E+03  0.28344653372E+04  0.27028635934E+04 0.  0.
        3    1    3    3  502    0 -0.10395592513E+04 -0.86280659446E+03  0.46389154511E+03  0.14283956148E+04  0.10100000352E+00 0.  1.
       -3    1    3    3    0  502  0.10395592513E+04  0.86280659446E+03  0.38976069281E+03  0.14060697224E+04  0.10100000352E+00 0. -1.
</event>
<event>
 5   0  0.1999104E-06  0.2705457E+04  0.7818609E-02  0.8333236E-01
       -2   -1    0    0    0  501  0.00000000000E+00  0.00000000000E+00  0.10175818447E+04  0.10175818447E+04  0.25500000920E-02 0. -1.
        2   -1    0    0  501    0  0.00000000000E+00  0.00000000000E+00 -0.17982579901E+04  0.17982579901E+04  0.25500000920E-02 0.  1.
    10030    2    1    2    0    0  0.00000000000E+00  0.00000000000E+00 -0.78067614537E+03  0.28158398348E+04  0.27054572130E+04 0.  0.
        4    1    3    3  502    0 -0.82588301995E+02  0.95991463158E+03  0.59793762941E+03  0.11339259011E+04  0.12699999809E+01 0. -1.
       -4    1    3    3    0  502  0.82588301995E+02 -0.95991463158E+03 -0.13786137748E+04  0.16819139337E+04  0.12699999809E+01 0.  1.
</event>
<event>
 5   0  0.7566905E-07  0.2703230E+04  0.7818609E-02  0.8333958E-01
        1   -1    0    0  501    0  0.00000000000E+00  0.00000000000E+00  0.12490275661E+04  0.12490275661E+04  0.50400001928E-02 0. -1.
       -1   -1    0    0    0  501  0.00000000000E+00  0.00000000000E+00 -0.14626287488E+04  0.14626287488E+04  0.50400001928E-02 0.  1.
    10030    2    1    2    0    0  0.00000000000E+00  0.00000000000E+00 -0.21360118266E+03  0.27116563149E+04  0.27032303832E+04 0.  0.
        1    1    3    3  502    0 -0.71120700020E+03 -0.72721636036E+03 -0.99963365104E+03  0.14261579394E+04  0.50400001928E-02 0.  1.
       -1    1    3    3    0  502  0.71120700020E+03  0.72721636036E+03  0.78603246838E+03  0.12854983754E+04  0.50400001928E-02 0. -1.
</event>
<event>
 5   0  0.1991277E-06  0.2699408E+04  0.7818609E-02  0.8335197E-01
       -2   -1    0    0    0  501  0.00000000000E+00  0.00000000000E+00  0.12611359167E+04  0.12611359167E+04  0.25500000920E-02 0. -1.
        2   -1    0    0  501    0  0.00000000000E+00  0.00000000000E+00 -0.14444925976E+04  0.14444925976E+04  0.25500000920E-02 0.  1.
    10030    2    1    2    0    0  0.00000000000E+00  0.00000000000E+00 -0.18335668084E+03  0.27056285143E+04  0.26994084510E+04 0.  0.
        5    1    3    3  502    0 -0.89843852701E+03 -0.84254373891E+03  0.46150612996E+03  0.13153257151E+04  0.46999998093E+01 0. -1.
       -5    1    3    3    0  502  0.89843852701E+03  0.84254373891E+03 -0.64486281080E+03  0.13903027992E+04  0.46999998093E+01 0.  1.
</event>
<event>
 5   0  0.1991277E-06  0.2686246E+04  0.7818609E-02  0.8339481E-01
        2   -1    0    0  501    0  0.00000000000E+00  0.00000000000E+00  0.13809804183E+04  0.13809804183E+04  0.25500000920E-02 0.  1.
       -2   -1    0    0    0  501  0.00000000000E+00  0.00000000000E+00 -0.13063037474E+04  0.13063037474E+04  0.25500000920E-02 0. -1.
    10030    2    1    2    0    0  0.00000000000E+00  0.00000000000E+00  0.74676670875E+02  0.26872841658E+04  0.26862463741E+04 0.  0.
        5    1    3    3  502    0 -0.11984557485E+04 -0.58115118815E+03  0.21039337774E+03  0.13484510921E+04  0.46999998093E+01 0. -1.
       -5    1    3    3    0  502  0.11984557485E+04  0.58115118815E+03 -0.13571670687E+03  0.13388330736E+04  0.46999998093E+01 0.  1.
</event>
<event>
 5   0  0.1991277E-06  0.2689729E+04  0.7818609E-02  0.8338345E-01
       -2   -1    0    0    0  501  0.00000000000E+00  0.00000000000E+00  0.67016769404E+03  0.67016769405E+03  0.25500000920E-02 0.  1.
        2   -1    0    0  501    0  0.00000000000E+00  0.00000000000E+00 -0.26988175131E+04  0.26988175131E+04  0.25500000920E-02 0. -1.
    10030    2    1    2    0    0  0.00000000000E+00  0.00000000000E+00 -0.20286498191E+04  0.33689852072E+04  0.26897288409E+04 0.  0.
        5    1    3    3  502    0 -0.88120350040E+03 -0.82856443333E+03 -0.27798690942E+03  0.12411033160E+04  0.46999998093E+01 0. -1.
       -5    1    3    3    0  502  0.88120350040E+03  0.82856443333E+03 -0.17506629096E+04  0.21278818911E+04  0.46999998093E+01 0.  1.
</event>
<event>
 5   0  0.1932012E-06  0.2700688E+04  0.7818609E-02  0.8334782E-01
       -2   -1    0    0    0  501  0.00000000000E+00  0.00000000000E+00  0.95523306184E+03  0.95523306184E+03  0.25500000920E-02 0. -1.
        2   -1    0    0  501    0  0.00000000000E+00  0.00000000000E+00 -0.19088842906E+04  0.19088842906E+04  0.25500000920E-02 0.  1.
    10030    2    1    2    0    0  0.00000000000E+00  0.00000000000E+00 -0.95365122874E+03  0.28641173524E+04  0.27006883460E+04 0.  0.
        2    1    3    3  502    0 -0.69132380205E+03  0.98461328153E+03  0.17350155805E+03  0.12155223997E+04  0.25500000920E-02 0. -1.
       -2    1    3    3    0  502  0.69132380205E+03 -0.98461328153E+03 -0.11271527868E+04  0.16485949527E+04  0.25500000920E-02 0.  1.
</event>
<event>
 5   0  0.7768032E-07  0.2697886E+04  0.7818609E-02  0.8335691E-01
       -1   -1    0    0    0  501  0.00000000000E+00  0.00000000000E+00  0.11884426737E+04  0.11884426737E+04  0.50400001928E-02 0.  1.
        1   -1    0    0  501    0  0.00000000000E+00  0.00000000000E+00 -0.15311194952E+04  0.15311194952E+04  0.50400001928E-02 0. -1.
    10030    2    1    2    0    0  0.00000000000E+00  0.00000000000E+00 -0.34267682148E+03  0.27195621689E+04  0.26978863924E+04 0.  0.
        4    1    3    3  502    0  0.10245082908E+04  0.60433587139E+03  0.47001789259E+03  0.12789673630E+04  0.12699999809E+01 0.  1.
       -4    1    3    3    0  502 -0.10245082908E+04 -0.60433587139E+03 -0.81269471408E+03  0.14405948058E+04  0.12699999809E+01 0. -1.
</event>
<event>
 5   0  0.2030645E-06  0.2692393E+04  0.7818609E-02  0.8337477E-01
        2   -1    0    0  501    0  0.00000000000E+00  0.00000000000E+00  0.13083756165E+04  0.13083756165E+04  0.25500000920E-02 0. -1.
       -2   -1    0    0    0  501  0.00000000000E+00  0.00000000000E+00 -0.13851106247E+04  0.13851106247E+04  0.25500000920E-02 0.  1.
    10030    2    1    2    0    0  0.00000000000E+00  0.00000000000E+00 -0.76735008182E+02  0.26934862413E+04  0.26923929636E+04 0.  0.
        1    1    3    3  502    0 -0.54963716653E+03 -0.19702551755E+03  0.11751068624E+04  0.13121723239E+04  0.50400001928E-02 0. -1.
       -1    1    3    3    0  502  0.54963716653E+03  0.19702551755E+03 -0.12518418706E+04  0.13813139174E+04  0.50400001928E-02 0.  1.
</event>
<event>
 5   0  0.1991277E-06  0.2699096E+04  0.7818609E-02  0.8335298E-01
        2   -1    0    0  501    0  0.00000000000E+00  0.00000000000E+00  0.19401588500E+04  0.19401588500E+04  0.25500000920E-02 0.  1.
       -2   -1    0    0    0  501  0.00000000000E+00  0.00000000000E+00 -0.93872740185E+03  0.93872740185E+03  0.25500000920E-02 0. -1.
    10030    2    1    2    0    0  0.00000000000E+00  0.00000000000E+00  0.10014314482E+04  0.28788862519E+04  0.26990963499E+04 0.  0.
        5    1    3    3  502    0  0.11576216050E+04 -0.12091605954E+03  0.12292585417E+04  0.16928694947E+04  0.46999998093E+01 0. -1.
       -5    1    3    3    0  502 -0.11576216050E+04  0.12091605954E+03 -0.22782709350E+03  0.11860167572E+04  0.46999998093E+01 0.  1.
</event>
<event>
 5   0  0.1999104E-06  0.2701325E+04  0.7818609E-02  0.8334575E-01
       -2   -1    0    0    0  501  0.00000000000E+00  0.00000000000E+00  0.11608025597E+04  0.11608025597E+04  0.25500000920E-02 0. -1.
        2   -1    0    0  501    0  0.00000000000E+00  0.00000000000E+00 -0.15715757519E+04  0.15715757519E+04  0.25500000920E-02 0.  1.
    10030    2    1    2    0    0  0.00000000000E+00  0.00000000000E+00 -0.41077319225E+03  0.27323783116E+04  0.27013249753E+04 0.  0.
        4    1    3    3  502    0 -0.15951479049E+03 -0.88214012515E+03  0.81651002413E+03  0.12125619164E+04  0.12699999809E+01 0. -1.
       -4    1    3    3    0  502  0.15951479049E+03  0.88214012515E+03 -0.12272832164E+04  0.15198163951E+04  0.12699999809E+01 0.  1.
</event>
<event>
 5   0  0.1991277E-06  0.2698747E+04  0.7818609E-02  0.8335412E-01
       -2   -1    0    0    0  501  0.00000000000E+00  0.00000000000E+00  0.12181394792E+04  0.12181394792E+04  0.25500000920E-02 0. -1.
        2   -1    0    0  501    0  0.00000000000E+00  0.00000000000E+00 -0.14947458833E+04  0.14947458833E+04  0.25500000920E-02 0.  1.
    10030    2    1    2    0    0  0.00000000000E+00  0.00000000000E+00 -0.27660640406E+03  0.27128853625E+04  0.26987470959E+04 0.  0.
        5    1    3    3  502    0 -0.85789893569E+03 -0.11414985129E+03 -0.11789881288E+04  0.14625511514E+04  0.46999998093E+01 0.  1.
       -5    1    3    3    0  502  0.85789893569E+03  0.11414985129E+03  0.90238172477E+03  0.12503342112E+04  0.46999998093E+01 0. -1.
</event>
<event>
 5   0  0.1991277E-06  0.2701837E+04  0.7818609E-02  0.8334409E-01
        2   -1    0    0  501    0  0.00000000000E+00  0.00000000000E+00  0.23660860171E+04  0.23660860171E+04  0.25500000920E-02 0.  1.
       -2   -1    0    0    0  501  0.00000000000E+00  0.00000000000E+00 -0.77130798700E+03  0.77130798701E+03  0.25500000920E-02 0. -1.
    10030    2    1    2    0    0  0.00000000000E+00  0.00000000000E+00  0.15947780301E+04  0.31373940041E+04  0.27018371845E+04 0.  0.
        5    1    3    3  502    0  0.29605409135E+03 -0.91233531141E+03  0.19020357914E+04  0.21302032737E+04  0.46999998093E+01 0.  1.
       -5    1    3    3    0  502 -0.29605409135E+03  0.91233531141E+03 -0.30725776135E+03  0.10071907304E+04  0.46999998093E+01 0. -1.
</event>
<event>
 5   0  0.7768032E-07  0.2703307E+04  0.7818609E-02  0.8333933E-01
       -1   -1    0    0    0  501  0.00000000000E+00  0.00000000000E+00  0.80017227447E+03  0.80017227449E+03  0.50400001928E-02 0.  1.
        1   -1    0    0  501    0  0.00000000000E+00  0.00000000000E+00 -0.22832179456E+04  0.22832179456E+04  0.50400001928E-02 0. -1.
    10030    2    1    2    0    0  0.00000000000E+00  0.00000000000E+00 -0.14830456712E+04  0.30833902201E+04  0.27033073793E+04 0.  0.
        4    1    3    3  502    0  0.10601453746E+04  0.61376460595E+03 -0.89931271967E+02  0.12282933092E+04  0.12699999809E+01 0.  1.
       -4    1    3    3    0  502 -0.10601453746E+04 -0.61376460595E+03 -0.13931143992E+04  0.18550969109E+04  0.12699999809E+01 0. -1.
</event>
<event>
 5   0  0.7335091E-07  0.2697231E+04  0.7818609E-02  0.8335904E-01
        1   -1    0    0  501    0  0.00000000000E+00  0.00000000000E+00  0.16451652628E+04  0.16451652628E+04  0.50400001928E-02 0. -1.
       -1   -1    0    0    0  501  0.00000000000E+00  0.00000000000E+00 -0.11055206776E+04  0.11055206776E+04  0.50400001928E-02 0.  1.
    10030    2    1    2    0    0  0.00000000000E+00  0.00000000000E+00  0.53964458514E+03  0.27506859404E+04  0.26972313331E+04 0.  0.
        3    1    3    3  502    0 -0.80765385720E+03  0.54030883171E+03  0.12235164664E+04  0.15624438999E+04  0.10100000352E+00 0. -1.
       -3    1    3    3    0  502  0.80765385720E+03 -0.54030883171E+03 -0.68387188121E+03  0.11882420405E+04  0.10100000352E+00 0.  1.
</event>
<event>
 5   0  0.7806808E-07  0.2695905E+04  0.7818609E-02  0.8336335E-01
       -1   -1    0    0    0  501  0.00000000000E+00  0.00000000000E+00  0.12756810036E+04  0.12756810036E+04  0.50400001928E-02 0.  1.
        1   -1    0    0  501    0  0.00000000000E+00  0.00000000000E+00 -0.14243179777E+04  0.14243179777E+04  0.50400001928E-02 0. -1.
    10030    2    1    2    0    0  0.00000000000E+00  0.00000000000E+00 -0.14863697410E+03  0.26999989814E+04  0.26959045883E+04 0.  0.
        5    1    3    3  502    0  0.37172751135E+03 -0.12877693242E+04  0.68804541652E+02  0.13421204603E+04  0.46999998093E+01 0.  1.
       -5    1    3    3    0  502 -0.37172751135E+03  0.12877693242E+04 -0.21744151575E+03  0.13578785210E+04  0.46999998093E+01 0. -1.
</event>
<event>
 5   0  0.2030645E-06  0.2701807E+04  0.7818609E-02  0.8334419E-01
       -2   -1    0    0    0  501  0.00000000000E+00  0.00000000000E+00  0.13832401092E+04  0.13832401092E+04  0.25500000920E-02 0. -1.
        2   -1    0    0  501    0  0.00000000000E+00  0.00000000000E+00 -0.13193230626E+04  0.13193230626E+04  0.25500000920E-02 0.  1.
    10030    2    1    2    0    0  0.00000000000E+00  0.00000000000E+00  0.63917046588E+02  0.27025631718E+04  0.27018072301E+04 0.  0.
        1    1    3    3  502    0  0.20145446569E+03 -0.70026169986E+03 -0.11058966618E+04  0.13243707097E+04  0.50400001928E-02 0.  1.
       -1    1    3    3    0  502 -0.20145446569E+03  0.70026169986E+03  0.11698137084E+04  0.13781924621E+04  0.50400001928E-02 0. -1.
</event>
<event>
 5   0  0.1991277E-06  0.2699388E+04  0.7818609E-02  0.8335203E-01
        2   -1    0    0  501    0  0.00000000000E+00  0.00000000000E+00  0.17190102250E+04  0.17190102250E+04  0.25500000920E-02 0.  1.
       -2   -1    0    0    0  501  0.00000000000E+00  0.00000000000E+00 -0.10597228413E+04  0.10597228413E+04  0.25500000920E-02 0. -1.
    10030    2    1    2    0    0  0.00000000000E+00  0.00000000000E+00  0.65928738372E+03  0.27787330663E+04  0.26993883751E+04 0.  0.
        5    1    3    3  502    0  0.96242710602E+03 -0.90507554851E+03  0.61384698753E+03  0.14567971365E+04  0.46999998093E+01 0. -1.
       -5    1    3    3    0  502 -0.96242710602E+03  0.90507554851E+03  0.45440396192E+02  0.13219359298E+04  0.46999998093E+01 0.  1.
</event>
<event>
 5   0  0.7806808E-07  0.2708788E+04  0.7818609E-02  0.8332159E-01
        1   -1    0    0  501    0  0.00000000000E+00  0.00000000000E+00  0.18312228261E+04  0.18312228261E+04  0.50400001928E-02 0.  1.
       -1   -1    0    0    0  501  0.00000000000E+00  0.00000000000E+00 -0.10017255429E+04  0.10017255429E+04  0.50400001928E-02 0. -1.
    10030    2    1    2    0    0  0.00000000000E+00  0.00000000000E+00  0.82949728324E+03  0.28329483690E+04  0.27087876843E+04 0.  0.
        5    1    3    3  502    0 -0.30479731841E+03 -0.19499469528E+02 -0.96523178446E+03  0.10124110442E+04  0.46999998093E+01 0. -1.
       -5    1    3    3    0  502  0.30479731841E+03  0.19499469528E+02  0.17947290677E+04  0.18205373248E+04  0.46999998093E+01 0.  1.
</event>
<event>
 5   0  0.7566905E-07  0.2701579E+04  0.7818609E-02  0.8334493E-01
        1   -1    0    0  501    0  0.00000000000E+00  0.00000000000E+00  0.11126489678E+04  0.11126489678E+04  0.50400001928E-02 0. -1.
       -1   -1    0    0    0  501  0.00000000000E+00  0.00000000000E+00 -0.16398998972E+04  0.16398998972E+04  0.50400001928E-02 0.  1.
    10030    2    1    2    0    0  0.00000000000E+00  0.00000000000E+00 -0.52725092944E+03  0.27525488650E+04  0.27015794846E+04 0.  0.
        1    1    3    3  502    0 -0.10383908821E+04  0.33975234301E+03 -0.10729324017E+04  0.15312972334E+04  0.50400001928E-02 0.  1.
       -1    1    3    3    0  502  0.10383908821E+04 -0.33975234301E+03  0.54568147223E+03  0.12212516316E+04  0.50400001928E-02 0. -1.
</event>
<event>
 5   0  0.1999104E-06  0.2700399E+04  0.7818609E-02  0.8334875E-01
       -2   -1    0    0    0  501  0.00000000000E+00  0.00000000000E+00  0.69720329329E+03  0.69720329329E+03  0.25500000920E-02 0. -1.
        2   -1    0    0  501    0  0.00000000000E+00  0.00000000000E+00 -0.26147884575E+04  0.26147884575E+04  0.25500000920E-02 0.  1.
    10030    2    1    2    0    0  0.00000000000E+00  0.00000000000E+00 -0.19175851642E+04  0.33119917508E+04  0.27003993214E+04 0.  0.
        4    1    3    3  502    0 -0.55576664486E+03  0.26507990726E+03  0.51497449492E+03  0.80271057306E+03  0.12699999809E+01 0. -1.
       -4    1    3    3    0  502  0.55576664486E+03 -0.26507990726E+03 -0.24325596591E+04  0.25092811777E+04  0.12699999809E+01 0.  1.
</event>
<event>
 5   0  0.7566905E-07  0.2697179E+04  0.7818609E-02  0.8335921E-01
        1   -1    0    0  501    0  0.00000000000E+00  0.00000000000E+00  0.17173803394E+04  0.17173803394E+04  0.50400001928E-02 0.  1.
       -1   -1    0    0    0  501  0.00000000000E+00  0.00000000000E+00 -0.10589926351E+04  0.10589926351E+04  0.50400001928E-02 0. -1.
    10030    2    1    2    0    0  0.00000000000E+00  0.00000000000E+00  0.65838770430E+03  0.27763729745E+04  0.26971786230E+04 0.  0.
        1    1    3    3  502    0  0.61142157701E+02 -0.12101196502E+04 -0.28027638249E+03  0.12436570194E+04  0.50400001928E-02 0. -1.
       -1    1    3    3    0  502 -0.61142157701E+02  0.12101196502E+04  0.93866408679E+03  0.15327159551E+04  0.50400001928E-02 0.  1.
</event>
<event>
 5   0  0.1999104E-06  0.2708772E+04  0.7818609E-02  0.8332164E-01
        2   -1    0    0  501    0  0.00000000000E+00  0.00000000000E+00  0.27181719990E+04  0.27181719990E+04  0.25500000920E-02 0.  1.
       -2   -1    0    0    0  501  0.00000000000E+00  0.00000000000E+00 -0.67485098792E+03  0.67485098793E+03  0.25500000920E-02 0. -1.
    10030    2    1    2    0    0  0.00000000000E+00  0.00000000000E+00  0.20433210111E+04  0.33930229869E+04  0.27087717208E+04 0.  0.
        4    1    3    3  502    0  0.48013674908E+03  0.47908868425E+03 -0.44677715068E+03  0.81219991410E+03  0.12699999809E+01 0. -1.
       -4    1    3    3    0  502 -0.48013674908E+03 -0.47908868425E+03  0.24900981617E+04  0.25808230728E+04  0.12699999809E+01 0.  1.
</event>
<event>
 5   0  0.2030645E-06  0.2701957E+04  0.7818609E-02  0.8334370E-01
       -2   -1    0    0    0  501  0.00000000000E+00  0.00000000000E+00  0.17530241632E+04  0.17530241632E+04  0.25500000920E-02 0. -1.
        2   -1    0    0  501    0  0.00000000000E+00  0.00000000000E+00 -0.10411393703E+04  0.10411393703E+04  0.25500000920E-02 0.  1.
    10030    2    1    2    0    0  0.00000000000E+00  0.00000000000E+00  0.71188479281E+03  0.27941635335E+04  0.27019566787E+04 0.  0.
        1    1    3    3  502    0  0.87152951011E+03 -0.40840555204E+03 -0.62445247465E+03  0.11473010394E+04  0.50400001928E-02 0.  1.
       -1    1    3    3    0  502 -0.87152951011E+03  0.40840555204E+03  0.13363372675E+04  0.16468624941E+04  0.50400001928E-02 0. -1.
</event>
<event>
 5   0  0.7436613E-07  0.2705572E+04  0.7818609E-02  0.8333199E-01
        1   -1    0    0  501    0  0.00000000000E+00  0.00000000000E+00  0.15157987076E+04  0.15157987076E+04  0.50400001928E-02 0. -1.
       -1   -1    0    0    0  501  0.00000000000E+00  0.00000000000E+00 -0.12073044625E+04  0.12073044625E+04  0.50400001928E-02 0.  1.
    10030    2    1    2    0    0  0.00000000000E+00  0.00000000000E+00  0.30849424503E+03  0.27231031701E+04  0.27055724303E+04 0.  0.
        2    1    3    3  502    0 -0.61910828748E+03  0.59561944058E+03 -0.89749888461E+03  0.12424016410E+04  0.25500000920E-02 0.  1.
       -2    1    3    3    0  502  0.61910828748E+03 -0.59561944058E+03  0.12059931296E+04  0.14807015291E+04  0.25500000920E-02 0. -1.
</event>
<event>
 5   0  0.7566905E-07  0.2700467E+04  0.7818609E-02  0.8334853E-01
       -1   -1    0    0    0  501  0.00000000000E+00  0.00000000000E+00  0.17609484629E+04  0.17609484629E+04  0.50400001928E-02 0. -1.
        1   -1    0    0  501    0  0.00000000000E+00  0.00000000000E+00 -0.10353118701E+04  0.10353118701E+04  0.50400001928E-02 0.  1.
    10030    2    1    2    0    0  0.00000000000E+00  0.00000000000E+00  0.72563659279E+03  0.27962603330E+04  0.27004672532E+04 0.  0.
        1    1    3    3  502    0 -0.10993918563E+04 -0.78354916656E+03  0.38641017808E+03  0.14042523192E+04  0.50400001928E-02 0. -1.
       -1    1    3    3    0  502  0.10993918563E+04  0.78354916656E+03  0.33922641471E+03  0.13920080139E+04  0.50400001928E-02 0.  1.
</event>
<event>
 5   0  0.6561875E-07  0.2701991E+04  0.7818609E-02  0.8334359E-01
       -3   -1    0    0    0  501  0.00000000000E+00  0.00000000000E+00  0.13196462456E+04  0.13196462495E+04  0.10100000352E+00 0.  1.
        3   -1    0    0  501    0  0.00000000000E+00  0.00000000000E+00 -0.13830892740E+04  0.13830892777E+04  0.10100000352E+00 0. -1.
    10030    2    1    2    0    0  0.00000000000E+00  0.00000000000E+00 -0.63443028396E+02  0.27027355272E+04  0.27019908054E+04 0.  0.
        3    1    3    3  502    0 -0.12546269484E+04  0.12973807179E+03  0.45242410066E+03  0.13400031060E+04  0.10100000352E+00 0. -1.
       -3    1    3    3    0  502  0.12546269484E+04 -0.12973807179E+03 -0.51586712906E+03  0.13627324213E+04  0.10100000352E+00 0.  1.
</event>
<event>
 5   0  0.1999104E-06  0.2701711E+04  0.7818609E-02  0.8334450E-01
        2   -1    0    0  501    0  0.00000000000E+00  0.00000000000E+00  0.14930408626E+04  0.14930408626E+04  0.25500000920E-02 0.  1.
       -2   -1    0    0    0  501  0.00000000000E+00  0.00000000000E+00 -0.12222106664E+04  0.12222106664E+04  0.25500000920E-02 0. -1.
    10030    2    1    2    0    0  0.00000000000E+00  0.00000000000E+00  0.27083019623E+03  0.27152515291E+04  0.27017109155E+04 0.  0.
        4    1    3    3  502    0  0.73155968297E+03 -0.73167785553E+03 -0.73742876885E+03  0.12705647784E+04  0.12699999809E+01 0. -1.
       -4    1    3    3    0  502 -0.73155968297E+03  0.73167785553E+03  0.10082589651E+04  0.14446867507E+04  0.12699999809E+01 0.  1.
</event>
<event>
 5   0  0.7768032E-07  0.2693335E+04  0.7818609E-02  0.8337171E-01
       -1   -1    0    0    0  501  0.00000000000E+00  0.00000000000E+00  0.10855593999E+04  0.10855593999E+04  0.50400001928E-02 0. -1.
        1   -1    0    0  501    0  0.00000000000E+00  0.00000000000E+00 -0.16705798891E+04  0.16705798891E+04  0.50400001928E-02 0.  1.
    10030    2    1    2    0    0  0.00000000000E+00  0.00000000000E+00 -0.58502048917E+03  0.27561392890E+04  0.26933352571E+04 0.  0.
        4    1    3    3  502    0 -0.83196566948E+03 -0.82285970169E+03  0.38955050621E+03  0.12332948446E+04  0.12699999809E+01 0. -1.
       -4    1    3    3    0  502  0.83196566948E+03  0.82285970169E+03 -0.97457099539E+03  0.15228444444E+04  0.12699999809E+01 0.  1.
</event>
<event>
 5   0  0.1999104E-06  0.2695376E+04  0.7818609E-02  0.8336507E-01
        2   -1    0    0  501    0  0.00000000000E+00  0.00000000000E+00  0.80514903178E+03  0.80514903178E+03  0.25500000920E-02 0. -1.
       -2   -1    0    0    0  501  0.00000000000E+00  0.00000000000E+00 -0.22558101194E+04  0.22558101195E+04  0.25500000920E-02 0.  1.
    10030    2    1    2    0    0  0.00000000000E+00  0.00000000000E+00 -0.14506610877E+04  0.30609591512E+04  0.26953762881E+04 0.  0.
        4    1    3    3  502    0 -0.20311367728E+03  0.29277888040E+03 -0.22013424510E+04  0.22299966005E+04  0.12699999809E+01 0.  1.
       -4    1    3    3    0  502  0.20311367728E+03 -0.29277888040E+03  0.75068136329E+03  0.83096255078E+03  0.12699999809E+01 0. -1.
</event>
<event>
 5   0  0.7436613E-07  0.2700674E+04  0.7818609E-02  0.8334786E-01
       -1   -1    0    0    0  501  0.00000000000E+00  0.00000000000E+00  0.78979185168E+03  0.78979185169E+03  0.50400001928E-02 0. -1.
        1   -1    0    0  501    0  0.00000000000E+00  0.00000000000E+00 -0.23087216668E+04  0.23087216668E+04  0.50400001928E-02 0.  1.
    10030    2    1    2    0    0  0.00000000000E+00  0.00000000000E+00 -0.15189298151E+04  0.30985135185E+04  0.27006736643E+04 0.  0.
        2    1    3    3  502    0  0.12548284154E+04  0.48164817788E+02 -0.13290854705E+04  0.18284918348E+04  0.25500000920E-02 0.  1.
       -2    1    3    3    0  502 -0.12548284154E+04 -0.48164817788E+02 -0.18984434455E+03  0.12700216837E+04  0.25500000920E-02 0. -1.
</event>
<event>
 5   0  0.2030645E-06  0.2699558E+04  0.7818609E-02  0.8335148E-01
       -2   -1    0    0    0  501  0.00000000000E+00  0.00000000000E+00  0.11252628363E+04  0.11252628363E+04  0.25500000920E-02 0.  1.
        2   -1    0    0  501    0  0.00000000000E+00  0.00000000000E+00 -0.16190913168E+04  0.16190913168E+04  0.25500000920E-02 0. -1.
    10030    2    1    2    0    0  0.00000000000E+00  0.00000000000E+00 -0.49382848051E+03  0.27443541531E+04  0.26995579545E+04 0.  0.
        1    1    3    3  502    0 -0.64437095747E+03 -0.40490186810E+03  0.88636858855E+03  0.11682502850E+04  0.50400001928E-02 0.  1.
       -1    1    3    3    0  502  0.64437095747E+03  0.40490186810E+03 -0.13801970691E+04  0.15761038681E+04  0.50400001928E-02 0. -1.
</event>
<event>
 5   0  0.7335091E-07  0.2674384E+04  0.7818609E-02  0.8343365E-01
       -1   -1    0    0    0  501  0.00000000000E+00  0.00000000000E+00  0.13237893225E+04  0.13237893225E+04  0.50400001928E-02 0. -1.
        1   -1    0    0  501    0  0.00000000000E+00  0.00000000000E+00 -0.13507305613E+04  0.13507305613E+04  0.50400001928E-02 0.  1.
    10030    2    1    2    0    0  0.00000000000E+00  0.00000000000E+00 -0.26941238771E+02  0.26745198838E+04  0.26743841867E+04 0.  0.
        3    1    3    3  502    0  0.80512544663E+03  0.68074011707E+03  0.80903606125E+03  0.13289745861E+04  0.10100000352E+00 0. -1.
       -3    1    3    3    0  502 -0.80512544663E+03 -0.68074011707E+03 -0.83597730002E+03  0.13455452977E+04  0.10100000352E+00 0.  1.
</event>
<event>
 5   0  0.7566905E-07  0.2696818E+04  0.7818609E-02  0.8336038E-01
       -1   -1    0    0    0  501  0.00000000000E+00  0.00000000000E+00  0.15431032394E+04  0.15431032394E+04  0.50400001928E-02 0.  1.
        1   -1    0    0  501    0  0.00000000000E+00  0.00000000000E+00 -0.11782792866E+04  0.11782792866E+04  0.50400001928E-02 0. -1.
    10030    2    1    2    0    0  0.00000000000E+00  0.00000000000E+00  0.36482395282E+03  0.27213825260E+04  0.26968178166E+04 0.  0.
        1    1    3    3  502    0  0.18408903388E+03 -0.12036323681E+04  0.76698733525E+03  0.14390584499E+04  0.50400001928E-02 0.  1.
       -1    1    3    3    0  502 -0.18408903388E+03  0.12036323681E+04 -0.40216338243E+03  0.12823240761E+04  0.50400001928E-02 0. -1.
</event>
<event>
 5   0  0.7335091E-07  0.2704027E+04  0.7818609E-02  0.8333700E-01
       -1   -1    0    0    0  501  0.00000000000E+00  0.00000000000E+00  0.11648073515E+04  0.11648073515E+04  0.50400001928E-02 0. -1.
        1   -1    0    0  501    0  0.00000000000E+00  0.00000000000E+00 -0.15693068917E+04  0.15693068917E+04  0.50400001928E-02 0.  1.
    10030    2    1    2    0    0  0.00000000000E+00  0.00000000000E+00 -0.40449954017E+03  0.27341142432E+04  0.27040267782E+04 0.  0.
        3    1    3    3  502    0  0.60262770814E+03 -0.66068052854E+02 -0.14241727134E+04  0.15478349622E+04  0.10100000352E+00 0.  1.
       -3    1    3    3    0  502 -0.60262770814E+03  0.66068052854E+02  0.10196731733E+04  0.11862792811E+04  0.10100000352E+00 0. -1.
</event>
<event>
 5   0  0.2063087E-06  0.2701016E+04  0.7818609E-02  0.8334675E-01
        2   -1    0    0  501    0  0.00000000000E+00  0.00000000000E+00  0.14659959602E+04  0.14659959602E+04  0.25500000920E-02 0.  1.
       -2   -1    0    0    0  501  0.00000000000E+00  0.00000000000E+00 -0.12441178057E+04  0.12441178057E+04  0.25500000920E-02 0. -1.
    10030    2    1    2    0    0  0.00000000000E+00  0.00000000000E+00  0.22187815450E+03  0.27101137659E+04  0.27010158661E+04 0.  0.
        3    1    3    3  502    0  0.91632488459E+03  0.31376361772E+03  0.10552642099E+04  0.14323691790E+04  0.10100000352E+00 0.  1.
       -3    1    3    3    0  502 -0.91632488459E+03 -0.31376361772E+03 -0.83338605541E+03  0.12777445869E+04  0.10100000352E+00 0. -1.
</event>
<event>
 5   0  0.1932012E-06  0.2698397E+04  0.7818609E-02  0.8335525E-01
        2   -1    0    0  501    0  0.00000000000E+00  0.00000000000E+00  0.18605013993E+04  0.18605013993E+04  0.25500000920E-02 0.  1.
       -2   -1    0    0    0  501  0.00000000000E+00  0.00000000000E+00 -0.97841172609E+03  0.97841172610E+03  0.25500000920E-02 0. -1.
    10030    2    1    2    0    0  0.00000000000E+00  0.00000000000E+00  0.88208967322E+03  0.28389131254E+04  0.26983968467E+04 0.  0.
        2    1    3    3  502    0  0.76127008752E+03 -0.48637019803E+03 -0.61326152773E+03  0.10918689560E+04  0.25500000920E-02 0.  1.
       -2    1    3    3    0  502 -0.76127008752E+03  0.48637019803E+03  0.14953512009E+04  0.17470441694E+04  0.25500000920E-02 0. -1.
</event>
<event>
 5   0  0.7768032E-07  0.2700140E+04  0.7818609E-02  0.8334960E-01
        1   -1    0    0  501    0  0.00000000000E+00  0.00000000000E+00  0.13801846286E+04  0.13801846286E+04  0.50400001928E-02 0.  1.
       -1   -1    0    0    0  501  0.00000000000E+00  0.00000000000E+00 -0.13206121861E+04  0.13206121861E+04  0.50400001928E-02 0. -1.
    10030    2    1    2    0    0  0.00000000000E+00  0.00000000000E+00  0.59572442453E+02  0.27007968147E+04  0.27001397294E+04 0.  0.
        4    1    3    3  502    0 -0.70872730980E+03  0.89279390313E+03  0.75336510617E+03  0.13663586459E+04  0.12699999809E+01 0.  1.
       -4    1    3    3    0  502  0.70872730980E+03 -0.89279390313E+03 -0.69379266372E+03  0.13344381688E+04  0.12699999809E+01 0. -1.
</event>
<event>
 5   0  0.2030645E-06  0.2700262E+04  0.7818609E-02  0.8334920E-01
        2   -1    0    0  501    0  0.00000000000E+00  0.00000000000E+00  0.19315668774E+04  0.19315668774E+04  0.25500000920E-02 0.  1.
       -2   -1    0    0    0  501  0.00000000000E+00  0.00000000000E+00 -0.94371729609E+03  0.94371729610E+03  0.25500000920E-02 0. -1.
    10030    2    1    2    0    0  0.00000000000E+00  0.00000000000E+00  0.98784958128E+03  0.28752841735E+04  0.27002615212E+04 0.  0.
        1    1    3    3  502    0 -0.61151102750E+03  0.72428986147E+02 -0.78547894602E+03  0.99808259651E+03  0.50400001928E-02 0. -1.
       -1    1    3    3    0  502  0.61151102750E+03 -0.72428986147E+02  0.17733285273E+04  0.18772015770E+04  0.50400001928E-02 0.  1.
</event>
<event>
 5   0  0.6561875E-07  0.2690148E+04  0.7818609E-02  0.8338209E-01
        4   -1    0    0  501    0  0.00000000000E+00  0.00000000000E+00  0.19573692567E+04  0.19573696687E+04  0.12699999809E+01 0. -1.
       -4   -1    0    0    0  501  0.00000000000E+00  0.00000000000E+00 -0.92431329637E+03  0.92431416885E+03  0.12699999809E+01 0.  1.
    10030    2    1    2    0    0  0.00000000000E+00  0.00000000000E+00  0.10330559603E+04  0.28816838376E+04  0.26901481600E+04 0.  0.
        5    1    3    3  502    0 -0.75264260000E+03  0.63592371562E+03 -0.46426701277E+03  0.10892363401E+04  0.46999998093E+01 0.  1.
       -5    1    3    3    0  502  0.75264260000E+03 -0.63592371562E+03  0.14973229731E+04  0.17924474975E+04  0.46999998093E+01 0. -1.
</event>
<event>
 5   0  0.7768032E-07  0.2702338E+04  0.7818609E-02  0.8334247E-01
       -1   -1    0    0    0  501  0.00000000000E+00  0.00000000000E+00  0.11936954136E+04  0.11936954136E+04  0.50400001928E-02 0. -1.
        1   -1    0    0  501    0  0.00000000000E+00  0.00000000000E+00 -0.15294166359E+04  0.15294166359E+04  0.50400001928E-02 0.  1.
    10030    2    1    2    0    0  0.00000000000E+00  0.00000000000E+00 -0.33572122230E+03  0.27231120496E+04  0.27023379684E+04 0.  0.
        4    1    3    3  502    0  0.64108091815E+03 -0.10577945811E+04 -0.71586277299E+03  0.14291169449E+04  0.12699999809E+01 0.  1.
       -4    1    3    3    0  502 -0.64108091815E+03  0.10577945811E+04  0.38014155069E+03  0.12939951047E+04  0.12699999809E+01 0. -1.
</event>
<event>
 5   0  0.2030645E-06  0.2691488E+04  0.7818609E-02  0.8337772E-01
       -2   -1    0    0    0  501  0.00000000000E+00  0.00000000000E+00  0.78231490692E+03  0.78231490693E+03  0.25500000920E-02 0. -1.
        2   -1    0    0  501    0  0.00000000000E+00  0.00000000000E+00 -0.23149596051E+04  0.23149596051E+04  0.25500000920E-02 0.  1.
    10030    2    1    2    0    0  0.00000000000E+00  0.00000000000E+00 -0.15326446982E+04  0.30972745121E+04  0.26914883675E+04 0.  0.
        1    1    3    3  502    0 -0.29397455935E+03 -0.79299805278E+03 -0.19709282964E+04  0.21447203321E+04  0.50400001928E-02 0.  1.
       -1    1    3    3    0  502  0.29397455935E+03  0.79299805278E+03  0.43828359823E+03  0.95255417996E+03  0.50400001928E-02 0. -1.
</event>
<event>
 5   0  0.7566905E-07  0.2702044E+04  0.7818609E-02  0.8334342E-01
       -1   -1    0    0    0  501  0.00000000000E+00  0.00000000000E+00  0.15297881574E+04  0.15297881574E+04  0.50400001928E-02 0.  1.
        1   -1    0    0  501    0  0.00000000000E+00  0.00000000000E+00 -0.11931462768E+04  0.11931462768E+04  0.50400001928E-02 0. -1.
    10030    2    1    2    0    0  0.00000000000E+00  0.00000000000E+00  0.33664188055E+03  0.27229344342E+04  0.27020444440E+04 0.  0.
        1    1    3    3  502    0  0.31481998157E+03  0.31642222073E+03 -0.11166949330E+04  0.12025981108E+04  0.50400001928E-02 0. -1.
       -1    1    3    3    0  502 -0.31481998157E+03 -0.31642222073E+03  0.14533368136E+04  0.15203363234E+04  0.50400001928E-02 0.  1.
</event>
<event>
 5   0  0.2030645E-06  0.2692913E+04  0.7818609E-02  0.8337308E-01
       -2   -1    0    0    0  501  0.00000000000E+00  0.00000000000E+00  0.10634471388E+04  0.10634471388E+04  0.25500000920E-02 0. -1.
        2   -1    0    0  501    0  0.00000000000E+00  0.00000000000E+00 -0.17047816285E+04  0.17047816285E+04  0.25500000920E-02 0.  1.
    10030    2    1    2    0    0  0.00000000000E+00  0.00000000000E+00 -0.64133448972E+03  0.27682287674E+04  0.26929130288E+04 0.  0.
        1    1    3    3  502    0 -0.32686604032E+03  0.74167021524E+03  0.78459165286E+03  0.11280514963E+04  0.50400001928E-02 0. -1.
       -1    1    3    3    0  502  0.32686604032E+03 -0.74167021524E+03 -0.14259261426E+04  0.16401772711E+04  0.50400001928E-02 0.  1.
</event>
<event>
 5   0  0.7768032E-07  0.2707579E+04  0.7818609E-02  0.8332550E-01
        1   -1    0    0  501    0  0.00000000000E+00  0.00000000000E+00  0.12514816363E+04  0.12514816363E+04  0.50400001928E-02 0. -1.
       -1   -1    0    0    0  501  0.00000000000E+00  0.00000000000E+00 -0.14644604297E+04  0.14644604297E+04  0.50400001928E-02 0.  1.
    10030    2    1    2    0    0  0.00000000000E+00  0.00000000000E+00 -0.21297879346E+03  0.27159420660E+04  0.27075785010E+04 0.  0.
        4    1    3    3  502    0 -0.84709403501E+03 -0.65889843137E+03  0.72130411179E+03  0.12930571069E+04  0.12699999809E+01 0. -1.
       -4    1    3    3    0  502  0.84709403501E+03  0.65889843137E+03 -0.93428290525E+03  0.14228849591E+04  0.12699999809E+01 0.  1.
</event>
<event>
 5   0  0.1932012E-06  0.2629344E+04  0.7818609E-02  0.8358302E-01
        2   -1    0    0  501    0  0.00000000000E+00  0.00000000000E+00  0.16361249480E+04  0.16361249480E+04  0.25500000920E-02 0.  1.
       -2   -1    0    0    0  501  0.00000000000E+00  0.00000000000E+00 -0.10563753234E+04  0.10563753234E+04  0.25500000920E-02 0. -1.
    10030    2    1    2    0    0  0.00000000000E+00  0.00000000000E+00  0.57974962454E+03  0.26925002714E+04  0.26293436604E+04 0.  0.
        2    1    3    3  502    0  0.90709825214E+03  0.33052092472E+03 -0.62391060843E+03  0.11494937007E+04  0.25500000920E-02 0. -1.
       -2    1    3    3    0  502 -0.90709825214E+03 -0.33052092472E+03  0.12036602330E+04  0.15430065707E+04  0.25500000920E-02 0.  1.
</event>
<event>
 5   0  0.1932012E-06  0.2698991E+04  0.7818609E-02  0.8335333E-01
        2   -1    0    0  501    0  0.00000000000E+00  0.00000000000E+00  0.19186171678E+04  0.19186171678E+04  0.25500000920E-02 0.  1.
       -2   -1    0    0    0  501  0.00000000000E+00  0.00000000000E+00 -0.94919277275E+03  0.94919277275E+03  0.25500000920E-02 0. -1.
    10030    2    1    2    0    0  0.00000000000E+00  0.00000000000E+00  0.96942439509E+03  0.28678099406E+04  0.26989905886E+04 0.  0.
        2    1    3    3  502    0  0.10937185614E+03  0.44970937531E+03  0.18316526529E+04  0.18892199888E+04  0.25500000920E-02 0.  1.
       -2    1    3    3    0  502 -0.10937185614E+03 -0.44970937531E+03 -0.86222825782E+03  0.97858995179E+03  0.25500000920E-02 0. -1.
</event>
<event>
 5   0  0.7768032E-07  0.2701441E+04  0.7818609E-02  0.8334538E-01
       -1   -1    0    0    0  501  0.00000000000E+00  0.00000000000E+00  0.11162634094E+04  0.11162634094E+04  0.50400001928E-02 0.  1.
        1   -1    0    0  501    0  0.00000000000E+00  0.00000000000E+00 -0.16344223292E+04  0.16344223292E+04  0.50400001928E-02 0. -1.
    10030    2    1    2    0    0  0.00000000000E+00  0.00000000000E+00 -0.51815891981E+03  0.27506857385E+04  0.27014409796E+04 0.  0.
        4    1    3    3  502    0 -0.34422888841E+03  0.12903850453E+03 -0.15825029931E+04  0.16246420527E+04  0.12699999809E+01 0. -1.
       -4    1    3    3    0  502  0.34422888841E+03 -0.12903850453E+03  0.10643440733E+04  0.11260436859E+04  0.12699999809E+01 0.  1.
</event>
<event>
 5   0  0.7806808E-07  0.2709346E+04  0.7818609E-02  0.8331979E-01
        1   -1    0    0  501    0  0.00000000000E+00  0.00000000000E+00  0.19296990666E+04  0.19296990666E+04  0.50400001928E-02 0.  1.
       -1   -1    0    0    0  501  0.00000000000E+00  0.00000000000E+00 -0.95099764560E+03  0.95099764561E+03  0.50400001928E-02 0. -1.
    10030    2    1    2    0    0  0.00000000000E+00  0.00000000000E+00  0.97870142097E+03  0.28806967122E+04  0.27093462452E+04 0.  0.
        5    1    3    3  502    0  0.13336338497E+03  0.67315712398E+03  0.17312048715E+04  0.18622617172E+04  0.46999998093E+01 0.  1.
       -5    1    3    3    0  502 -0.13336338497E+03 -0.67315712398E+03 -0.75250345055E+03  0.10184349950E+04  0.46999998093E+01 0. -1.
</event>
<event>
 5   0  0.7436613E-07  0.2701141E+04  0.7818609E-02  0.8334635E-01
        1   -1    0    0  501    0  0.00000000000E+00  0.00000000000E+00  0.11451065901E+04  0.11451065901E+04  0.50400001928E-02 0. -1.
       -1   -1    0    0    0  501  0.00000000000E+00  0.00000000000E+00 -0.15929001302E+04  0.15929001302E+04  0.50400001928E-02 0.  1.
    10030    2    1    2    0    0  0.00000000000E+00  0.00000000000E+00 -0.44779354006E+03  0.27380067203E+04  0.27011408230E+04 0.  0.
        2    1    3    3  502    0  0.77689439797E+03  0.37160564612E+03 -0.12784733456E+04  0.15414764862E+04  0.25500000920E-02 0.  1.
       -2    1    3    3    0  502 -0.77689439797E+03 -0.37160564612E+03  0.83067980558E+03  0.11965302341E+04  0.25500000920E-02 0. -1.
</event>
<event>
 5   0  0.2063087E-06  0.2699651E+04  0.7818609E-02  0.8335118E-01
       -2   -1    0    0    0  501  0.00000000000E+00  0.00000000000E+00  0.87072055672E+03  0.87072055672E+03  0.25500000920E-02 0. -1.
        2   -1    0    0  501    0  0.00000000000E+00  0.00000000000E+00 -0.20925522269E+04  0.20925522269E+04  0.25500000920E-02 0.  1.
    10030    2    1    2    0    0  0.00000000000E+00  0.00000000000E+00 -0.12218316701E+04  0.29632727836E+04  0.26996505255E+04 0.  0.
        3    1    3    3  502    0  0.12814474111E+04  0.19310231065E+03 -0.10254620617E+04  0.16525641954E+04  0.10100000352E+00 0.  1.
       -3    1    3    3    0  502 -0.12814474111E+04 -0.19310231065E+03 -0.19636960841E+03  0.13107085882E+04  0.10100000352E+00 0. -1.
</event>
<event>
 5   0  0.7436613E-07  0.2696538E+04  0.7818609E-02  0.8336129E-01
       -1   -1    0    0    0  501  0.00000000000E+00  0.00000000000E+00  0.24379591088E+04  0.24379591088E+04  0.50400001928E-02 0.  1.
        1   -1    0    0  501    0  0.00000000000E+00  0.00000000000E+00 -0.74563581238E+03  0.74563581240E+03  0.50400001928E-02 0. -1.
    10030    2    1    2    0    0  0.00000000000E+00  0.00000000000E+00  0.16923232964E+04  0.31835949212E+04  0.26965382405E+04 0.  0.
        2    1    3    3  502    0  0.66796835106E+03  0.10406787272E+04  0.14804492678E+04  0.19289696643E+04  0.25500000920E-02 0. -1.
       -2    1    3    3    0  502 -0.66796835106E+03 -0.10406787272E+04  0.21187402858E+03  0.12546252569E+04  0.25500000920E-02 0.  1.
</event>
<event>
 5   0  0.7566905E-07  0.2708529E+04  0.7818609E-02  0.8332243E-01
       -1   -1    0    0    0  501  0.00000000000E+00  0.00000000000E+00  0.12890861615E+04  0.12890861615E+04  0.50400001928E-02 0.  1.
        1   -1    0    0  501    0  0.00000000000E+00  0.00000000000E+00 -0.14227388744E+04  0.14227388744E+04  0.50400001928E-02 0. -1.
    10030    2    1    2    0    0  0.00000000000E+00  0.00000000000E+00 -0.13365271289E+03  0.27118250359E+04  0.27085294862E+04 0.  0.
        1    1    3    3  502    0  0.10536907560E+04 -0.11098757799E+02  0.78488230084E+03  0.13139359261E+04  0.50400001928E-02 0.  1.
       -1    1    3    3    0  502 -0.10536907560E+04  0.11098757799E+02 -0.91853501373E+03  0.13978891098E+04  0.50400001928E-02 0. -1.
</event>
<event>
 5   0  0.2030645E-06  0.2698889E+04  0.7818609E-02  0.8335365E-01
       -2   -1    0    0    0  501  0.00000000000E+00  0.00000000000E+00  0.13580130175E+04  0.13580130175E+04  0.25500000920E-02 0.  1.
        2   -1    0    0  501    0  0.00000000000E+00  0.00000000000E+00 -0.13409301908E+04  0.13409301908E+04  0.25500000920E-02 0. -1.
    10030    2    1    2    0    0  0.00000000000E+00  0.00000000000E+00  0.17082826666E+02  0.26989432083E+04  0.26988891453E+04 0.  0.
        1    1    3    3  502    0  0.75779291838E+03  0.60707125361E+03  0.94569146801E+03  0.13554032488E+04  0.50400001928E-02 0.  1.
       -1    1    3    3    0  502 -0.75779291838E+03 -0.60707125361E+03 -0.92860864134E+03  0.13435399595E+04  0.50400001928E-02 0. -1.
</event>
<event>
 5   0  0.6561875E-07  0.2703278E+04  0.7818609E-02  0.8333942E-01
       -3   -1    0    0    0  501  0.00000000000E+00  0.00000000000E+00  0.18184552000E+04  0.18184552028E+04  0.10100000352E+00 0. -1.
        3   -1    0    0  501    0  0.00000000000E+00  0.00000000000E+00 -0.10046594067E+04  0.10046594118E+04  0.10100000352E+00 0.  1.
    10030    2    1    2    0    0  0.00000000000E+00  0.00000000000E+00  0.81379579328E+03  0.28231146146E+04  0.27032781088E+04 0.  0.
        2    1    3    3  502    0 -0.79773281642E+03  0.10907867676E+04  0.37859068276E+03  0.14033974219E+04  0.25500000920E-02 0.  1.
       -2    1    3    3    0  502  0.79773281642E+03 -0.10907867676E+04  0.43520511053E+03  0.14197171926E+04  0.25500000920E-02 0. -1.
</event>
<event>
 5   0  0.7806808E-07  0.2698108E+04  0.7818609E-02  0.8335619E-01
       -1   -1    0    0    0  501  0.00000000000E+00  0.00000000000E+00  0.85929828077E+03  0.85929828079E+03  0.50400001928E-02 0.  1.
        1   -1    0    0  501    0  0.00000000000E+00  0.00000000000E+00 -0.21179445546E+04  0.21179445546E+04  0.50400001928E-02 0. -1.
    10030    2    1    2    0    0  0.00000000000E+00  0.00000000000E+00 -0.12586462738E+04  0.29772428354E+04  0.26981075698E+04 0.  0.
        5    1    3    3  502    0 -0.70911698842E+03  0.98456396035E+03  0.21351935776E+02  0.12135448448E+04  0.46999998093E+01 0.  1.
       -5    1    3    3    0  502  0.70911698842E+03 -0.98456396035E+03 -0.12799982096E+04  0.17636979905E+04  0.46999998093E+01 0. -1.
</event>
<event>
 5   0  0.1932012E-06  0.2700435E+04  0.7818609E-02  0.8334864E-01
        2   -1    0    0  501    0  0.00000000000E+00  0.00000000000E+00  0.15139950142E+04  0.15139950142E+04  0.25500000920E-02 0. -1.
       -2   -1    0    0    0  501  0.00000000000E+00  0.00000000000E+00 -0.12041564662E+04  0.12041564662E+04  0.25500000920E-02 0.  1.
    10030    2    1    2    0    0  0.00000000000E+00  0.00000000000E+00  0.30983854797E+03  0.27181514804E+04  0.27004346955E+04 0.  0.
        2    1    3    3  502    0  0.11491210650E+04  0.70278537345E+03  0.61031474220E+02  0.13483735922E+04  0.25500000920E-02 0. -1.
       -2    1    3    3    0  502 -0.11491210650E+04 -0.70278537345E+03  0.24880707375E+03  0.13697778883E+04  0.25500000920E-02 0.  1.
</event>
<event>
 5   0  0.1932012E-06  0.2702805E+04  0.7818609E-02  0.8334096E-01
        2   -1    0    0  501    0  0.00000000000E+00  0.00000000000E+00  0.21774384555E+04  0.21774384555E+04  0.25500000920E-02 0. -1.
       -2   -1    0    0    0  501  0.00000000000E+00  0.00000000000E+00 -0.83873245197E+03  0.83873245198E+03  0.25500000920E-02 0.  1.
    10030    2    1    2    0    0  0.00000000000E+00  0.00000000000E+00  0.13387060035E+04  0.30161709075E+04  0.27028046876E+04 0.  0.
        2    1    3    3  502    0  0.67195306516E+03  0.24771561136E+03  0.19482645476E+04  0.20757212466E+04  0.25500000920E-02 0. -1.
       -2    1    3    3    0  502 -0.67195306516E+03 -0.24771561136E+03 -0.60955854414E+03  0.94044966087E+03  0.25500000920E-02 0.  1.
</event>
<event>
 5   0  0.7335091E-07  0.2700872E+04  0.7818609E-02  0.8334722E-01
        1   -1    0    0  501    0  0.00000000000E+00  0.00000000000E+00  0.10807565102E+04  0.10807565102E+04  0.50400001928E-02 0. -1.
       -1   -1    0    0    0  501  0.00000000000E+00  0.00000000000E+00 -0.16874082091E+04  0.16874082091E+04  0.50400001928E-02 0.  1.
    10030    2    1    2    0    0  0.00000000000E+00  0.00000000000E+00 -0.60665169893E+03  0.27681647193E+04  0.27008720127E+04 0.  0.
        3    1    3    3  502    0  0.10526956513E+04  0.41074703203E+03 -0.10612061944E+04  0.15501741372E+04  0.10100000352E+00 0.  1.
       -3    1    3    3    0  502 -0.10526956513E+04 -0.41074703203E+03  0.45455449543E+03  0.12179905821E+04  0.10100000352E+00 0. -1.
</event>
<event>
 5   0  0.1991277E-06  0.2699323E+04  0.7818609E-02  0.8335225E-01
       -2   -1    0    0    0  501  0.00000000000E+00  0.00000000000E+00  0.95690517995E+03  0.95690517996E+03  0.25500000920E-02 0. -1.
        2   -1    0    0  501    0  0.00000000000E+00  0.00000000000E+00 -0.19036218557E+04  0.19036218557E+04  0.25500000920E-02 0.  1.
    10030    2    1    2    0    0  0.00000000000E+00  0.00000000000E+00 -0.94671667580E+03  0.28605270357E+04  0.26993225924E+04 0.  0.
        5    1    3    3  502    0 -0.20543201363E+03 -0.29336133343E+03  0.90562260688E+03  0.97387760025E+03  0.46999998093E+01 0. -1.
       -5    1    3    3    0  502  0.20543201363E+03  0.29336133343E+03 -0.18523392827E+04  0.18866494355E+04  0.46999998093E+01 0.  1.
</event>
<event>
 5   0  0.7768032E-07  0.2698555E+04  0.7818609E-02  0.8335474E-01
       -1   -1    0    0    0  501  0.00000000000E+00  0.00000000000E+00  0.70123180449E+03  0.70123180451E+03  0.50400001928E-02 0. -1.
        1   -1    0    0  501    0  0.00000000000E+00  0.00000000000E+00 -0.25962173860E+04  0.25962173860E+04  0.50400001928E-02 0.  1.
    10030    2    1    2    0    0  0.00000000000E+00  0.00000000000E+00 -0.18949855815E+04  0.32974491905E+04  0.26985553190E+04 0.  0.
        4    1    3    3  502    0  0.96936155922E+03  0.85176680382E+03 -0.14291570725E+04  0.19255285174E+04  0.12699999809E+01 0.  1.
       -4    1    3    3    0  502 -0.96936155922E+03 -0.85176680382E+03 -0.46582850899E+03  0.13719206731E+04  0.12699999809E+01 0. -1.
</event>
<event>
 5   0  0.1932012E-06  0.2699709E+04  0.7818609E-02  0.8335099E-01
       -2   -1    0    0    0  501  0.00000000000E+00  0.00000000000E+00  0.10859722136E+04  0.10859722136E+04  0.25500000920E-02 0. -1.
        2   -1    0    0  501    0  0.00000000000E+00  0.00000000000E+00 -0.16778581250E+04  0.16778581250E+04  0.25500000920E-02 0.  1.
    10030    2    1    2    0    0  0.00000000000E+00  0.00000000000E+00 -0.59188591146E+03  0.27638303386E+04  0.26997090970E+04 0.  0.
        2    1    3    3  502    0 -0.87305664777E+03 -0.70383449033E+03  0.47323175870E+03  0.12171931636E+04  0.25500000920E-02 0. -1.
       -2    1    3    3    0  502  0.87305664777E+03  0.70383449033E+03 -0.10651176702E+04  0.15466371751E+04  0.25500000920E-02 0.  1.
</event>
<event>
 5   0  0.7806808E-07  0.2699807E+04  0.7818609E-02  0.8335068E-01
        1   -1    0    0  501    0  0.00000000000E+00  0.00000000000E+00  0.29483315146E+04  0.29483315146E+04  0.50400001928E-02 0. -1.
       -1   -1    0    0    0  501  0.00000000000E+00  0.00000000000E+00 -0.61805785423E+03  0.61805785425E+03  0.50400001928E-02 0.  1.
    10030    2    1    2    0    0  0.00000000000E+00  0.00000000000E+00  0.23302736604E+04  0.35663893689E+04  0.26998069928E+04 0.  0.
        5    1    3    3  502    0  0.95668366561E+03 -0.90154824230E+03  0.75973497238E+03  0.15183056963E+04  0.46999998093E+01 0.  1.
       -5    1    3    3    0  502 -0.95668366561E+03  0.90154824230E+03  0.15705386880E+04  0.20480836725E+04  0.46999998093E+01 0. -1.
</event>
<event>
 5   0  0.6561875E-07  0.2699323E+04  0.7818609E-02  0.8335225E-01
        3   -1    0    0  501    0  0.00000000000E+00  0.00000000000E+00  0.18118189980E+04  0.18118190008E+04  0.10100000352E+00 0.  1.
       -3   -1    0    0    0  501  0.00000000000E+00  0.00000000000E+00 -0.10053908298E+04  0.10053908349E+04  0.10100000352E+00 0. -1.
    10030    2    1    2    0    0  0.00000000000E+00  0.00000000000E+00  0.80642816819E+03  0.28172098357E+04  0.26993230389E+04 0.  0.
        4    1    3    3  502    0 -0.39572493802E+03 -0.83777205499E+03  0.14274630133E+04  0.17017968474E+04  0.12699999809E+01 0.  1.
       -4    1    3    3    0  502  0.39572493802E+03  0.83777205499E+03 -0.62103484513E+03  0.11154129883E+04  0.12699999809E+01 0. -1.
</event>
<event>
 5   0  0.7436613E-07  0.2692617E+04  0.7818609E-02  0.8337404E-01
       -1   -1    0    0    0  501  0.00000000000E+00  0.00000000000E+00  0.11755987651E+04  0.11755987652E+04  0.50400001928E-02 0. -1.
        1   -1    0    0  501    0  0.00000000000E+00  0.00000000000E+00 -0.15418070169E+04  0.15418070169E+04  0.50400001928E-02 0.  1.
    10030    2    1    2    0    0  0.00000000000E+00  0.00000000000E+00 -0.36620825178E+03  0.27174057821E+04  0.26926168871E+04 0.  0.
        2    1    3    3  502    0  0.48141297355E+02  0.12870550096E+04  0.21257454089E+03  0.13053796834E+04  0.25500000920E-02 0. -1.
       -2    1    3    3    0  502 -0.48141297355E+02 -0.12870550096E+04 -0.57878279267E+03  0.14120260987E+04  0.25500000920E-02 0.  1.
</event>
<event>
 5   0  0.7806808E-07  0.2699404E+04  0.7818609E-02  0.8335198E-01
        1   -1    0    0  501    0  0.00000000000E+00  0.00000000000E+00  0.23140952766E+04  0.23140952766E+04  0.50400001928E-02 0. -1.
       -1   -1    0    0    0  501  0.00000000000E+00  0.00000000000E+00 -0.78721715756E+03  0.78721715757E+03  0.50400001928E-02 0.  1.
    10030    2    1    2    0    0  0.00000000000E+00  0.00000000000E+00  0.15268781191E+04  0.31013124342E+04  0.26994040127E+04 0.  0.
        5    1    3    3  502    0 -0.32333976058E+02  0.12612911604E+04  0.13141537895E+04  0.18217911926E+04  0.46999998093E+01 0. -1.
       -5    1    3    3    0  502  0.32333976058E+02 -0.12612911604E+04  0.21272432959E+03  0.12795212416E+04  0.46999998093E+01 0.  1.
</event>
<event>
 5   0  0.1932012E-06  0.2694970E+04  0.7818609E-02  0.8336639E-01
       -2   -1    0    0    0  501  0.00000000000E+00  0.00000000000E+00  0.95933517218E+03  0.95933517219E+03  0.25500000920E-02 0. -1.
        2   -1    0    0  501    0  0.00000000000E+00  0.00000000000E+00 -0.18926816751E+04  0.18926816751E+04  0.25500000920E-02 0.  1.
    10030    2    1    2    0    0  0.00000000000E+00  0.00000000000E+00 -0.93334650295E+03  0.28520168473E+04  0.26949702044E+04 0.  0.
        2    1    3    3  502    0  0.40027998834E+03 -0.10336469248E+04 -0.12775252803E+04  0.16913665706E+04  0.25500000920E-02 0. -1.
       -2    1    3    3    0  502 -0.40027998834E+03  0.10336469248E+04  0.34417877734E+03  0.11606502768E+04  0.25500000920E-02 0.  1.
</event>
<event>
 5   0  0.1932012E-06  0.2698213E+04  0.7818609E-02  0.8335585E-01
        2   -1    0    0  501    0  0.00000000000E+00  0.00000000000E+00  0.20448216427E+04  0.20448216427E+04  0.25500000920E-02 0. -1.
       -2   -1    0    0    0  501  0.00000000000E+00  0.00000000000E+00 -0.89009640538E+03  0.89009640539E+03  0.25500000920E-02 0.  1.
    10030    2    1    2    0    0  0.00000000000E+00  0.00000000000E+00  0.11547252374E+04  0.29349180481E+04  0.26982130337E+04 0.  0.
        2    1    3    3  502    0 -0.20364351718E+03 -0.61777601864E+03 -0.70825957513E+03  0.96163897439E+03  0.25500000920E-02 0.  1.
       -2    1    3    3    0  502  0.20364351718E+03  0.61777601864E+03  0.18629848125E+04  0.19732790737E+04  0.25500000920E-02 0. -1.
</event>
<event>
 5   0  0.7768032E-07  0.2700838E+04  0.7818609E-02  0.8334733E-01
        1   -1    0    0  501    0  0.00000000000E+00  0.00000000000E+00  0.13457022763E+04  0.13457022763E+04  0.50400001928E-02 0. -1.
       -1   -1    0    0    0  501  0.00000000000E+00  0.00000000000E+00 -0.13551526464E+04  0.13551526464E+04  0.50400001928E-02 0.  1.
    10030    2    1    2    0    0  0.00000000000E+00  0.00000000000E+00 -0.94503701216E+01  0.27008549227E+04  0.27008383891E+04 0.  0.
        4    1    3    3  502    0  0.35682033732E+03  0.13016347312E+04 -0.50075891844E+02  0.13505861448E+04  0.12699999809E+01 0.  1.
       -4    1    3    3    0  502 -0.35682033732E+03 -0.13016347312E+04  0.40625521723E+02  0.13502687779E+04  0.12699999809E+01 0. -1.
</event>
<event>
 5   0  0.1999104E-06  0.2700325E+04  0.7818609E-02  0.8334899E-01
        2   -1    0    0  501    0  0.00000000000E+00  0.00000000000E+00  0.10761189000E+04  0.10761189000E+04  0.25500000920E-02 0. -1.
       -2   -1    0    0    0  501  0.00000000000E+00  0.00000000000E+00 -0.16939943797E+04  0.16939943797E+04  0.25500000920E-02 0.  1.
    10030    2    1    2    0    0  0.00000000000E+00  0.00000000000E+00 -0.61787547967E+03  0.27701132797E+04  0.27003254385E+04 0.  0.
        4    1    3    3  502    0  0.60950315602E+03 -0.40185281295E+03 -0.14740538370E+04  0.16449365056E+04  0.12699999809E+01 0.  1.
       -4    1    3    3    0  502 -0.60950315602E+03  0.40185281295E+03  0.85617835729E+03  0.11251767740E+04  0.12699999809E+01 0. -1.
</event>
<event>
 5   0  0.6561875E-07  0.2705403E+04  0.7818609E-02  0.8333254E-01
       -3   -1    0    0    0  501  0.00000000000E+00  0.00000000000E+00  0.95760138882E+03  0.95760139414E+03  0.10100000352E+00 0. -1.
        3   -1    0    0  501    0  0.00000000000E+00  0.00000000000E+00 -0.19108174507E+04  0.19108174534E+04  0.10100000352E+00 0.  1.
    10030    2    1    2    0    0  0.00000000000E+00  0.00000000000E+00 -0.95321606193E+03  0.28684188476E+04  0.27054030798E+04 0.  0.
        5    1    3    3  502    0 -0.66302497433E+03 -0.58109296260E+03  0.61112755049E+03  0.10727395400E+04  0.46999998093E+01 0. -1.
       -5    1    3    3    0  502  0.66302497433E+03  0.58109296260E+03 -0.15643436124E+04  0.17956793075E+04  0.46999998093E+01 0.  1.
</event>
<event>
 5   0  0.6561875E-07  0.2702663E+04  0.7818609E-02  0.8334141E-01
       -3   -1    0    0    0  501  0.00000000000E+00  0.00000000000E+00  0.16932753223E+04  0.16932753253E+04  0.10100000352E+00 0. -1.
        3   -1    0    0  501    0  0.00000000000E+00  0.00000000000E+00 -0.10784404636E+04  0.10784404683E+04  0.10100000352E+00 0.  1.
    10030    2    1    2    0    0  0.00000000000E+00  0.00000000000E+00  0.61483485870E+03  0.27717157936E+04  0.27026628604E+04 0.  0.
        4    1    3    3  502    0  0.29713399239E+03  0.13171299498E+04  0.36335558316E+03  0.13982663576E+04  0.12699999809E+01 0. -1.
       -4    1    3    3    0  502 -0.29713399239E+03 -0.13171299498E+04  0.25147927554E+03  0.13734494360E+04  0.12699999809E+01 0.  1.
</event>
<event>
 5   0  0.7335091E-07  0.2684679E+04  0.7818609E-02  0.8339993E-01
       -1   -1    0    0    0  501  0.00000000000E+00  0.00000000000E+00  0.11664949456E+04  0.11664949456E+04  0.50400001928E-02 0. -1.
        1   -1    0    0  501    0  0.00000000000E+00  0.00000000000E+00 -0.15446923458E+04  0.15446923458E+04  0.50400001928E-02 0.  1.
    10030    2    1    2    0    0  0.00000000000E+00  0.00000000000E+00 -0.37819740019E+03  0.27111872914E+04  0.26846793581E+04 0.  0.
        3    1    3    3  502    0  0.32455515860E+03 -0.98669770096E+03  0.66957162368E+03  0.12358133247E+04  0.10100000352E+00 0. -1.
       -3    1    3    3    0  502 -0.32455515860E+03  0.98669770096E+03 -0.10477690239E+04  0.14753739667E+04  0.10100000352E+00 0.  1.
</event>
<event>
 5   0  0.1932012E-06  0.2694197E+04  0.7818609E-02  0.8336890E-01
       -2   -1    0    0    0  501  0.00000000000E+00  0.00000000000E+00  0.14949224807E+04  0.14949224807E+04  0.25500000920E-02 0.  1.
        2   -1    0    0  501    0  0.00000000000E+00  0.00000000000E+00 -0.12138920830E+04  0.12138920830E+04  0.25500000920E-02 0. -1.
    10030    2    1    2    0    0  0.00000000000E+00  0.00000000000E+00  0.28103039765E+03  0.27088145637E+04  0.26941971450E+04 0.  0.
        2    1    3    3  502    0 -0.13090219019E+04 -0.26058750319E+03  0.32379623909E+03  0.13734220732E+04  0.25500000920E-02 0.  1.
       -2    1    3    3    0  502  0.13090219019E+04  0.26058750319E+03 -0.42765841438E+02  0.13353924905E+04  0.25500000920E-02 0. -1.
</event>
<event>
 5   0  0.7566905E-07  0.2702512E+04  0.7818609E-02  0.8334190E-01
        1   -1    0    0  501    0  0.00000000000E+00  0.00000000000E+00  0.11528311895E+04  0.11528311895E+04  0.50400001928E-02 0. -1.
       -1   -1    0    0    0  501  0.00000000000E+00  0.00000000000E+00 -0.15838341390E+04  0.15838341390E+04  0.50400001928E-02 0.  1.
    10030    2    1    2    0    0  0.00000000000E+00  0.00000000000E+00 -0.43100294952E+03  0.27366653284E+04  0.27025124565E+04 0.  0.
        1    1    3    3  502    0  0.21388133144E+03 -0.45132567064E+03  0.10559346360E+04  0.11680916233E+04  0.50400001928E-02 0. -1.
       -1    1    3    3    0  502 -0.21388133144E+03  0.45132567064E+03 -0.14869375856E+04  0.15685737051E+04  0.50400001928E-02 0.  1.
</event>
<event>
 5   0  0.1932012E-06  0.2694025E+04  0.7818609E-02  0.8336946E-01
        2   -1    0    0  501    0  0.00000000000E+00  0.00000000000E+00  0.11245478990E+04  0.11245478990E+04  0.25500000920E-02 0.  1.
       -2   -1    0    0    0  501  0.00000000000E+00  0.00000000000E+00 -0.16134868080E+04  0.16134868080E+04  0.25500000920E-02 0. -1.
    10030    2    1    2    0    0  0.00000000000E+00  0.00000000000E+00 -0.48893890901E+03  0.27380347069E+04  0.26940253896E+04 0.  0.
        2    1    3    3  502    0  0.68200055329E+03  0.80707563679E+03  0.60461052250E+03  0.12173946452E+04  0.25500000920E-02 0.  1.
       -2    1    3    3    0  502 -0.68200055329E+03 -0.80707563679E+03 -0.10935494315E+04  0.15206400617E+04  0.25500000920E-02 0. -1.
</event>
<event>
 5   0  0.1932012E-06  0.2695436E+04  0.7818609E-02  0.8336487E-01
       -2   -1    0    0    0  501  0.00000000000E+00  0.00000000000E+00  0.89855463098E+03  0.89855463098E+03  0.25500000920E-02 0.  1.
        2   -1    0    0  501    0  0.00000000000E+00  0.00000000000E+00 -0.20214064796E+04  0.20214064796E+04  0.25500000920E-02 0. -1.
    10030    2    1    2    0    0  0.00000000000E+00  0.00000000000E+00 -0.11228518486E+04  0.29199611106E+04  0.26954362566E+04 0.  0.
        2    1    3    3  502    0  0.40129238782E+03 -0.51280486307E+03 -0.18396900828E+04  0.19515286338E+04  0.25500000920E-02 0. -1.
       -2    1    3    3    0  502 -0.40129238782E+03  0.51280486307E+03  0.71683823413E+03  0.96843247675E+03  0.25500000920E-02 0.  1.
</event>
<event>
 5   0  0.7335091E-07  0.2700917E+04  0.7818609E-02  0.8334708E-01
       -1   -1    0    0    0  501  0.00000000000E+00  0.00000000000E+00  0.14067315303E+04  0.14067315303E+04  0.50400001928E-02 0. -1.
        1   -1    0    0  501    0  0.00000000000E+00  0.00000000000E+00 -0.12964361587E+04  0.12964361587E+04  0.50400001928E-02 0.  1.
    10030    2    1    2    0    0  0.00000000000E+00  0.00000000000E+00  0.11029537164E+03  0.27031676890E+04  0.27009166010E+04 0.  0.
        3    1    3    3  502    0 -0.78845268088E+03  0.10311475376E+04  0.42803671036E+03  0.13667985623E+04  0.10100000352E+00 0.  1.
       -3    1    3    3    0  502  0.78845268088E+03 -0.10311475376E+04 -0.31774133871E+03  0.13363691267E+04  0.10100000352E+00 0. -1.
</event>
<event>
 5   0  0.7566905E-07  0.2699273E+04  0.7818609E-02  0.8335241E-01
       -1   -1    0    0    0  501  0.00000000000E+00  0.00000000000E+00  0.92655761839E+03  0.92655761841E+03  0.50400001928E-02 0. -1.
        1   -1    0    0  501    0  0.00000000000E+00  0.00000000000E+00 -0.19658996051E+04  0.19658996051E+04  0.50400001928E-02 0.  1.
    10030    2    1    2    0    0  0.00000000000E+00  0.00000000000E+00 -0.10393419867E+04  0.28924572235E+04  0.26992734253E+04 0.  0.
        1    1    3    3  502    0 -0.76163642982E+03 -0.52182933444E+03  0.53522488332E+03  0.10671745786E+04  0.50400001928E-02 0. -1.
       -1    1    3    3    0  502  0.76163642982E+03  0.52182933444E+03 -0.15745668700E+04  0.18252826449E+04  0.50400001928E-02 0.  1.
</event>
<event>
 5   0  0.7335091E-07  0.2694149E+04  0.7818609E-02  0.8336906E-01
       -1   -1    0    0    0  501  0.00000000000E+00  0.00000000000E+00  0.95143147591E+03  0.95143147592E+03  0.50400001928E-02 0.  1.
        1   -1    0    0  501    0  0.00000000000E+00  0.00000000000E+00 -0.19072413419E+04  0.19072413419E+04  0.50400001928E-02 0. -1.
    10030    2    1    2    0    0  0.00000000000E+00  0.00000000000E+00 -0.95580986603E+03  0.28586728179E+04  0.26941488043E+04 0.  0.
        3    1    3    3  502    0 -0.33039167454E+03 -0.25372872317E+03  0.88136827995E+03  0.97485741453E+03  0.10100000352E+00 0.  1.
       -3    1    3    3    0  502  0.33039167454E+03  0.25372872317E+03 -0.18371781460E+04  0.18838154033E+04  0.10100000352E+00 0. -1.
</event>
<event>
 5   0  0.6561875E-07  0.2770209E+04  0.7818609E-02  0.8312577E-01
        3   -1    0    0  501    0  0.00000000000E+00  0.00000000000E+00  0.13121630988E+04  0.13121631026E+04  0.10100000352E+00 0.  1.
       -3   -1    0    0    0  501  0.00000000000E+00  0.00000000000E+00 -0.14621002580E+04  0.14621002615E+04  0.10100000352E+00 0. -1.
    10030    2    1    2    0    0  0.00000000000E+00  0.00000000000E+00 -0.14993715924E+03  0.27742633641E+04  0.27702086676E+04 0.  0.
        3    1    3    3  502    0  0.12548126317E+03 -0.76863852630E+03 -0.12220547450E+04  0.14491268204E+04  0.10100000352E+00 0. -1.
       -3    1    3    3    0  502 -0.12548126317E+03  0.76863852630E+03  0.10721175858E+04  0.13251365437E+04  0.10100000352E+00 0.  1.
</event>
<event>
 5   0  0.7768032E-07  0.2714504E+04  0.7818609E-02  0.8330314E-01
       -1   -1    0    0    0  501  0.00000000000E+00  0.00000000000E+00  0.86930785887E+03  0.86930785888E+03  0.50400001928E-02 0. -1.
        1   -1    0    0  501    0  0.00000000000E+00  0.00000000000E+00 -0.21190793321E+04  0.21190793321E+04  0.50400001928E-02 0.  1.
    10030    2    1    2    0    0  0.00000000000E+00  0.00000000000E+00 -0.12497714732E+04  0.29883871910E+04  0.27145035030E+04 0.  0.
        4    1    3    3  502    0 -0.72081483159E+03 -0.28639781510E+03  0.60128406520E+03  0.98139791619E+03  0.12699999809E+01 0. -1.
       -4    1    3    3    0  502  0.72081483159E+03  0.28639781510E+03 -0.18510555384E+04  0.20069892748E+04  0.12699999809E+01 0.  1.
</event>
<event>
 5   0  0.7768032E-07  0.2701886E+04  0.7818609E-02  0.8334393E-01
        1   -1    0    0  501    0  0.00000000000E+00  0.00000000000E+00  0.13723946670E+04  0.13723946670E+04  0.50400001928E-02 0.  1.
       -1   -1    0    0    0  501  0.00000000000E+00  0.00000000000E+00 -0.13298270183E+04  0.13298270183E+04  0.50400001928E-02 0. -1.
    10030    2    1    2    0    0  0.00000000000E+00  0.00000000000E+00  0.42567648751E+02  0.27022216853E+04  0.27018863840E+04 0.  0.
        4    1    3    3  502    0  0.23978819486E+03  0.32477688670E+03 -0.12680881304E+04  0.13307995807E+04  0.12699999809E+01 0. -1.
       -4    1    3    3    0  502 -0.23978819486E+03 -0.32477688670E+03  0.13106557792E+04  0.13714221046E+04  0.12699999809E+01 0.  1.
</event>
<event>
 5   0  0.2030645E-06  0.2700928E+04  0.7818609E-02  0.8334704E-01
       -2   -1    0    0    0  501  0.00000000000E+00  0.00000000000E+00  0.12584452683E+04  0.12584452683E+04  0.25500000920E-02 0. -1.
        2   -1    0    0  501    0  0.00000000000E+00  0.00000000000E+00 -0.14492109152E+04  0.14492109152E+04  0.25500000920E-02 0.  1.
    10030    2    1    2    0    0  0.00000000000E+00  0.00000000000E+00 -0.19076564688E+03  0.27076561835E+04  0.27009277065E+04 0.  0.
        1    1    3    3  502    0 -0.12869755067E+01  0.12097848967E+04 -0.69702075449E+03  0.13962159879E+04  0.50400001928E-02 0.  1.
       -1    1    3    3    0  502  0.12869755067E+01 -0.12097848967E+04  0.50625510761E+03  0.13114401956E+04  0.50400001928E-02 0. -1.
</event>
<event>
 5   0  0.2063087E-06  0.2702192E+04  0.7818609E-02  0.8334294E-01
       -2   -1    0    0    0  501  0.00000000000E+00  0.00000000000E+00  0.98995564392E+03  0.98995564393E+03  0.25500000920E-02 0.  1.
        2   -1    0    0  501    0  0.00000000000E+00  0.00000000000E+00 -0.18439824980E+04  0.18439824980E+04  0.25500000920E-02 0. -1.
    10030    2    1    2    0    0  0.00000000000E+00  0.00000000000E+00 -0.85402685406E+03  0.28339381419E+04  0.27021923552E+04 0.  0.
        3    1    3    3  502    0 -0.66527920906E+03  0.49949366917E+03 -0.15435168564E+04  0.17534350993E+04  0.10100000352E+00 0. -1.
       -3    1    3    3    0  502  0.66527920906E+03 -0.49949366917E+03  0.68949000229E+03  0.10805030426E+04  0.10100000352E+00 0.  1.
</event>
<event>
 5   0  0.6561875E-07  0.2681586E+04  0.7818609E-02  0.8341004E-01
       -3   -1    0    0    0  501  0.00000000000E+00  0.00000000000E+00  0.11804002548E+04  0.11804002591E+04  0.10100000352E+00 0. -1.
        3   -1    0    0  501    0  0.00000000000E+00  0.00000000000E+00 -0.15229799395E+04  0.15229799429E+04  0.10100000352E+00 0.  1.
    10030    2    1    2    0    0  0.00000000000E+00  0.00000000000E+00 -0.34257968474E+03  0.27033802020E+04  0.26815860374E+04 0.  0.
        4    1    3    3  502    0 -0.10758568905E+04 -0.77948046267E+03 -0.35349743354E+03  0.13747799420E+04  0.12699999809E+01 0.  1.
       -4    1    3    3    0  502  0.10758568905E+04  0.77948046267E+03  0.10917748801E+02  0.13286002599E+04  0.12699999809E+01 0. -1.
</event>
<event>
 5   0  0.1932012E-06  0.2700991E+04  0.7818609E-02  0.8334684E-01
        2   -1    0    0  501    0  0.00000000000E+00  0.00000000000E+00  0.14613066172E+04  0.14613066172E+04  0.25500000920E-02 0.  1.
       -2   -1    0    0    0  501  0.00000000000E+00  0.00000000000E+00 -0.12480871049E+04  0.12480871049E+04  0.25500000920E-02 0. -1.
    10030    2    1    2    0    0  0.00000000000E+00  0.00000000000E+00  0.21321951233E+03  0.27093937221E+04  0.27009908887E+04 0.  0.
        2    1    3    3  502    0  0.83006974004E+03 -0.77427141636E+03  0.84054568318E+03  0.14124549710E+04  0.25500000920E-02 0.  1.
       -2    1    3    3    0  502 -0.83006974004E+03  0.77427141636E+03 -0.62732617085E+03  0.12969387511E+04  0.25500000920E-02 0. -1.
</event>
<event>
 5   0  0.1999104E-06  0.2712297E+04  0.7818609E-02  0.8331026E-01
       -2   -1    0    0    0  501  0.00000000000E+00  0.00000000000E+00  0.83367528841E+03  0.83367528841E+03  0.25500000920E-02 0. -1.
        2   -1    0    0  501    0  0.00000000000E+00  0.00000000000E+00 -0.22060619259E+04  0.22060619259E+04  0.25500000920E-02 0.  1.
    10030    2    1    2    0    0  0.00000000000E+00  0.00000000000E+00 -0.13723866375E+04  0.30397372143E+04  0.27122974117E+04 0.  0.
        4    1    3    3  502    0  0.46185310642E+03 -0.12566213366E+04 -0.92846739995E+03  0.16292509939E+04  0.12699999809E+01 0.  1.
       -4    1    3    3    0  502 -0.46185310642E+03  0.12566213366E+04 -0.44391923754E+03  0.14104862204E+04  0.12699999809E+01 0. -1.
</event>
<event>
 5   0  0.7768032E-07  0.2696625E+04  0.7818609E-02  0.8336101E-01
        1   -1    0    0  501    0  0.00000000000E+00  0.00000000000E+00  0.18390293980E+04  0.18390293980E+04  0.50400001928E-02 0. -1.
       -1   -1    0    0    0  501  0.00000000000E+00  0.00000000000E+00 -0.98853560958E+03  0.98853560959E+03  0.50400001928E-02 0.  1.
    10030    2    1    2    0    0  0.00000000000E+00  0.00000000000E+00  0.85049378845E+03  0.28275650076E+04  0.26966245916E+04 0.  0.
        4    1    3    3  502    0 -0.18460823203E+03  0.61756914867E+03  0.16670115587E+04  0.17872887295E+04  0.12699999809E+01 0. -1.
       -4    1    3    3    0  502  0.18460823203E+03 -0.61756914867E+03 -0.81651777030E+03  0.10402762781E+04  0.12699999809E+01 0.  1.
</event>
<event>
 5   0  0.1991277E-06  0.2702101E+04  0.7818609E-02  0.8334323E-01
        2   -1    0    0  501    0  0.00000000000E+00  0.00000000000E+00  0.14502194051E+04  0.14502194051E+04  0.25500000920E-02 0. -1.
       -2   -1    0    0    0  501  0.00000000000E+00  0.00000000000E+00 -0.12586633018E+04  0.12586633018E+04  0.25500000920E-02 0.  1.
    10030    2    1    2    0    0  0.00000000000E+00  0.00000000000E+00  0.19155610329E+03  0.27088827070E+04  0.27021013636E+04 0.  0.
        5    1    3    3  502    0  0.14777860847E+03  0.79092617952E+03 -0.99226277814E+03  0.12775015653E+04  0.46999998093E+01 0.  1.
       -5    1    3    3    0  502 -0.14777860847E+03 -0.79092617952E+03  0.11838188814E+04  0.14313811416E+04  0.46999998093E+01 0. -1.
</event>
<event>
 5   0  0.2063087E-06  0.2698380E+04  0.7818609E-02  0.8335531E-01
        2   -1    0    0  501    0  0.00000000000E+00  0.00000000000E+00  0.13621820799E+04  0.13621820799E+04  0.25500000920E-02 0. -1.
       -2   -1    0    0    0  501  0.00000000000E+00  0.00000000000E+00 -0.13363214695E+04  0.13363214695E+04  0.25500000920E-02 0.  1.
    10030    2    1    2    0    0  0.00000000000E+00  0.00000000000E+00  0.25860610453E+02  0.26985035494E+04  0.26983796314E+04 0.  0.
        3    1    3    3  502    0 -0.23931621957E+02 -0.12897574893E+04  0.40825346127E+03  0.13530402812E+04  0.10100000352E+00 0. -1.
       -3    1    3    3    0  502  0.23931621957E+02  0.12897574893E+04 -0.38239285081E+03  0.13454632683E+04  0.10100000352E+00 0.  1.
</event>
<event>
 5   0  0.7768032E-07  0.2700027E+04  0.7818609E-02  0.8334996E-01
       -1   -1    0    0    0  501  0.00000000000E+00  0.00000000000E+00  0.26239081313E+04  0.26239081313E+04  0.50400001928E-02 0.  1.
        1   -1    0    0  501    0  0.00000000000E+00  0.00000000000E+00 -0.69458841693E+03  0.69458841694E+03  0.50400001928E-02 0. -1.
    10030    2    1    2    0    0  0.00000000000E+00  0.00000000000E+00  0.19293197143E+04  0.33184965482E+04  0.27000268110E+04 0.  0.
        4    1    3    3  502    0  0.11884638315E+04  0.37230415247E+02  0.17503960914E+04  0.21160624925E+04  0.12699999809E+01 0.  1.
       -4    1    3    3    0  502 -0.11884638315E+04 -0.37230415247E+02  0.17892362290E+03  0.12024340557E+04  0.12699999809E+01 0. -1.
</event>
<event>
 5   0  0.7335091E-07  0.2699792E+04  0.7818609E-02  0.8335072E-01
       -1   -1    0    0    0  501  0.00000000000E+00  0.00000000000E+00  0.12305826613E+04  0.12305826613E+04  0.50400001928E-02 0.  1.
        1   -1    0    0  501    0  0.00000000000E+00  0.00000000000E+00 -0.14807780209E+04  0.14807780209E+04  0.50400001928E-02 0. -1.
    10030    2    1    2    0    0  0.00000000000E+00  0.00000000000E+00 -0.25019535963E+03  0.27113606822E+04  0.26997924052E+04 0.  0.
        3    1    3    3  502    0 -0.22256679398E+03  0.37981399254E+03  0.11564678472E+04  0.12374217302E+04  0.10100000352E+00 0.  1.
       -3    1    3    3    0  502  0.22256679398E+03 -0.37981399254E+03 -0.14066632068E+04  0.14739389520E+04  0.10100000352E+00 0. -1.
</event>
<event>
 5   0  0.1999104E-06  0.2707405E+04  0.7818609E-02  0.8332606E-01
        2   -1    0    0  501    0  0.00000000000E+00  0.00000000000E+00  0.19565876258E+04  0.19565876258E+04  0.25500000920E-02 0. -1.
       -2   -1    0    0    0  501  0.00000000000E+00  0.00000000000E+00 -0.93658486808E+03  0.93658486809E+03  0.25500000920E-02 0.  1.
    10030    2    1    2    0    0  0.00000000000E+00  0.00000000000E+00  0.10200027577E+04  0.28931724939E+04  0.27074049298E+04 0.  0.
        4    1    3    3  502    0  0.11959747245E+04 -0.47835730149E+03  0.65109119211E+02  0.12897372057E+04  0.12699999809E+01 0.  1.
       -4    1    3    3    0  502 -0.11959747245E+04  0.47835730149E+03  0.95489363851E+03  0.16034352882E+04  0.12699999809E+01 0. -1.
</event>
<event>
 5   0  0.1991277E-06  0.2639502E+04  0.7818609E-02  0.8354906E-01
       -2   -1    0    0    0  501  0.00000000000E+00  0.00000000000E+00  0.75172586557E+03  0.75172586558E+03  0.25500000920E-02 0. -1.
        2   -1    0    0  501    0  0.00000000000E+00  0.00000000000E+00 -0.23169923199E+04  0.23169923199E+04  0.25500000920E-02 0.  1.
    10030    2    1    2    0    0  0.00000000000E+00  0.00000000000E+00 -0.15652664543E+04  0.30687181854E+04  0.26395022691E+04 0.  0.
        5    1    3    3  502    0  0.11116852429E+04 -0.36411137971E+03 -0.72297201970E+02  0.11720367535E+04  0.46999998093E+01 0.  1.
       -5    1    3    3    0  502 -0.11116852429E+04  0.36411137971E+03 -0.14929692523E+04  0.18966814320E+04  0.46999998093E+01 0. -1.
</event>
<event>
 5   0  0.1932012E-06  0.2700147E+04  0.7818609E-02  0.8334957E-01
        2   -1    0    0  501    0  0.00000000000E+00  0.00000000000E+00  0.17041424167E+04  0.17041424167E+04  0.25500000920E-02 0. -1.
       -2   -1    0    0    0  501  0.00000000000E+00  0.00000000000E+00 -0.10695689323E+04  0.10695689323E+04  0.25500000920E-02 0.  1.
    10030    2    1    2    0    0  0.00000000000E+00  0.00000000000E+00  0.63457348439E+03  0.27737113490E+04  0.27001465035E+04 0.  0.
        2    1    3    3  502    0  0.57466416635E+03 -0.37037324587E+02 -0.93708263752E+03  0.10998793284E+04  0.25500000920E-02 0.  1.
       -2    1    3    3    0  502 -0.57466416635E+03  0.37037324587E+02  0.15716561219E+04  0.16738320206E+04  0.25500000920E-02 0. -1.
</event>
<event>
 5   0  0.1932012E-06  0.2699912E+04  0.7818609E-02  0.8335034E-01
        2   -1    0    0  501    0  0.00000000000E+00  0.00000000000E+00  0.20108493691E+04  0.20108493691E+04  0.25500000920E-02 0.  1.
       -2   -1    0    0    0  501  0.00000000000E+00  0.00000000000E+00 -0.90627415332E+03  0.90627415333E+03  0.25500000920E-02 0. -1.
    10030    2    1    2    0    0  0.00000000000E+00  0.00000000000E+00  0.11045752157E+04  0.29171235224E+04  0.26999117092E+04 0.  0.
        2    1    3    3  502    0  0.80825374987E+02  0.11202867074E+04  0.13614049137E+04  0.17649358025E+04  0.25500000920E-02 0.  1.
       -2    1    3    3    0  502 -0.80825374987E+02 -0.11202867074E+04 -0.25682969800E+03  0.11521877198E+04  0.25500000920E-02 0. -1.
</event>
<event>
 5   0  0.1999104E-06  0.2706320E+04  0.7818609E-02  0.8332957E-01
       -2   -1    0    0    0  501  0.00000000000E+00  0.00000000000E+00  0.16272929333E+04  0.16272929333E+04  0.25500000920E-02 0.  1.
        2   -1    0    0  501    0  0.00000000000E+00  0.00000000000E+00 -0.11252076757E+04  0.11252076757E+04  0.25500000920E-02 0. -1.
    10030    2    1    2    0    0  0.00000000000E+00  0.00000000000E+00  0.50208525759E+03  0.27525006090E+04  0.27063203795E+04 0.  0.
        4    1    3    3  502    0  0.10350888545E+04 -0.54482718422E+03  0.94294159302E+03  0.15024600022E+04  0.12699999809E+01 0.  1.
       -4    1    3    3    0  502 -0.10350888545E+04  0.54482718422E+03 -0.44085633543E+03  0.12500406068E+04  0.12699999809E+01 0. -1.
</event>
<event>
 5   0  0.1991277E-06  0.2691132E+04  0.7818609E-02  0.8337888E-01
       -2   -1    0    0    0  501  0.00000000000E+00  0.00000000000E+00  0.14008987175E+04  0.14008987175E+04  0.25500000920E-02 0. -1.
        2   -1    0    0  501    0  0.00000000000E+00  0.00000000000E+00 -0.12924187732E+04  0.12924187732E+04  0.25500000920E-02 0.  1.
    10030    2    1    2    0    0  0.00000000000E+00  0.00000000000E+00  0.10847994432E+03  0.26933174908E+04  0.26911319566E+04 0.  0.
        5    1    3    3  502    0  0.45829750402E+03  0.62674112180E+03  0.11540795301E+04  0.13909574716E+04  0.46999998093E+01 0. -1.
       -5    1    3    3    0  502 -0.45829750402E+03 -0.62674112180E+03 -0.10455995857E+04  0.13023600192E+04  0.46999998093E+01 0.  1.
</event>
<event>
 5   0  0.1991277E-06  0.2698683E+04  0.7818609E-02  0.8335432E-01
        2   -1    0    0  501    0  0.00000000000E+00  0.00000000000E+00  0.14579143179E+04  0.14579143179E+04  0.25500000920E-02 0.  1.
       -2   -1    0    0    0  501  0.00000000000E+00  0.00000000000E+00 -0.12488542320E+04  0.12488542320E+04  0.25500000920E-02 0. -1.
    10030    2    1    2    0    0  0.00000000000E+00  0.00000000000E+00  0.20906008590E+03  0.27067685498E+04  0.26986829867E+04 0.  0.
        5    1    3    3  502    0 -0.17916711893E+03  0.12317670202E+04  0.62700296236E+03  0.13937380146E+04  0.46999998093E+01 0.  1.
       -5    1    3    3    0  502  0.17916711893E+03 -0.12317670202E+04 -0.41794287646E+03  0.13130305352E+04  0.46999998093E+01 0. -1.
</event>
<event>
 5   0  0.2063087E-06  0.2703382E+04  0.7818609E-02  0.8333909E-01
       -2   -1    0    0    0  501  0.00000000000E+00  0.00000000000E+00  0.11877226116E+04  0.11877226116E+04  0.25500000920E-02 0.  1.
        2   -1    0    0  501    0  0.00000000000E+00  0.00000000000E+00 -0.15382951699E+04  0.15382951699E+04  0.25500000920E-02 0. -1.
    10030    2    1    2    0    0  0.00000000000E+00  0.00000000000E+00 -0.35057255824E+03  0.27260177815E+04  0.27033815540E+04 0.  0.
        3    1    3    3  502    0 -0.56677340478E+03 -0.60543122827E+03 -0.12515984910E+04  0.15014252753E+04  0.10100000352E+00 0. -1.
       -3    1    3    3    0  502  0.56677340478E+03  0.60543122827E+03  0.90102593276E+03  0.12245925062E+04  0.10100000352E+00 0.  1.
</event>
<event>
 5   0  0.7566905E-07  0.2702583E+04  0.7818609E-02  0.8334167E-01
       -1   -1    0    0    0  501  0.00000000000E+00  0.00000000000E+00  0.84984578664E+03  0.84984578666E+03  0.50400001928E-02 0. -1.
        1   -1    0    0  501    0  0.00000000000E+00  0.00000000000E+00 -0.21486113951E+04  0.21486113951E+04  0.50400001928E-02 0.  1.
    10030    2    1    2    0    0  0.00000000000E+00  0.00000000000E+00 -0.12987656085E+04  0.29984571818E+04  0.27025827213E+04 0.  0.
        1    1    3    3  502    0  0.82093713153E+03 -0.89710399551E+03  0.44144651037E+01  0.12160398185E+04  0.50400001928E-02 0. -1.
       -1    1    3    3    0  502 -0.82093713153E+03  0.89710399551E+03 -0.13031800736E+04  0.17824173633E+04  0.50400001928E-02 0.  1.
</event>
<event>
 5   0  0.7566905E-07  0.2699009E+04  0.7818609E-02  0.8335326E-01
       -1   -1    0    0    0  501  0.00000000000E+00  0.00000000000E+00  0.11131410979E+04  0.11131410979E+04  0.50400001928E-02 0.  1.
        1   -1    0    0  501    0  0.00000000000E+00  0.00000000000E+00 -0.16360574437E+04  0.16360574437E+04  0.50400001928E-02 0. -1.
    10030    2    1    2    0    0  0.00000000000E+00  0.00000000000E+00 -0.52291634583E+03  0.27491985416E+04  0.26990092843E+04 0.  0.
        1    1    3    3  502    0  0.61575750318E+03 -0.22988174742E+03  0.93908515663E+03  0.11462477271E+04  0.50400001928E-02 0.  1.
       -1    1    3    3    0  502 -0.61575750318E+03  0.22988174742E+03 -0.14620015025E+04  0.16029508145E+04  0.50400001928E-02 0. -1.
</event>
<event>
 5   0  0.1932012E-06  0.2702560E+04  0.7818609E-02  0.8334175E-01
        2   -1    0    0  501    0  0.00000000000E+00  0.00000000000E+00  0.14137794780E+04  0.14137794780E+04  0.25500000920E-02 0.  1.
       -2   -1    0    0    0  501  0.00000000000E+00  0.00000000000E+00 -0.12915430000E+04  0.12915430000E+04  0.25500000920E-02 0. -1.
    10030    2    1    2    0    0  0.00000000000E+00  0.00000000000E+00  0.12223647796E+03  0.27053224780E+04  0.27025595190E+04 0.  0.
        2    1    3    3  502    0 -0.57729038004E+03 -0.12200054431E+04 -0.43667154496E+01  0.13497023865E+04  0.25500000920E-02 0. -1.
       -2    1    3    3    0  502  0.57729038004E+03  0.12200054431E+04  0.12660319341E+03  0.13556200915E+04  0.25500000920E-02 0.  1.
</event>
<event>
 5   0  0.1999104E-06  0.2704695E+04  0.7818609E-02  0.8333483E-01
       -2   -1    0    0    0  501  0.00000000000E+00  0.00000000000E+00  0.12704846999E+04  0.12704846999E+04  0.25500000920E-02 0. -1.
        2   -1    0    0  501    0  0.00000000000E+00  0.00000000000E+00 -0.14394848774E+04  0.14394848774E+04  0.25500000920E-02 0.  1.
    10030    2    1    2    0    0  0.00000000000E+00  0.00000000000E+00 -0.16900017745E+03  0.27099695773E+04  0.27046948164E+04 0.  0.
        4    1    3    3  502    0  0.86010846336E+03 -0.35423902215E+03 -0.10680304979E+04  0.14163200948E+04  0.12699999809E+01 0.  1.
       -4    1    3    3    0  502 -0.86010846336E+03  0.35423902215E+03  0.89903032046E+03  0.12936494825E+04  0.12699999809E+01 0. -1.
</event>
<event>
 5   0  0.7806808E-07  0.2702681E+04  0.7818609E-02  0.8334136E-01
       -1   -1    0    0    0  501  0.00000000000E+00  0.00000000000E+00  0.11711204763E+04  0.11711204763E+04  0.50400001928E-02 0. -1.
        1   -1    0    0  501    0  0.00000000000E+00  0.00000000000E+00 -0.15592939021E+04  0.15592939021E+04  0.50400001928E-02 0.  1.
    10030    2    1    2    0    0  0.00000000000E+00  0.00000000000E+00 -0.38817342576E+03  0.27304143784E+04  0.27026809041E+04 0.  0.
        5    1    3    3  502    0  0.12342818776E+04  0.10990734744E+03  0.35048784065E+03  0.12877869369E+04  0.46999998093E+01 0.  1.
       -5    1    3    3    0  502 -0.12342818776E+04 -0.10990734744E+03 -0.73866126641E+03  0.14426274415E+04  0.46999998093E+01 0. -1.
</event>
<event>
 5   0  0.2030645E-06  0.2703727E+04  0.7818609E-02  0.8333797E-01
        2   -1    0    0  501    0  0.00000000000E+00  0.00000000000E+00  0.31360998015E+04  0.31360998015E+04  0.25500000920E-02 0. -1.
       -2   -1    0    0    0  501  0.00000000000E+00  0.00000000000E+00 -0.58274115671E+03  0.58274115671E+03  0.25500000920E-02 0.  1.
    10030    2    1    2    0    0  0.00000000000E+00  0.00000000000E+00  0.25533586448E+04  0.37188409582E+04  0.27037266325E+04 0.  0.
        1    1    3    3  502    0 -0.87713149595E+03 -0.78088320609E+01 -0.13817267768E+03  0.88798216645E+03  0.50400001928E-02 0.  1.
       -1    1    3    3    0  502  0.87713149595E+03  0.78088320609E+01  0.26915313224E+04  0.28308587917E+04  0.50400001928E-02 0. -1.
</event>
<event>
 5   0  0.7806808E-07  0.2696641E+04  0.7818609E-02  0.8336096E-01
       -1   -1    0    0    0  501  0.00000000000E+00  0.00000000000E+00  0.11400057448E+04  0.11400057448E+04  0.50400001928E-02 0.  1.
        1   -1    0    0  501    0  0.00000000000E+00  0.00000000000E+00 -0.15947008242E+04  0.15947008242E+04  0.50400001928E-02 0. -1.
    10030    2    1    2    0    0  0.00000000000E+00  0.00000000000E+00 -0.45469507936E+03  0.27347065691E+04  0.26966409482E+04 0.  0.
        5    1    3    3  502    0  0.44590616264E+03 -0.12432158936E+04 -0.50233559436E+03  0.14130750876E+04  0.46999998093E+01 0. -1.
       -5    1    3    3    0  502 -0.44590616264E+03  0.12432158936E+04  0.47640515000E+02  0.13216314814E+04  0.46999998093E+01 0.  1.
</event>
<event>
 5   0  0.7768032E-07  0.2686961E+04  0.7818609E-02  0.8339248E-01
       -1   -1    0    0    0  501  0.00000000000E+00  0.00000000000E+00  0.11566293959E+04  0.11566293959E+04  0.50400001928E-02 0. -1.
        1   -1    0    0  501    0  0.00000000000E+00  0.00000000000E+00 -0.15605175920E+04  0.15605175920E+04  0.50400001928E-02 0.  1.
    10030    2    1    2    0    0  0.00000000000E+00  0.00000000000E+00 -0.40388819607E+03  0.27171469879E+04  0.26869614956E+04 0.  0.
        4    1    3    3  502    0  0.11933860826E+03  0.12685257153E+04 -0.63280542236E+03  0.14226185397E+04  0.12699999809E+01 0. -1.
       -4    1    3    3    0  502 -0.11933860826E+03 -0.12685257153E+04  0.22891722629E+03  0.12945284482E+04  0.12699999809E+01 0.  1.
</event>
<event>
 5   0  0.7566905E-07  0.2704046E+04  0.7818609E-02  0.8333693E-01
       -1   -1    0    0    0  501  0.00000000000E+00  0.00000000000E+00  0.98981921425E+03  0.98981921426E+03  0.50400001928E-02 0. -1.
        1   -1    0    0  501    0  0.00000000000E+00  0.00000000000E+00 -0.18467674355E+04  0.18467674355E+04  0.50400001928E-02 0.  1.
    10030    2    1    2    0    0  0.00000000000E+00  0.00000000000E+00 -0.85694822127E+03  0.28365866498E+04  0.27040457777E+04 0.  0.
        1    1    3    3  502    0  0.13404875192E+04  0.12169987652E+03 -0.56219067723E+03  0.14586898253E+04  0.50400001928E-02 0.  1.
       -1    1    3    3    0  502 -0.13404875192E+04 -0.12169987652E+03 -0.29475754403E+03  0.13778968244E+04  0.50400001928E-02 0. -1.
</event>
<event>
 5   0  0.7566905E-07  0.2700175E+04  0.7818609E-02  0.8334948E-01
        1   -1    0    0  501    0  0.00000000000E+00  0.00000000000E+00  0.13217434217E+04  0.13217434218E+04  0.50400001928E-02 0. -1.
       -1   -1    0    0    0  501  0.00000000000E+00  0.00000000000E+00 -0.13790395015E+04  0.13790395015E+04  0.50400001928E-02 0.  1.
    10030    2    1    2    0    0  0.00000000000E+00  0.00000000000E+00 -0.57296079782E+02  0.27007829233E+04  0.27001750977E+04 0.  0.
        1    1    3    3  502    0  0.70070799112E+03  0.62847571588E+03  0.93943499612E+03  0.13298539492E+04  0.50400001928E-02 0. -1.
       -1    1    3    3    0  502 -0.70070799112E+03 -0.62847571588E+03 -0.99673107590E+03  0.13709289741E+04  0.50400001928E-02 0.  1.
</event>
<event>
 5   0  0.7566905E-07  0.2697719E+04  0.7818609E-02  0.8335746E-01
       -1   -1    0    0    0  501  0.00000000000E+00  0.00000000000E+00  0.15159163349E+04  0.15159163349E+04  0.50400001928E-02 0. -1.
        1   -1    0    0  501    0  0.00000000000E+00  0.00000000000E+00 -0.12002123841E+04  0.12002123841E+04  0.50400001928E-02 0.  1.
    10030    2    1    2    0    0  0.00000000000E+00  0.00000000000E+00  0.31570395087E+03  0.27161287190E+04  0.26977187091E+04 0.  0.
        1    1    3    3  502    0  0.95195271893E+03 -0.47348632846E+03 -0.67788391755E+03  0.12609242198E+04  0.50400001928E-02 0.  1.
       -1    1    3    3    0  502 -0.95195271893E+03  0.47348632846E+03  0.99358786842E+03  0.14552044992E+04  0.50400001928E-02 0. -1.
</event>
<event>
 5   0  0.7436613E-07  0.2708567E+04  0.7818609E-02  0.8332231E-01
       -1   -1    0    0    0  501  0.00000000000E+00  0.00000000000E+00  0.14563387106E+04  0.14563387107E+04  0.50400001928E-02 0.  1.
        1   -1    0    0  501    0  0.00000000000E+00  0.00000000000E+00 -0.12593801222E+04  0.12593801222E+04  0.50400001928E-02 0. -1.
    10030    2    1    2    0    0  0.00000000000E+00  0.00000000000E+00  0.19695858849E+03  0.27157188328E+04  0.27085671661E+04 0.  0.
        2    1    3    3  502    0 -0.84420831661E+03  0.58880088763E+03  0.98097933706E+03  0.14218630830E+04  0.25500000920E-02 0.  1.
       -2    1    3    3    0  502  0.84420831661E+03 -0.58880088763E+03 -0.78402074857E+03  0.12938557498E+04  0.25500000920E-02 0. -1.
</event>
<event>
 5   0  0.7806808E-07  0.2719898E+04  0.7818609E-02  0.8328578E-01
        1   -1    0    0  501    0  0.00000000000E+00  0.00000000000E+00  0.31634055272E+04  0.31634055272E+04  0.50400001928E-02 0.  1.
       -1   -1    0    0    0  501  0.00000000000E+00  0.00000000000E+00 -0.58464237506E+03  0.58464237508E+03  0.50400001928E-02 0. -1.
    10030    2    1    2    0    0  0.00000000000E+00  0.00000000000E+00  0.25787631521E+04  0.37480479023E+04  0.27198977339E+04 0.  0.
        5    1    3    3  502    0  0.40501796084E+02  0.33083903951E+03  0.31062371881E+04  0.31240720901E+04  0.46999998093E+01 0.  1.
       -5    1    3    3    0  502 -0.40501796084E+02 -0.33083903951E+03 -0.52747403596E+03  0.62397581216E+03  0.46999998093E+01 0. -1.
</event>
<event>
 5   0  0.2063087E-06  0.2700043E+04  0.7818609E-02  0.8334991E-01
       -2   -1    0    0    0  501  0.00000000000E+00  0.00000000000E+00  0.11640490844E+04  0.11640490844E+04  0.25500000920E-02 0.  1.
        2   -1    0    0  501    0  0.00000000000E+00  0.00000000000E+00 -0.15657053245E+04  0.15657053245E+04  0.25500000920E-02 0. -1.
    10030    2    1    2    0    0  0.00000000000E+00  0.00000000000E+00 -0.40165624004E+03  0.27297544089E+04  0.27000428511E+04 0.  0.
        3    1    3    3  502    0 -0.12848498275E+04 -0.37719242828E+03 -0.27345494908E+02  0.13393509598E+04  0.10100000352E+00 0.  1.
       -3    1    3    3    0  502  0.12848498275E+04  0.37719242828E+03 -0.37431074514E+03  0.13904034491E+04  0.10100000352E+00 0. -1.
</event>
<event>
 5   0  0.7335091E-07  0.2701740E+04  0.7818609E-02  0.8334441E-01
        1   -1    0    0  501    0  0.00000000000E+00  0.00000000000E+00  0.11077287226E+04  0.11077287226E+04  0.50400001928E-02 0. -1.
       -1   -1    0    0    0  501  0.00000000000E+00  0.00000000000E+00 -0.16473795544E+04  0.16473795544E+04  0.50400001928E-02 0.  1.
    10030    2    1    2    0    0  0.00000000000E+00  0.00000000000E+00 -0.53965083184E+03  0.27551082770E+04  0.27017399204E+04 0.  0.
        3    1    3    3  502    0 -0.11345677129E+04  0.52152826848E+03  0.25573254647E+03  0.12746116175E+04  0.10100000352E+00 0. -1.
       -3    1    3    3    0  502  0.11345677129E+04 -0.52152826848E+03 -0.79538337830E+03  0.14804966595E+04  0.10100000352E+00 0.  1.
</event>
<event>
 5   0  0.7436613E-07  0.2701418E+04  0.7818609E-02  0.8334545E-01
        1   -1    0    0  501    0  0.00000000000E+00  0.00000000000E+00  0.10933512750E+04  0.10933512751E+04  0.50400001928E-02 0.  1.
       -1   -1    0    0    0  501  0.00000000000E+00  0.00000000000E+00 -0.16686447798E+04  0.16686447798E+04  0.50400001928E-02 0. -1.
    10030    2    1    2    0    0  0.00000000000E+00  0.00000000000E+00 -0.57529350477E+03  0.27619960549E+04  0.27014180703E+04 0.  0.
        2    1    3    3  502    0  0.28080752563E+03  0.23873532664E+03 -0.16162351734E+04  0.16577284333E+04  0.25500000920E-02 0. -1.
       -2    1    3    3    0  502 -0.28080752563E+03 -0.23873532664E+03  0.10409416686E+04  0.11042676216E+04  0.25500000920E-02 0.  1.
</event>
<event>
 5   0  0.1991277E-06  0.2705907E+04  0.7818609E-02  0.8333091E-01
       -2   -1    0    0    0  501  0.00000000000E+00  0.00000000000E+00  0.94786759972E+03  0.94786759973E+03  0.25500000920E-02 0. -1.
        2   -1    0    0  501    0  0.00000000000E+00  0.00000000000E+00 -0.19311585580E+04  0.19311585580E+04  0.25500000920E-02 0.  1.
    10030    2    1    2    0    0  0.00000000000E+00  0.00000000000E+00 -0.98329095824E+03  0.28790261577E+04  0.27059065963E+04 0.  0.
        5    1    3    3  502    0 -0.49805359970E+03 -0.10577427706E+04 -0.12160759983E+04  0.16869321506E+04  0.46999998093E+01 0.  1.
       -5    1    3    3    0  502  0.49805359970E+03  0.10577427706E+04  0.23278504005E+03  0.11920940071E+04  0.46999998093E+01 0. -1.
</event>
<event>
 5   0  0.2063087E-06  0.2713577E+04  0.7818609E-02  0.8330613E-01
        2   -1    0    0  501    0  0.00000000000E+00  0.00000000000E+00  0.13892659044E+04  0.13892659044E+04  0.25500000920E-02 0. -1.
       -2   -1    0    0    0  501  0.00000000000E+00  0.00000000000E+00 -0.13250700149E+04  0.13250700149E+04  0.25500000920E-02 0.  1.
    10030    2    1    2    0    0  0.00000000000E+00  0.00000000000E+00  0.64195889429E+02  0.27143359193E+04  0.27135766749E+04 0.  0.
        3    1    3    3  502    0 -0.11052608660E+03 -0.24236905047E+03 -0.12986561177E+04  0.13256947216E+04  0.10100000352E+00 0.  1.
       -3    1    3    3    0  502  0.11052608660E+03  0.24236905047E+03  0.13628520072E+04  0.13886411977E+04  0.10100000352E+00 0. -1.
</event>
<event>
 5   0  0.7566905E-07  0.2708164E+04  0.7818609E-02  0.8332361E-01
       -1   -1    0    0    0  501  0.00000000000E+00  0.00000000000E+00  0.72262382103E+03  0.72262382105E+03  0.50400001928E-02 0.  1.
        1   -1    0    0  501    0  0.00000000000E+00  0.00000000000E+00 -0.25373348175E+04  0.25373348175E+04  0.50400001928E-02 0. -1.
    10030    2    1    2    0    0  0.00000000000E+00  0.00000000000E+00 -0.18147109964E+04  0.32599586385E+04  0.27081643828E+04 0.  0.
        1    1    3    3  502    0  0.12069141335E+04 -0.99078058545E+02 -0.17803627243E+03  0.12239914631E+04  0.50400001928E-02 0.  1.
       -1    1    3    3    0  502 -0.12069141335E+04  0.99078058545E+02 -0.16366747240E+04  0.20359671755E+04  0.50400001928E-02 0. -1.
</event>
<event>
 5   0  0.1999104E-06  0.2701279E+04  0.7818609E-02  0.8334590E-01
        2   -1    0    0  501    0  0.00000000000E+00  0.00000000000E+00  0.19941903361E+04  0.19941903361E+04  0.25500000920E-02 0.  1.
       -2   -1    0    0    0  501  0.00000000000E+00  0.00000000000E+00 -0.91477047199E+03  0.91477047199E+03  0.25500000920E-02 0. -1.
    10030    2    1    2    0    0  0.00000000000E+00  0.00000000000E+00  0.10794198641E+04  0.29089608081E+04  0.27012785380E+04 0.  0.
        4    1    3    3  502    0  0.51151062294E+03 -0.65136274688E+03 -0.60923297624E+03  0.10281454069E+04  0.12699999809E+01 0. -1.
       -4    1    3    3    0  502 -0.51151062294E+03  0.65136274688E+03  0.16886528403E+04  0.18808154012E+04  0.12699999809E+01 0.  1.
</event>
<event>
 5   0  0.2030645E-06  0.2694637E+04  0.7818609E-02  0.8336747E-01
       -2   -1    0    0    0  501  0.00000000000E+00  0.00000000000E+00  0.85998116769E+03  0.85998116770E+03  0.25500000920E-02 0. -1.
        2   -1    0    0  501    0  0.00000000000E+00  0.00000000000E+00 -0.21108219204E+04  0.21108219204E+04  0.25500000920E-02 0.  1.
    10030    2    1    2    0    0  0.00000000000E+00  0.00000000000E+00 -0.12508407527E+04  0.29708030881E+04  0.26946369699E+04 0.  0.
        1    1    3    3  502    0 -0.23646437588E+03  0.13263665473E+04 -0.63663549575E+03  0.14901236101E+04  0.50400001928E-02 0.  1.
       -1    1    3    3    0  502  0.23646437588E+03 -0.13263665473E+04 -0.61420525697E+03  0.14806794780E+04  0.50400001928E-02 0. -1.
</event>
<event>
 5   0  0.2063087E-06  0.2696402E+04  0.7818609E-02  0.8336173E-01
        2   -1    0    0  501    0  0.00000000000E+00  0.00000000000E+00  0.15836938932E+04  0.15836938932E+04  0.25500000920E-02 0. -1.
       -2   -1    0    0    0  501  0.00000000000E+00  0.00000000000E+00 -0.11477256141E+04  0.11477256142E+04  0.25500000920E-02 0.  1.
    10030    2    1    2    0    0  0.00000000000E+00  0.00000000000E+00  0.43596827901E+03  0.27314195073E+04  0.26964020814E+04 0.  0.
        3    1    3    3  502    0 -0.62754064546E+03  0.11910010987E+04  0.29211343319E+03  0.13775417042E+04  0.10100000352E+00 0. -1.
       -3    1    3    3    0  502  0.62754064546E+03 -0.11910010987E+04  0.14385484582E+03  0.13538778031E+04  0.10100000352E+00 0.  1.
</event>
<event>
 5   0  0.7806808E-07  0.2700085E+04  0.7818609E-02  0.8334977E-01
       -1   -1    0    0    0  501  0.00000000000E+00  0.00000000000E+00  0.11041512953E+04  0.11041512953E+04  0.50400001928E-02 0. -1.
        1   -1    0    0  501    0  0.00000000000E+00  0.00000000000E+00 -0.16506927863E+04  0.16506927863E+04  0.50400001928E-02 0.  1.
    10030    2    1    2    0    0  0.00000000000E+00  0.00000000000E+00 -0.54654149104E+03  0.27548440816E+04  0.27000848714E+04 0.  0.
        5    1    3    3  502    0 -0.12597812383E+03  0.22773858311E+03  0.10783053172E+04  0.11092789537E+04  0.46999998093E+01 0. -1.
       -5    1    3    3    0  502  0.12597812383E+03 -0.22773858311E+03 -0.16248468083E+04  0.16455651279E+04  0.46999998093E+01 0.  1.
</event>
<event>
 5   0  0.7436613E-07  0.2699759E+04  0.7818609E-02  0.8335083E-01
       -1   -1    0    0    0  501  0.00000000000E+00  0.00000000000E+00  0.12403518674E+04  0.12403518674E+04  0.50400001928E-02 0.  1.
        1   -1    0    0  501    0  0.00000000000E+00  0.00000000000E+00 -0.14690789285E+04  0.14690789285E+04  0.50400001928E-02 0. -1.
    10030    2    1    2    0    0  0.00000000000E+00  0.00000000000E+00 -0.22872706109E+03  0.27094307960E+04  0.26997590947E+04 0.  0.
        2    1    3    3  502    0 -0.60189087797E+03 -0.63214712060E+03 -0.11477572776E+04  0.14419533208E+04  0.25500000920E-02 0. -1.
       -2    1    3    3    0  502  0.60189087797E+03  0.63214712060E+03  0.91903021654E+03  0.12674774751E+04  0.25500000920E-02 0.  1.
</event>
<event>
 5   0  0.7335091E-07  0.2699639E+04  0.7818609E-02  0.8335122E-01
        1   -1    0    0  501    0  0.00000000000E+00  0.00000000000E+00  0.10315925280E+04  0.10315925280E+04  0.50400001928E-02 0.  1.
       -1   -1    0    0    0  501  0.00000000000E+00  0.00000000000E+00 -0.17662130415E+04  0.17662130415E+04  0.50400001928E-02 0. -1.
    10030    2    1    2    0    0  0.00000000000E+00  0.00000000000E+00 -0.73462051345E+03  0.27978055695E+04  0.26996386251E+04 0.  0.
        3    1    3    3  502    0  0.10634141031E+04 -0.24788435168E+03 -0.11897124264E+04  0.16148411297E+04  0.10100000352E+00 0. -1.
       -3    1    3    3    0  502 -0.10634141031E+04  0.24788435168E+03  0.45509191291E+03  0.11829644398E+04  0.10100000352E+00 0.  1.
</event>
<event>
 5   0  0.1932012E-06  0.2699874E+04  0.7818609E-02  0.8335046E-01
        2   -1    0    0  501    0  0.00000000000E+00  0.00000000000E+00  0.24675753992E+04  0.24675753992E+04  0.25500000920E-02 0.  1.
       -2   -1    0    0    0  501  0.00000000000E+00  0.00000000000E+00 -0.73851026176E+03  0.73851026176E+03  0.25500000920E-02 0. -1.
    10030    2    1    2    0    0  0.00000000000E+00  0.00000000000E+00  0.17290651374E+04  0.32060856610E+04  0.26998738889E+04 0.  0.
        2    1    3    3  502    0 -0.97303443982E+03  0.25842533968E+03 -0.20338765357E+03  0.10271057467E+04  0.25500000920E-02 0. -1.
       -2    1    3    3    0  502  0.97303443982E+03 -0.25842533968E+03  0.19324527910E+04  0.21789799143E+04  0.25500000920E-02 0.  1.
</event>
<event>
 5   0  0.1999104E-06  0.2710356E+04  0.7818609E-02  0.8331653E-01
       -2   -1    0    0    0  501  0.00000000000E+00  0.00000000000E+00  0.82634736847E+03  0.82634736848E+03  0.25500000920E-02 0.  1.
        2   -1    0    0  501    0  0.00000000000E+00  0.00000000000E+00 -0.22224396247E+04  0.22224396247E+04  0.25500000920E-02 0. -1.
    10030    2    1    2    0    0  0.00000000000E+00  0.00000000000E+00 -0.13960922562E+04  0.30487869932E+04  0.27103557962E+04 0.  0.
        4    1    3    3  502    0 -0.65269660500E+03  0.26334109328E+03  0.60463614797E+03  0.92787276817E+03  0.12699999809E+01 0.  1.
       -4    1    3    3    0  502  0.65269660500E+03 -0.26334109328E+03 -0.20007284042E+04  0.21209142250E+04  0.12699999809E+01 0. -1.
</event>
<event>
 5   0  0.7436613E-07  0.2708446E+04  0.7818609E-02  0.8332270E-01
       -1   -1    0    0    0  501  0.00000000000E+00  0.00000000000E+00  0.13107311889E+04  0.13107311889E+04  0.50400001928E-02 0. -1.
        1   -1    0    0  501    0  0.00000000000E+00  0.00000000000E+00 -0.13991583564E+04  0.13991583564E+04  0.50400001928E-02 0.  1.
    10030    2    1    2    0    0  0.00000000000E+00  0.00000000000E+00 -0.88427167499E+02  0.27098895453E+04  0.27084464152E+04 0.  0.
        2    1    3    3  502    0  0.11798747912E+04  0.44106868940E+03 -0.54174545492E+03  0.13711798750E+04  0.25500000920E-02 0.  1.
       -2    1    3    3    0  502 -0.11798747912E+04 -0.44106868940E+03  0.45331828742E+03  0.13387096703E+04  0.25500000920E-02 0. -1.
</event>
<event>
 5   0  0.7806808E-07  0.2700829E+04  0.7818609E-02  0.8334736E-01
        1   -1    0    0  501    0  0.00000000000E+00  0.00000000000E+00  0.26012167405E+04  0.26012167405E+04  0.50400001928E-02 0. -1.
       -1   -1    0    0    0  501  0.00000000000E+00  0.00000000000E+00 -0.70106390283E+03  0.70106390285E+03  0.50400001928E-02 0.  1.
    10030    2    1    2    0    0  0.00000000000E+00  0.00000000000E+00  0.19001528376E+04  0.33022806433E+04  0.27008288803E+04 0.  0.
        5    1    3    3  502    0  0.77643807245E+02 -0.25908867615E+03  0.25677493517E+04  0.25819593966E+04  0.46999998093E+01 0. -1.
       -5    1    3    3    0  502 -0.77643807245E+02  0.25908867615E+03 -0.66759651402E+03  0.72032124669E+03  0.46999998093E+01 0.  1.
</event>
<event>
 5   0  0.7436613E-07  0.2693659E+04  0.7818609E-02  0.8337065E-01
       -1   -1    0    0    0  501  0.00000000000E+00  0.00000000000E+00  0.10500314911E+04  0.10500314911E+04  0.50400001928E-02 0.  1.
        1   -1    0    0  501    0  0.00000000000E+00  0.00000000000E+00 -0.17275189990E+04  0.17275189990E+04  0.50400001928E-02 0. -1.
    10030    2    1    2    0    0  0.00000000000E+00  0.00000000000E+00 -0.67748750795E+03  0.27775504901E+04  0.26936587389E+04 0.  0.
        2    1    3    3  502    0 -0.98478974287E+03  0.30893301648E+03  0.55347836815E+03  0.11711484749E+04  0.25500000920E-02 0. -1.
       -2    1    3    3    0  502  0.98478974287E+03 -0.30893301648E+03 -0.12309658761E+04  0.16064020152E+04  0.25500000920E-02 0.  1.
</event>
<event>
 5   0  0.1932012E-06  0.2702513E+04  0.7818609E-02  0.8334190E-01
       -2   -1    0    0    0  501  0.00000000000E+00  0.00000000000E+00  0.16593728481E+04  0.16593728481E+04  0.25500000920E-02 0. -1.
        2   -1    0    0  501    0  0.00000000000E+00  0.00000000000E+00 -0.11003521393E+04  0.11003521393E+04  0.25500000920E-02 0.  1.
    10030    2    1    2    0    0  0.00000000000E+00  0.00000000000E+00  0.55902070877E+03  0.27597249875E+04  0.27025132476E+04 0.  0.
        2    1    3    3  502    0  0.13374965042E+04 -0.12252335353E+03  0.43092471331E+03  0.14105335797E+04  0.25500000920E-02 0.  1.
       -2    1    3    3    0  502 -0.13374965042E+04  0.12252335353E+03  0.12809599546E+03  0.13491914078E+04  0.25500000920E-02 0. -1.
</event>
<event>
 5   0  0.2063087E-06  0.2699719E+04  0.7818609E-02  0.8335096E-01
        2   -1    0    0  501    0  0.00000000000E+00  0.00000000000E+00  0.82255165758E+03  0.82255165759E+03  0.25500000920E-02 0. -1.
       -2   -1    0    0    0  501  0.00000000000E+00  0.00000000000E+00 -0.22152059678E+04  0.22152059678E+04  0.25500000920E-02 0.  1.
    10030    2    1    2    0    0  0.00000000000E+00  0.00000000000E+00 -0.13926543103E+04  0.30377576254E+04  0.26997194971E+04 0.  0.
        3    1    3    3  502    0 -0.11021904954E+04 -0.39607842362E+03  0.58839811504E+02  0.11726739272E+04  0.10100000352E+00 0. -1.
       -3    1    3    3    0  502  0.11021904954E+04  0.39607842362E+03 -0.14514941218E+04  0.18650836983E+04  0.10100000352E+00 0.  1.
</event>
<event>
 5   0  0.1932012E-06  0.2704050E+04  0.7818609E-02  0.8333692E-01
        2   -1    0    0  501    0  0.00000000000E+00  0.00000000000E+00  0.23433285793E+04  0.23433285793E+04  0.25500000920E-02 0.  1.
       -2   -1    0    0    0  501  0.00000000000E+00  0.00000000000E+00 -0.78007508561E+03  0.78007508561E+03  0.25500000920E-02 0. -1.
    10030    2    1    2    0    0  0.00000000000E+00  0.00000000000E+00  0.15632534937E+04  0.31234036649E+04  0.27040504745E+04 0.  0.
        2    1    3    3  502    0 -0.12704244746E+04 -0.36114047827E+03  0.44770685273E+03  0.13945759989E+04  0.25500000920E-02 0.  1.
       -2    1    3    3    0  502  0.12704244746E+04  0.36114047827E+03  0.11155466409E+04  0.17288276660E+04  0.25500000920E-02 0. -1.
</event>
<event>
 5   0  0.7335091E-07  0.2699763E+04  0.7818609E-02  0.8335082E-01
        1   -1    0    0  501    0  0.00000000000E+00  0.00000000000E+00  0.17089424203E+04  0.17089424203E+04  0.50400001928E-02 0. -1.
       -1   -1    0    0    0  501  0.00000000000E+00  0.00000000000E+00 -0.10662617565E+04  0.10662617565E+04  0.50400001928E-02 0.  1.
    10030    2    1    2    0    0  0.00000000000E+00  0.00000000000E+00  0.64268066383E+03  0.27752041768E+04  0.26997629132E+04 0.  0.
        3    1    3    3  502    0  0.74529779629E+02 -0.26633548096E+03 -0.10368259911E+04  0.10730784792E+04  0.10100000352E+00 0.  1.
       -3    1    3    3    0  502 -0.74529779629E+02  0.26633548096E+03  0.16795066549E+04  0.17021256977E+04  0.10100000352E+00 0. -1.
</event>
<event>
 5   0  0.7806808E-07  0.2673869E+04  0.7818609E-02  0.8343534E-01
        1   -1    0    0  501    0  0.00000000000E+00  0.00000000000E+00  0.24573146554E+04  0.24573146554E+04  0.50400001928E-02 0.  1.
       -1   -1    0    0    0  501  0.00000000000E+00  0.00000000000E+00 -0.72737685097E+03  0.72737685099E+03  0.50400001928E-02 0. -1.
    10030    2    1    2    0    0  0.00000000000E+00  0.00000000000E+00  0.17299378044E+04  0.31846915064E+04  0.26738689541E+04 0.  0.
        5    1    3    3  502    0  0.44287631382E+02  0.10906788982E+04 -0.54396974224E+02  0.10929423471E+04  0.46999998093E+01 0. -1.
       -5    1    3    3    0  502 -0.44287631382E+02 -0.10906788982E+04  0.17843347786E+04  0.20917491593E+04  0.46999998093E+01 0.  1.
</event>
<event>
 5   0  0.1991277E-06  0.2699651E+04  0.7818609E-02  0.8335118E-01
        2   -1    0    0  501    0  0.00000000000E+00  0.00000000000E+00  0.24154259418E+04  0.24154259418E+04  0.25500000920E-02 0. -1.
       -2   -1    0    0    0  501  0.00000000000E+00  0.00000000000E+00 -0.75433018683E+03  0.75433018683E+03  0.25500000920E-02 0.  1.
    10030    2    1    2    0    0  0.00000000000E+00  0.00000000000E+00  0.16610957550E+04  0.31697561286E+04  0.26996508678E+04 0.  0.
        5    1    3    3  502    0 -0.10162528321E+04 -0.44747269592E+03  0.17316577146E+04  0.20571004261E+04  0.46999998093E+01 0. -1.
       -5    1    3    3    0  502  0.10162528321E+04  0.44747269592E+03 -0.70561959625E+02  0.11126557026E+04  0.46999998093E+01 0.  1.
</event>
<event>
 5   0  0.7806808E-07  0.2699569E+04  0.7818609E-02  0.8335145E-01
       -1   -1    0    0    0  501  0.00000000000E+00  0.00000000000E+00  0.13560806738E+04  0.13560806738E+04  0.50400001928E-02 0.  1.
        1   -1    0    0  501    0  0.00000000000E+00  0.00000000000E+00 -0.13435178215E+04  0.13435178216E+04  0.50400001928E-02 0. -1.
    10030    2    1    2    0    0  0.00000000000E+00  0.00000000000E+00  0.12562852228E+02  0.26995984953E+04  0.26995692639E+04 0.  0.
        5    1    3    3  502    0 -0.45591651398E+02  0.13488934814E+04 -0.11161236233E+02  0.13497180765E+04  0.46999998093E+01 0.  1.
       -5    1    3    3    0  502  0.45591651398E+02 -0.13488934814E+04  0.23724088461E+02  0.13498804188E+04  0.46999998093E+01 0. -1.
</event>
<event>
 5   0  0.7436613E-07  0.2700612E+04  0.7818609E-02  0.8334807E-01
       -1   -1    0    0    0  501  0.00000000000E+00  0.00000000000E+00  0.81494771882E+03  0.81494771884E+03  0.50400001928E-02 0.  1.
        1   -1    0    0  501    0  0.00000000000E+00  0.00000000000E+00 -0.22373532637E+04  0.22373532637E+04  0.50400001928E-02 0. -1.
    10030    2    1    2    0    0  0.00000000000E+00  0.00000000000E+00 -0.14224055449E+04  0.30523009826E+04  0.27006117370E+04 0.  0.
        2    1    3    3  502    0 -0.11183202679E+04  0.73932177776E+03 -0.89375794225E+03  0.16112231913E+04  0.25500000920E-02 0. -1.
       -2    1    3    3    0  502  0.11183202679E+04 -0.73932177776E+03 -0.52864760265E+03  0.14410777913E+04  0.25500000920E-02 0.  1.
</event>
<event>
 5   0  0.1991277E-06  0.2699052E+04  0.7818609E-02  0.8335313E-01
        2   -1    0    0  501    0  0.00000000000E+00  0.00000000000E+00  0.29315398696E+04  0.29315398696E+04  0.25500000920E-02 0. -1.
       -2   -1    0    0    0  501  0.00000000000E+00  0.00000000000E+00 -0.62125052853E+03  0.62125052854E+03  0.25500000920E-02 0.  1.
    10030    2    1    2    0    0  0.00000000000E+00  0.00000000000E+00  0.23102893410E+04  0.35527903981E+04  0.26990521991E+04 0.  0.
        5    1    3    3  502    0  0.38060178889E+03 -0.98363392212E+03  0.46935481940E+02  0.10557549166E+04  0.46999998093E+01 0.  1.
       -5    1    3    3    0  502 -0.38060178889E+03  0.98363392212E+03  0.22633538591E+04  0.24970354815E+04  0.46999998093E+01 0. -1.
</event>
<event>
 5   0  0.7566905E-07  0.2699691E+04  0.7818609E-02  0.8335105E-01
       -1   -1    0    0    0  501  0.00000000000E+00  0.00000000000E+00  0.13695217458E+04  0.13695217458E+04  0.50400001928E-02 0.  1.
        1   -1    0    0  501    0  0.00000000000E+00  0.00000000000E+00 -0.13304519990E+04  0.13304519991E+04  0.50400001928E-02 0. -1.
    10030    2    1    2    0    0  0.00000000000E+00  0.00000000000E+00  0.39069746798E+02  0.26999737449E+04  0.26996910523E+04 0.  0.
        1    1    3    3  502    0  0.40844200685E+03 -0.87212785664E+03  0.96549388207E+03  0.13636752941E+04  0.50400001928E-02 0.  1.
       -1    1    3    3    0  502 -0.40844200685E+03  0.87212785664E+03 -0.92642413527E+03  0.13362984508E+04  0.50400001928E-02 0. -1.
</event>
<event>
 5   0  0.2063087E-06  0.2704911E+04  0.7818609E-02  0.8333413E-01
       -2   -1    0    0    0  501  0.00000000000E+00  0.00000000000E+00  0.13647550083E+04  0.13647550083E+04  0.25500000920E-02 0.  1.
        2   -1    0    0  501    0  0.00000000000E+00  0.00000000000E+00 -0.13402669099E+04  0.13402669099E+04  0.25500000920E-02 0. -1.
    10030    2    1    2    0    0  0.00000000000E+00  0.00000000000E+00  0.24488098461E+02  0.27050219182E+04  0.27049110726E+04 0.  0.
        3    1    3    3  502    0 -0.66197255087E+03 -0.45748592346E+03  0.10993189255E+04  0.13623520611E+04  0.10100000352E+00 0.  1.
       -3    1    3    3    0  502  0.66197255087E+03  0.45748592346E+03 -0.10748308270E+04  0.13426698571E+04  0.10100000352E+00 0. -1.
</event>
<event>
 5   0  0.2030645E-06  0.2705508E+04  0.7818609E-02  0.8333220E-01
       -2   -1    0    0    0  501  0.00000000000E+00  0.00000000000E+00  0.76569332630E+03  0.76569332631E+03  0.25500000920E-02 0.  1.
        2   -1    0    0  501    0  0.00000000000E+00  0.00000000000E+00 -0.23899170279E+04  0.23899170279E+04  0.25500000920E-02 0. -1.
    10030    2    1    2    0    0  0.00000000000E+00  0.00000000000E+00 -0.16242237016E+04  0.31556103542E+04  0.27055080992E+04 0.  0.
        1    1    3    3  502    0 -0.61472946994E+03 -0.12017376891E+04 -0.91563438986E+03  0.16310892466E+04  0.50400001928E-02 0.  1.
       -1    1    3    3    0  502  0.61472946994E+03  0.12017376891E+04 -0.70858931169E+03  0.15245211075E+04  0.50400001928E-02 0. -1.
</event>
<event>
 5   0  0.2063087E-06  0.2672527E+04  0.7818609E-02  0.8343974E-01
        2   -1    0    0  501    0  0.00000000000E+00  0.00000000000E+00  0.10749398796E+04  0.10749398797E+04  0.25500000920E-02 0. -1.
       -2   -1    0    0    0  501  0.00000000000E+00  0.00000000000E+00 -0.16611168820E+04  0.16611168820E+04  0.25500000920E-02 0.  1.
    10030    2    1    2    0    0  0.00000000000E+00  0.00000000000E+00 -0.58617700233E+03  0.27360567616E+04  0.26725274788E+04 0.  0.
        3    1    3    3  502    0  0.90268365210E+03 -0.41365394756E+03 -0.12085789539E+04  0.15641644613E+04  0.10100000352E+00 0.  1.
       -3    1    3    3    0  502 -0.90268365210E+03  0.41365394756E+03  0.62240195153E+03  0.11718923003E+04  0.10100000352E+00 0. -1.
</event>
<event>
 5   0  0.7436613E-07  0.2696140E+04  0.7818609E-02  0.8336259E-01
        1   -1    0    0  501    0  0.00000000000E+00  0.00000000000E+00  0.13303490090E+04  0.13303490090E+04  0.50400001928E-02 0. -1.
       -1   -1    0    0    0  501  0.00000000000E+00  0.00000000000E+00 -0.13660269321E+04  0.13660269321E+04  0.50400001928E-02 0.  1.
    10030    2    1    2    0    0  0.00000000000E+00  0.00000000000E+00 -0.35677923060E+02  0.26963759411E+04  0.26961398891E+04 0.  0.
        2    1    3    3  502    0  0.22161597005E+03 -0.98529333935E+03 -0.91087625205E+03  0.13600044667E+04  0.25500000920E-02 0.  1.
       -2    1    3    3    0  502 -0.22161597005E+03  0.98529333935E+03  0.87519832899E+03  0.13363714745E+04  0.25500000920E-02 0. -1.
</event>
<event>
 5   0  0.1999104E-06  0.2697423E+04  0.7818609E-02  0.8335842E-01
       -2   -1    0    0    0  501  0.00000000000E+00  0.00000000000E+00  0.14962199972E+04  0.14962199972E+04  0.25500000920E-02 0.  1.
        2   -1    0    0  501    0  0.00000000000E+00  0.00000000000E+00 -0.12157455391E+04  0.12157455391E+04  0.25500000920E-02 0. -1.
    10030    2    1    2    0    0  0.00000000000E+00  0.00000000000E+00  0.28047445809E+03  0.27119655364E+04  0.26974230571E+04 0.  0.
        4    1    3    3  502    0 -0.99680126647E+03 -0.89437843808E+03 -0.20297086575E+02  0.13393801327E+04  0.12699999809E+01 0. -1.
       -4    1    3    3    0  502  0.99680126647E+03  0.89437843808E+03  0.30077154466E+03  0.13725854036E+04  0.12699999809E+01 0.  1.
</event>
<event>
 5   0  0.7806808E-07  0.2700160E+04  0.7818609E-02  0.8334953E-01
       -1   -1    0    0    0  501  0.00000000000E+00  0.00000000000E+00  0.82637692056E+03  0.82637692058E+03  0.50400001928E-02 0. -1.
        1   -1    0    0  501    0  0.00000000000E+00  0.00000000000E+00 -0.22056714440E+04  0.22056714440E+04  0.50400001928E-02 0.  1.
    10030    2    1    2    0    0  0.00000000000E+00  0.00000000000E+00 -0.13792945234E+04  0.30320483646E+04  0.27001599773E+04 0.  0.
        5    1    3    3  502    0 -0.51679671236E+03  0.10237787591E+03 -0.20854680987E+04  0.21509903189E+04  0.46999998093E+01 0.  1.
       -5    1    3    3    0  502  0.51679671236E+03 -0.10237787591E+03  0.70617357528E+03  0.88105804565E+03  0.46999998093E+01 0. -1.
</event>
<event>
 5   0  0.7436613E-07  0.2705482E+04  0.7818609E-02  0.8333228E-01
       -1   -1    0    0    0  501  0.00000000000E+00  0.00000000000E+00  0.87041298837E+03  0.87041298838E+03  0.50400001928E-02 0. -1.
        1   -1    0    0  501    0  0.00000000000E+00  0.00000000000E+00 -0.21023452379E+04  0.21023452379E+04  0.50400001928E-02 0.  1.
    10030    2    1    2    0    0  0.00000000000E+00  0.00000000000E+00 -0.12319322495E+04  0.29727582262E+04  0.27054822868E+04 0.  0.
        2    1    3    3  502    0 -0.12790861043E+04  0.32278944831E+03 -0.94496959842E+03  0.16227205034E+04  0.25500000920E-02 0.  1.
       -2    1    3    3    0  502  0.12790861043E+04 -0.32278944831E+03 -0.28696265107E+03  0.13500377229E+04  0.25500000920E-02 0. -1.
</event>
<event>
 5   0  0.7436613E-07  0.2699787E+04  0.7818609E-02  0.8335074E-01
       -1   -1    0    0    0  501  0.00000000000E+00  0.00000000000E+00  0.16935411906E+04  0.16935411906E+04  0.50400001928E-02 0. -1.
        1   -1    0    0  501    0  0.00000000000E+00  0.00000000000E+00 -0.10759775521E+04  0.10759775521E+04  0.50400001928E-02 0.  1.
    10030    2    1    2    0    0  0.00000000000E+00  0.00000000000E+00  0.61756363850E+03  0.27695187427E+04  0.26997868839E+04 0.  0.
        2    1    3    3  502    0 -0.11872994615E+04  0.60434388989E+03  0.85677043523E+02  0.13350101514E+04  0.25500000920E-02 0. -1.
       -2    1    3    3    0  502  0.11872994615E+04 -0.60434388989E+03  0.53188659498E+03  0.14345085913E+04  0.25500000920E-02 0.  1.
</event>
<event>
 5   0  0.7335091E-07  0.2698368E+04  0.7818609E-02  0.8335535E-01
       -1   -1    0    0    0  501  0.00000000000E+00  0.00000000000E+00  0.12091700549E+04  0.12091700549E+04  0.50400001928E-02 0. -1.
        1   -1    0    0  501    0  0.00000000000E+00  0.00000000000E+00 -0.15054107633E+04  0.15054107633E+04  0.50400001928E-02 0.  1.
    10030    2    1    2    0    0  0.00000000000E+00  0.00000000000E+00 -0.29624070847E+03  0.27145808182E+04  0.26983681108E+04 0.  0.
        3    1    3    3  502    0 -0.12647484423E+04 -0.11167917275E+03  0.31095107374E+03  0.13071921972E+04  0.10100000352E+00 0. -1.
       -3    1    3    3    0  502  0.12647484423E+04  0.11167917275E+03 -0.60719178220E+03  0.14073886210E+04  0.10100000352E+00 0.  1.
</event>
<event>
 5   0  0.7806808E-07  0.2697141E+04  0.7818609E-02  0.8335933E-01
       -1   -1    0    0    0  501  0.00000000000E+00  0.00000000000E+00  0.12205222275E+04  0.12205222275E+04  0.50400001928E-02 0. -1.
        1   -1    0    0  501    0  0.00000000000E+00  0.00000000000E+00 -0.14900527990E+04  0.14900527990E+04  0.50400001928E-02 0.  1.
    10030    2    1    2    0    0  0.00000000000E+00  0.00000000000E+00 -0.26953057150E+03  0.27105750265E+04  0.26971411244E+04 0.  0.
        5    1    3    3  502    0  0.82044088390E+03  0.45144602991E+03 -0.11100077348E+04  0.14522623809E+04  0.46999998093E+01 0.  1.
       -5    1    3    3    0  502 -0.82044088390E+03 -0.45144602991E+03  0.84047716326E+03  0.12583126455E+04  0.46999998093E+01 0. -1.
</event>
<event>
 5   0  0.1991277E-06  0.2697306E+04  0.7818609E-02  0.8335880E-01
       -2   -1    0    0    0  501  0.00000000000E+00  0.00000000000E+00  0.95710582286E+03  0.95710582286E+03  0.25500000920E-02 0.  1.
        2   -1    0    0  501    0  0.00000000000E+00  0.00000000000E+00 -0.19003799358E+04  0.19003799358E+04  0.25500000920E-02 0. -1.
    10030    2    1    2    0    0  0.00000000000E+00  0.00000000000E+00 -0.94327411293E+03  0.28574857586E+04  0.26973058426E+04 0.  0.
        5    1    3    3  502    0  0.53841289022E+03  0.90657073064E+03 -0.13624556822E+04  0.17228077391E+04  0.46999998093E+01 0. -1.
       -5    1    3    3    0  502 -0.53841289022E+03 -0.90657073064E+03  0.41918156926E+03  0.11346780195E+04  0.46999998093E+01 0.  1.
</event>
<event>
 5   0  0.7335091E-07  0.2726664E+04  0.7818609E-02  0.8326405E-01
       -1   -1    0    0    0  501  0.00000000000E+00  0.00000000000E+00  0.85007913186E+03  0.85007913187E+03  0.50400001928E-02 0.  1.
        1   -1    0    0  501    0  0.00000000000E+00  0.00000000000E+00 -0.21864718633E+04  0.21864718633E+04  0.50400001928E-02 0. -1.
    10030    2    1    2    0    0  0.00000000000E+00  0.00000000000E+00 -0.13363927315E+04  0.30365509952E+04  0.27266639715E+04 0.  0.
        3    1    3    3  502    0  0.39664775639E+03  0.68715057780E+03  0.56648448253E+03  0.97488975703E+03  0.10100000352E+00 0.  1.
       -3    1    3    3    0  502 -0.39664775639E+03 -0.68715057780E+03 -0.19028772140E+04  0.20616612382E+04  0.10100000352E+00 0. -1.
</event>
<event>
 5   0  0.7806808E-07  0.2694697E+04  0.7818609E-02  0.8336728E-01
       -1   -1    0    0    0  501  0.00000000000E+00  0.00000000000E+00  0.14335971733E+04  0.14335971733E+04  0.50400001928E-02 0. -1.
        1   -1    0    0  501    0  0.00000000000E+00  0.00000000000E+00 -0.12662887262E+04  0.12662887262E+04  0.50400001928E-02 0.  1.
    10030    2    1    2    0    0  0.00000000000E+00  0.00000000000E+00  0.16730844708E+03  0.26998858995E+04  0.26946969689E+04 0.  0.
        5    1    3    3  502    0 -0.10748025735E+04 -0.57560421732E+03  0.65817365768E+03  0.13855451781E+04  0.46999998093E+01 0.  1.
       -5    1    3    3    0  502  0.10748025735E+04  0.57560421732E+03 -0.49086521060E+03  0.13143407214E+04  0.46999998093E+01 0. -1.
</event>
<event>
 5   0  0.7768032E-07  0.2702805E+04  0.7818609E-02  0.8334095E-01
       -1   -1    0    0    0  501  0.00000000000E+00  0.00000000000E+00  0.14617513230E+04  0.14617513230E+04  0.50400001928E-02 0. -1.
        1   -1    0    0  501    0  0.00000000000E+00  0.00000000000E+00 -0.12493838531E+04  0.12493838531E+04  0.50400001928E-02 0.  1.
    10030    2    1    2    0    0  0.00000000000E+00  0.00000000000E+00  0.21236746995E+03  0.27111351761E+04  0.27028048396E+04 0.  0.
        4    1    3    3  502    0  0.17115033444E+03 -0.10421596928E+04  0.95192985803E+03  0.14218162082E+04  0.12699999809E+01 0. -1.
       -4    1    3    3    0  502 -0.17115033444E+03  0.10421596928E+04 -0.73956238808E+03  0.12893189679E+04  0.12699999809E+01 0.  1.
</event>
<event>
 5   0  0.7436613E-07  0.2692940E+04  0.7818609E-02  0.8337299E-01
        1   -1    0    0  501    0  0.00000000000E+00  0.00000000000E+00  0.16460565695E+04  0.16460565695E+04  0.50400001928E-02 0.  1.
       -1   -1    0    0    0  501  0.00000000000E+00  0.00000000000E+00 -0.11014087346E+04  0.11014087346E+04  0.50400001928E-02 0. -1.
    10030    2    1    2    0    0  0.00000000000E+00  0.00000000000E+00  0.54464783489E+03  0.27474653042E+04  0.26929397196E+04 0.  0.
        2    1    3    3  502    0  0.34676005264E+03 -0.68170400339E+03 -0.85827349346E+03  0.11496070076E+04  0.25500000920E-02 0. -1.
       -2    1    3    3    0  502 -0.34676005264E+03  0.68170400339E+03  0.14029213283E+04  0.15978582966E+04  0.25500000920E-02 0.  1.
</event>
<event>
 5   0  0.1932012E-06  0.2699348E+04  0.7818609E-02  0.8335217E-01
       -2   -1    0    0    0  501  0.00000000000E+00  0.00000000000E+00  0.82909977880E+03  0.82909977881E+03  0.25500000920E-02 0. -1.
        2   -1    0    0  501    0  0.00000000000E+00  0.00000000000E+00 -0.21971054630E+04  0.21971054630E+04  0.25500000920E-02 0.  1.
    10030    2    1    2    0    0  0.00000000000E+00  0.00000000000E+00 -0.13680056842E+04  0.30262052418E+04  0.26993478126E+04 0.  0.
        2    1    3    3  502    0 -0.11761267504E+04  0.59563300952E+03 -0.10080860415E+04  0.16596054598E+04  0.25500000920E-02 0.  1.
       -2    1    3    3    0  502  0.11761267504E+04 -0.59563300952E+03 -0.35991964269E+03  0.13665997820E+04  0.25500000920E-02 0. -1.
</event>
<event>
 5   0  0.2063087E-06  0.2700265E+04  0.7818609E-02  0.8334919E-01
        2   -1    0    0  501    0  0.00000000000E+00  0.00000000000E+00  0.13649965555E+04  0.13649965555E+04  0.25500000920E-02 0.  1.
       -2   -1    0    0    0  501  0.00000000000E+00  0.00000000000E+00 -0.13354299267E+04  0.13354299267E+04  0.25500000920E-02 0. -1.
    10030    2    1    2    0    0  0.00000000000E+00  0.00000000000E+00  0.29566628820E+02  0.27004264822E+04  0.27002646167E+04 0.  0.
        3    1    3    3  502    0  0.12138553740E+04 -0.40757978133E+03  0.44293406813E+03  0.13549010097E+04  0.10100000352E+00 0.  1.
       -3    1    3    3    0  502 -0.12138553740E+04  0.40757978133E+03 -0.41336743931E+03  0.13455254725E+04  0.10100000352E+00 0. -1.
</event>
<event>
 5   0  0.1999104E-06  0.2694244E+04  0.7818609E-02  0.8336875E-01
       -2   -1    0    0    0  501  0.00000000000E+00  0.00000000000E+00  0.12668783001E+04  0.12668783001E+04  0.25500000920E-02 0. -1.
        2   -1    0    0  501    0  0.00000000000E+00  0.00000000000E+00 -0.14324479650E+04  0.14324479650E+04  0.25500000920E-02 0.  1.
    10030    2    1    2    0    0  0.00000000000E+00  0.00000000000E+00 -0.16556966486E+03  0.26993262651E+04  0.26942436734E+04 0.  0.
        4    1    3    3  502    0  0.13064368145E+03  0.69780660905E+03  0.10642477572E+04  0.12793071315E+04  0.12699999809E+01 0. -1.
       -4    1    3    3    0  502 -0.13064368145E+03 -0.69780660905E+03 -0.12298174221E+04  0.14200191336E+04  0.12699999809E+01 0.  1.
</event>
<event>
 5   0  0.7806808E-07  0.2699639E+04  0.7818609E-02  0.8335122E-01
       -1   -1    0    0    0  501  0.00000000000E+00  0.00000000000E+00  0.12919581525E+04  0.12919581525E+04  0.50400001928E-02 0. -1.
        1   -1    0    0  501    0  0.00000000000E+00  0.00000000000E+00 -0.14102721433E+04  0.14102721433E+04  0.50400001928E-02 0.  1.
    10030    2    1    2    0    0  0.00000000000E+00  0.00000000000E+00 -0.11831399085E+03  0.27022302958E+04  0.26996389334E+04 0.  0.
        5    1    3    3  502    0  0.41335292725E+03 -0.12780285045E+04  0.74286395403E+02  0.13452724852E+04  0.46999998093E+01 0.  1.
       -5    1    3    3    0  502 -0.41335292725E+03  0.12780285045E+04 -0.19260038625E+03  0.13569578106E+04  0.46999998093E+01 0. -1.
</event>
<event>
 5   0  0.2030645E-06  0.2703207E+04  0.7818609E-02  0.8333965E-01
        2   -1    0    0  501    0  0.00000000000E+00  0.00000000000E+00  0.12472935110E+04  0.12472935111E+04  0.25500000920E-02 0.  1.
       -2   -1    0    0    0  501  0.00000000000E+00  0.00000000000E+00 -0.14646373645E+04  0.14646373645E+04  0.25500000920E-02 0. -1.
    10030    2    1    2    0    0  0.00000000000E+00  0.00000000000E+00 -0.21734385342E+03  0.27119308755E+04  0.27032074880E+04 0.  0.
        1    1    3    3  502    0 -0.10592563976E+04 -0.81173286554E+03 -0.32360221811E+03  0.13731907211E+04  0.50400001928E-02 0. -1.
       -1    1    3    3    0  502  0.10592563976E+04  0.81173286554E+03  0.10625836469E+03  0.13387401544E+04  0.50400001928E-02 0.  1.
</event>
<event>
 5   0  0.1991277E-06  0.2715164E+04  0.7818609E-02  0.8330102E-01
        2   -1    0    0  501    0  0.00000000000E+00  0.00000000000E+00  0.17718854712E+04  0.17718854712E+04  0.25500000920E-02 0.  1.
       -2   -1    0    0    0  501  0.00000000000E+00  0.00000000000E+00 -0.10401512070E+04  0.10401512070E+04  0.25500000920E-02 0. -1.
    10030    2    1    2    0    0  0.00000000000E+00  0.00000000000E+00  0.73173426422E+03  0.28120366782E+04  0.27151639446E+04 0.  0.
        5    1    3    3  502    0  0.83573649922E+01  0.12596189504E+04 -0.15845315757E+03  0.12695823088E+04  0.46999998093E+01 0. -1.
       -5    1    3    3    0  502 -0.83573649922E+01 -0.12596189504E+04  0.89018742179E+03  0.15424543694E+04  0.46999998093E+01 0.  1.
</event>
<event>
 5   0  0.7768032E-07  0.2698695E+04  0.7818609E-02  0.8335428E-01
        1   -1    0    0  501    0  0.00000000000E+00  0.00000000000E+00  0.89667716705E+03  0.89667716706E+03  0.50400001928E-02 0. -1.
       -1   -1    0    0    0  501  0.00000000000E+00  0.00000000000E+00 -0.20305400708E+04  0.20305400708E+04  0.50400001928E-02 0.  1.
    10030    2    1    2    0    0  0.00000000000E+00  0.00000000000E+00 -0.11338629038E+04  0.29272172379E+04  0.26986951797E+04 0.  0.
        4    1    3    3  502    0 -0.11200212787E+04 -0.55722871008E+03 -0.18352247175E+02  0.12511154695E+04  0.12699999809E+01 0. -1.
       -4    1    3    3    0  502  0.11200212787E+04  0.55722871008E+03 -0.11155106566E+04  0.16761017684E+04  0.12699999809E+01 0.  1.
</event>
<event>
 5   0  0.7436613E-07  0.2699889E+04  0.7818609E-02  0.8335041E-01
       -1   -1    0    0    0  501  0.00000000000E+00  0.00000000000E+00  0.13415649618E+04  0.13415649618E+04  0.50400001928E-02 0.  1.
        1   -1    0    0  501    0  0.00000000000E+00  0.00000000000E+00 -0.13583762850E+04  0.13583762850E+04  0.50400001928E-02 0. -1.
    10030    2    1    2    0    0  0.00000000000E+00  0.00000000000E+00 -0.16811323266E+02  0.26999412468E+04  0.26998889080E+04 0.  0.
        2    1    3    3  502    0 -0.92740836156E+03  0.89967266326E+03  0.38256592952E+03  0.13475362186E+04  0.25500000920E-02 0.  1.
       -2    1    3    3    0  502  0.92740836156E+03 -0.89967266326E+03 -0.39937725279E+03  0.13524050282E+04  0.25500000920E-02 0. -1.
</event>
<event>
 5   0  0.7436613E-07  0.2725863E+04  0.7818609E-02  0.8326662E-01
        1   -1    0    0  501    0  0.00000000000E+00  0.00000000000E+00  0.19734617094E+04  0.19734617095E+04  0.50400001928E-02 0. -1.
       -1   -1    0    0    0  501  0.00000000000E+00  0.00000000000E+00 -0.94128084729E+03  0.94128084730E+03  0.50400001928E-02 0.  1.
    10030    2    1    2    0    0  0.00000000000E+00  0.00000000000E+00  0.10321808622E+04  0.29147425568E+04  0.27258625864E+04 0.  0.
        2    1    3    3  502    0  0.11141250299E+04  0.27739760546E+03  0.13013887780E+04  0.17354644235E+04  0.25500000920E-02 0. -1.
       -2    1    3    3    0  502 -0.11141250299E+04 -0.27739760546E+03 -0.26920791583E+03  0.11792781333E+04  0.25500000920E-02 0.  1.
</event>
<event>
 5   0  0.7806808E-07  0.2694645E+04  0.7818609E-02  0.8336745E-01
        1   -1    0    0  501    0  0.00000000000E+00  0.00000000000E+00  0.21972538932E+04  0.21972538932E+04  0.50400001928E-02 0. -1.
       -1   -1    0    0    0  501  0.00000000000E+00  0.00000000000E+00 -0.82615756961E+03  0.82615756962E+03  0.50400001928E-02 0.  1.
    10030    2    1    2    0    0  0.00000000000E+00  0.00000000000E+00  0.13710963236E+04  0.30234114628E+04  0.26946450128E+04 0.  0.
        5    1    3    3  502    0 -0.45258389854E+02 -0.16914073775E+03  0.21844252115E+04  0.21914361742E+04  0.46999998093E+01 0. -1.
       -5    1    3    3    0  502  0.45258389854E+02  0.16914073775E+03 -0.81332888789E+03  0.83197528863E+03  0.46999998093E+01 0.  1.
</event>
<event>
 5   0  0.7768032E-07  0.2700038E+04  0.7818609E-02  0.8334993E-01
        1   -1    0    0  501    0  0.00000000000E+00  0.00000000000E+00  0.22236168817E+04  0.22236168817E+04  0.50400001928E-02 0. -1.
       -1   -1    0    0    0  501  0.00000000000E+00  0.00000000000E+00 -0.81963384131E+03  0.81963384132E+03  0.50400001928E-02 0.  1.
    10030    2    1    2    0    0  0.00000000000E+00  0.00000000000E+00  0.14039830404E+04  0.30432507230E+04  0.27000382563E+04 0.  0.
        4    1    3    3  502    0  0.53442791154E+03  0.60475206074E+03  0.19217828251E+04  0.20843677908E+04  0.12699999809E+01 0. -1.
       -4    1    3    3    0  502 -0.53442791154E+03 -0.60475206074E+03 -0.51779978476E+03  0.95888293217E+03  0.12699999809E+01 0.  1.
</event>
<event>
 5   0  0.1932012E-06  0.2699179E+04  0.7818609E-02  0.8335271E-01
        2   -1    0    0  501    0  0.00000000000E+00  0.00000000000E+00  0.14235059438E+04  0.14235059438E+04  0.25500000920E-02 0.  1.
       -2   -1    0    0    0  501  0.00000000000E+00  0.00000000000E+00 -0.12795109663E+04  0.12795109663E+04  0.25500000920E-02 0. -1.
    10030    2    1    2    0    0  0.00000000000E+00  0.00000000000E+00  0.14399497755E+03  0.27030169101E+04  0.26991787385E+04 0.  0.
        2    1    3    3  502    0  0.50149377793E+03  0.74144409401E+02 -0.11805400571E+04  0.12847833394E+04  0.25500000920E-02 0. -1.
       -2    1    3    3    0  502 -0.50149377793E+03 -0.74144409401E+02  0.13245350347E+04  0.14182335706E+04  0.25500000920E-02 0.  1.
</event>
<event>
 5   0  0.1932012E-06  0.2706629E+04  0.7818609E-02  0.8332857E-01
        2   -1    0    0  501    0  0.00000000000E+00  0.00000000000E+00  0.15200463290E+04  0.15200463290E+04  0.25500000920E-02 0. -1.
       -2   -1    0    0    0  501  0.00000000000E+00  0.00000000000E+00 -0.12048710981E+04  0.12048710981E+04  0.25500000920E-02 0.  1.
    10030    2    1    2    0    0  0.00000000000E+00  0.00000000000E+00  0.31517523088E+03  0.27249174272E+04  0.27066288181E+04 0.  0.
        2    1    3    3  502    0 -0.23070106947E+03 -0.29048311649E+03 -0.11526888725E+04  0.12109067104E+04  0.25500000920E-02 0.  1.
       -2    1    3    3    0  502  0.23070106947E+03  0.29048311649E+03  0.14678641034E+04  0.15140107168E+04  0.25500000920E-02 0. -1.
</event>
<event>
 5   0  0.2063087E-06  0.2699922E+04  0.7818609E-02  0.8335030E-01
        2   -1    0    0  501    0  0.00000000000E+00  0.00000000000E+00  0.10020057236E+04  0.10020057236E+04  0.25500000920E-02 0. -1.
       -2   -1    0    0    0  501  0.00000000000E+00  0.00000000000E+00 -0.18187471682E+04  0.18187471682E+04  0.25500000920E-02 0.  1.
    10030    2    1    2    0    0  0.00000000000E+00  0.00000000000E+00 -0.81674144464E+03  0.28207528918E+04  0.26999222747E+04 0.  0.
        3    1    3    3  502    0 -0.40970297835E+03  0.11018433013E+04 -0.11017595083E+04  0.16111453117E+04  0.10100000352E+00 0.  1.
       -3    1    3    3    0  502  0.40970297835E+03 -0.11018433013E+04  0.28501806363E+03  0.12096075801E+04  0.10100000352E+00 0. -1.
</event>
<event>
 5   0  0.7566905E-07  0.2699272E+04  0.7818609E-02  0.8335241E-01
        1   -1    0    0  501    0  0.00000000000E+00  0.00000000000E+00  0.14478377957E+04  0.14478377957E+04  0.50400001928E-02 0. -1.
       -1   -1    0    0    0  501  0.00000000000E+00  0.00000000000E+00 -0.12580949721E+04  0.12580949721E+04  0.50400001928E-02 0.  1.
    10030    2    1    2    0    0  0.00000000000E+00  0.00000000000E+00  0.18974282359E+03  0.27059327678E+04  0.26992720879E+04 0.  0.
        1    1    3    3  502    0 -0.11680183565E+04 -0.66853949069E+03  0.19663801599E+03  0.13601023642E+04  0.50400001928E-02 0. -1.
       -1    1    3    3    0  502  0.11680183565E+04  0.66853949069E+03 -0.68951924012E+01  0.13458304036E+04  0.50400001928E-02 0.  1.
</event>
<event>
 5   0  0.7436613E-07  0.2669680E+04  0.7818609E-02  0.8344910E-01
        1   -1    0    0  501    0  0.00000000000E+00  0.00000000000E+00  0.16921809844E+04  0.16921809844E+04  0.50400001928E-02 0. -1.
       -1   -1    0    0    0  501  0.00000000000E+00  0.00000000000E+00 -0.10529593753E+04  0.10529593753E+04  0.50400001928E-02 0.  1.
    10030    2    1    2    0    0  0.00000000000E+00  0.00000000000E+00  0.63922160917E+03  0.27451403597E+04  0.26696800050E+04 0.  0.
        2    1    3    3  502    0  0.57506003780E+03 -0.10097713670E+04  0.99503780823E+03  0.15298472147E+04  0.25500000920E-02 0. -1.
       -2    1    3    3    0  502 -0.57506003780E+03  0.10097713670E+04 -0.35581619906E+03  0.12152931450E+04  0.25500000920E-02 0.  1.
</event>
<event>
 5   0  0.7436613E-07  0.2697033E+04  0.7818609E-02  0.8335968E-01
        1   -1    0    0  501    0  0.00000000000E+00  0.00000000000E+00  0.11393836403E+04  0.11393836403E+04  0.50400001928E-02 0.  1.
       -1   -1    0    0    0  501  0.00000000000E+00  0.00000000000E+00 -0.15960351494E+04  0.15960351494E+04  0.50400001928E-02 0. -1.
    10030    2    1    2    0    0  0.00000000000E+00  0.00000000000E+00 -0.45665150916E+03  0.27354187897E+04  0.26970326943E+04 0.  0.
        2    1    3    3  502    0  0.68179115596E+03 -0.19331082209E+03 -0.13919508785E+04  0.15619652693E+04  0.25500000920E-02 0. -1.
       -2    1    3    3    0  502 -0.68179115596E+03  0.19331082209E+03  0.93529936936E+03  0.11734535204E+04  0.25500000920E-02 0.  1.
</event>
<event>
 5   0  0.2063087E-06  0.2709909E+04  0.7818609E-02  0.8331797E-01
        2   -1    0    0  501    0  0.00000000000E+00  0.00000000000E+00  0.20052678906E+04  0.20052678906E+04  0.25500000920E-02 0.  1.
       -2   -1    0    0    0  501  0.00000000000E+00  0.00000000000E+00 -0.91553962380E+03  0.91553962380E+03  0.25500000920E-02 0. -1.
    10030    2    1    2    0    0  0.00000000000E+00  0.00000000000E+00  0.10897282668E+04  0.29208075144E+04  0.27099093787E+04 0.  0.
        3    1    3    3  502    0 -0.58162726708E+03  0.85781945804E+03 -0.39584767493E+03  0.11094322387E+04  0.10100000352E+00 0. -1.
       -3    1    3    3    0  502  0.58162726708E+03 -0.85781945804E+03  0.14855759417E+04  0.18113752756E+04  0.10100000352E+00 0.  1.
</event>
<event>
 5   0  0.1932012E-06  0.2701632E+04  0.7818609E-02  0.8334476E-01
       -2   -1    0    0    0  501  0.00000000000E+00  0.00000000000E+00  0.10060787092E+04  0.10060787092E+04  0.25500000920E-02 0. -1.
        2   -1    0    0  501    0  0.00000000000E+00  0.00000000000E+00 -0.18136787709E+04  0.18136787709E+04  0.25500000920E-02 0.  1.
    10030    2    1    2    0    0  0.00000000000E+00  0.00000000000E+00 -0.80760006179E+03  0.28197574801E+04  0.27016318008E+04 0.  0.
        2    1    3    3  502    0  0.85187473287E+03  0.10085739634E+03  0.68530006185E+03  0.10979521618E+04  0.25500000920E-02 0. -1.
       -2    1    3    3    0  502 -0.85187473287E+03 -0.10085739634E+03 -0.14929001236E+04  0.17218053183E+04  0.25500000920E-02 0.  1.
</event>
<event>
 5   0  0.1932012E-06  0.2695210E+04  0.7818609E-02  0.8336561E-01
       -2   -1    0    0    0  501  0.00000000000E+00  0.00000000000E+00  0.11108516019E+04  0.11108516019E+04  0.25500000920E-02 0.  1.
        2   -1    0    0  501    0  0.00000000000E+00  0.00000000000E+00 -0.16348165723E+04  0.16348165723E+04  0.25500000920E-02 0. -1.
    10030    2    1    2    0    0  0.00000000000E+00  0.00000000000E+00 -0.52396497037E+03  0.27456681743E+04  0.26952095342E+04 0.  0.
        2    1    3    3  502    0 -0.84241124729E+03  0.73640026104E+03  0.50314224417E+03  0.12268227956E+04  0.25500000920E-02 0.  1.
       -2    1    3    3    0  502  0.84241124729E+03 -0.73640026104E+03 -0.10271072145E+04  0.15188453786E+04  0.25500000920E-02 0. -1.
</event>
<event>
 5   0  0.7768032E-07  0.2697695E+04  0.7818609E-02  0.8335753E-01
        1   -1    0    0  501    0  0.00000000000E+00  0.00000000000E+00  0.99263121889E+03  0.99263121890E+03  0.50400001928E-02 0.  1.
       -1   -1    0    0    0  501  0.00000000000E+00  0.00000000000E+00 -0.18328960159E+04  0.18328960159E+04  0.50400001928E-02 0. -1.
    10030    2    1    2    0    0  0.00000000000E+00  0.00000000000E+00 -0.84026479705E+03  0.28255272348E+04  0.26976951692E+04 0.  0.
        4    1    3    3  502    0 -0.47242824260E+03 -0.10170970618E+04  0.36485734653E+03  0.11793207255E+04  0.12699999809E+01 0.  1.
       -4    1    3    3    0  502  0.47242824260E+03  0.10170970618E+04 -0.12051221436E+04  0.16462065093E+04  0.12699999809E+01 0. -1.
</event>
<event>
 5   0  0.6561875E-07  0.2696496E+04  0.7818609E-02  0.8336143E-01
       -3   -1    0    0    0  501  0.00000000000E+00  0.00000000000E+00  0.17271609547E+04  0.17271609576E+04  0.10100000352E+00 0. -1.
        3   -1    0    0  501    0  0.00000000000E+00  0.00000000000E+00 -0.10524627337E+04  0.10524627385E+04  0.10100000352E+00 0.  1.
    10030    2    1    2    0    0  0.00000000000E+00  0.00000000000E+00  0.67469822101E+03  0.27796236961E+04  0.26964959118E+04 0.  0.
        3    1    3    3  502    0  0.28218072969E+03  0.11705096298E+04  0.96272607774E+03  0.15416096356E+04  0.10100000352E+00 0.  1.
       -3    1    3    3    0  502 -0.28218072969E+03 -0.11705096298E+04 -0.28802785673E+03  0.12380140605E+04  0.10100000352E+00 0. -1.
</event>
<event>
 5   0  0.2030645E-06  0.2700491E+04  0.7818609E-02  0.8334846E-01
       -2   -1    0    0    0  501  0.00000000000E+00  0.00000000000E+00  0.93171235782E+03  0.93171235782E+03  0.25500000920E-02 0.  1.
        2   -1    0    0  501    0  0.00000000000E+00  0.00000000000E+00 -0.19567867100E+04  0.19567867100E+04  0.25500000920E-02 0. -1.
    10030    2    1    2    0    0  0.00000000000E+00  0.00000000000E+00 -0.10250743522E+04  0.28884990678E+04  0.27004905920E+04 0.  0.
        1    1    3    3  502    0 -0.79692121772E+03 -0.61236584695E+03  0.45195358581E+03  0.11019697825E+04  0.50400001928E-02 0.  1.
       -1    1    3    3    0  502  0.79692121772E+03  0.61236584695E+03 -0.14770279380E+04  0.17865292853E+04  0.50400001928E-02 0. -1.
</event>
<event>
 5   0  0.2063087E-06  0.2698286E+04  0.7818609E-02  0.8335561E-01
       -2   -1    0    0    0  501  0.00000000000E+00  0.00000000000E+00  0.26755499009E+04  0.26755499009E+04  0.25500000920E-02 0.  1.
        2   -1    0    0  501    0  0.00000000000E+00  0.00000000000E+00 -0.68030382666E+03  0.68030382666E+03  0.25500000920E-02 0. -1.
    10030    2    1    2    0    0  0.00000000000E+00  0.00000000000E+00  0.19952460743E+04  0.33558537276E+04  0.26982860012E+04 0.  0.
        3    1    3    3  502    0  0.48423187865E+03 -0.82944311496E+03 -0.18076416316E+03  0.97730859310E+03  0.10100000352E+00 0. -1.
       -3    1    3    3    0  502 -0.48423187865E+03  0.82944311496E+03  0.21760102374E+04  0.23785451345E+04  0.10100000352E+00 0.  1.
</event>
<event>
 5   0  0.7436613E-07  0.2701221E+04  0.7818609E-02  0.8334609E-01
       -1   -1    0    0    0  501  0.00000000000E+00  0.00000000000E+00  0.18926492266E+04  0.18926492266E+04  0.50400001928E-02 0. -1.
        1   -1    0    0  501    0  0.00000000000E+00  0.00000000000E+00 -0.96380726605E+03  0.96380726607E+03  0.50400001928E-02 0.  1.
    10030    2    1    2    0    0  0.00000000000E+00  0.00000000000E+00  0.92884196054E+03  0.28564564927E+04  0.27012212621E+04 0.  0.
        2    1    3    3  502    0 -0.89948927477E+02 -0.13336414027E+04  0.66908656758E+03  0.14947799288E+04  0.25500000920E-02 0. -1.
       -2    1    3    3    0  502  0.89948927477E+02  0.13336414027E+04  0.25975539296E+03  0.13616765639E+04  0.25500000920E-02 0.  1.
</event>
<event>
 5   0  0.2063087E-06  0.2703084E+04  0.7818609E-02  0.8334005E-01
        2   -1    0    0  501    0  0.00000000000E+00  0.00000000000E+00  0.15329306143E+04  0.15329306143E+04  0.25500000920E-02 0. -1.
       -2   -1    0    0    0  501  0.00000000000E+00  0.00000000000E+00 -0.11916166607E+04  0.11916166607E+04  0.25500000920E-02 0.  1.
    10030    2    1    2    0    0  0.00000000000E+00  0.00000000000E+00  0.34131395354E+03  0.27245472750E+04  0.27030839127E+04 0.  0.
        3    1    3    3  502    0 -0.10486086147E+04  0.62992234826E+03 -0.40860928083E+03  0.12897068451E+04  0.10100000352E+00 0. -1.
       -3    1    3    3    0  502  0.10486086147E+04 -0.62992234826E+03  0.74992323438E+03  0.14348404299E+04  0.10100000352E+00 0.  1.
</event>
<event>
 5   0  0.1932012E-06  0.2714394E+04  0.7818609E-02  0.8330350E-01
        2   -1    0    0  501    0  0.00000000000E+00  0.00000000000E+00  0.15586272661E+04  0.15586272661E+04  0.25500000920E-02 0.  1.
       -2   -1    0    0    0  501  0.00000000000E+00  0.00000000000E+00 -0.11817989794E+04  0.11817989794E+04  0.25500000920E-02 0. -1.
    10030    2    1    2    0    0  0.00000000000E+00  0.00000000000E+00  0.37682828668E+03  0.27404262455E+04  0.27143943061E+04 0.  0.
        2    1    3    3  502    0 -0.67547245086E+02  0.68438139631E+03  0.13696967789E+04  0.15326479675E+04  0.25500000920E-02 0.  1.
       -2    1    3    3    0  502  0.67547245086E+02 -0.68438139631E+03 -0.99286849225E+03  0.12077782780E+04  0.25500000920E-02 0. -1.
</event>
<event>
 5   0  0.1991277E-06  0.2719199E+04  0.7818609E-02  0.8328802E-01
        2   -1    0    0  501    0  0.00000000000E+00  0.00000000000E+00  0.20138190270E+04  0.20138190270E+04  0.25500000920E-02 0.  1.
       -2   -1    0    0    0  501  0.00000000000E+00  0.00000000000E+00 -0.91791315454E+03  0.91791315454E+03  0.25500000920E-02 0. -1.
    10030    2    1    2    0    0  0.00000000000E+00  0.00000000000E+00  0.10959058725E+04  0.29317321816E+04  0.27191991290E+04 0.  0.
        5    1    3    3  502    0 -0.60085062834E+01  0.34205158249E+03  0.19666468250E+04  0.19961856656E+04  0.46999998093E+01 0.  1.
       -5    1    3    3    0  502  0.60085062834E+01 -0.34205158249E+03 -0.87074095250E+03  0.93554651599E+03  0.46999998093E+01 0. -1.
</event>
<event>
 5   0  0.7806808E-07  0.2699420E+04  0.7818609E-02  0.8335193E-01
        1   -1    0    0  501    0  0.00000000000E+00  0.00000000000E+00  0.10804671708E+04  0.10804671708E+04  0.50400001928E-02 0.  1.
       -1   -1    0    0    0  501  0.00000000000E+00  0.00000000000E+00 -0.16860453425E+04  0.16860453425E+04  0.50400001928E-02 0. -1.
    10030    2    1    2    0    0  0.00000000000E+00  0.00000000000E+00 -0.60557817176E+03  0.27665125133E+04  0.26994196717E+04 0.  0.
        5    1    3    3  502    0  0.11440165265E+04  0.40959320351E+02  0.42999486405E+03  0.12228528742E+04  0.46999998093E+01 0.  1.
       -5    1    3    3    0  502 -0.11440165265E+04 -0.40959320351E+02 -0.10355730358E+04  0.15436596391E+04  0.46999998093E+01 0. -1.
</event>
<event>
 5   0  0.7806808E-07  0.2727117E+04  0.7818609E-02  0.8326260E-01
       -1   -1    0    0    0  501  0.00000000000E+00  0.00000000000E+00  0.99707423196E+03  0.99707423198E+03  0.50400001928E-02 0. -1.
        1   -1    0    0  501    0  0.00000000000E+00  0.00000000000E+00 -0.18647472801E+04  0.18647472801E+04  0.50400001928E-02 0.  1.
    10030    2    1    2    0    0  0.00000000000E+00  0.00000000000E+00 -0.86767304815E+03  0.28618215121E+04  0.27271167648E+04 0.  0.
        5    1    3    3  502    0  0.10142132769E+04  0.23653161895E+02 -0.13899273113E+04  0.17207870478E+04  0.46999998093E+01 0.  1.
       -5    1    3    3    0  502 -0.10142132769E+04 -0.23653161895E+02  0.52225426320E+03  0.11410344643E+04  0.46999998093E+01 0. -1.
</event>
<event>
 5   0  0.2030645E-06  0.2703675E+04  0.7818609E-02  0.8333814E-01
       -2   -1    0    0    0  501  0.00000000000E+00  0.00000000000E+00  0.12805108815E+04  0.12805108815E+04  0.25500000920E-02 0. -1.
        2   -1    0    0  501    0  0.00000000000E+00  0.00000000000E+00 -0.14271366871E+04  0.14271366871E+04  0.25500000920E-02 0.  1.
    10030    2    1    2    0    0  0.00000000000E+00  0.00000000000E+00 -0.14662580551E+03  0.27076475686E+04  0.27036745790E+04 0.  0.
        1    1    3    3  502    0  0.23840574932E+03 -0.13185772639E+04 -0.25240733071E+03  0.13635221901E+04  0.50400001928E-02 0.  1.
       -1    1    3    3    0  502 -0.23840574932E+03  0.13185772639E+04  0.10578152521E+03  0.13441253785E+04  0.50400001928E-02 0. -1.
</event>
<event>
 5   0  0.7768032E-07  0.2699228E+04  0.7818609E-02  0.8335256E-01
       -1   -1    0    0    0  501  0.00000000000E+00  0.00000000000E+00  0.78858778826E+03  0.78858778828E+03  0.50400001928E-02 0.  1.
        1   -1    0    0  501    0  0.00000000000E+00  0.00000000000E+00 -0.23097712271E+04  0.23097712271E+04  0.50400001928E-02 0. -1.
    10030    2    1    2    0    0  0.00000000000E+00  0.00000000000E+00 -0.15211834388E+04  0.30983590153E+04  0.26992275809E+04 0.  0.
        4    1    3    3  502    0 -0.13398976260E+04 -0.76026203642E+02 -0.59684375000E+03  0.14687851125E+04  0.12699999809E+01 0.  1.
       -4    1    3    3    0  502  0.13398976260E+04  0.76026203642E+02 -0.92433968879E+03  0.16295739029E+04  0.12699999809E+01 0. -1.
</event>
<event>
 5   0  0.1932012E-06  0.2695644E+04  0.7818609E-02  0.8336420E-01
        2   -1    0    0  501    0  0.00000000000E+00  0.00000000000E+00  0.13261237393E+04  0.13261237393E+04  0.25500000920E-02 0.  1.
       -2   -1    0    0    0  501  0.00000000000E+00  0.00000000000E+00 -0.13698751966E+04  0.13698751966E+04  0.25500000920E-02 0. -1.
    10030    2    1    2    0    0  0.00000000000E+00  0.00000000000E+00 -0.43751457382E+02  0.26959989359E+04  0.26956439068E+04 0.  0.
        2    1    3    3  502    0 -0.12142312635E+04 -0.56911202972E+03 -0.15745889814E+03  0.13501997512E+04  0.25500000920E-02 0.  1.
       -2    1    3    3    0  502  0.12142312635E+04  0.56911202972E+03  0.11370744076E+03  0.13457991847E+04  0.25500000920E-02 0. -1.
</event>
<event>
 5   0  0.7566905E-07  0.2696654E+04  0.7818609E-02  0.8336091E-01
       -1   -1    0    0    0  501  0.00000000000E+00  0.00000000000E+00  0.10217875879E+04  0.10217875879E+04  0.50400001928E-02 0.  1.
        1   -1    0    0  501    0  0.00000000000E+00  0.00000000000E+00 -0.17792206381E+04  0.17792206381E+04  0.50400001928E-02 0. -1.
    10030    2    1    2    0    0  0.00000000000E+00  0.00000000000E+00 -0.75743305022E+03  0.28010082260E+04  0.26966539001E+04 0.  0.
        1    1    3    3  502    0  0.81726285246E+03 -0.21708685296E+01 -0.14926258857E+04  0.17017212808E+04  0.50400001928E-02 0. -1.
       -1    1    3    3    0  502 -0.81726285246E+03  0.21708685296E+01  0.73519283548E+03  0.10992869453E+04  0.50400001928E-02 0.  1.
</event>
<event>
 5   0  0.1999104E-06  0.2704595E+04  0.7818609E-02  0.8333516E-01
        2   -1    0    0  501    0  0.00000000000E+00  0.00000000000E+00  0.23256040377E+04  0.23256040377E+04  0.25500000920E-02 0.  1.
       -2   -1    0    0    0  501  0.00000000000E+00  0.00000000000E+00 -0.78633695540E+03  0.78633695541E+03  0.25500000920E-02 0. -1.
    10030    2    1    2    0    0  0.00000000000E+00  0.00000000000E+00  0.15392670823E+04  0.31119409931E+04  0.27045949039E+04 0.  0.
        4    1    3    3  502    0  0.12008000826E+04  0.48529904719E+02  0.14830419325E+04  0.19088454564E+04  0.12699999809E+01 0.  1.
       -4    1    3    3    0  502 -0.12008000826E+04 -0.48529904719E+02  0.56225149864E+02  0.12030955367E+04  0.12699999809E+01 0. -1.
</event>
<event>
 5   0  0.7768032E-07  0.2700217E+04  0.7818609E-02  0.8334935E-01
       -1   -1    0    0    0  501  0.00000000000E+00  0.00000000000E+00  0.84169076426E+03  0.84169076427E+03  0.50400001928E-02 0.  1.
        1   -1    0    0  501    0  0.00000000000E+00  0.00000000000E+00 -0.21656321887E+04  0.21656321887E+04  0.50400001928E-02 0. -1.
    10030    2    1    2    0    0  0.00000000000E+00  0.00000000000E+00 -0.13239414244E+04  0.30073229530E+04  0.27002167409E+04 0.  0.
        4    1    3    3  502    0  0.11877342310E+04 -0.17341990823E+03  0.26388865502E+02  0.12006186127E+04  0.12699999809E+01 0.  1.
       -4    1    3    3    0  502 -0.11877342310E+04  0.17341990823E+03 -0.13503302899E+04  0.18067043402E+04  0.12699999809E+01 0. -1.
</event>
<event>
 5   0  0.7436613E-07  0.2698041E+04  0.7818609E-02  0.8335641E-01
       -1   -1    0    0    0  501  0.00000000000E+00  0.00000000000E+00  0.15008538680E+04  0.15008538680E+04  0.50400001928E-02 0.  1.
        1   -1    0    0  501    0  0.00000000000E+00  0.00000000000E+00 -0.12125475913E+04  0.12125475913E+04  0.50400001928E-02 0. -1.
    10030    2    1    2    0    0  0.00000000000E+00  0.00000000000E+00  0.28830627671E+03  0.27134014594E+04  0.26980413212E+04 0.  0.
        2    1    3    3  502    0 -0.48925409066E+02 -0.25414394384E+03 -0.11873457100E+04  0.12152253597E+04  0.25500000920E-02 0. -1.
       -2    1    3    3    0  502  0.48925409066E+02  0.25414394384E+03  0.14756519867E+04  0.14981760997E+04  0.25500000920E-02 0.  1.
</event>
<event>
 5   0  0.7768032E-07  0.2670772E+04  0.7818609E-02  0.8344551E-01
       -1   -1    0    0    0  501  0.00000000000E+00  0.00000000000E+00  0.20127333882E+04  0.20127333882E+04  0.50400001928E-02 0. -1.
        1   -1    0    0  501    0  0.00000000000E+00  0.00000000000E+00 -0.88598696434E+03  0.88598696436E+03  0.50400001928E-02 0.  1.
    10030    2    1    2    0    0  0.00000000000E+00  0.00000000000E+00  0.11267464239E+04  0.28987203526E+04  0.26707718320E+04 0.  0.
        4    1    3    3  502    0 -0.13435669361E+03  0.11955581350E+04  0.11923543975E+04  0.16938481625E+04  0.12699999809E+01 0.  1.
       -4    1    3    3    0  502  0.13435669361E+03 -0.11955581350E+04 -0.65607973668E+02  0.12048721901E+04  0.12699999809E+01 0. -1.
</event>
<event>
 5   0  0.7806808E-07  0.2702421E+04  0.7818609E-02  0.8334220E-01
        1   -1    0    0  501    0  0.00000000000E+00  0.00000000000E+00  0.14178318671E+04  0.14178318672E+04  0.50400001928E-02 0.  1.
       -1   -1    0    0    0  501  0.00000000000E+00  0.00000000000E+00 -0.12877194869E+04  0.12877194869E+04  0.50400001928E-02 0. -1.
    10030    2    1    2    0    0  0.00000000000E+00  0.00000000000E+00  0.13011238022E+03  0.27055513541E+04  0.27024209328E+04 0.  0.
        5    1    3    3  502    0  0.10176950048E+04 -0.26718859851E+03 -0.78366088564E+03  0.13119601151E+04  0.46999998093E+01 0. -1.
       -5    1    3    3    0  502 -0.10176950048E+04  0.26718859851E+03  0.91377326586E+03  0.13935912390E+04  0.46999998093E+01 0.  1.
</event>
<event>
 5   0  0.2030645E-06  0.2710635E+04  0.7818609E-02  0.8331563E-01
        2   -1    0    0  501    0  0.00000000000E+00  0.00000000000E+00  0.18467657057E+04  0.18467657057E+04  0.25500000920E-02 0.  1.
       -2   -1    0    0    0  501  0.00000000000E+00  0.00000000000E+00 -0.99464994325E+03  0.99464994325E+03  0.25500000920E-02 0. -1.
    10030    2    1    2    0    0  0.00000000000E+00  0.00000000000E+00  0.85211576244E+03  0.28414156489E+04  0.27106349104E+04 0.  0.
        1    1    3    3  502    0 -0.92842129408E+03  0.28530697055E+03 -0.56480987057E+03  0.11235552308E+04  0.50400001928E-02 0. -1.
       -1    1    3    3    0  502  0.92842129408E+03 -0.28530697055E+03  0.14169256330E+04  0.17178604181E+04  0.50400001928E-02 0.  1.
</event>
<event>
 5   0  0.7806808E-07  0.2699933E+04  0.7818609E-02  0.8335027E-01
       -1   -1    0    0    0  501  0.00000000000E+00  0.00000000000E+00  0.10184290591E+04  0.10184290591E+04  0.50400001928E-02 0. -1.
        1   -1    0    0  501    0  0.00000000000E+00  0.00000000000E+00 -0.17894320192E+04  0.17894320193E+04  0.50400001928E-02 0.  1.
    10030    2    1    2    0    0  0.00000000000E+00  0.00000000000E+00 -0.77100296015E+03  0.28078610784E+04  0.26999330123E+04 0.  0.
        5    1    3    3  502    0  0.31675023076E+03 -0.11514218235E+04 -0.10401771481E+04  0.15836961557E+04  0.46999998093E+01 0.  1.
       -5    1    3    3    0  502 -0.31675023076E+03  0.11514218235E+04  0.26917418796E+03  0.12241649226E+04  0.46999998093E+01 0. -1.
</event>
<event>
 5   0  0.2030645E-06  0.2699070E+04  0.7818609E-02  0.8335307E-01
       -2   -1    0    0    0  501  0.00000000000E+00  0.00000000000E+00  0.13237167510E+04  0.13237167510E+04  0.25500000920E-02 0.  1.
        2   -1    0    0  501    0  0.00000000000E+00  0.00000000000E+00 -0.13758565303E+04  0.13758565303E+04  0.25500000920E-02 0. -1.
    10030    2    1    2    0    0  0.00000000000E+00  0.00000000000E+00 -0.52139779276E+02  0.26995732813E+04  0.26990697184E+04 0.  0.
        1    1    3    3  502    0 -0.64128276045E+03 -0.57992171992E+03  0.10103143194E+04  0.13297698312E+04  0.50400001928E-02 0.  1.
       -1    1    3    3    0  502  0.64128276045E+03  0.57992171992E+03 -0.10624540987E+04  0.13698034501E+04  0.50400001928E-02 0. -1.
</event>
<event>
 5   0  0.7335091E-07  0.2718112E+04  0.7818609E-02  0.8329152E-01
       -1   -1    0    0    0  501  0.00000000000E+00  0.00000000000E+00  0.91352421572E+03  0.91352421573E+03  0.50400001928E-02 0. -1.
        1   -1    0    0  501    0  0.00000000000E+00  0.00000000000E+00 -0.20218763123E+04  0.20218763123E+04  0.50400001928E-02 0.  1.
    10030    2    1    2    0    0  0.00000000000E+00  0.00000000000E+00 -0.11083520966E+04  0.29354005280E+04  0.27181118244E+04 0.  0.
        3    1    3    3  502    0 -0.70096072909E+02 -0.78735162110E+03  0.63973134614E+03  0.10169032600E+04  0.10100000352E+00 0. -1.
       -3    1    3    3    0  502  0.70096072909E+02  0.78735162110E+03 -0.17480834427E+04  0.19184972680E+04  0.10100000352E+00 0.  1.
</event>
<event>
 5   0  0.7806808E-07  0.2700090E+04  0.7818609E-02  0.8334976E-01
        1   -1    0    0  501    0  0.00000000000E+00  0.00000000000E+00  0.12424288067E+04  0.12424288067E+04  0.50400001928E-02 0.  1.
       -1   -1    0    0    0  501  0.00000000000E+00  0.00000000000E+00 -0.14669828818E+04  0.14669828818E+04  0.50400001928E-02 0. -1.
    10030    2    1    2    0    0  0.00000000000E+00  0.00000000000E+00 -0.22455407506E+03  0.27094116886E+04  0.27000902143E+04 0.  0.
        5    1    3    3  502    0  0.26790618830E+03  0.25686534058E+03 -0.14147744014E+04  0.14626558808E+04  0.46999998093E+01 0. -1.
       -5    1    3    3    0  502 -0.26790618830E+03 -0.25686534058E+03  0.11902203263E+04  0.12467558077E+04  0.46999998093E+01 0.  1.
</event>
<event>
 5   0  0.1999104E-06  0.2681091E+04  0.7818609E-02  0.8341167E-01
       -2   -1    0    0    0  501  0.00000000000E+00  0.00000000000E+00  0.18253670153E+04  0.18253670153E+04  0.25500000920E-02 0.  1.
        2   -1    0    0  501    0  0.00000000000E+00  0.00000000000E+00 -0.98449338657E+03  0.98449338657E+03  0.25500000920E-02 0. -1.
    10030    2    1    2    0    0  0.00000000000E+00  0.00000000000E+00  0.84087362868E+03  0.28098604018E+04  0.26810906397E+04 0.  0.
        4    1    3    3  502    0  0.52382183089E+03 -0.12134819890E+04  0.65509301504E+03  0.14751529817E+04  0.12699999809E+01 0. -1.
       -4    1    3    3    0  502 -0.52382183089E+03  0.12134819890E+04  0.18578061364E+03  0.13347074202E+04  0.12699999809E+01 0.  1.
</event>
<event>
 5   0  0.1932012E-06  0.2719013E+04  0.7818609E-02  0.8328862E-01
       -2   -1    0    0    0  501  0.00000000000E+00  0.00000000000E+00  0.99167863629E+03  0.99167863629E+03  0.25500000920E-02 0.  1.
        2   -1    0    0  501    0  0.00000000000E+00  0.00000000000E+00 -0.18637669625E+04  0.18637669625E+04  0.25500000920E-02 0. -1.
    10030    2    1    2    0    0  0.00000000000E+00  0.00000000000E+00 -0.87208832625E+03  0.28554455988E+04  0.27190129678E+04 0.  0.
        2    1    3    3  502    0  0.34092936341E+03 -0.75671307394E+03  0.69474386629E+03  0.10823661797E+04  0.25500000920E-02 0.  1.
       -2    1    3    3    0  502 -0.34092936341E+03  0.75671307394E+03 -0.15668321925E+04  0.17730794192E+04  0.25500000920E-02 0. -1.
</event>
<event>
 5   0  0.7566905E-07  0.2698898E+04  0.7818609E-02  0.8335363E-01
        1   -1    0    0  501    0  0.00000000000E+00  0.00000000000E+00  0.13676279109E+04  0.13676279109E+04  0.50400001928E-02 0. -1.
       -1   -1    0    0    0  501  0.00000000000E+00  0.00000000000E+00 -0.13315113087E+04  0.13315113087E+04  0.50400001928E-02 0.  1.
    10030    2    1    2    0    0  0.00000000000E+00  0.00000000000E+00  0.36116602209E+02  0.26991392196E+04  0.26988975745E+04 0.  0.
        1    1    3    3  502    0 -0.42929488411E+03  0.40189246842E+03 -0.11966287165E+04  0.13333161437E+04  0.50400001928E-02 0.  1.
       -1    1    3    3    0  502  0.42929488411E+03 -0.40189246842E+03  0.12327453188E+04  0.13658230759E+04  0.50400001928E-02 0. -1.
</event>
<event>
 5   0  0.1991277E-06  0.2700257E+04  0.7818609E-02  0.8334922E-01
       -2   -1    0    0    0  501  0.00000000000E+00  0.00000000000E+00  0.65493053947E+03  0.65493053948E+03  0.25500000920E-02 0. -1.
        2   -1    0    0  501    0  0.00000000000E+00  0.00000000000E+00 -0.27832668841E+04  0.27832668841E+04  0.25500000920E-02 0.  1.
    10030    2    1    2    0    0  0.00000000000E+00  0.00000000000E+00 -0.21283363446E+04  0.34381974236E+04  0.27002566411E+04 0.  0.
        5    1    3    3  502    0  0.25531171791E+03  0.98541700729E+03 -0.21934464728E+04  0.24181522430E+04  0.46999998093E+01 0.  1.
       -5    1    3    3    0  502 -0.25531171791E+03 -0.98541700729E+03  0.65110128148E+02  0.10200451805E+04  0.46999998093E+01 0. -1.
</event>
<event>
 5   0  0.7566905E-07  0.2698586E+04  0.7818609E-02  0.8335464E-01
       -1   -1    0    0    0  501  0.00000000000E+00  0.00000000000E+00  0.14124280463E+04  0.14124280463E+04  0.50400001928E-02 0. -1.
        1   -1    0    0  501    0  0.00000000000E+00  0.00000000000E+00 -0.12889796304E+04  0.12889796304E+04  0.50400001928E-02 0.  1.
    10030    2    1    2    0    0  0.00000000000E+00  0.00000000000E+00  0.12344841593E+03  0.27014076767E+04  0.26985855414E+04 0.  0.
        1    1    3    3  502    0 -0.35102590448E+03 -0.94009281718E+03  0.96466378125E+03  0.13919661998E+04  0.50400001928E-02 0. -1.
       -1    1    3    3    0  502  0.35102590448E+03  0.94009281718E+03 -0.84121536532E+03  0.13094414769E+04  0.50400001928E-02 0.  1.
</event>
<event>
 5   0  0.1999104E-06  0.2700923E+04  0.7818609E-02  0.8334705E-01
        2   -1    0    0  501    0  0.00000000000E+00  0.00000000000E+00  0.12125441832E+04  0.12125441832E+04  0.25500000920E-02 0. -1.
       -2   -1    0    0    0  501  0.00000000000E+00  0.00000000000E+00 -0.15040662421E+04  0.15040662421E+04  0.25500000920E-02 0.  1.
    10030    2    1    2    0    0  0.00000000000E+00  0.00000000000E+00 -0.29152205894E+03  0.27166104253E+04  0.27009233777E+04 0.  0.
        4    1    3    3  502    0  0.93033489269E+03 -0.40667608794E+02 -0.11294846281E+04  0.14638695314E+04  0.12699999809E+01 0.  1.
       -4    1    3    3    0  502 -0.93033489269E+03  0.40667608794E+02  0.83796256917E+03  0.12527408939E+04  0.12699999809E+01 0. -1.
</event>
<event>
 5   0  0.7768032E-07  0.2702206E+04  0.7818609E-02  0.8334290E-01
        1   -1    0    0  501    0  0.00000000000E+00  0.00000000000E+00  0.19089671411E+04  0.19089671411E+04  0.50400001928E-02 0. -1.
       -1   -1    0    0    0  501  0.00000000000E+00  0.00000000000E+00 -0.95626539720E+03  0.95626539722E+03  0.50400001928E-02 0.  1.
    10030    2    1    2    0    0  0.00000000000E+00  0.00000000000E+00  0.95270174390E+03  0.28652325383E+04  0.27022059296E+04 0.  0.
        4    1    3    3  502    0  0.17835321172E+03  0.12470625708E+04  0.99418189843E+03  0.16047972406E+04  0.12699999809E+01 0. -1.
       -4    1    3    3    0  502 -0.17835321172E+03 -0.12470625708E+04 -0.41480154527E+02  0.12604352977E+04  0.12699999809E+01 0.  1.
</event>
<event>
 5   0  0.7436613E-07  0.2706484E+04  0.7818609E-02  0.8332904E-01
       -1   -1    0    0    0  501  0.00000000000E+00  0.00000000000E+00  0.10446086758E+04  0.10446086758E+04  0.50400001928E-02 0. -1.
        1   -1    0    0  501    0  0.00000000000E+00  0.00000000000E+00 -0.17530615362E+04  0.17530615362E+04  0.50400001928E-02 0.  1.
    10030    2    1    2    0    0  0.00000000000E+00  0.00000000000E+00 -0.70845286040E+03  0.27976702121E+04  0.27064835414E+04 0.  0.
        2    1    3    3  502    0  0.27667631015E+03  0.81844414090E+03  0.72243341639E+03  0.11261929823E+04  0.25500000920E-02 0. -1.
       -2    1    3    3    0  502 -0.27667631015E+03 -0.81844414090E+03 -0.14308862768E+04  0.16714772297E+04  0.25500000920E-02 0.  1.
</event>
<event>
 5   0  0.1932012E-06  0.2699285E+04  0.7818609E-02  0.8335237E-01
       -2   -1    0    0    0  501  0.00000000000E+00  0.00000000000E+00  0.12223208493E+04  0.12223208493E+04  0.25500000920E-02 0.  1.
        2   -1    0    0  501    0  0.00000000000E+00  0.00000000000E+00 -0.14902265136E+04  0.14902265136E+04  0.25500000920E-02 0. -1.
    10030    2    1    2    0    0  0.00000000000E+00  0.00000000000E+00 -0.26790566436E+03  0.27125473629E+04  0.26992850444E+04 0.  0.
        2    1    3    3  502    0  0.12167981777E+04  0.57655495351E+03 -0.22671845523E+03  0.13654357098E+04  0.25500000920E-02 0. -1.
       -2    1    3    3    0  502 -0.12167981777E+04 -0.57655495351E+03 -0.41187209129E+02  0.13471116531E+04  0.25500000920E-02 0.  1.
</event>
<event>
 5   0  0.7806808E-07  0.2704655E+04  0.7818609E-02  0.8333496E-01
        1   -1    0    0  501    0  0.00000000000E+00  0.00000000000E+00  0.20914914170E+04  0.20914914170E+04  0.50400001928E-02 0.  1.
       -1   -1    0    0    0  501  0.00000000000E+00  0.00000000000E+00 -0.87439473854E+03  0.87439473855E+03  0.50400001928E-02 0. -1.
    10030    2    1    2    0    0  0.00000000000E+00  0.00000000000E+00  0.12170966785E+04  0.29658861556E+04  0.27046545737E+04 0.  0.
        5    1    3    3  502    0 -0.61711075412E+03 -0.12032573997E+04  0.62020252985E+03  0.14877255529E+04  0.46999998093E+01 0. -1.
       -5    1    3    3    0  502  0.61711075412E+03  0.12032573997E+04  0.59689414863E+03  0.14781606027E+04  0.46999998093E+01 0.  1.
</event>
<event>
 5   0  0.7566905E-07  0.2699648E+04  0.7818609E-02  0.8335119E-01
       -1   -1    0    0    0  501  0.00000000000E+00  0.00000000000E+00  0.10490079754E+04  0.10490079754E+04  0.50400001928E-02 0.  1.
        1   -1    0    0  501    0  0.00000000000E+00  0.00000000000E+00 -0.17369021805E+04  0.17369021805E+04  0.50400001928E-02 0. -1.
    10030    2    1    2    0    0  0.00000000000E+00  0.00000000000E+00 -0.68789420505E+03  0.27859101559E+04  0.26996475621E+04 0.  0.
        1    1    3    3  502    0  0.22529883417E+03  0.27033626746E+03  0.10008361047E+04  0.10609025265E+04  0.50400001928E-02 0.  1.
       -1    1    3    3    0  502 -0.22529883417E+03 -0.27033626746E+03 -0.16887303098E+04  0.17250076294E+04  0.50400001928E-02 0. -1.
</event>
<event>
 5   0  0.7806808E-07  0.2679943E+04  0.7818609E-02  0.8341542E-01
        1   -1    0    0  501    0  0.00000000000E+00  0.00000000000E+00  0.18092535127E+04  0.18092535127E+04  0.50400001928E-02 0.  1.
       -1   -1    0    0    0  501  0.00000000000E+00  0.00000000000E+00 -0.99241135515E+03  0.99241135516E+03  0.50400001928E-02 0. -1.
    10030    2    1    2    0    0  0.00000000000E+00  0.00000000000E+00  0.81684215752E+03  0.28016648678E+04  0.26799430817E+04 0.  0.
        5    1    3    3  502    0  0.16484314446E+03 -0.13261697496E+04  0.30597970675E+03  0.13709650389E+04  0.46999998093E+01 0. -1.
       -5    1    3    3    0  502 -0.16484314446E+03  0.13261697496E+04  0.51086245077E+03  0.14306998289E+04  0.46999998093E+01 0.  1.
</event>
<event>
 5   0  0.1932012E-06  0.2700158E+04  0.7818609E-02  0.8334954E-01
       -2   -1    0    0    0  501  0.00000000000E+00  0.00000000000E+00  0.15004323766E+04  0.15004323766E+04  0.25500000920E-02 0. -1.
        2   -1    0    0  501    0  0.00000000000E+00  0.00000000000E+00 -0.12147922695E+04  0.12147922695E+04  0.25500000920E-02 0.  1.
    10030    2    1    2    0    0  0.00000000000E+00  0.00000000000E+00  0.28564010710E+03  0.27152246461E+04  0.27001582561E+04 0.  0.
        2    1    3    3  502    0  0.79766858033E+03 -0.92743573123E+03  0.71723542297E+03  0.14180404972E+04  0.25500000920E-02 0. -1.
       -2    1    3    3    0  502 -0.79766858033E+03  0.92743573123E+03 -0.43159531586E+03  0.12971841490E+04  0.25500000920E-02 0.  1.
</event>
<event>
 5   0  0.1932012E-06  0.2694235E+04  0.7818609E-02  0.8336878E-01
       -2   -1    0    0    0  501  0.00000000000E+00  0.00000000000E+00  0.77367277835E+03  0.77367277835E+03  0.25500000920E-02 0.  1.
        2   -1    0    0  501    0  0.00000000000E+00  0.00000000000E+00 -0.23455975883E+04  0.23455975883E+04  0.25500000920E-02 0. -1.
    10030    2    1    2    0    0  0.00000000000E+00  0.00000000000E+00 -0.15719248100E+04  0.31192703667E+04  0.26942345875E+04 0.  0.
        2    1    3    3  502    0 -0.51770741572E+03  0.11837271661E+04 -0.34435108168E+03  0.13370896153E+04  0.25500000920E-02 0. -1.
       -2    1    3    3    0  502  0.51770741572E+03 -0.11837271661E+04 -0.12275737283E+04  0.17821807513E+04  0.25500000920E-02 0.  1.
</event>
<event>
 5   0  0.7566905E-07  0.2692255E+04  0.7818609E-02  0.8337522E-01
       -1   -1    0    0    0  501  0.00000000000E+00  0.00000000000E+00  0.10636334834E+04  0.10636334834E+04  0.50400001928E-02 0. -1.
        1   -1    0    0  501    0  0.00000000000E+00  0.00000000000E+00 -0.17036501544E+04  0.17036501544E+04  0.50400001928E-02 0.  1.
    10030    2    1    2    0    0  0.00000000000E+00  0.00000000000E+00 -0.64001667101E+03  0.27672836378E+04  0.26922550757E+04 0.  0.
        1    1    3    3  502    0 -0.56602776956E+03  0.97754560643E+03 -0.10725851864E+04  0.15576976057E+04  0.50400001928E-02 0.  1.
       -1    1    3    3    0  502  0.56602776956E+03 -0.97754560643E+03  0.43256851541E+03  0.12095860321E+04  0.50400001928E-02 0. -1.
</event>
<event>
 5   0  0.2063087E-06  0.2698460E+04  0.7818609E-02  0.8335505E-01
       -2   -1    0    0    0  501  0.00000000000E+00  0.00000000000E+00  0.66900090077E+03  0.66900090077E+03  0.25500000920E-02 0. -1.
        2   -1    0    0  501    0  0.00000000000E+00  0.00000000000E+00 -0.27211042050E+04  0.27211042050E+04  0.25500000920E-02 0.  1.
    10030    2    1    2    0    0  0.00000000000E+00  0.00000000000E+00 -0.20521033042E+04  0.33901051057E+04  0.26984596823E+04 0.  0.
        3    1    3    3  502    0 -0.48796774962E+03 -0.64709753060E+02 -0.26042711959E+04  0.26503826797E+04  0.10100000352E+00 0.  1.
       -3    1    3    3    0  502  0.48796774962E+03  0.64709753060E+02  0.55216789168E+03  0.73972242606E+03  0.10100000352E+00 0. -1.
</event>
<event>
 5   0  0.2063087E-06  0.2696420E+04  0.7818609E-02  0.8336168E-01
        2   -1    0    0  501    0  0.00000000000E+00  0.00000000000E+00  0.11181449301E+04  0.11181449301E+04  0.25500000920E-02 0. -1.
       -2   -1    0    0    0  501  0.00000000000E+00  0.00000000000E+00 -0.16256117791E+04  0.16256117791E+04  0.25500000920E-02 0.  1.
    10030    2    1    2    0    0  0.00000000000E+00  0.00000000000E+00 -0.50746684903E+03  0.27437567091E+04  0.26964195289E+04 0.  0.
        3    1    3    3  502    0  0.65389506721E+03 -0.46610629944E+03  0.84825422553E+03  0.11680621056E+04  0.10100000352E+00 0. -1.
       -3    1    3    3    0  502 -0.65389506721E+03  0.46610629944E+03 -0.13557210746E+04  0.15756946035E+04  0.10100000352E+00 0.  1.
</event>
<event>
 5   0  0.1999104E-06  0.2701446E+04  0.7818609E-02  0.8334536E-01
       -2   -1    0    0    0  501  0.00000000000E+00  0.00000000000E+00  0.15071025448E+04  0.15071025448E+04  0.25500000920E-02 0.  1.
        2   -1    0    0  501    0  0.00000000000E+00  0.00000000000E+00 -0.12105699585E+04  0.12105699585E+04  0.25500000920E-02 0. -1.
    10030    2    1    2    0    0  0.00000000000E+00  0.00000000000E+00  0.29653258632E+03  0.27176725033E+04  0.27014463275E+04 0.  0.
        4    1    3    3  502    0  0.12627353691E+03  0.82890503963E+03 -0.91706696068E+03  0.12425948632E+04  0.12699999809E+01 0. -1.
       -4    1    3    3    0  502 -0.12627353691E+03 -0.82890503963E+03  0.12135995470E+04  0.14750776401E+04  0.12699999809E+01 0.  1.
</event>
<event>
 5   0  0.7768032E-07  0.2697829E+04  0.7818609E-02  0.8335710E-01
       -1   -1    0    0    0  501  0.00000000000E+00  0.00000000000E+00  0.92783075973E+03  0.92783075975E+03  0.50400001928E-02 0.  1.
        1   -1    0    0  501    0  0.00000000000E+00  0.00000000000E+00 -0.19611020485E+04  0.19611020485E+04  0.50400001928E-02 0. -1.
    10030    2    1    2    0    0  0.00000000000E+00  0.00000000000E+00 -0.10332712888E+04  0.28889328083E+04  0.26978293524E+04 0.  0.
        4    1    3    3  502    0  0.53339068801E+03  0.70414377179E+03 -0.16082819794E+04  0.18349105198E+04  0.12699999809E+01 0. -1.
       -4    1    3    3    0  502 -0.53339068801E+03 -0.70414377179E+03  0.57501069062E+03  0.10540222885E+04  0.12699999809E+01 0.  1.
</event>
<event>
 5   0  0.7768032E-07  0.2781992E+04  0.7818609E-02  0.8308881E-01
       -1   -1    0    0    0  501  0.00000000000E+00  0.00000000000E+00  0.11721005652E+04  0.11721005652E+04  0.50400001928E-02 0.  1.
        1   -1    0    0  501    0  0.00000000000E+00  0.00000000000E+00 -0.16507710688E+04  0.16507710688E+04  0.50400001928E-02 0. -1.
    10030    2    1    2    0    0  0.00000000000E+00  0.00000000000E+00 -0.47867050362E+03  0.28228716340E+04  0.27819918783E+04 0.  0.
        4    1    3    3  502    0  0.11603131384E+03  0.17620369527E+02  0.11670672131E+04  0.11729540639E+04  0.12699999809E+01 0.  1.
       -4    1    3    3    0  502 -0.11603131384E+03 -0.17620369527E+02 -0.16457377167E+04  0.16499175702E+04  0.12699999809E+01 0. -1.
</event>
<event>
 5   0  0.1991277E-06  0.2700824E+04  0.7818609E-02  0.8334738E-01
        2   -1    0    0  501    0  0.00000000000E+00  0.00000000000E+00  0.83155412477E+03  0.83155412478E+03  0.25500000920E-02 0. -1.
       -2   -1    0    0    0  501  0.00000000000E+00  0.00000000000E+00 -0.21930180667E+04  0.21930180667E+04  0.25500000920E-02 0.  1.
    10030    2    1    2    0    0  0.00000000000E+00  0.00000000000E+00 -0.13614639419E+04  0.30245721915E+04  0.27008244809E+04 0.  0.
        5    1    3    3  502    0 -0.11069979420E+04  0.55745345249E+03 -0.12810828943E+04  0.17825246891E+04  0.46999998093E+01 0.  1.
       -5    1    3    3    0  502  0.11069979420E+04 -0.55745345249E+03 -0.80381047654E+02  0.12420475024E+04  0.46999998093E+01 0. -1.
</event>
<event>
 5   0  0.7768032E-07  0.2705676E+04  0.7818609E-02  0.8333166E-01
        1   -1    0    0  501    0  0.00000000000E+00  0.00000000000E+00  0.25989604535E+04  0.25989604535E+04  0.50400001928E-02 0. -1.
       -1   -1    0    0    0  501  0.00000000000E+00  0.00000000000E+00 -0.70419353466E+03  0.70419353468E+03  0.50400001928E-02 0.  1.
    10030    2    1    2    0    0  0.00000000000E+00  0.00000000000E+00  0.18947669188E+04  0.33031539882E+04  0.27056763651E+04 0.  0.
        4    1    3    3  502    0 -0.92337973185E+03 -0.23180424947E+03 -0.22600931009E+03  0.97849126741E+03  0.12699999809E+01 0.  1.
       -4    1    3    3    0  502  0.92337973185E+03  0.23180424947E+03  0.21207762289E+04  0.23246627207E+04  0.12699999809E+01 0. -1.
</event>
<event>
 5   0  0.2063087E-06  0.2698396E+04  0.7818609E-02  0.8335526E-01
       -2   -1    0    0    0  501  0.00000000000E+00  0.00000000000E+00  0.65640172290E+03  0.65640172291E+03  0.25500000920E-02 0. -1.
        2   -1    0    0  501    0  0.00000000000E+00  0.00000000000E+00 -0.27732021611E+04  0.27732021611E+04  0.25500000920E-02 0.  1.
    10030    2    1    2    0    0  0.00000000000E+00  0.00000000000E+00 -0.21168004382E+04  0.34296038840E+04  0.26983955800E+04 0.  0.
        3    1    3    3  502    0  0.75558472599E+03  0.35670464724E+03  0.28799075346E+03  0.88379022838E+03  0.10100000352E+00 0. -1.
       -3    1    3    3    0  502 -0.75558472599E+03 -0.35670464724E+03 -0.24047911916E+04  0.25458136556E+04  0.10100000352E+00 0.  1.
</event>
<event>
 5   0  0.1991277E-06  0.2702603E+04  0.7818609E-02  0.8334161E-01
       -2   -1    0    0    0  501  0.00000000000E+00  0.00000000000E+00  0.78307958178E+03  0.78307958178E+03  0.25500000920E-02 0. -1.
        2   -1    0    0  501    0  0.00000000000E+00  0.00000000000E+00 -0.23318398565E+04  0.23318398565E+04  0.25500000920E-02 0.  1.
    10030    2    1    2    0    0  0.00000000000E+00  0.00000000000E+00 -0.15487602748E+04  0.31149194383E+04  0.27026033225E+04 0.  0.
        5    1    3    3  502    0  0.51097200163E+03 -0.42118098761E+03  0.58325260721E+03  0.88243498604E+03  0.46999998093E+01 0. -1.
       -5    1    3    3    0  502 -0.51097200163E+03  0.42118098761E+03 -0.21320128820E+04  0.22324844523E+04  0.46999998093E+01 0.  1.
</event>
<event>
 5   0  0.7768032E-07  0.2703221E+04  0.7818609E-02  0.8333961E-01
        1   -1    0    0  501    0  0.00000000000E+00  0.00000000000E+00  0.15026239080E+04  0.15026239080E+04  0.50400001928E-02 0.  1.
       -1   -1    0    0    0  501  0.00000000000E+00  0.00000000000E+00 -0.12157739983E+04  0.12157739983E+04  0.50400001928E-02 0. -1.
    10030    2    1    2    0    0  0.00000000000E+00  0.00000000000E+00  0.28684990973E+03  0.27183979064E+04  0.27032210984E+04 0.  0.
        4    1    3    3  502    0  0.23860583150E+03  0.66765380983E+02  0.14795905645E+04  0.15001933910E+04  0.12699999809E+01 0.  1.
       -4    1    3    3    0  502 -0.23860583150E+03 -0.66765380983E+02 -0.11927406547E+04  0.12182045154E+04  0.12699999809E+01 0. -1.
</event>
<event>
 5   0  0.7335091E-07  0.2698961E+04  0.7818609E-02  0.8335342E-01
       -1   -1    0    0    0  501  0.00000000000E+00  0.00000000000E+00  0.13572579074E+04  0.13572579074E+04  0.50400001928E-02 0.  1.
        1   -1    0    0  501    0  0.00000000000E+00  0.00000000000E+00 -0.13417475113E+04  0.13417475113E+04  0.50400001928E-02 0. -1.
    10030    2    1    2    0    0  0.00000000000E+00  0.00000000000E+00  0.15510396028E+02  0.26990054187E+04  0.26989608515E+04 0.  0.
        3    1    3    3  502    0 -0.76623687404E+03 -0.46072685404E+03 -0.10030578266E+04  0.13436938621E+04  0.10100000352E+00 0. -1.
       -3    1    3    3    0  502  0.76623687404E+03  0.46072685404E+03  0.10185682227E+04  0.13553115566E+04  0.10100000352E+00 0.  1.
</event>
<event>
 5   0  0.7768032E-07  0.2699623E+04  0.7818609E-02  0.8335127E-01
       -1   -1    0    0    0  501  0.00000000000E+00  0.00000000000E+00  0.10879802066E+04  0.10879802066E+04  0.50400001928E-02 0.  1.
        1   -1    0    0  501    0  0.00000000000E+00  0.00000000000E+00 -0.16746545512E+04  0.16746545512E+04  0.50400001928E-02 0. -1.
    10030    2    1    2    0    0  0.00000000000E+00  0.00000000000E+00 -0.58667434459E+03  0.27626347577E+04  0.26996229400E+04 0.  0.
        4    1    3    3  502    0 -0.40186350172E+03 -0.14799305024E+03 -0.16032908316E+04  0.16594997200E+04  0.12699999809E+01 0. -1.
       -4    1    3    3    0  502  0.40186350172E+03  0.14799305024E+03  0.10166164870E+04  0.11031350378E+04  0.12699999809E+01 0.  1.
</event>
<event>
 5   0  0.1991277E-06  0.2714665E+04  0.7818609E-02  0.8330262E-01
        2   -1    0    0  501    0  0.00000000000E+00  0.00000000000E+00  0.27903622512E+04  0.27903622512E+04  0.25500000920E-02 0.  1.
       -2   -1    0    0    0  501  0.00000000000E+00  0.00000000000E+00 -0.66025532202E+03  0.66025532202E+03  0.25500000920E-02 0. -1.
    10030    2    1    2    0    0  0.00000000000E+00  0.00000000000E+00  0.21301069291E+04  0.34506175732E+04  0.27146650082E+04 0.  0.
        5    1    3    3  502    0 -0.11838087556E+04  0.65404657560E+03  0.12108115402E+04  0.18152869660E+04  0.46999998093E+01 0.  1.
       -5    1    3    3    0  502  0.11838087556E+04 -0.65404657560E+03  0.91929538893E+03  0.16353306072E+04  0.46999998093E+01 0. -1.
</event>
<event>
 5   0  0.7768032E-07  0.2698837E+04  0.7818609E-02  0.8335383E-01
       -1   -1    0    0    0  501  0.00000000000E+00  0.00000000000E+00  0.94051800120E+03  0.94051800122E+03  0.50400001928E-02 0.  1.
        1   -1    0    0  501    0  0.00000000000E+00  0.00000000000E+00 -0.19360924457E+04  0.19360924457E+04  0.50400001928E-02 0. -1.
    10030    2    1    2    0    0  0.00000000000E+00  0.00000000000E+00 -0.99557444450E+03  0.28766104469E+04  0.26988366362E+04 0.  0.
        4    1    3    3  502    0  0.10204410447E+04 -0.19716854177E+01 -0.14389118963E+04  0.17640217888E+04  0.12699999809E+01 0. -1.
       -4    1    3    3    0  502 -0.10204410447E+04  0.19716854177E+01  0.44333745176E+03  0.11125886581E+04  0.12699999809E+01 0.  1.
</event>
<event>
 5   0  0.7436613E-07  0.2697813E+04  0.7818609E-02  0.8335715E-01
       -1   -1    0    0    0  501  0.00000000000E+00  0.00000000000E+00  0.11064885425E+04  0.11064885425E+04  0.50400001928E-02 0. -1.
        1   -1    0    0  501    0  0.00000000000E+00  0.00000000000E+00 -0.16444354563E+04  0.16444354563E+04  0.50400001928E-02 0.  1.
    10030    2    1    2    0    0  0.00000000000E+00  0.00000000000E+00 -0.53794691378E+03  0.27509239987E+04  0.26978131820E+04 0.  0.
        2    1    3    3  502    0 -0.85281948134E+03 -0.89426728029E+03  0.28253840920E+03  0.12676131070E+04  0.25500000920E-02 0. -1.
       -2    1    3    3    0  502  0.85281948134E+03  0.89426728029E+03 -0.82048532298E+03  0.14833108918E+04  0.25500000920E-02 0.  1.
</event>
<event>
 5   0  0.7806808E-07  0.2703179E+04  0.7818609E-02  0.8333974E-01
       -1   -1    0    0    0  501  0.00000000000E+00  0.00000000000E+00  0.96449979873E+03  0.96449979874E+03  0.50400001928E-02 0.  1.
        1   -1    0    0  501    0  0.00000000000E+00  0.00000000000E+00 -0.18940333147E+04  0.18940333147E+04  0.50400001928E-02 0. -1.
    10030    2    1    2    0    0  0.00000000000E+00  0.00000000000E+00 -0.92953351595E+03  0.28585331134E+04  0.27031794249E+04 0.  0.
        5    1    3    3  502    0  0.16706010199E+03 -0.13330239909E+04 -0.62129608385E+03  0.14801665284E+04  0.46999998093E+01 0. -1.
       -5    1    3    3    0  502 -0.16706010199E+03  0.13330239909E+04 -0.30823743210E+03  0.13783665850E+04  0.46999998093E+01 0.  1.
</event>
<event>
 5   0  0.1932012E-06  0.2702103E+04  0.7818609E-02  0.8334323E-01
       -2   -1    0    0    0  501  0.00000000000E+00  0.00000000000E+00  0.91291899991E+03  0.91291899992E+03  0.25500000920E-02 0.  1.
        2   -1    0    0  501    0  0.00000000000E+00  0.00000000000E+00 -0.19994545460E+04  0.19994545460E+04  0.25500000920E-02 0. -1.
    10030    2    1    2    0    0  0.00000000000E+00  0.00000000000E+00 -0.10865355461E+04  0.29123735459E+04  0.27021029177E+04 0.  0.
        2    1    3    3  502    0  0.60895953370E+03 -0.88528639088E+02  0.75310553546E+03  0.97254150614E+03  0.25500000920E-02 0.  1.
       -2    1    3    3    0  502 -0.60895953370E+03  0.88528639088E+02 -0.18396410815E+04  0.19398320397E+04  0.25500000920E-02 0. -1.
</event>
<event>
 5   0  0.1999104E-06  0.2700155E+04  0.7818609E-02  0.8334955E-01
       -2   -1    0    0    0  501  0.00000000000E+00  0.00000000000E+00  0.73619584225E+03  0.73619584226E+03  0.25500000920E-02 0. -1.
        2   -1    0    0  501    0  0.00000000000E+00  0.00000000000E+00 -0.24758484684E+04  0.24758484684E+04  0.25500000920E-02 0.  1.
    10030    2    1    2    0    0  0.00000000000E+00  0.00000000000E+00 -0.17396526262E+04  0.32120443107E+04  0.27001550685E+04 0.  0.
        4    1    3    3  502    0 -0.66438304595E+03 -0.20018381856E+03 -0.22474935956E+04  0.23521707991E+04  0.12699999809E+01 0. -1.
       -4    1    3    3    0  502  0.66438304595E+03  0.20018381856E+03  0.50784096937E+03  0.85987351164E+03  0.12699999809E+01 0.  1.
</event>
<event>
 5   0  0.2063087E-06  0.2699880E+04  0.7818609E-02  0.8335044E-01
       -2   -1    0    0    0  501  0.00000000000E+00  0.00000000000E+00  0.11852281442E+04  0.11852281442E+04  0.25500000920E-02 0.  1.
        2   -1    0    0  501    0  0.00000000000E+00  0.00000000000E+00 -0.15375414556E+04  0.15375414556E+04  0.25500000920E-02 0. -1.
    10030    2    1    2    0    0  0.00000000000E+00  0.00000000000E+00 -0.35231331136E+03  0.27227695998E+04  0.26998795574E+04 0.  0.
        3    1    3    3  502    0  0.12296136122E+04  0.48132167602E+03 -0.45910120647E+03  0.13979964661E+04  0.10100000352E+00 0. -1.
       -3    1    3    3    0  502 -0.12296136122E+04 -0.48132167602E+03  0.10678789511E+03  0.13247731338E+04  0.10100000352E+00 0.  1.
</event>
<event>
 5   0  0.7566905E-07  0.2699944E+04  0.7818609E-02  0.8335023E-01
        1   -1    0    0  501    0  0.00000000000E+00  0.00000000000E+00  0.21998553294E+04  0.21998553294E+04  0.50400001928E-02 0.  1.
       -1   -1    0    0    0  501  0.00000000000E+00  0.00000000000E+00 -0.82842900481E+03  0.82842900483E+03  0.50400001928E-02 0. -1.
    10030    2    1    2    0    0  0.00000000000E+00  0.00000000000E+00  0.13714263246E+04  0.30282843342E+04  0.26999436744E+04 0.  0.
        1    1    3    3  502    0 -0.67758079639E+03 -0.11612986310E+04  0.82167209816E+03  0.15757142136E+04  0.50400001928E-02 0.  1.
       -1    1    3    3    0  502  0.67758079639E+03  0.11612986310E+04  0.54975422641E+03  0.14525701206E+04  0.50400001928E-02 0. -1.
</event>
<event>
 5   0  0.7335091E-07  0.2700437E+04  0.7818609E-02  0.8334863E-01
        1   -1    0    0  501    0  0.00000000000E+00  0.00000000000E+00  0.18474443581E+04  0.18474443581E+04  0.50400001928E-02 0.  1.
       -1   -1    0    0    0  501  0.00000000000E+00  0.00000000000E+00 -0.98681728805E+03  0.98681728807E+03  0.50400001928E-02 0. -1.
    10030    2    1    2    0    0  0.00000000000E+00  0.00000000000E+00  0.86062707004E+03  0.28342616462E+04  0.27004370249E+04 0.  0.
        3    1    3    3  502    0 -0.32422666162E+03 -0.12639176160E+04  0.79461607502E+03  0.15277517420E+04  0.10100000352E+00 0. -1.
       -3    1    3    3    0  502  0.32422666162E+03  0.12639176160E+04  0.66010995021E+02  0.13065099042E+04  0.10100000352E+00 0.  1.
</event>
<event>
 5   0  0.7806808E-07  0.2703760E+04  0.7818609E-02  0.8333786E-01
       -1   -1    0    0    0  501  0.00000000000E+00  0.00000000000E+00  0.13166415929E+04  0.13166415929E+04  0.50400001928E-02 0.  1.
        1   -1    0    0  501    0  0.00000000000E+00  0.00000000000E+00 -0.13880616421E+04  0.13880616421E+04  0.50400001928E-02 0. -1.
    10030    2    1    2    0    0  0.00000000000E+00  0.00000000000E+00 -0.71420049189E+02  0.27047032350E+04  0.27037601162E+04 0.  0.
        5    1    3    3  502    0 -0.12927345898E+04 -0.31134944977E+03 -0.27963191403E+03  0.13587925879E+04  0.46999998093E+01 0. -1.
       -5    1    3    3    0  502  0.12927345898E+04  0.31134944977E+03  0.20821186484E+03  0.13459106472E+04  0.46999998093E+01 0.  1.
</event>
<event>
 5   0  0.7806808E-07  0.2710173E+04  0.7818609E-02  0.8331712E-01
        1   -1    0    0  501    0  0.00000000000E+00  0.00000000000E+00  0.89827015977E+03  0.89827015978E+03  0.50400001928E-02 0.  1.
       -1   -1    0    0    0  501  0.00000000000E+00  0.00000000000E+00 -0.20442169722E+04  0.20442169722E+04  0.50400001928E-02 0. -1.
    10030    2    1    2    0    0  0.00000000000E+00  0.00000000000E+00 -0.11459468125E+04  0.29424871320E+04  0.27101727667E+04 0.  0.
        5    1    3    3  502    0  0.10269864127E+04  0.72407192590E+03 -0.22292323129E+02  0.12567817167E+04  0.46999998093E+01 0. -1.
       -5    1    3    3    0  502 -0.10269864127E+04 -0.72407192590E+03 -0.11236544893E+04  0.16857054153E+04  0.46999998093E+01 0.  1.
</event>
<event>
 5   0  0.1932012E-06  0.2699676E+04  0.7818609E-02  0.8335110E-01
       -2   -1    0    0    0  501  0.00000000000E+00  0.00000000000E+00  0.16101016697E+04  0.16101016697E+04  0.25500000920E-02 0. -1.
        2   -1    0    0  501    0  0.00000000000E+00  0.00000000000E+00 -0.11316448566E+04  0.11316448566E+04  0.25500000920E-02 0.  1.
    10030    2    1    2    0    0  0.00000000000E+00  0.00000000000E+00  0.47845681305E+03  0.27417465263E+04  0.26996764792E+04 0.  0.
        2    1    3    3  502    0 -0.54956649680E+03 -0.29535919065E+02 -0.10125239547E+04  0.11524324118E+04  0.25500000920E-02 0.  1.
       -2    1    3    3    0  502  0.54956649680E+03  0.29535919065E+02  0.14909807677E+04  0.15893141145E+04  0.25500000920E-02 0. -1.
</event>
<event>
 5   0  0.1932012E-06  0.2699905E+04  0.7818609E-02  0.8335036E-01
        2   -1    0    0  501    0  0.00000000000E+00  0.00000000000E+00  0.26223085365E+04  0.26223085365E+04  0.25500000920E-02 0. -1.
       -2   -1    0    0    0  501  0.00000000000E+00  0.00000000000E+00 -0.69494943356E+03  0.69494943357E+03  0.25500000920E-02 0.  1.
    10030    2    1    2    0    0  0.00000000000E+00  0.00000000000E+00  0.19273591029E+04  0.33172579701E+04  0.26999050591E+04 0.  0.
        2    1    3    3  502    0 -0.36231384191E+02 -0.51418668997E+03 -0.56927469985E+03  0.76796767460E+03  0.25500000920E-02 0.  1.
       -2    1    3    3    0  502  0.36231384191E+02  0.51418668997E+03  0.24966338028E+04  0.25492902955E+04  0.25500000920E-02 0. -1.
</event>
<event>
 5   0  0.7335091E-07  0.2684669E+04  0.7818609E-02  0.8339997E-01
       -1   -1    0    0    0  501  0.00000000000E+00  0.00000000000E+00  0.18832984947E+04  0.18832984947E+04  0.50400001928E-02 0.  1.
        1   -1    0    0  501    0  0.00000000000E+00  0.00000000000E+00 -0.95675848009E+03  0.95675848011E+03  0.50400001928E-02 0. -1.
    10030    2    1    2    0    0  0.00000000000E+00  0.00000000000E+00  0.92654001461E+03  0.28400569748E+04  0.26846689221E+04 0.  0.
        3    1    3    3  502    0  0.36447961990E+03  0.27798462686E+03  0.17979357447E+04  0.18554497563E+04  0.10100000352E+00 0.  1.
       -3    1    3    3    0  502 -0.36447961990E+03 -0.27798462686E+03 -0.87139573007E+03  0.98460721848E+03  0.10100000352E+00 0. -1.
</event>
<event>
 5   0  0.7566905E-07  0.2703151E+04  0.7818609E-02  0.8333983E-01
       -1   -1    0    0    0  501  0.00000000000E+00  0.00000000000E+00  0.10917504138E+04  0.10917504138E+04  0.50400001928E-02 0.  1.
        1   -1    0    0  501    0  0.00000000000E+00  0.00000000000E+00 -0.16732367710E+04  0.16732367710E+04  0.50400001928E-02 0. -1.
    10030    2    1    2    0    0  0.00000000000E+00  0.00000000000E+00 -0.58148635722E+03  0.27649871849E+04  0.27031514476E+04 0.  0.
        1    1    3    3  502    0 -0.12048962269E+04  0.14041278636E+03 -0.90042006691E+03  0.15107107483E+04  0.50400001928E-02 0. -1.
       -1    1    3    3    0  502  0.12048962269E+04 -0.14041278636E+03  0.31893370969E+03  0.12542764366E+04  0.50400001928E-02 0.  1.
</event>
<event>
 5   0  0.2063087E-06  0.2698598E+04  0.7818609E-02  0.8335460E-01
       -2   -1    0    0    0  501  0.00000000000E+00  0.00000000000E+00  0.13921377764E+04  0.13921377764E+04  0.25500000920E-02 0.  1.
        2   -1    0    0  501    0  0.00000000000E+00  0.00000000000E+00 -0.13077781049E+04  0.13077781049E+04  0.25500000920E-02 0. -1.
    10030    2    1    2    0    0  0.00000000000E+00  0.00000000000E+00  0.84359671537E+02  0.26999158813E+04  0.26985976380E+04 0.  0.
        3    1    3    3  502    0 -0.22363789090E+03 -0.48903052954E+02 -0.12882072525E+04  0.13083896020E+04  0.10100000352E+00 0. -1.
       -3    1    3    3    0  502  0.22363789090E+03  0.48903052954E+02  0.13725669241E+04  0.13915262793E+04  0.10100000352E+00 0.  1.
</event>
<event>
 5   0  0.1991277E-06  0.2709233E+04  0.7818609E-02  0.8332015E-01
        2   -1    0    0  501    0  0.00000000000E+00  0.00000000000E+00  0.14431979254E+04  0.14431979254E+04  0.25500000920E-02 0. -1.
       -2   -1    0    0    0  501  0.00000000000E+00  0.00000000000E+00 -0.12714720059E+04  0.12714720059E+04  0.25500000920E-02 0.  1.
    10030    2    1    2    0    0  0.00000000000E+00  0.00000000000E+00  0.17172591950E+03  0.27146699312E+04  0.27092329254E+04 0.  0.
        5    1    3    3  502    0  0.17201868513E+03  0.94560363254E+03  0.10423502740E+04  0.14178409084E+04  0.46999998093E+01 0. -1.
       -5    1    3    3    0  502 -0.17201868513E+03 -0.94560363254E+03 -0.87062435445E+03  0.12968290228E+04  0.46999998093E+01 0.  1.
</event>
<event>
 5   0  0.7436613E-07  0.2700555E+04  0.7818609E-02  0.8334825E-01
       -1   -1    0    0    0  501  0.00000000000E+00  0.00000000000E+00  0.10137188685E+04  0.10137188686E+04  0.50400001928E-02 0.  1.
        1   -1    0    0  501    0  0.00000000000E+00  0.00000000000E+00 -0.17985743853E+04  0.17985743853E+04  0.50400001928E-02 0. -1.
    10030    2    1    2    0    0  0.00000000000E+00  0.00000000000E+00 -0.78485551672E+03  0.28122932538E+04  0.27005546029E+04 0.  0.
        2    1    3    3  502    0 -0.31631793374E+03 -0.10366583492E+04 -0.12310629582E+04  0.16401931518E+04  0.25500000920E-02 0. -1.
       -2    1    3    3    0  502  0.31631793374E+03  0.10366583492E+04  0.44620744151E+03  0.11721001020E+04  0.25500000920E-02 0.  1.
</event>
<event>
 5   0  0.7436613E-07  0.2698247E+04  0.7818609E-02  0.8335574E-01
        1   -1    0    0  501    0  0.00000000000E+00  0.00000000000E+00  0.21107319981E+04  0.21107319982E+04  0.50400001928E-02 0. -1.
       -1   -1    0    0    0  501  0.00000000000E+00  0.00000000000E+00 -0.86232357212E+03  0.86232357213E+03  0.50400001928E-02 0.  1.
    10030    2    1    2    0    0  0.00000000000E+00  0.00000000000E+00  0.12484084260E+04  0.29730555703E+04  0.26982468060E+04 0.  0.
        2    1    3    3  502    0 -0.72946026358E+03 -0.30696645360E+03  0.18280917527E+04  0.19920492303E+04  0.25500000920E-02 0. -1.
       -2    1    3    3    0  502  0.72946026358E+03  0.30696645360E+03 -0.57968332667E+03  0.98100633995E+03  0.25500000920E-02 0.  1.
</event>
<event>
 5   0  0.7335091E-07  0.2699684E+04  0.7818609E-02  0.8335108E-01
        1   -1    0    0  501    0  0.00000000000E+00  0.00000000000E+00  0.30014086683E+04  0.30014086683E+04  0.50400001928E-02 0. -1.
       -1   -1    0    0    0  501  0.00000000000E+00  0.00000000000E+00 -0.60707267115E+03  0.60707267117E+03  0.50400001928E-02 0.  1.
    10030    2    1    2    0    0  0.00000000000E+00  0.00000000000E+00  0.23943359972E+04  0.36084813395E+04  0.26996838167E+04 0.  0.
        3    1    3    3  502    0  0.54260768982E+03 -0.78241357747E+03  0.24760655834E+04  0.26528277167E+04  0.10100000352E+00 0. -1.
       -3    1    3    3    0  502 -0.54260768982E+03  0.78241357747E+03 -0.81729586192E+02  0.95565362277E+03  0.10100000352E+00 0.  1.
</event>
<event>
 5   0  0.2063087E-06  0.2699749E+04  0.7818609E-02  0.8335086E-01
        2   -1    0    0  501    0  0.00000000000E+00  0.00000000000E+00  0.16168989529E+04  0.16168989529E+04  0.25500000920E-02 0. -1.
       -2   -1    0    0    0  501  0.00000000000E+00  0.00000000000E+00 -0.11269479116E+04  0.11269479116E+04  0.25500000920E-02 0.  1.
    10030    2    1    2    0    0  0.00000000000E+00  0.00000000000E+00  0.48995104131E+03  0.27438468644E+04  0.26997488017E+04 0.  0.
        3    1    3    3  502    0 -0.79941617376E+03 -0.60082518744E+03 -0.67653400845E+03  0.12073754178E+04  0.10100000352E+00 0.  1.
       -3    1    3    3    0  502  0.79941617376E+03  0.60082518744E+03  0.11664850498E+04  0.15364714466E+04  0.10100000352E+00 0. -1.
</event>
<event>
 5   0  0.7806808E-07  0.2702074E+04  0.7818609E-02  0.8334332E-01
       -1   -1    0    0    0  501  0.00000000000E+00  0.00000000000E+00  0.14520619564E+04  0.14520619564E+04  0.50400001928E-02 0.  1.
        1   -1    0    0  501    0  0.00000000000E+00  0.00000000000E+00 -0.12570407554E+04  0.12570407554E+04  0.50400001928E-02 0. -1.
    10030    2    1    2    0    0  0.00000000000E+00  0.00000000000E+00  0.19502120102E+03  0.27091027118E+04  0.27020740616E+04 0.  0.
        5    1    3    3  502    0 -0.12367094062E+04 -0.38139744724E+03 -0.29126707044E+03  0.13265642708E+04  0.46999998093E+01 0.  1.
       -5    1    3    3    0  502  0.12367094062E+04  0.38139744724E+03  0.48628827147E+03  0.13825384411E+04  0.46999998093E+01 0. -1.
</event>
<event>
 5   0  0.7768032E-07  0.2696729E+04  0.7818609E-02  0.8336067E-01
        1   -1    0    0  501    0  0.00000000000E+00  0.00000000000E+00  0.18716731459E+04  0.18716731459E+04  0.50400001928E-02 0. -1.
       -1   -1    0    0    0  501  0.00000000000E+00  0.00000000000E+00 -0.97136977033E+03  0.97136977035E+03  0.50400001928E-02 0.  1.
    10030    2    1    2    0    0  0.00000000000E+00  0.00000000000E+00  0.90030337560E+03  0.28430429163E+04  0.26967289177E+04 0.  0.
        4    1    3    3  502    0  0.69270659404E+03 -0.99426411669E+03  0.10735741951E+04  0.16189400003E+04  0.12699999809E+01 0. -1.
       -4    1    3    3    0  502 -0.69270659404E+03  0.99426411669E+03 -0.17327081954E+03  0.12241029160E+04  0.12699999809E+01 0.  1.
</event>
<event>
 5   0  0.2063087E-06  0.2700645E+04  0.7818609E-02  0.8334796E-01
       -2   -1    0    0    0  501  0.00000000000E+00  0.00000000000E+00  0.67457791762E+03  0.67457791763E+03  0.25500000920E-02 0. -1.
        2   -1    0    0  501    0  0.00000000000E+00  0.00000000000E+00 -0.27029801382E+04  0.27029801383E+04  0.25500000920E-02 0.  1.
    10030    2    1    2    0    0  0.00000000000E+00  0.00000000000E+00 -0.20284022206E+04  0.33775580559E+04  0.27006448956E+04 0.  0.
        3    1    3    3  502    0  0.56117552830E+03 -0.34770957589E+03 -0.24873945716E+04  0.25735096051E+04  0.10100000352E+00 0.  1.
       -3    1    3    3    0  502 -0.56117552830E+03  0.34770957589E+03  0.45899235095E+03  0.80404845075E+03  0.10100000352E+00 0. -1.
</event>
<event>
 5   0  0.1991277E-06  0.2711525E+04  0.7818609E-02  0.8331275E-01
       -2   -1    0    0    0  501  0.00000000000E+00  0.00000000000E+00  0.16333958771E+04  0.16333958771E+04  0.25500000920E-02 0.  1.
        2   -1    0    0  501    0  0.00000000000E+00  0.00000000000E+00 -0.11253189718E+04  0.11253189718E+04  0.25500000920E-02 0. -1.
    10030    2    1    2    0    0  0.00000000000E+00  0.00000000000E+00  0.50807690536E+03  0.27587148489E+04  0.27115245667E+04 0.  0.
        5    1    3    3  502    0 -0.87774763659E+03  0.62333978172E+03  0.10924406775E+04  0.15337672969E+04  0.46999998093E+01 0.  1.
       -5    1    3    3    0  502  0.87774763659E+03 -0.62333978172E+03 -0.58436377215E+03  0.12249475520E+04  0.46999998093E+01 0. -1.
</event>
<event>
 5   0  0.1991277E-06  0.2698858E+04  0.7818609E-02  0.8335376E-01
       -2   -1    0    0    0  501  0.00000000000E+00  0.00000000000E+00  0.88190694593E+03  0.88190694594E+03  0.25500000920E-02 0. -1.
        2   -1    0    0  501    0  0.00000000000E+00  0.00000000000E+00 -0.20647960635E+04  0.20647960635E+04  0.25500000920E-02 0.  1.
    10030    2    1    2    0    0  0.00000000000E+00  0.00000000000E+00 -0.11828891176E+04  0.29467030095E+04  0.26988575289E+04 0.  0.
        5    1    3    3  502    0 -0.11817897837E+03  0.57825412851E+03 -0.19163887803E+04  0.20052212235E+04  0.46999998093E+01 0.  1.
       -5    1    3    3    0  502  0.11817897837E+03 -0.57825412851E+03  0.73349966270E+03  0.94148178593E+03  0.46999998093E+01 0. -1.
</event>
<event>
 5   0  0.1991277E-06  0.2699666E+04  0.7818609E-02  0.8335113E-01
       -2   -1    0    0    0  501  0.00000000000E+00  0.00000000000E+00  0.60176910951E+03  0.60176910952E+03  0.25500000920E-02 0.  1.
        2   -1    0    0  501    0  0.00000000000E+00  0.00000000000E+00 -0.30278202994E+04  0.30278202994E+04  0.25500000920E-02 0. -1.
    10030    2    1    2    0    0  0.00000000000E+00  0.00000000000E+00 -0.24260511899E+04  0.36295894090E+04  0.26996657018E+04 0.  0.
        5    1    3    3  502    0 -0.13257389760E+04 -0.25208044691E+03 -0.11727310370E+04  0.17878614486E+04  0.46999998093E+01 0.  1.
       -5    1    3    3    0  502  0.13257389760E+04  0.25208044691E+03 -0.12533201529E+04  0.18417279603E+04  0.46999998093E+01 0. -1.
</event>
<event>
 5   0  0.1932012E-06  0.2693270E+04  0.7818609E-02  0.8337192E-01
        2   -1    0    0  501    0  0.00000000000E+00  0.00000000000E+00  0.13805756817E+04  0.13805756817E+04  0.25500000920E-02 0. -1.
       -2   -1    0    0    0  501  0.00000000000E+00  0.00000000000E+00 -0.13135282732E+04  0.13135282732E+04  0.25500000920E-02 0.  1.
    10030    2    1    2    0    0  0.00000000000E+00  0.00000000000E+00  0.67047408536E+02  0.26941039549E+04  0.26932695307E+04 0.  0.
        2    1    3    3  502    0  0.65659445974E+03  0.13874888178E+03  0.12013860188E+04  0.13761162389E+04  0.25500000920E-02 0. -1.
       -2    1    3    3    0  502 -0.65659445974E+03 -0.13874888178E+03 -0.11343386103E+04  0.13179877160E+04  0.25500000920E-02 0.  1.
</event>
<event>
 5   0  0.1999104E-06  0.2700499E+04  0.7818609E-02  0.8334843E-01
       -2   -1    0    0    0  501  0.00000000000E+00  0.00000000000E+00  0.72564121377E+03  0.72564121377E+03  0.25500000920E-02 0.  1.
        2   -1    0    0  501    0  0.00000000000E+00  0.00000000000E+00 -0.25125001651E+04  0.25125001651E+04  0.25500000920E-02 0. -1.
    10030    2    1    2    0    0  0.00000000000E+00  0.00000000000E+00 -0.17868589513E+04  0.32381413788E+04  0.27004989682E+04 0.  0.
        4    1    3    3  502    0  0.61055090305E+03  0.68221788407E+02 -0.23352051906E+04  0.24146659216E+04  0.12699999809E+01 0. -1.
       -4    1    3    3    0  502 -0.61055090305E+03 -0.68221788407E+02  0.54834623933E+03  0.82347545726E+03  0.12699999809E+01 0.  1.
</event>
<event>
 5   0  0.1991277E-06  0.2704047E+04  0.7818609E-02  0.8333693E-01
       -2   -1    0    0    0  501  0.00000000000E+00  0.00000000000E+00  0.10646386439E+04  0.10646386439E+04  0.25500000920E-02 0.  1.
        2   -1    0    0  501    0  0.00000000000E+00  0.00000000000E+00 -0.17169834659E+04  0.17169834659E+04  0.25500000920E-02 0. -1.
    10030    2    1    2    0    0  0.00000000000E+00  0.00000000000E+00 -0.65234482191E+03  0.27816221098E+04  0.27040465593E+04 0.  0.
        5    1    3    3  502    0  0.17473960195E+03 -0.58973373234E+03  0.91237263881E+03  0.11003480020E+04  0.46999998093E+01 0.  1.
       -5    1    3    3    0  502 -0.17473960195E+03  0.58973373234E+03 -0.15647174607E+04  0.16812741078E+04  0.46999998093E+01 0. -1.
</event>
<event>
 5   0  0.1991277E-06  0.2700463E+04  0.7818609E-02  0.8334855E-01
       -2   -1    0    0    0  501  0.00000000000E+00  0.00000000000E+00  0.80435307462E+03  0.80435307462E+03  0.25500000920E-02 0.  1.
        2   -1    0    0  501    0  0.00000000000E+00  0.00000000000E+00 -0.22665727973E+04  0.22665727973E+04  0.25500000920E-02 0. -1.
    10030    2    1    2    0    0  0.00000000000E+00  0.00000000000E+00 -0.14622197227E+04  0.30709258719E+04  0.27004627739E+04 0.  0.
        5    1    3    3  502    0  0.71252265437E+03 -0.98875010898E+02 -0.20305088182E+04  0.21541710591E+04  0.46999998093E+01 0. -1.
       -5    1    3    3    0  502 -0.71252265437E+03  0.98875010898E+02  0.56828909556E+03  0.91675481285E+03  0.46999998093E+01 0.  1.
</event>
<event>
 5   0  0.2030645E-06  0.2705461E+04  0.7818609E-02  0.8333235E-01
        2   -1    0    0  501    0  0.00000000000E+00  0.00000000000E+00  0.18347202397E+04  0.18347202397E+04  0.25500000920E-02 0. -1.
       -2   -1    0    0    0  501  0.00000000000E+00  0.00000000000E+00 -0.99736205440E+03  0.99736205440E+03  0.25500000920E-02 0.  1.
    10030    2    1    2    0    0  0.00000000000E+00  0.00000000000E+00  0.83735818534E+03  0.28320822941E+04  0.27054614006E+04 0.  0.
        1    1    3    3  502    0  0.97483284100E+03 -0.92113361741E+03  0.60326723159E+03  0.14706180883E+04  0.50400001928E-02 0. -1.
       -1    1    3    3    0  502 -0.97483284100E+03  0.92113361741E+03  0.23409095375E+03  0.13614642058E+04  0.50400001928E-02 0.  1.
</event>
<event>
 5   0  0.2030645E-06  0.2689605E+04  0.7818609E-02  0.8338386E-01
        2   -1    0    0  501    0  0.00000000000E+00  0.00000000000E+00  0.19788149375E+04  0.19788149375E+04  0.25500000920E-02 0.  1.
       -2   -1    0    0    0  501  0.00000000000E+00  0.00000000000E+00 -0.91392793003E+03  0.91392793003E+03  0.25500000920E-02 0. -1.
    10030    2    1    2    0    0  0.00000000000E+00  0.00000000000E+00  0.10648870075E+04  0.28927428675E+04  0.26896053538E+04 0.  0.
        1    1    3    3  502    0  0.41868283600E+03  0.12778836444E+04  0.51677200898E+03  0.14406023862E+04  0.50400001928E-02 0.  1.
       -1    1    3    3    0  502 -0.41868283600E+03 -0.12778836444E+04  0.54811499850E+03  0.14521404813E+04  0.50400001928E-02 0. -1.
</event>
<event>
 5   0  0.7436613E-07  0.2699347E+04  0.7818609E-02  0.8335217E-01
        1   -1    0    0  501    0  0.00000000000E+00  0.00000000000E+00  0.25153609987E+04  0.25153609987E+04  0.50400001928E-02 0. -1.
       -1   -1    0    0    0  501  0.00000000000E+00  0.00000000000E+00 -0.72419774702E+03  0.72419774703E+03  0.50400001928E-02 0.  1.
    10030    2    1    2    0    0  0.00000000000E+00  0.00000000000E+00  0.17911632517E+04  0.32395587457E+04  0.26993471568E+04 0.  0.
        2    1    3    3  502    0  0.12290718224E+03  0.25778742062E+03 -0.68752078427E+03  0.74447656678E+03  0.25500000920E-02 0.  1.
       -2    1    3    3    0  502 -0.12290718224E+03 -0.25778742062E+03  0.24786840359E+04  0.24950821789E+04  0.25500000920E-02 0. -1.
</event>
<event>
 5   0  0.2063087E-06  0.2700838E+04  0.7818609E-02  0.8334733E-01
        2   -1    0    0  501    0  0.00000000000E+00  0.00000000000E+00  0.24000141627E+04  0.24000141627E+04  0.25500000920E-02 0.  1.
       -2   -1    0    0    0  501  0.00000000000E+00  0.00000000000E+00 -0.75984170286E+03  0.75984170286E+03  0.25500000920E-02 0. -1.
    10030    2    1    2    0    0  0.00000000000E+00  0.00000000000E+00  0.16401724598E+04  0.31598558655E+04  0.27008375355E+04 0.  0.
        3    1    3    3  502    0  0.45010640328E+03  0.12097151890E+04  0.12845804293E+04  0.18210308900E+04  0.10100000352E+00 0.  1.
       -3    1    3    3    0  502 -0.45010640328E+03 -0.12097151890E+04  0.35559203050E+03  0.13388249755E+04  0.10100000352E+00 0. -1.
</event>
<event>
 5   0  0.7768032E-07  0.2700885E+04  0.7818609E-02  0.8334718E-01
        1   -1    0    0  501    0  0.00000000000E+00  0.00000000000E+00  0.23060960752E+04  0.23060960752E+04  0.50400001928E-02 0.  1.
       -1   -1    0    0    0  501  0.00000000000E+00  0.00000000000E+00 -0.79081476320E+03  0.79081476322E+03  0.50400001928E-02 0. -1.
    10030    2    1    2    0    0  0.00000000000E+00  0.00000000000E+00  0.15152813120E+04  0.30969108384E+04  0.27008849081E+04 0.  0.
        4    1    3    3  502    0 -0.46140116637E+03  0.26105392480E+03 -0.66651267771E+03  0.85163428209E+03  0.12699999809E+01 0. -1.
       -4    1    3    3    0  502  0.46140116637E+03 -0.26105392480E+03  0.21817939897E+04  0.22452765563E+04  0.12699999809E+01 0.  1.
</event>
<event>
 5   0  0.7566905E-07  0.2710723E+04  0.7818609E-02  0.8331534E-01
        1   -1    0    0  501    0  0.00000000000E+00  0.00000000000E+00  0.21607785327E+04  0.21607785327E+04  0.50400001928E-02 0.  1.
       -1   -1    0    0    0  501  0.00000000000E+00  0.00000000000E+00 -0.85015892567E+03  0.85015892569E+03  0.50400001928E-02 0. -1.
    10030    2    1    2    0    0  0.00000000000E+00  0.00000000000E+00  0.13106196070E+04  0.30109374584E+04  0.27107232658E+04 0.  0.
        1    1    3    3  502    0  0.33951863678E+03 -0.60714866855E+03  0.19473675940E+04  0.20678836903E+04  0.50400001928E-02 0.  1.
       -1    1    3    3    0  502 -0.33951863678E+03  0.60714866855E+03 -0.63674798701E+03  0.94305376805E+03  0.50400001928E-02 0. -1.
</event>
<event>
 5   0  0.7806808E-07  0.2676430E+04  0.7818609E-02  0.8342693E-01
       -1   -1    0    0    0  501  0.00000000000E+00  0.00000000000E+00  0.99184673245E+03  0.99184673246E+03  0.50400001928E-02 0.  1.
        1   -1    0    0  501    0  0.00000000000E+00  0.00000000000E+00 -0.18055398034E+04  0.18055398034E+04  0.50400001928E-02 0. -1.
    10030    2    1    2    0    0  0.00000000000E+00  0.00000000000E+00 -0.81369307099E+03  0.27973865359E+04  0.26764295278E+04 0.  0.
        5    1    3    3  502    0  0.37526867271E+03 -0.45872188285E+03  0.84718710815E+03  0.10339247694E+04  0.46999998093E+01 0.  1.
       -5    1    3    3    0  502 -0.37526867271E+03  0.45872188285E+03 -0.16608801791E+04  0.17634617665E+04  0.46999998093E+01 0. -1.
</event>
<event>
 5   0  0.1999104E-06  0.2726200E+04  0.7818609E-02  0.8326554E-01
       -2   -1    0    0    0  501  0.00000000000E+00  0.00000000000E+00  0.93419506799E+03  0.93419506799E+03  0.25500000920E-02 0. -1.
        2   -1    0    0  501    0  0.00000000000E+00  0.00000000000E+00 -0.19889219671E+04  0.19889219671E+04  0.25500000920E-02 0.  1.
    10030    2    1    2    0    0  0.00000000000E+00  0.00000000000E+00 -0.10547268991E+04  0.29231170351E+04  0.27261996202E+04 0.  0.
        4    1    3    3  502    0 -0.46295134129E+02  0.62587389329E+03 -0.18247981398E+04  0.19297023692E+04  0.12699999809E+01 0.  1.
       -4    1    3    3    0  502  0.46295134129E+02 -0.62587389329E+03  0.77007124070E+03  0.99341466589E+03  0.12699999809E+01 0. -1.
</event>
<event>
 5   0  0.7768032E-07  0.2700415E+04  0.7818609E-02  0.8334870E-01
        1   -1    0    0  501    0  0.00000000000E+00  0.00000000000E+00  0.12580771632E+04  0.12580771633E+04  0.50400001928E-02 0.  1.
       -1   -1    0    0    0  501  0.00000000000E+00  0.00000000000E+00 -0.14490849203E+04  0.14490849203E+04  0.50400001928E-02 0. -1.
    10030    2    1    2    0    0  0.00000000000E+00  0.00000000000E+00 -0.19100775708E+03  0.27071620836E+04  0.27004152613E+04 0.  0.
        4    1    3    3  502    0  0.87417992166E+03 -0.80008540019E+03 -0.74421553680E+03  0.13993518361E+04  0.12699999809E+01 0. -1.
       -4    1    3    3    0  502 -0.87417992166E+03  0.80008540019E+03  0.55320777971E+03  0.13078102475E+04  0.12699999809E+01 0.  1.
</event>
<event>
 5   0  0.1932012E-06  0.2697673E+04  0.7818609E-02  0.8335760E-01
        2   -1    0    0  501    0  0.00000000000E+00  0.00000000000E+00  0.10428455437E+04  0.10428455437E+04  0.25500000920E-02 0. -1.
       -2   -1    0    0    0  501  0.00000000000E+00  0.00000000000E+00 -0.17446115352E+04  0.17446115352E+04  0.25500000920E-02 0.  1.
    10030    2    1    2    0    0  0.00000000000E+00  0.00000000000E+00 -0.70176599149E+03  0.27874570788E+04  0.26976733419E+04 0.  0.
        2    1    3    3  502    0  0.98573753976E+03  0.85131842366E+03  0.11412829370E+02  0.13025174887E+04  0.25500000920E-02 0. -1.
       -2    1    3    3    0  502 -0.98573753976E+03 -0.85131842366E+03 -0.71317882086E+03  0.14849395901E+04  0.25500000920E-02 0.  1.
</event>
<event>
 5   0  0.2030645E-06  0.2695293E+04  0.7818609E-02  0.8336534E-01
        2   -1    0    0  501    0  0.00000000000E+00  0.00000000000E+00  0.15219678943E+04  0.15219678943E+04  0.25500000920E-02 0.  1.
       -2   -1    0    0    0  501  0.00000000000E+00  0.00000000000E+00 -0.11932913816E+04  0.11932913816E+04  0.25500000920E-02 0. -1.
    10030    2    1    2    0    0  0.00000000000E+00  0.00000000000E+00  0.32867651276E+03  0.27152592759E+04  0.26952930611E+04 0.  0.
        1    1    3    3  502    0 -0.19860873269E+03  0.31402251896E+03  0.14693477232E+04  0.15155983316E+04  0.50400001928E-02 0.  1.
       -1    1    3    3    0  502  0.19860873269E+03 -0.31402251896E+03 -0.11406712104E+04  0.11996609443E+04  0.50400001928E-02 0. -1.
</event>
<event>
 5   0  0.1991277E-06  0.2699996E+04  0.7818609E-02  0.8335006E-01
        2   -1    0    0  501    0  0.00000000000E+00  0.00000000000E+00  0.27976595975E+04  0.27976595975E+04  0.25500000920E-02 0.  1.
       -2   -1    0    0    0  501  0.00000000000E+00  0.00000000000E+00 -0.65143546764E+03  0.65143546765E+03  0.25500000920E-02 0. -1.
    10030    2    1    2    0    0  0.00000000000E+00  0.00000000000E+00  0.21462241299E+04  0.34490950652E+04  0.26999960654E+04 0.  0.
        5    1    3    3  502    0 -0.38038261868E+03 -0.55127928466E+03  0.25704343834E+04  0.26562670791E+04  0.46999998093E+01 0.  1.
       -5    1    3    3    0  502  0.38038261868E+03  0.55127928466E+03 -0.42421025351E+03  0.79282798605E+03  0.46999998093E+01 0. -1.
</event>
<event>
 5   0  0.7436613E-07  0.2696593E+04  0.7818609E-02  0.8336111E-01
       -1   -1    0    0    0  501  0.00000000000E+00  0.00000000000E+00  0.27863291057E+04  0.27863291057E+04  0.50400001928E-02 0.  1.
        1   -1    0    0  501    0  0.00000000000E+00  0.00000000000E+00 -0.65243672689E+03  0.65243672691E+03  0.50400001928E-02 0. -1.
    10030    2    1    2    0    0  0.00000000000E+00  0.00000000000E+00  0.21338923788E+04  0.34387658326E+04  0.26965929925E+04 0.  0.
        2    1    3    3  502    0  0.10818088688E+04  0.58228508895E+03  0.35860762028E+03  0.12798303710E+04  0.25500000920E-02 0. -1.
       -2    1    3    3    0  502 -0.10818088688E+04 -0.58228508895E+03  0.17752847585E+04  0.21589354615E+04  0.25500000920E-02 0.  1.
</event>
<event>
 5   0  0.7768032E-07  0.2696929E+04  0.7818609E-02  0.8336002E-01
       -1   -1    0    0    0  501  0.00000000000E+00  0.00000000000E+00  0.26415571315E+04  0.26415571315E+04  0.50400001928E-02 0.  1.
        1   -1    0    0  501    0  0.00000000000E+00  0.00000000000E+00 -0.68836547413E+03  0.68836547415E+03  0.50400001928E-02 0. -1.
    10030    2    1    2    0    0  0.00000000000E+00  0.00000000000E+00  0.19531916573E+04  0.33299226056E+04  0.26969291628E+04 0.  0.
        4    1    3    3  502    0 -0.12981756013E+04 -0.32708113620E+03  0.11761194213E+04  0.17819933972E+04  0.12699999809E+01 0.  1.
       -4    1    3    3    0  502  0.12981756013E+04  0.32708113620E+03  0.77707223604E+03  0.15479292085E+04  0.12699999809E+01 0. -1.
</event>
<event>
 5   0  0.1999104E-06  0.2688152E+04  0.7818609E-02  0.8338859E-01
       -2   -1    0    0    0  501  0.00000000000E+00  0.00000000000E+00  0.84307042199E+03  0.84307042199E+03  0.25500000920E-02 0. -1.
        2   -1    0    0  501    0  0.00000000000E+00  0.00000000000E+00 -0.21428113554E+04  0.21428113554E+04  0.25500000920E-02 0.  1.
    10030    2    1    2    0    0  0.00000000000E+00  0.00000000000E+00 -0.12997409334E+04  0.29858817774E+04  0.26881524314E+04 0.  0.
        4    1    3    3  502    0  0.55049074923E+03  0.12217894530E+04 -0.76492747483E+03  0.15430246878E+04  0.12699999809E+01 0.  1.
       -4    1    3    3    0  502 -0.55049074923E+03 -0.12217894530E+04 -0.53481345861E+03  0.14428570896E+04  0.12699999809E+01 0. -1.
</event>
<event>
 5   0  0.2063087E-06  0.2706045E+04  0.7818609E-02  0.8333046E-01
       -2   -1    0    0    0  501  0.00000000000E+00  0.00000000000E+00  0.11370353159E+04  0.11370353159E+04  0.25500000920E-02 0.  1.
        2   -1    0    0  501    0  0.00000000000E+00  0.00000000000E+00 -0.16100377811E+04  0.16100377811E+04  0.25500000920E-02 0. -1.
    10030    2    1    2    0    0  0.00000000000E+00  0.00000000000E+00 -0.47300246522E+03  0.27470730969E+04  0.27060449493E+04 0.  0.
        3    1    3    3  502    0  0.19340668379E+03  0.86164394545E+03  0.80414265545E+03  0.11943541579E+04  0.10100000352E+00 0.  1.
       -3    1    3    3    0  502 -0.19340668379E+03 -0.86164394545E+03 -0.12771451207E+04  0.15527189390E+04  0.10100000352E+00 0. -1.
</event>
<event>
 5   0  0.7566905E-07  0.2700829E+04  0.7818609E-02  0.8334736E-01
       -1   -1    0    0    0  501  0.00000000000E+00  0.00000000000E+00  0.90997539671E+03  0.90997539672E+03  0.50400001928E-02 0. -1.
        1   -1    0    0  501    0  0.00000000000E+00  0.00000000000E+00 -0.20040314771E+04  0.20040314771E+04  0.50400001928E-02 0.  1.
    10030    2    1    2    0    0  0.00000000000E+00  0.00000000000E+00 -0.10940560804E+04  0.29140068738E+04  0.27008290123E+04 0.  0.
        1    1    3    3  502    0 -0.51788237307E+03  0.15494954303E+03  0.78814917558E+03  0.95571472533E+03  0.50400001928E-02 0. -1.
       -1    1    3    3    0  502  0.51788237307E+03 -0.15494954303E+03 -0.18822052560E+04  0.19582921485E+04  0.50400001928E-02 0.  1.
</event>
<event>
 5   0  0.7335091E-07  0.2643138E+04  0.7818609E-02  0.8353694E-01
       -1   -1    0    0    0  501  0.00000000000E+00  0.00000000000E+00  0.96205365151E+03  0.96205365152E+03  0.50400001928E-02 0.  1.
        1   -1    0    0  501    0  0.00000000000E+00  0.00000000000E+00 -0.18154337043E+04  0.18154337043E+04  0.50400001928E-02 0. -1.
    10030    2    1    2    0    0  0.00000000000E+00  0.00000000000E+00 -0.85338005280E+03  0.27774873558E+04  0.26431380019E+04 0.  0.
        3    1    3    3  502    0 -0.56608747583E+03 -0.37191160114E+03 -0.16191714716E+04  0.17551323409E+04  0.10100000352E+00 0. -1.
       -3    1    3    3    0  502  0.56608747583E+03  0.37191160114E+03  0.76579141879E+03  0.10223550150E+04  0.10100000352E+00 0.  1.
</event>
<event>
 5   0  0.7436613E-07  0.2701317E+04  0.7818609E-02  0.8334578E-01
       -1   -1    0    0    0  501  0.00000000000E+00  0.00000000000E+00  0.11595527342E+04  0.11595527343E+04  0.50400001928E-02 0. -1.
        1   -1    0    0  501    0  0.00000000000E+00  0.00000000000E+00 -0.15732604900E+04  0.15732604900E+04  0.50400001928E-02 0.  1.
    10030    2    1    2    0    0  0.00000000000E+00  0.00000000000E+00 -0.41370775578E+03  0.27328132243E+04  0.27013170883E+04 0.  0.
        2    1    3    3  502    0  0.80136949048E+03  0.98782898364E+03  0.25262151003E+03  0.12968487917E+04  0.25500000920E-02 0.  1.
       -2    1    3    3    0  502 -0.80136949048E+03 -0.98782898364E+03 -0.66632926581E+03  0.14359644326E+04  0.25500000920E-02 0. -1.
</event>
<event>
 5   0  0.7436613E-07  0.2696005E+04  0.7818609E-02  0.8336302E-01
       -1   -1    0    0    0  501  0.00000000000E+00  0.00000000000E+00  0.95316989808E+03  0.95316989810E+03  0.50400001928E-02 0.  1.
        1   -1    0    0  501    0  0.00000000000E+00  0.00000000000E+00 -0.19063869021E+04  0.19063869021E+04  0.50400001928E-02 0. -1.
    10030    2    1    2    0    0  0.00000000000E+00  0.00000000000E+00 -0.95321700405E+03  0.28595568002E+04  0.26960049030E+04 0.  0.
        2    1    3    3  502    0  0.96793157326E+03  0.81013561615E+02 -0.14680069902E+04  0.17602554505E+04  0.25500000920E-02 0. -1.
       -2    1    3    3    0  502 -0.96793157326E+03 -0.81013561615E+02  0.51478998617E+03  0.10993013497E+04  0.25500000920E-02 0.  1.
</event>
<event>
 5   0  0.1991277E-06  0.2703770E+04  0.7818609E-02  0.8333783E-01
       -2   -1    0    0    0  501  0.00000000000E+00  0.00000000000E+00  0.10728088797E+04  0.10728088797E+04  0.25500000920E-02 0. -1.
        2   -1    0    0  501    0  0.00000000000E+00  0.00000000000E+00 -0.17035586425E+04  0.17035586425E+04  0.25500000920E-02 0.  1.
    10030    2    1    2    0    0  0.00000000000E+00  0.00000000000E+00 -0.63074976284E+03  0.27763675222E+04  0.27037698413E+04 0.  0.
        5    1    3    3  502    0 -0.11792959054E+04  0.59102312179E+03 -0.61916230230E+03  0.14571997837E+04  0.46999998093E+01 0.  1.
       -5    1    3    3    0  502  0.11792959054E+04 -0.59102312179E+03 -0.11587460535E+02  0.13191677385E+04  0.46999998093E+01 0. -1.
</event>
<event>
 5   0  0.7806808E-07  0.2700936E+04  0.7818609E-02  0.8334701E-01
       -1   -1    0    0    0  501  0.00000000000E+00  0.00000000000E+00  0.80977842491E+03  0.80977842493E+03  0.50400001928E-02 0. -1.
        1   -1    0    0  501    0  0.00000000000E+00  0.00000000000E+00 -0.22521760841E+04  0.22521760841E+04  0.50400001928E-02 0.  1.
    10030    2    1    2    0    0  0.00000000000E+00  0.00000000000E+00 -0.14423976592E+04  0.30619545090E+04  0.27009358393E+04 0.  0.
        5    1    3    3  502    0  0.24788079705E+03  0.48490963119E+03 -0.21221617251E+04  0.21909301033E+04  0.46999998093E+01 0.  1.
       -5    1    3    3    0  502 -0.24788079705E+03 -0.48490963119E+03  0.67976406596E+03  0.87102440571E+03  0.46999998093E+01 0. -1.
</event>
<event>
 5   0  0.7335091E-07  0.2696506E+04  0.7818609E-02  0.8336140E-01
       -1   -1    0    0    0  501  0.00000000000E+00  0.00000000000E+00  0.11585339537E+04  0.11585339537E+04  0.50400001928E-02 0.  1.
        1   -1    0    0  501    0  0.00000000000E+00  0.00000000000E+00 -0.15690397260E+04  0.15690397260E+04  0.50400001928E-02 0. -1.
    10030    2    1    2    0    0  0.00000000000E+00  0.00000000000E+00 -0.41050577232E+03  0.27275736797E+04  0.26965057369E+04 0.  0.
        3    1    3    3  502    0 -0.73605939041E+03 -0.79920626388E+03  0.60223768834E+03  0.12422577518E+04  0.10100000352E+00 0.  1.
       -3    1    3    3    0  502  0.73605939041E+03  0.79920626388E+03 -0.10127434607E+04  0.14853159279E+04  0.10100000352E+00 0. -1.
</event>
<event>
 5   0  0.7806808E-07  0.2702809E+04  0.7818609E-02  0.8334094E-01
        1   -1    0    0  501    0  0.00000000000E+00  0.00000000000E+00  0.29242232181E+04  0.29242232181E+04  0.50400001928E-02 0.  1.
       -1   -1    0    0    0  501  0.00000000000E+00  0.00000000000E+00 -0.62453978197E+03  0.62453978199E+03  0.50400001928E-02 0. -1.
    10030    2    1    2    0    0  0.00000000000E+00  0.00000000000E+00  0.22996834362E+04  0.35487630001E+04  0.27028087103E+04 0.  0.
        5    1    3    3  502    0  0.46766417741E+03 -0.58085811919E+03  0.26296037422E+04  0.27333027400E+04  0.46999998093E+01 0.  1.
       -5    1    3    3    0  502 -0.46766417741E+03  0.58085811919E+03 -0.32992030607E+03  0.81546026011E+03  0.46999998093E+01 0. -1.
</event>
<event>
 5   0  0.7566905E-07  0.2702220E+04  0.7818609E-02  0.8334285E-01
        1   -1    0    0  501    0  0.00000000000E+00  0.00000000000E+00  0.26196966123E+04  0.26196966123E+04  0.50400001928E-02 0. -1.
       -1   -1    0    0    0  501  0.00000000000E+00  0.00000000000E+00 -0.69683593064E+03  0.69683593066E+03  0.50400001928E-02 0.  1.
    10030    2    1    2    0    0  0.00000000000E+00  0.00000000000E+00  0.19228606817E+04  0.33165325430E+04  0.27022203662E+04 0.  0.
        1    1    3    3  502    0 -0.99871667044E+03 -0.85751298779E+03  0.13351843341E+04  0.18749615244E+04  0.50400001928E-02 0. -1.
       -1    1    3    3    0  502  0.99871667044E+03  0.85751298779E+03  0.58767634760E+03  0.14415710186E+04  0.50400001928E-02 0.  1.
</event>
<event>
 5   0  0.1932012E-06  0.2699656E+04  0.7818609E-02  0.8335117E-01
       -2   -1    0    0    0  501  0.00000000000E+00  0.00000000000E+00  0.10820150556E+04  0.10820150556E+04  0.25500000920E-02 0. -1.
        2   -1    0    0  501    0  0.00000000000E+00  0.00000000000E+00 -0.16839277558E+04  0.16839277558E+04  0.25500000920E-02 0.  1.
    10030    2    1    2    0    0  0.00000000000E+00  0.00000000000E+00 -0.60191270015E+03  0.27659428114E+04  0.26996556702E+04 0.  0.
        2    1    3    3  502    0 -0.14520392510E+03  0.60391661193E+03  0.92690035047E+03  0.11157704575E+04  0.25500000920E-02 0. -1.
       -2    1    3    3    0  502  0.14520392510E+03 -0.60391661193E+03 -0.15288130506E+04  0.16501723540E+04  0.25500000920E-02 0.  1.
</event>
<event>
 5   0  0.2030645E-06  0.2699863E+04  0.7818609E-02  0.8335049E-01
       -2   -1    0    0    0  501  0.00000000000E+00  0.00000000000E+00  0.94757671173E+03  0.94757671173E+03  0.25500000920E-02 0.  1.
        2   -1    0    0  501    0  0.00000000000E+00  0.00000000000E+00 -0.19231317059E+04  0.19231317059E+04  0.25500000920E-02 0. -1.
    10030    2    1    2    0    0  0.00000000000E+00  0.00000000000E+00 -0.97555499413E+03  0.28707084176E+04  0.26998628247E+04 0.  0.
        1    1    3    3  502    0 -0.18175637084E+03  0.64673654700E+02  0.93284361471E+03  0.95258347114E+03  0.50400001928E-02 0.  1.
       -1    1    3    3    0  502  0.18175637084E+03 -0.64673654700E+02 -0.19083986088E+04  0.19181249465E+04  0.50400001928E-02 0. -1.
</event>
<event>
 5   0  0.6561875E-07  0.2619166E+04  0.7818609E-02  0.8361720E-01
       -3   -1    0    0    0  501  0.00000000000E+00  0.00000000000E+00  0.14519446525E+04  0.14519446560E+04  0.10100000352E+00 0.  1.
        3   -1    0    0  501    0  0.00000000000E+00  0.00000000000E+00 -0.11811794076E+04  0.11811794119E+04  0.10100000352E+00 0. -1.
    10030    2    1    2    0    0  0.00000000000E+00  0.00000000000E+00  0.27076524485E+03  0.26331240679E+04  0.26191656189E+04 0.  0.
        2    1    3    3  502    0  0.51849189347E+03 -0.45219636724E+03 -0.98486816274E+03  0.12013661790E+04  0.25500000920E-02 0. -1.
       -2    1    3    3    0  502 -0.51849189347E+03  0.45219636724E+03  0.12556334076E+04  0.14317578889E+04  0.25500000920E-02 0.  1.
</event>
<event>
 5   0  0.7436613E-07  0.2699329E+04  0.7818609E-02  0.8335223E-01
       -1   -1    0    0    0  501  0.00000000000E+00  0.00000000000E+00  0.15043753820E+04  0.15043753820E+04  0.50400001928E-02 0.  1.
        1   -1    0    0  501    0  0.00000000000E+00  0.00000000000E+00 -0.12108641388E+04  0.12108641388E+04  0.50400001928E-02 0. -1.
    10030    2    1    2    0    0  0.00000000000E+00  0.00000000000E+00  0.29351124321E+03  0.27152395208E+04  0.26993289547E+04 0.  0.
        2    1    3    3  502    0 -0.44391537746E+03  0.12315392382E+04  0.47708805801E+03  0.13933279487E+04  0.25500000920E-02 0.  1.
       -2    1    3    3    0  502  0.44391537746E+03 -0.12315392382E+04 -0.18357681480E+03  0.13219115721E+04  0.25500000920E-02 0. -1.
</event>
<event>
 5   0  0.7335091E-07  0.2704169E+04  0.7818609E-02  0.8333653E-01
       -1   -1    0    0    0  501  0.00000000000E+00  0.00000000000E+00  0.12628452537E+04  0.12628452538E+04  0.50400001928E-02 0. -1.
        1   -1    0    0  501    0  0.00000000000E+00  0.00000000000E+00 -0.14476303000E+04  0.14476303000E+04  0.50400001928E-02 0.  1.
    10030    2    1    2    0    0  0.00000000000E+00  0.00000000000E+00 -0.18478504627E+03  0.27104755538E+04  0.27041694130E+04 0.  0.
        3    1    3    3  502    0  0.40365378790E+03 -0.83400069532E+03 -0.10793916050E+04  0.14225258477E+04  0.10100000352E+00 0.  1.
       -3    1    3    3    0  502 -0.40365378790E+03  0.83400069532E+03  0.89460655870E+03  0.12879497061E+04  0.10100000352E+00 0. -1.
</event>
<event>
 5   0  0.1932012E-06  0.2698538E+04  0.7818609E-02  0.8335479E-01
       -2   -1    0    0    0  501  0.00000000000E+00  0.00000000000E+00  0.11830308743E+04  0.11830308743E+04  0.25500000920E-02 0.  1.
        2   -1    0    0  501    0  0.00000000000E+00  0.00000000000E+00 -0.15388669579E+04  0.15388669579E+04  0.25500000920E-02 0. -1.
    10030    2    1    2    0    0  0.00000000000E+00  0.00000000000E+00 -0.35583608367E+03  0.27218978322E+04  0.26985382136E+04 0.  0.
        2    1    3    3  502    0 -0.77415453833E+03 -0.38121230553E+02 -0.12919052393E+04  0.15065814365E+04  0.25500000920E-02 0. -1.
       -2    1    3    3    0  502  0.77415453833E+03  0.38121230553E+02  0.93606915566E+03  0.12153163957E+04  0.25500000920E-02 0.  1.
</event>
<event>
 5   0  0.2063087E-06  0.2698671E+04  0.7818609E-02  0.8335436E-01
       -2   -1    0    0    0  501  0.00000000000E+00  0.00000000000E+00  0.83117459656E+03  0.83117459656E+03  0.25500000920E-02 0. -1.
        2   -1    0    0  501    0  0.00000000000E+00  0.00000000000E+00 -0.21905214356E+04  0.21905214356E+04  0.25500000920E-02 0.  1.
    10030    2    1    2    0    0  0.00000000000E+00  0.00000000000E+00 -0.13593468390E+04  0.30216960322E+04  0.26986706138E+04 0.  0.
        3    1    3    3  502    0 -0.10398284049E+04  0.45208770353E+02 -0.16411927100E+04  0.19433992040E+04  0.10100000352E+00 0.  1.
       -3    1    3    3    0  502  0.10398284049E+04 -0.45208770353E+02  0.28184587094E+03  0.10782968282E+04  0.10100000352E+00 0. -1.
</event>
<event>
 5   0  0.7566905E-07  0.2708929E+04  0.7818609E-02  0.8332114E-01
        1   -1    0    0  501    0  0.00000000000E+00  0.00000000000E+00  0.16597090001E+04  0.16597090001E+04  0.50400001928E-02 0.  1.
       -1   -1    0    0    0  501  0.00000000000E+00  0.00000000000E+00 -0.11053588280E+04  0.11053588280E+04  0.50400001928E-02 0. -1.
    10030    2    1    2    0    0  0.00000000000E+00  0.00000000000E+00  0.55435017213E+03  0.27650678281E+04  0.27089289361E+04 0.  0.
        1    1    3    3  502    0  0.85599143672E+03 -0.89068386971E+02 -0.79040595971E+03  0.11685016468E+04  0.50400001928E-02 0. -1.
       -1    1    3    3    0  502 -0.85599143672E+03  0.89068386971E+02  0.13447561318E+04  0.15965661813E+04  0.50400001928E-02 0.  1.
</event>
<event>
 5   0  0.1932012E-06  0.2701281E+04  0.7818609E-02  0.8334589E-01
        2   -1    0    0  501    0  0.00000000000E+00  0.00000000000E+00  0.20041725326E+04  0.20041725326E+04  0.25500000920E-02 0. -1.
       -2   -1    0    0    0  501  0.00000000000E+00  0.00000000000E+00 -0.91021626129E+03  0.91021626129E+03  0.25500000920E-02 0.  1.
    10030    2    1    2    0    0  0.00000000000E+00  0.00000000000E+00  0.10939562713E+04  0.29143887939E+04  0.27012814956E+04 0.  0.
        2    1    3    3  502    0 -0.16515067933E+03 -0.74528006774E+03  0.17491133897E+04  0.19084325443E+04  0.25500000920E-02 0. -1.
       -2    1    3    3    0  502  0.16515067933E+03  0.74528006774E+03 -0.65515711839E+03  0.10059562496E+04  0.25500000920E-02 0.  1.
</event>
<event>
 5   0  0.7768032E-07  0.2685070E+04  0.7818609E-02  0.8339865E-01
       -1   -1    0    0    0  501  0.00000000000E+00  0.00000000000E+00  0.12250156850E+04  0.12250156851E+04  0.50400001928E-02 0. -1.
        1   -1    0    0  501    0  0.00000000000E+00  0.00000000000E+00 -0.14713287989E+04  0.14713287989E+04  0.50400001928E-02 0.  1.
    10030    2    1    2    0    0  0.00000000000E+00  0.00000000000E+00 -0.24631311384E+03  0.26963444839E+04  0.26850704695E+04 0.  0.
        4    1    3    3  502    0  0.34859446948E+03 -0.12829778400E+04 -0.31061925275E+03  0.13652971014E+04  0.12699999809E+01 0. -1.
       -4    1    3    3    0  502 -0.34859446948E+03  0.12829778400E+04  0.64306138903E+02  0.13310473825E+04  0.12699999809E+01 0.  1.
</event>
<event>
 5   0  0.7335091E-07  0.2700724E+04  0.7818609E-02  0.8334770E-01
       -1   -1    0    0    0  501  0.00000000000E+00  0.00000000000E+00  0.11051980660E+04  0.11051980660E+04  0.50400001928E-02 0.  1.
        1   -1    0    0  501    0  0.00000000000E+00  0.00000000000E+00 -0.16499095799E+04  0.16499095799E+04  0.50400001928E-02 0. -1.
    10030    2    1    2    0    0  0.00000000000E+00  0.00000000000E+00 -0.54471151388E+03  0.27551076459E+04  0.27007235154E+04 0.  0.
        3    1    3    3  502    0 -0.78156739277E+03 -0.91758127735E+03 -0.89344561285E+03  0.15003493138E+04  0.10100000352E+00 0. -1.
       -3    1    3    3    0  502  0.78156739277E+03  0.91758127735E+03  0.34873409897E+03  0.12547583321E+04  0.10100000352E+00 0.  1.
</event>
<event>
 5   0  0.1991277E-06  0.2699502E+04  0.7818609E-02  0.8335167E-01
        2   -1    0    0  501    0  0.00000000000E+00  0.00000000000E+00  0.12604657798E+04  0.12604657798E+04  0.25500000920E-02 0.  1.
       -2   -1    0    0    0  501  0.00000000000E+00  0.00000000000E+00 -0.14453608152E+04  0.14453608153E+04  0.25500000920E-02 0. -1.
    10030    2    1    2    0    0  0.00000000000E+00  0.00000000000E+00 -0.18489503549E+03  0.27058265950E+04  0.26995020630E+04 0.  0.
        5    1    3    3  502    0 -0.95037595078E+03  0.11318036728E+03  0.86150777907E+03  0.12877274505E+04  0.46999998093E+01 0.  1.
       -5    1    3    3    0  502  0.95037595078E+03 -0.11318036728E+03 -0.10464028146E+04  0.14180991445E+04  0.46999998093E+01 0. -1.
</event>
<event>
 5   0  0.1932012E-06  0.2701945E+04  0.7818609E-02  0.8334374E-01
        2   -1    0    0  501    0  0.00000000000E+00  0.00000000000E+00  0.25396095242E+04  0.25396095242E+04  0.25500000920E-02 0. -1.
       -2   -1    0    0    0  501  0.00000000000E+00  0.00000000000E+00 -0.71866411833E+03  0.71866411834E+03  0.25500000920E-02 0.  1.
    10030    2    1    2    0    0  0.00000000000E+00  0.00000000000E+00  0.18209454059E+04  0.32582736426E+04  0.27019446624E+04 0.  0.
        2    1    3    3  502    0  0.10813540369E+04 -0.15521885346E+03  0.18689214169E+04  0.21647832936E+04  0.25500000920E-02 0. -1.
       -2    1    3    3    0  502 -0.10813540369E+04  0.15521885346E+03 -0.47976011006E+02  0.10934903490E+04  0.25500000920E-02 0.  1.
</event>
<event>
 5   0  0.6561875E-07  0.2704713E+04  0.7818609E-02  0.8333477E-01
        3   -1    0    0  501    0  0.00000000000E+00  0.00000000000E+00  0.15063621015E+04  0.15063621049E+04  0.10100000352E+00 0. -1.
       -3   -1    0    0    0  501  0.00000000000E+00  0.00000000000E+00 -0.12140963204E+04  0.12140963246E+04  0.10100000352E+00 0.  1.
    10030    2    1    2    0    0  0.00000000000E+00  0.00000000000E+00  0.29226578112E+03  0.27204584294E+04  0.27047134376E+04 0.  0.
        5    1    3    3  502    0  0.30744484355E+03 -0.10334753505E+04  0.96712770728E+03  0.14484307799E+04  0.46999998093E+01 0. -1.
       -5    1    3    3    0  502 -0.30744484355E+03  0.10334753505E+04 -0.67486192616E+03  0.12720276496E+04  0.46999998093E+01 0.  1.
</event>
<event>
 5   0  0.7806808E-07  0.2702439E+04  0.7818609E-02  0.8334214E-01
       -1   -1    0    0    0  501  0.00000000000E+00  0.00000000000E+00  0.14455946412E+04  0.14455946412E+04  0.50400001928E-02 0.  1.
        1   -1    0    0  501    0  0.00000000000E+00  0.00000000000E+00 -0.12630054983E+04  0.12630054983E+04  0.50400001928E-02 0. -1.
    10030    2    1    2    0    0  0.00000000000E+00  0.00000000000E+00  0.18258914291E+03  0.27086001395E+04  0.27024388838E+04 0.  0.
        5    1    3    3  502    0  0.74839528656E+03  0.81854782444E+03  0.86484159436E+03  0.14064455621E+04  0.46999998093E+01 0.  1.
       -5    1    3    3    0  502 -0.74839528656E+03 -0.81854782444E+03 -0.68225245145E+03  0.13021545774E+04  0.46999998093E+01 0. -1.
</event>
<event>
 5   0  0.7436613E-07  0.2692394E+04  0.7818609E-02  0.8337477E-01
        1   -1    0    0  501    0  0.00000000000E+00  0.00000000000E+00  0.17049273857E+04  0.17049273857E+04  0.50400001928E-02 0. -1.
       -1   -1    0    0    0  501  0.00000000000E+00  0.00000000000E+00 -0.10629463206E+04  0.10629463206E+04  0.50400001928E-02 0.  1.
    10030    2    1    2    0    0  0.00000000000E+00  0.00000000000E+00  0.64198106518E+03  0.27678737063E+04  0.26923939470E+04 0.  0.
        2    1    3    3  502    0  0.94162243595E+03 -0.43643225754E+02  0.13090213512E+04  0.16131008775E+04  0.25500000920E-02 0. -1.
       -2    1    3    3    0  502 -0.94162243595E+03  0.43643225754E+02 -0.66704028601E+03  0.11547728288E+04  0.25500000920E-02 0.  1.
</event>
<event>
 5   0  0.7566905E-07  0.2698809E+04  0.7818609E-02  0.8335391E-01
        1   -1    0    0  501    0  0.00000000000E+00  0.00000000000E+00  0.14899379062E+04  0.14899379062E+04  0.50400001928E-02 0. -1.
       -1   -1    0    0    0  501  0.00000000000E+00  0.00000000000E+00 -0.12221266952E+04  0.12221266952E+04  0.50400001928E-02 0.  1.
    10030    2    1    2    0    0  0.00000000000E+00  0.00000000000E+00  0.26781121106E+03  0.27120646014E+04  0.26988092851E+04 0.  0.
        1    1    3    3  502    0  0.76394258165E+03 -0.79632133416E+03  0.91435186640E+03  0.14330998817E+04  0.50400001928E-02 0. -1.
       -1    1    3    3    0  502 -0.76394258165E+03  0.79632133416E+03 -0.64654065534E+03  0.12789647197E+04  0.50400001928E-02 0.  1.
</event>
<event>
 5   0  0.1932012E-06  0.2700203E+04  0.7818609E-02  0.8334939E-01
       -2   -1    0    0    0  501  0.00000000000E+00  0.00000000000E+00  0.23747133962E+04  0.23747133962E+04  0.25500000920E-02 0. -1.
        2   -1    0    0  501    0  0.00000000000E+00  0.00000000000E+00 -0.76757636436E+03  0.76757636437E+03  0.25500000920E-02 0.  1.
    10030    2    1    2    0    0  0.00000000000E+00  0.00000000000E+00  0.16071370319E+04  0.31422897606E+04  0.27002028628E+04 0.  0.
        2    1    3    3  502    0  0.66789222889E+03  0.54457151041E+03 -0.40588449545E+03  0.95256515946E+03  0.25500000920E-02 0.  1.
       -2    1    3    3    0  502 -0.66789222889E+03 -0.54457151041E+03  0.20130215273E+04  0.21897246011E+04  0.25500000920E-02 0. -1.
</event>
<event>
 5   0  0.7566905E-07  0.2702146E+04  0.7818609E-02  0.8334309E-01
        1   -1    0    0  501    0  0.00000000000E+00  0.00000000000E+00  0.12191646822E+04  0.12191646823E+04  0.50400001928E-02 0.  1.
       -1   -1    0    0    0  501  0.00000000000E+00  0.00000000000E+00 -0.14972536946E+04  0.14972536946E+04  0.50400001928E-02 0. -1.
    10030    2    1    2    0    0  0.00000000000E+00  0.00000000000E+00 -0.27808901230E+03  0.27164183768E+04  0.27021464244E+04 0.  0.
        1    1    3    3  502    0 -0.85068672628E+03  0.10212595110E+04  0.10464027937E+03  0.13332623459E+04  0.50400001928E-02 0.  1.
       -1    1    3    3    0  502  0.85068672628E+03 -0.10212595110E+04 -0.38272929167E+03  0.13831560309E+04  0.50400001928E-02 0. -1.
</event>
<event>
 5   0  0.6561875E-07  0.2697693E+04  0.7818609E-02  0.8335754E-01
       -4   -1    0    0    0  501  0.00000000000E+00  0.00000000000E+00  0.98176763200E+03  0.98176845343E+03  0.12699999809E+01 0. -1.
        4   -1    0    0  501    0  0.00000000000E+00  0.00000000000E+00 -0.18531724222E+04  0.18531728574E+04  0.12699999809E+01 0.  1.
    10030    2    1    2    0    0  0.00000000000E+00  0.00000000000E+00 -0.87140479021E+03  0.28349413108E+04  0.26976927044E+04 0.  0.
        5    1    3    3  502    0  0.10581233699E+04 -0.18780673718E+02  0.44313848919E+03  0.11473323801E+04  0.46999998093E+01 0. -1.
       -5    1    3    3    0  502 -0.10581233699E+04  0.18780673718E+02 -0.13145432794E+04  0.16876089308E+04  0.46999998093E+01 0.  1.
</event>
<event>
 5   0  0.7335091E-07  0.2714721E+04  0.7818609E-02  0.8330244E-01
        1   -1    0    0  501    0  0.00000000000E+00  0.00000000000E+00  0.20560748932E+04  0.20560748932E+04  0.50400001928E-02 0. -1.
       -1   -1    0    0    0  501  0.00000000000E+00  0.00000000000E+00 -0.89609002359E+03  0.89609002360E+03  0.50400001928E-02 0.  1.
    10030    2    1    2    0    0  0.00000000000E+00  0.00000000000E+00  0.11599848696E+04  0.29521649168E+04  0.27147214955E+04 0.  0.
        3    1    3    3  502    0 -0.13441731035E+04 -0.13018312022E+03  0.72861837461E+03  0.15344815812E+04  0.10100000352E+00 0. -1.
       -3    1    3    3    0  502  0.13441731035E+04  0.13018312022E+03  0.43136649502E+03  0.14176833356E+04  0.10100000352E+00 0.  1.
</event>
<event>
 5   0  0.6561875E-07  0.2708938E+04  0.7818609E-02  0.8332111E-01
        3   -1    0    0  501    0  0.00000000000E+00  0.00000000000E+00  0.71445325392E+03  0.71445326106E+03  0.10100000352E+00 0.  1.
       -3   -1    0    0    0  501  0.00000000000E+00  0.00000000000E+00 -0.25678192414E+04  0.25678192434E+04  0.10100000352E+00 0. -1.
    10030    2    1    2    0    0  0.00000000000E+00  0.00000000000E+00 -0.18533659875E+04  0.32822725044E+04  0.27089384101E+04 0.  0.
        3    1    3    3  502    0 -0.23555418678E+03 -0.51380805679E+03  0.56472506562E+03  0.79899868841E+03  0.10100000352E+00 0.  1.
       -3    1    3    3    0  502  0.23555418678E+03  0.51380805679E+03 -0.24180910531E+04  0.24832738160E+04  0.10100000352E+00 0. -1.
</event>
<event>
 5   0  0.7806808E-07  0.2701775E+04  0.7818609E-02  0.8334429E-01
        1   -1    0    0  501    0  0.00000000000E+00  0.00000000000E+00  0.15262496990E+04  0.15262496990E+04  0.50400001928E-02 0.  1.
       -1   -1    0    0    0  501  0.00000000000E+00  0.00000000000E+00 -0.11956742231E+04  0.11956742231E+04  0.50400001928E-02 0. -1.
    10030    2    1    2    0    0  0.00000000000E+00  0.00000000000E+00  0.33057547583E+03  0.27219239221E+04  0.27017752853E+04 0.  0.
        5    1    3    3  502    0  0.47590461995E+03 -0.60366461713E+03 -0.95384260198E+03  0.12250444794E+04  0.46999998093E+01 0. -1.
       -5    1    3    3    0  502 -0.47590461995E+03  0.60366461713E+03  0.12844180778E+04  0.14968794427E+04  0.46999998093E+01 0.  1.
</event>
<event>
 5   0  0.1932012E-06  0.2698231E+04  0.7818609E-02  0.8335579E-01
       -2   -1    0    0    0  501  0.00000000000E+00  0.00000000000E+00  0.19848336591E+04  0.19848336591E+04  0.25500000920E-02 0.  1.
        2   -1    0    0  501    0  0.00000000000E+00  0.00000000000E+00 -0.91700986324E+03  0.91700986325E+03  0.25500000920E-02 0. -1.
    10030    2    1    2    0    0  0.00000000000E+00  0.00000000000E+00  0.10678237959E+04  0.29018435223E+04  0.26982305626E+04 0.  0.
        2    1    3    3  502    0 -0.62667374860E+03 -0.90080118891E+03  0.13779604057E+04  0.17615157248E+04  0.25500000920E-02 0. -1.
       -2    1    3    3    0  502  0.62667374860E+03  0.90080118891E+03 -0.31013660980E+03  0.11403277976E+04  0.25500000920E-02 0.  1.
</event>
<event>
 5   0  0.6561875E-07  0.2681262E+04  0.7818609E-02  0.8341110E-01
       -3   -1    0    0    0  501  0.00000000000E+00  0.00000000000E+00  0.16195473543E+04  0.16195473574E+04  0.10100000352E+00 0.  1.
        3   -1    0    0  501    0  0.00000000000E+00  0.00000000000E+00 -0.11097496374E+04  0.11097496420E+04  0.10100000352E+00 0. -1.
    10030    2    1    2    0    0  0.00000000000E+00  0.00000000000E+00  0.50979771683E+03  0.27292969994E+04  0.26812624637E+04 0.  0.
        5    1    3    3  502    0 -0.50599614063E+03 -0.10870178198E+04 -0.35553628929E+03  0.12506270339E+04  0.46999998093E+01 0.  1.
       -5    1    3    3    0  502  0.50599614063E+03  0.10870178198E+04  0.86533400612E+03  0.14786699655E+04  0.46999998093E+01 0. -1.
</event>
<event>
 5   0  0.7566905E-07  0.2641315E+04  0.7818609E-02  0.8354301E-01
       -1   -1    0    0    0  501  0.00000000000E+00  0.00000000000E+00  0.12085476557E+04  0.12085476557E+04  0.50400001928E-02 0.  1.
        1   -1    0    0  501    0  0.00000000000E+00  0.00000000000E+00 -0.14431675139E+04  0.14431675139E+04  0.50400001928E-02 0. -1.
    10030    2    1    2    0    0  0.00000000000E+00  0.00000000000E+00 -0.23461985823E+03  0.26517151696E+04  0.26413153660E+04 0.  0.
        1    1    3    3  502    0 -0.69527407487E+03  0.82930376700E+03 -0.87724869154E+03  0.13930958488E+04  0.50400001928E-02 0. -1.
       -1    1    3    3    0  502  0.69527407487E+03 -0.82930376700E+03  0.64262883331E+03  0.12586193208E+04  0.50400001928E-02 0.  1.
</event>
<event>
 5   0  0.1932012E-06  0.2666621E+04  0.7818609E-02  0.8345917E-01
       -2   -1    0    0    0  501  0.00000000000E+00  0.00000000000E+00  0.13105864474E+04  0.13105864474E+04  0.25500000920E-02 0.  1.
        2   -1    0    0  501    0  0.00000000000E+00  0.00000000000E+00 -0.13564283557E+04  0.13564283557E+04  0.25500000920E-02 0. -1.
    10030    2    1    2    0    0  0.00000000000E+00  0.00000000000E+00 -0.45841908262E+02  0.26670148031E+04  0.26666207978E+04 0.  0.
        2    1    3    3  502    0 -0.10412581130E+04  0.82996732755E+03  0.45297606312E+02  0.13323348287E+04  0.25500000920E-02 0.  1.
       -2    1    3    3    0  502  0.10412581130E+04 -0.82996732755E+03 -0.91139514574E+02  0.13346799743E+04  0.25500000920E-02 0. -1.
</event>
<event>
 5   0  0.7436613E-07  0.2780994E+04  0.7818609E-02  0.8309193E-01
        1   -1    0    0  501    0  0.00000000000E+00  0.00000000000E+00  0.11529525255E+04  0.11529525255E+04  0.50400001928E-02 0.  1.
       -1   -1    0    0    0  501  0.00000000000E+00  0.00000000000E+00 -0.16769831407E+04  0.16769831407E+04  0.50400001928E-02 0. -1.
    10030    2    1    2    0    0  0.00000000000E+00  0.00000000000E+00 -0.52403061523E+03  0.28299356663E+04  0.27809940290E+04 0.  0.
        2    1    3    3  502    0  0.78580814548E+03  0.69841913108E+03 -0.11880849622E+04  0.15864518907E+04  0.25500000920E-02 0. -1.
       -2    1    3    3    0  502 -0.78580814548E+03 -0.69841913108E+03  0.66405434700E+03  0.12434837755E+04  0.25500000920E-02 0.  1.
</event>
<event>
 5   0  0.7436613E-07  0.2696008E+04  0.7818609E-02  0.8336301E-01
       -1   -1    0    0    0  501  0.00000000000E+00  0.00000000000E+00  0.14129802811E+04  0.14129802811E+04  0.50400001928E-02 0. -1.
        1   -1    0    0  501    0  0.00000000000E+00  0.00000000000E+00 -0.12860158475E+04  0.12860158475E+04  0.50400001928E-02 0.  1.
    10030    2    1    2    0    0  0.00000000000E+00  0.00000000000E+00  0.12696443367E+03  0.26989961286E+04  0.26960081852E+04 0.  0.
        2    1    3    3  502    0 -0.12555303651E+04  0.37881770094E+03  0.37568628259E+03  0.13641845664E+04  0.25500000920E-02 0. -1.
       -2    1    3    3    0  502  0.12555303651E+04 -0.37881770094E+03 -0.24872184892E+03  0.13348115622E+04  0.25500000920E-02 0.  1.
</event>
<event>
 5   0  0.7768032E-07  0.2699264E+04  0.7818609E-02  0.8335244E-01
       -1   -1    0    0    0  501  0.00000000000E+00  0.00000000000E+00  0.11176696379E+04  0.11176696379E+04  0.50400001928E-02 0. -1.
        1   -1    0    0  501    0  0.00000000000E+00  0.00000000000E+00 -0.16297364577E+04  0.16297364577E+04  0.50400001928E-02 0.  1.
    10030    2    1    2    0    0  0.00000000000E+00  0.00000000000E+00 -0.51206681982E+03  0.27474060956E+04  0.26992643120E+04 0.  0.
        4    1    3    3  502    0 -0.38496058176E+03  0.12848947961E+04 -0.10384728804E+03  0.13453383064E+04  0.12699999809E+01 0. -1.
       -4    1    3    3    0  502  0.38496058176E+03 -0.12848947961E+04 -0.40821953178E+03  0.14020677892E+04  0.12699999809E+01 0.  1.
</event>
<event>
 5   0  0.7768032E-07  0.2727360E+04  0.7818609E-02  0.8326182E-01
        1   -1    0    0  501    0  0.00000000000E+00  0.00000000000E+00  0.14255983008E+04  0.14255983008E+04  0.50400001928E-02 0.  1.
       -1   -1    0    0    0  501  0.00000000000E+00  0.00000000000E+00 -0.13044506098E+04  0.13044506098E+04  0.50400001928E-02 0. -1.
    10030    2    1    2    0    0  0.00000000000E+00  0.00000000000E+00  0.12114769102E+03  0.27300489106E+04  0.27273595823E+04 0.  0.
        4    1    3    3  502    0  0.56545740199E+02 -0.64369032047E+03 -0.11414792595E+04  0.13116825691E+04  0.12699999809E+01 0. -1.
       -4    1    3    3    0  502 -0.56545740199E+02  0.64369032047E+03  0.12626269505E+04  0.14183663414E+04  0.12699999809E+01 0.  1.
</event>
<event>
 5   0  0.7806808E-07  0.2709585E+04  0.7818609E-02  0.8331902E-01
       -1   -1    0    0    0  501  0.00000000000E+00  0.00000000000E+00  0.13469956975E+04  0.13469956975E+04  0.50400001928E-02 0. -1.
        1   -1    0    0  501    0  0.00000000000E+00  0.00000000000E+00 -0.13626347314E+04  0.13626347314E+04  0.50400001928E-02 0.  1.
    10030    2    1    2    0    0  0.00000000000E+00  0.00000000000E+00 -0.15639033929E+02  0.27096304289E+04  0.27095852970E+04 0.  0.
        5    1    3    3  502    0  0.28905542599E+03 -0.15081488454E+03 -0.13228101880E+04  0.13624048782E+04  0.46999998093E+01 0.  1.
       -5    1    3    3    0  502 -0.28905542599E+03  0.15081488454E+03  0.13071711540E+04  0.13472255508E+04  0.46999998093E+01 0. -1.
</event>
<event>
 5   0  0.7335091E-07  0.2695941E+04  0.7818609E-02  0.8336323E-01
       -1   -1    0    0    0  501  0.00000000000E+00  0.00000000000E+00  0.10612443587E+04  0.10612443587E+04  0.50400001928E-02 0.  1.
        1   -1    0    0  501    0  0.00000000000E+00  0.00000000000E+00 -0.17121639709E+04  0.17121639709E+04  0.50400001928E-02 0. -1.
    10030    2    1    2    0    0  0.00000000000E+00  0.00000000000E+00 -0.65091961219E+03  0.27734083296E+04  0.26959409158E+04 0.  0.
        3    1    3    3  502    0  0.81483145586E+03  0.37093443892E+03 -0.13621273295E+04  0.16300102857E+04  0.10100000352E+00 0. -1.
       -3    1    3    3    0  502 -0.81483145586E+03 -0.37093443892E+03  0.71120771734E+03  0.11433980439E+04  0.10100000352E+00 0.  1.
</event>
<event>
 5   0  0.1991277E-06  0.2698999E+04  0.7818609E-02  0.8335330E-01
        2   -1    0    0  501    0  0.00000000000E+00  0.00000000000E+00  0.12442564648E+04  0.12442564648E+04  0.25500000920E-02 0.  1.
       -2   -1    0    0    0  501  0.00000000000E+00  0.00000000000E+00 -0.14636438740E+04  0.14636438740E+04  0.25500000920E-02 0. -1.
    10030    2    1    2    0    0  0.00000000000E+00  0.00000000000E+00 -0.21938740919E+03  0.27079003388E+04  0.26989985938E+04 0.  0.
        5    1    3    3  502    0 -0.41329653882E+03  0.38036338550E+02  0.11786229762E+04  0.12495739282E+04  0.46999998093E+01 0.  1.
       -5    1    3    3    0  502  0.41329653882E+03 -0.38036338550E+02 -0.13980103854E+04  0.14583264106E+04  0.46999998093E+01 0. -1.
</event>
<event>
 5   0  0.7806808E-07  0.2698623E+04  0.7818609E-02  0.8335452E-01
       -1   -1    0    0    0  501  0.00000000000E+00  0.00000000000E+00  0.96888571144E+03  0.96888571145E+03  0.50400001928E-02 0.  1.
        1   -1    0    0  501    0  0.00000000000E+00  0.00000000000E+00 -0.18791085903E+04  0.18791085903E+04  0.50400001928E-02 0. -1.
    10030    2    1    2    0    0  0.00000000000E+00  0.00000000000E+00 -0.91022287881E+03  0.28479943017E+04  0.26986229550E+04 0.  0.
        5    1    3    3  502    0 -0.91297847382E+03  0.74801357444E+03  0.23496653874E+03  0.12034472841E+04  0.46999998093E+01 0.  1.
       -5    1    3    3    0  502  0.91297847382E+03 -0.74801357444E+03 -0.11451894175E+04  0.16445470176E+04  0.46999998093E+01 0. -1.
</event>
<event>
 5   0  0.2030645E-06  0.2683229E+04  0.7818609E-02  0.8340467E-01
        2   -1    0    0  501    0  0.00000000000E+00  0.00000000000E+00  0.22510434484E+04  0.22510434484E+04  0.25500000920E-02 0. -1.
       -2   -1    0    0    0  501  0.00000000000E+00  0.00000000000E+00 -0.79959771456E+03  0.79959771457E+03  0.25500000920E-02 0.  1.
    10030    2    1    2    0    0  0.00000000000E+00  0.00000000000E+00  0.14514457338E+04  0.30506411630E+04  0.26832287988E+04 0.  0.
        1    1    3    3  502    0  0.98847638826E+02 -0.11175051076E+04  0.15622282686E+04  0.19233163246E+04  0.50400001928E-02 0. -1.
       -1    1    3    3    0  502 -0.98847638826E+02  0.11175051076E+04 -0.11078253474E+03  0.11273248384E+04  0.50400001928E-02 0.  1.
</event>
<event>
 5   0  0.7335091E-07  0.2702997E+04  0.7818609E-02  0.8334033E-01
       -1   -1    0    0    0  501  0.00000000000E+00  0.00000000000E+00  0.14795951690E+04  0.14795951690E+04  0.50400001928E-02 0.  1.
        1   -1    0    0  501    0  0.00000000000E+00  0.00000000000E+00 -0.12344914729E+04  0.12344914729E+04  0.50400001928E-02 0. -1.
    10030    2    1    2    0    0  0.00000000000E+00  0.00000000000E+00  0.24510369609E+03  0.27140866419E+04  0.27029965738E+04 0.  0.
        3    1    3    3  502    0  0.87840292395E+03 -0.10014491636E+04  0.35164465944E+03  0.13777322311E+04  0.10100000352E+00 0. -1.
       -3    1    3    3    0  502 -0.87840292395E+03  0.10014491636E+04 -0.10654096335E+03  0.13363544107E+04  0.10100000352E+00 0.  1.
</event>
<event>
 5   0  0.7768032E-07  0.2701061E+04  0.7818609E-02  0.8334661E-01
       -1   -1    0    0    0  501  0.00000000000E+00  0.00000000000E+00  0.89906838177E+03  0.89906838178E+03  0.50400001928E-02 0. -1.
        1   -1    0    0  501    0  0.00000000000E+00  0.00000000000E+00 -0.20286923700E+04  0.20286923700E+04  0.50400001928E-02 0.  1.
    10030    2    1    2    0    0  0.00000000000E+00  0.00000000000E+00 -0.11296239882E+04  0.29277607518E+04  0.27010613960E+04 0.  0.
        4    1    3    3  502    0 -0.13503985944E+04  0.22589868926E+00 -0.58523877819E+03  0.14717616843E+04  0.12699999809E+01 0.  1.
       -4    1    3    3    0  502  0.13503985944E+04 -0.22589868926E+00 -0.54438521005E+03  0.14559990675E+04  0.12699999809E+01 0. -1.
</event>
<event>
 5   0  0.2030645E-06  0.2684841E+04  0.7818609E-02  0.8339940E-01
        2   -1    0    0  501    0  0.00000000000E+00  0.00000000000E+00  0.18372677152E+04  0.18372677152E+04  0.25500000920E-02 0. -1.
       -2   -1    0    0    0  501  0.00000000000E+00  0.00000000000E+00 -0.98085465872E+03  0.98085465873E+03  0.25500000920E-02 0.  1.
    10030    2    1    2    0    0  0.00000000000E+00  0.00000000000E+00  0.85641305649E+03  0.28181223739E+04  0.26848408503E+04 0.  0.
        1    1    3    3  502    0 -0.11632952565E+04 -0.43540335317E+03 -0.10624659008E+03  0.12466436025E+04  0.50400001928E-02 0.  1.
       -1    1    3    3    0  502  0.11632952565E+04  0.43540335317E+03  0.96265964657E+03  0.15714787714E+04  0.50400001928E-02 0. -1.
</event>
<event>
 5   0  0.1991277E-06  0.2700603E+04  0.7818609E-02  0.8334809E-01
       -2   -1    0    0    0  501  0.00000000000E+00  0.00000000000E+00  0.11317910357E+04  0.11317910357E+04  0.25500000920E-02 0. -1.
        2   -1    0    0  501    0  0.00000000000E+00  0.00000000000E+00 -0.16109984338E+04  0.16109984338E+04  0.25500000920E-02 0.  1.
    10030    2    1    2    0    0  0.00000000000E+00  0.00000000000E+00 -0.47920739807E+03  0.27427894695E+04  0.27006025890E+04 0.  0.
        5    1    3    3  502    0 -0.45680702134E+03  0.18691321805E+03  0.10368841008E+04  0.11483727332E+04  0.46999998093E+01 0. -1.
       -5    1    3    3    0  502  0.45680702134E+03 -0.18691321805E+03 -0.15160914989E+04  0.15944167363E+04  0.46999998093E+01 0.  1.
</event>
<event>
 5   0  0.2030645E-06  0.2703766E+04  0.7818609E-02  0.8333784E-01
        2   -1    0    0  501    0  0.00000000000E+00  0.00000000000E+00  0.96870741488E+03  0.96870741488E+03  0.25500000920E-02 0. -1.
       -2   -1    0    0    0  501  0.00000000000E+00  0.00000000000E+00 -0.18866247157E+04  0.18866247157E+04  0.25500000920E-02 0.  1.
    10030    2    1    2    0    0  0.00000000000E+00  0.00000000000E+00 -0.91791730085E+03  0.28553321306E+04  0.27037657822E+04 0.  0.
        1    1    3    3  502    0 -0.77916723744E+03 -0.50752688780E+03  0.57732503307E+03  0.10945269844E+04  0.50400001928E-02 0. -1.
       -1    1    3    3    0  502  0.77916723744E+03  0.50752688780E+03 -0.14952423339E+04  0.17608051462E+04  0.50400001928E-02 0.  1.
</event>
<event>
 5   0  0.2063087E-06  0.2695292E+04  0.7818609E-02  0.8336534E-01
        2   -1    0    0  501    0  0.00000000000E+00  0.00000000000E+00  0.18107245838E+04  0.18107245838E+04  0.25500000920E-02 0. -1.
       -2   -1    0    0    0  501  0.00000000000E+00  0.00000000000E+00 -0.10029961078E+04  0.10029961078E+04  0.25500000920E-02 0.  1.
    10030    2    1    2    0    0  0.00000000000E+00  0.00000000000E+00  0.80772847594E+03  0.28137206916E+04  0.26952919766E+04 0.  0.
        3    1    3    3  502    0 -0.18454681680E+03  0.58577943469E+03  0.16561363692E+04  0.17663472924E+04  0.10100000352E+00 0. -1.
       -3    1    3    3    0  502  0.18454681680E+03 -0.58577943469E+03 -0.84840789329E+03  0.10473733992E+04  0.10100000352E+00 0.  1.
</event>
<event>
 5   0  0.1932012E-06  0.2700934E+04  0.7818609E-02  0.8334702E-01
       -2   -1    0    0    0  501  0.00000000000E+00  0.00000000000E+00  0.12505574973E+04  0.12505574973E+04  0.25500000920E-02 0. -1.
        2   -1    0    0  501    0  0.00000000000E+00  0.00000000000E+00 -0.14583580744E+04  0.14583580744E+04  0.25500000920E-02 0.  1.
    10030    2    1    2    0    0  0.00000000000E+00  0.00000000000E+00 -0.20780057709E+03  0.27089155718E+04  0.27009336340E+04 0.  0.
        2    1    3    3  502    0  0.49527584701E+03 -0.85425060362E+03 -0.10278819604E+04  0.14253363052E+04  0.25500000920E-02 0.  1.
       -2    1    3    3    0  502 -0.49527584701E+03  0.85425060362E+03  0.82008138328E+03  0.12835792666E+04  0.25500000920E-02 0. -1.
</event>
<event>
 5   0  0.2030645E-06  0.2702252E+04  0.7818609E-02  0.8334275E-01
       -2   -1    0    0    0  501  0.00000000000E+00  0.00000000000E+00  0.12585571805E+04  0.12585571805E+04  0.25500000920E-02 0. -1.
        2   -1    0    0  501    0  0.00000000000E+00  0.00000000000E+00 -0.14505033796E+04  0.14505033796E+04  0.25500000920E-02 0.  1.
    10030    2    1    2    0    0  0.00000000000E+00  0.00000000000E+00 -0.19194619910E+03  0.27090605602E+04  0.27022519822E+04 0.  0.
        1    1    3    3  502    0 -0.35794968132E+03 -0.10714374081E+04 -0.83907978504E+03  0.14071819284E+04  0.50400001928E-02 0.  1.
       -1    1    3    3    0  502  0.35794968132E+03  0.10714374081E+04  0.64713358594E+03  0.13018786318E+04  0.50400001928E-02 0. -1.
</event>
<event>
 5   0  0.7806808E-07  0.2695779E+04  0.7818609E-02  0.8336376E-01
        1   -1    0    0  501    0  0.00000000000E+00  0.00000000000E+00  0.12505627227E+04  0.12505627227E+04  0.50400001928E-02 0. -1.
       -1   -1    0    0    0  501  0.00000000000E+00  0.00000000000E+00 -0.14527905543E+04  0.14527905543E+04  0.50400001928E-02 0.  1.
    10030    2    1    2    0    0  0.00000000000E+00  0.00000000000E+00 -0.20222783157E+03  0.27033532770E+04  0.26957787083E+04 0.  0.
        5    1    3    3  502    0  0.11164375550E+04 -0.54765819795E+03  0.42036771715E+03  0.13126665318E+04  0.46999998093E+01 0. -1.
       -5    1    3    3    0  502 -0.11164375550E+04  0.54765819795E+03 -0.62259554872E+03  0.13906867452E+04  0.46999998093E+01 0.  1.
</event>
<event>
 5   0  0.7806808E-07  0.2697572E+04  0.7818609E-02  0.8335793E-01
       -1   -1    0    0    0  501  0.00000000000E+00  0.00000000000E+00  0.12329060967E+04  0.12329060967E+04  0.50400001928E-02 0. -1.
        1   -1    0    0  501    0  0.00000000000E+00  0.00000000000E+00 -0.14755574911E+04  0.14755574911E+04  0.50400001928E-02 0.  1.
    10030    2    1    2    0    0  0.00000000000E+00  0.00000000000E+00 -0.24265139447E+03  0.27084635878E+04  0.26975721135E+04 0.  0.
        5    1    3    3  502    0  0.26086364428E+02 -0.53101809424E+02  0.12315944262E+04  0.12330236093E+04  0.46999998093E+01 0. -1.
       -5    1    3    3    0  502 -0.26086364428E+02  0.53101809424E+02 -0.14742458206E+04  0.14754399785E+04  0.46999998093E+01 0.  1.
</event>
<event>
 5   0  0.1932012E-06  0.2691369E+04  0.7818609E-02  0.8337811E-01
       -2   -1    0    0    0  501  0.00000000000E+00  0.00000000000E+00  0.93845683090E+03  0.93845683091E+03  0.25500000920E-02 0. -1.
        2   -1    0    0  501    0  0.00000000000E+00  0.00000000000E+00 -0.19296219747E+04  0.19296219747E+04  0.25500000920E-02 0.  1.
    10030    2    1    2    0    0  0.00000000000E+00  0.00000000000E+00 -0.99116514380E+03  0.28680788056E+04  0.26913691112E+04 0.  0.
        2    1    3    3  502    0 -0.99553768564E+03 -0.69585005794E+03 -0.11128959879E+04  0.16473736876E+04  0.25500000920E-02 0.  1.
       -2    1    3    3    0  502  0.99553768564E+03  0.69585005794E+03  0.12173084415E+03  0.12207051180E+04  0.25500000920E-02 0. -1.
</event>
<event>
 5   0  0.7335091E-07  0.2697754E+04  0.7818609E-02  0.8335734E-01
       -1   -1    0    0    0  501  0.00000000000E+00  0.00000000000E+00  0.71211613333E+03  0.71211613335E+03  0.50400001928E-02 0.  1.
        1   -1    0    0  501    0  0.00000000000E+00  0.00000000000E+00 -0.25550172676E+04  0.25550172676E+04  0.50400001928E-02 0. -1.
    10030    2    1    2    0    0  0.00000000000E+00  0.00000000000E+00 -0.18429011343E+04  0.32671334010E+04  0.26977538933E+04 0.  0.
        3    1    3    3  502    0 -0.23568539817E+03  0.13256718843E+04 -0.10192051052E+04  0.16887073780E+04  0.10100000352E+00 0.  1.
       -3    1    3    3    0  502  0.23568539817E+03 -0.13256718843E+04 -0.82369602905E+03  0.15784260230E+04  0.10100000352E+00 0. -1.
</event>
<event>
 5   0  0.7806808E-07  0.2709592E+04  0.7818609E-02  0.8331900E-01
        1   -1    0    0  501    0  0.00000000000E+00  0.00000000000E+00  0.28434764341E+04  0.28434764341E+04  0.50400001928E-02 0.  1.
       -1   -1    0    0    0  501  0.00000000000E+00  0.00000000000E+00 -0.64550266749E+03  0.64550266751E+03  0.50400001928E-02 0. -1.
    10030    2    1    2    0    0  0.00000000000E+00  0.00000000000E+00  0.21979737666E+04  0.34889791016E+04  0.27095915731E+04 0.  0.
        5    1    3    3  502    0 -0.27030578688E+03 -0.12621891615E+04  0.16287422208E+04  0.20782228007E+04  0.46999998093E+01 0.  1.
       -5    1    3    3    0  502  0.27030578688E+03  0.12621891615E+04  0.56923154583E+03  0.14107563009E+04  0.46999998093E+01 0. -1.
</event>
<event>
 5   0  0.7436613E-07  0.2715516E+04  0.7818609E-02  0.8329988E-01
       -1   -1    0    0    0  501  0.00000000000E+00  0.00000000000E+00  0.83101106965E+03  0.83101106966E+03  0.50400001928E-02 0.  1.
        1   -1    0    0  501    0  0.00000000000E+00  0.00000000000E+00 -0.22183897483E+04  0.22183897483E+04  0.50400001928E-02 0. -1.
    10030    2    1    2    0    0  0.00000000000E+00  0.00000000000E+00 -0.13873786786E+04  0.30494008179E+04  0.27155157430E+04 0.  0.
        2    1    3    3  502    0  0.23077117401E+03 -0.12731411336E+04 -0.11558267693E+04  0.17349579826E+04  0.25500000920E-02 0. -1.
       -2    1    3    3    0  502 -0.23077117401E+03  0.12731411336E+04 -0.23155190932E+03  0.13144428354E+04  0.25500000920E-02 0.  1.
</event>
<event>
 5   0  0.2063087E-06  0.2704251E+04  0.7818609E-02  0.8333627E-01
       -2   -1    0    0    0  501  0.00000000000E+00  0.00000000000E+00  0.19486795605E+04  0.19486795605E+04  0.25500000920E-02 0. -1.
        2   -1    0    0  501    0  0.00000000000E+00  0.00000000000E+00 -0.93819581985E+03  0.93819581985E+03  0.25500000920E-02 0.  1.
    10030    2    1    2    0    0  0.00000000000E+00  0.00000000000E+00  0.10104837406E+04  0.28868753803E+04  0.27042507412E+04 0.  0.
        3    1    3    3  502    0  0.35721532029E+03  0.25017238822E+03 -0.86105535549E+03  0.96519704946E+03  0.10100000352E+00 0.  1.
       -3    1    3    3    0  502 -0.35721532029E+03 -0.25017238822E+03  0.18715390961E+04  0.19216783309E+04  0.10100000352E+00 0. -1.
</event>
<event>
 5   0  0.6561875E-07  0.2680200E+04  0.7818609E-02  0.8341458E-01
        3   -1    0    0  501    0  0.00000000000E+00  0.00000000000E+00  0.15598066055E+04  0.15598066087E+04  0.10100000352E+00 0. -1.
       -3   -1    0    0    0  501  0.00000000000E+00  0.00000000000E+00 -0.11513404399E+04  0.11513404444E+04  0.10100000352E+00 0.  1.
    10030    2    1    2    0    0  0.00000000000E+00  0.00000000000E+00  0.40846616555E+03  0.27111470531E+04  0.26802003162E+04 0.  0.
        2    1    3    3  502    0  0.11918057376E+04  0.57905644897E+03  0.40694947640E+03  0.13861151336E+04  0.25500000920E-02 0.  1.
       -2    1    3    3    0  502 -0.11918057376E+04 -0.57905644897E+03  0.15166891465E+01  0.13250319195E+04  0.25500000920E-02 0. -1.
</event>
<event>
 5   0  0.1932012E-06  0.2714535E+04  0.7818609E-02  0.8330304E-01
       -2   -1    0    0    0  501  0.00000000000E+00  0.00000000000E+00  0.10715686767E+04  0.10715686767E+04  0.25500000920E-02 0.  1.
        2   -1    0    0  501    0  0.00000000000E+00  0.00000000000E+00 -0.17191388365E+04  0.17191388365E+04  0.25500000920E-02 0. -1.
    10030    2    1    2    0    0  0.00000000000E+00  0.00000000000E+00 -0.64757015979E+03  0.27907075131E+04  0.27145351926E+04 0.  0.
        2    1    3    3  502    0 -0.10319088045E+04  0.84433385417E+03 -0.62811682167E+02  0.13347961438E+04  0.25500000920E-02 0.  1.
       -2    1    3    3    0  502  0.10319088045E+04 -0.84433385417E+03 -0.58475847762E+03  0.14559113693E+04  0.25500000920E-02 0. -1.
</event>
<event>
 5   0  0.7566905E-07  0.2676387E+04  0.7818609E-02  0.8342707E-01
       -1   -1    0    0    0  501  0.00000000000E+00  0.00000000000E+00  0.11962961334E+04  0.11962961334E+04  0.50400001928E-02 0. -1.
        1   -1    0    0  501    0  0.00000000000E+00  0.00000000000E+00 -0.14969222669E+04  0.14969222669E+04  0.50400001928E-02 0.  1.
    10030    2    1    2    0    0  0.00000000000E+00  0.00000000000E+00 -0.30062613346E+03  0.26932184003E+04  0.26763873561E+04 0.  0.
        1    1    3    3  502    0 -0.10410275653E+04  0.55954817591E+03 -0.78189835176E+03  0.14171088827E+04  0.50400001928E-02 0.  1.
       -1    1    3    3    0  502  0.10410275653E+04 -0.55954817591E+03  0.48127221830E+03  0.12761095176E+04  0.50400001928E-02 0. -1.
</event>
<event>
 5   0  0.2063087E-06  0.2700310E+04  0.7818609E-02  0.8334904E-01
        2   -1    0    0  501    0  0.00000000000E+00  0.00000000000E+00  0.18095825805E+04  0.18095825806E+04  0.25500000920E-02 0.  1.
       -2   -1    0    0    0  501  0.00000000000E+00  0.00000000000E+00 -0.10073693740E+04  0.10073693740E+04  0.25500000920E-02 0. -1.
    10030    2    1    2    0    0  0.00000000000E+00  0.00000000000E+00  0.80221320659E+03  0.28169519545E+04  0.27003096647E+04 0.  0.
        3    1    3    3  502    0 -0.37467086185E+01 -0.13413861986E+04  0.56132155642E+03  0.14541020843E+04  0.10100000352E+00 0.  1.
       -3    1    3    3    0  502  0.37467086185E+01  0.13413861986E+04  0.24089165016E+03  0.13628498703E+04  0.10100000352E+00 0. -1.
</event>
<event>
 5   0  0.7436613E-07  0.2705262E+04  0.7818609E-02  0.8333300E-01
       -1   -1    0    0    0  501  0.00000000000E+00  0.00000000000E+00  0.89750804644E+03  0.89750804646E+03  0.50400001928E-02 0. -1.
        1   -1    0    0  501    0  0.00000000000E+00  0.00000000000E+00 -0.20385446168E+04  0.20385446168E+04  0.50400001928E-02 0.  1.
    10030    2    1    2    0    0  0.00000000000E+00  0.00000000000E+00 -0.11410365703E+04  0.29360526632E+04  0.27052616854E+04 0.  0.
        2    1    3    3  502    0  0.24727771680E+03 -0.17641783593E+03 -0.20010485595E+04  0.20239725442E+04  0.25500000920E-02 0.  1.
       -2    1    3    3    0  502 -0.24727771680E+03  0.17641783593E+03  0.86001198917E+03  0.91208011906E+03  0.25500000920E-02 0. -1.
</event>
<event>
 5   0  0.7335091E-07  0.2706919E+04  0.7818609E-02  0.8332764E-01
        1   -1    0    0  501    0  0.00000000000E+00  0.00000000000E+00  0.29981530062E+04  0.29981530062E+04  0.50400001928E-02 0. -1.
       -1   -1    0    0    0  501  0.00000000000E+00  0.00000000000E+00 -0.61099362090E+03  0.61099362092E+03  0.50400001928E-02 0.  1.
    10030    2    1    2    0    0  0.00000000000E+00  0.00000000000E+00  0.23871593853E+04  0.36091466272E+04  0.27069188103E+04 0.  0.
        3    1    3    3  502    0  0.12798645491E+04 -0.16751368168E+03  0.17363807381E+04  0.21635924236E+04  0.10100000352E+00 0. -1.
       -3    1    3    3    0  502 -0.12798645491E+04  0.16751368168E+03  0.65077864721E+03  0.14455542036E+04  0.10100000352E+00 0.  1.
</event>
<event>
 5   0  0.7806808E-07  0.2697925E+04  0.7818609E-02  0.8335678E-01
       -1   -1    0    0    0  501  0.00000000000E+00  0.00000000000E+00  0.99029348151E+03  0.99029348152E+03  0.50400001928E-02 0.  1.
        1   -1    0    0  501    0  0.00000000000E+00  0.00000000000E+00 -0.18375364290E+04  0.18375364290E+04  0.50400001928E-02 0. -1.
    10030    2    1    2    0    0  0.00000000000E+00  0.00000000000E+00 -0.84724294750E+03  0.28278299105E+04  0.26979253865E+04 0.  0.
        5    1    3    3  502    0 -0.74766194120E+02  0.54164889138E+03 -0.17161668567E+04  0.18011730276E+04  0.46999998093E+01 0. -1.
       -5    1    3    3    0  502  0.74766194120E+02 -0.54164889138E+03  0.86892390920E+03  0.10266568829E+04  0.46999998093E+01 0.  1.
</event>
<event>
 5   0  0.7436613E-07  0.2704801E+04  0.7818609E-02  0.8333449E-01
        1   -1    0    0  501    0  0.00000000000E+00  0.00000000000E+00  0.25418897942E+04  0.25418897942E+04  0.50400001928E-02 0. -1.
       -1   -1    0    0    0  501  0.00000000000E+00  0.00000000000E+00 -0.71953837424E+03  0.71953837426E+03  0.50400001928E-02 0.  1.
    10030    2    1    2    0    0  0.00000000000E+00  0.00000000000E+00  0.18223514199E+04  0.32614281684E+04  0.27048011018E+04 0.  0.
        2    1    3    3  502    0  0.37085346538E+03  0.10972017863E+03  0.24737896101E+04  0.25038382227E+04  0.25500000920E-02 0. -1.
       -2    1    3    3    0  502 -0.37085346538E+03 -0.10972017863E+03 -0.65143819013E+03  0.75758994578E+03  0.25500000920E-02 0.  1.
</event>
<event>
 5   0  0.1999104E-06  0.2696747E+04  0.7818609E-02  0.8336061E-01
       -2   -1    0    0    0  501  0.00000000000E+00  0.00000000000E+00  0.61729140907E+03  0.61729140907E+03  0.25500000920E-02 0.  1.
        2   -1    0    0  501    0  0.00000000000E+00  0.00000000000E+00 -0.29453050402E+04  0.29453050402E+04  0.25500000920E-02 0. -1.
    10030    2    1    2    0    0  0.00000000000E+00  0.00000000000E+00 -0.23280136312E+04  0.35625964493E+04  0.26967472988E+04 0.  0.
        4    1    3    3  502    0  0.88791369989E+03  0.16580614396E+03 -0.24865489876E+04  0.26455263931E+04  0.12699999809E+01 0. -1.
       -4    1    3    3    0  502 -0.88791369989E+03 -0.16580614396E+03  0.15853535647E+03  0.91707005620E+03  0.12699999809E+01 0.  1.
</event>
<event>
 5   0  0.7768032E-07  0.2703367E+04  0.7818609E-02  0.8333913E-01
       -1   -1    0    0    0  501  0.00000000000E+00  0.00000000000E+00  0.10163938763E+04  0.10163938764E+04  0.50400001928E-02 0.  1.
        1   -1    0    0  501    0  0.00000000000E+00  0.00000000000E+00 -0.17975785955E+04  0.17975785955E+04  0.50400001928E-02 0. -1.
    10030    2    1    2    0    0  0.00000000000E+00  0.00000000000E+00 -0.78118471916E+03  0.28139724719E+04  0.27033666986E+04 0.  0.
        4    1    3    3  502    0 -0.10406203773E+04  0.85610401741E+03 -0.28022892879E+03  0.13763483294E+04  0.12699999809E+01 0. -1.
       -4    1    3    3    0  502  0.10406203773E+04 -0.85610401741E+03 -0.50095579037E+03  0.14376241425E+04  0.12699999809E+01 0.  1.
</event>
<event>
 5   0  0.7806808E-07  0.2698744E+04  0.7818609E-02  0.8335413E-01
       -1   -1    0    0    0  501  0.00000000000E+00  0.00000000000E+00  0.96889187869E+03  0.96889187871E+03  0.50400001928E-02 0. -1.
        1   -1    0    0  501    0  0.00000000000E+00  0.00000000000E+00 -0.18792646107E+04  0.18792646107E+04  0.50400001928E-02 0.  1.
    10030    2    1    2    0    0  0.00000000000E+00  0.00000000000E+00 -0.91037273201E+03  0.28481564894E+04  0.26987435738E+04 0.  0.
        5    1    3    3  502    0 -0.85094361845E+02  0.10244044798E+04  0.46735895446E+03  0.11291997481E+04  0.46999998093E+01 0. -1.
       -5    1    3    3    0  502  0.85094361845E+02 -0.10244044798E+04 -0.13777316865E+04  0.17189567414E+04  0.46999998093E+01 0.  1.
</event>
<event>
 5   0  0.7436613E-07  0.2702462E+04  0.7818609E-02  0.8334207E-01
       -1   -1    0    0    0  501  0.00000000000E+00  0.00000000000E+00  0.13004842383E+04  0.13004842384E+04  0.50400001928E-02 0. -1.
        1   -1    0    0  501    0  0.00000000000E+00  0.00000000000E+00 -0.14039581941E+04  0.14039581942E+04  0.50400001928E-02 0.  1.
    10030    2    1    2    0    0  0.00000000000E+00  0.00000000000E+00 -0.10347395580E+03  0.27044424325E+04  0.27024622127E+04 0.  0.
        2    1    3    3  502    0 -0.12330723268E+04  0.19785905567E+03 -0.56807040262E+03  0.13719765127E+04  0.25500000920E-02 0.  1.
       -2    1    3    3    0  502  0.12330723268E+04 -0.19785905567E+03  0.46459644682E+03  0.13324659198E+04  0.25500000920E-02 0. -1.
</event>
<event>
 5   0  0.2030645E-06  0.2702375E+04  0.7818609E-02  0.8334235E-01
       -2   -1    0    0    0  501  0.00000000000E+00  0.00000000000E+00  0.95590333831E+03  0.95590333831E+03  0.25500000920E-02 0.  1.
        2   -1    0    0  501    0  0.00000000000E+00  0.00000000000E+00 -0.19099293098E+04  0.19099293098E+04  0.25500000920E-02 0. -1.
    10030    2    1    2    0    0  0.00000000000E+00  0.00000000000E+00 -0.95402597150E+03  0.28658326481E+04  0.27023751059E+04 0.  0.
        1    1    3    3  502    0  0.49892170521E+03 -0.20423157812E+03  0.83690999515E+03  0.99551581878E+03  0.50400001928E-02 0.  1.
       -1    1    3    3    0  502 -0.49892170521E+03  0.20423157812E+03 -0.17909359667E+04  0.18703168293E+04  0.50400001928E-02 0. -1.
</event>
<event>
 5   0  0.2063087E-06  0.2678931E+04  0.7818609E-02  0.8341874E-01
        2   -1    0    0  501    0  0.00000000000E+00  0.00000000000E+00  0.15680402360E+04  0.15680402360E+04  0.25500000920E-02 0.  1.
       -2   -1    0    0    0  501  0.00000000000E+00  0.00000000000E+00 -0.11442102960E+04  0.11442102960E+04  0.25500000920E-02 0. -1.
    10030    2    1    2    0    0  0.00000000000E+00  0.00000000000E+00  0.42382994005E+03  0.27122505320E+04  0.26789309678E+04 0.  0.
        3    1    3    3  502    0 -0.10499043636E+04  0.23416504267E+03  0.10199869369E+04  0.14823986649E+04  0.10100000352E+00 0.  1.
       -3    1    3    3    0  502  0.10499043636E+04 -0.23416504267E+03 -0.59615699686E+03  0.12298518671E+04  0.10100000352E+00 0. -1.
</event>
<event>
 5   0  0.2063087E-06  0.2702571E+04  0.7818609E-02  0.8334171E-01
        2   -1    0    0  501    0  0.00000000000E+00  0.00000000000E+00  0.24589347034E+04  0.24589347034E+04  0.25500000920E-02 0. -1.
       -2   -1    0    0    0  501  0.00000000000E+00  0.00000000000E+00 -0.74258659349E+03  0.74258659349E+03  0.25500000920E-02 0.  1.
    10030    2    1    2    0    0  0.00000000000E+00  0.00000000000E+00  0.17163481100E+04  0.32015212969E+04  0.27025705875E+04 0.  0.
        3    1    3    3  502    0 -0.54496142026E+03  0.17171270633E+03 -0.59244415395E+03  0.82307854354E+03  0.10100000352E+00 0.  1.
       -3    1    3    3    0  502  0.54496142026E+03 -0.17171270633E+03  0.23087922639E+04  0.23784427534E+04  0.10100000352E+00 0. -1.
</event>
<event>
 5   0  0.7768032E-07  0.2706251E+04  0.7818609E-02  0.8332979E-01
        1   -1    0    0  501    0  0.00000000000E+00  0.00000000000E+00  0.13438814178E+04  0.13438814178E+04  0.50400001928E-02 0.  1.
       -1   -1    0    0    0  501  0.00000000000E+00  0.00000000000E+00 -0.13624335241E+04  0.13624335241E+04  0.50400001928E-02 0. -1.
    10030    2    1    2    0    0  0.00000000000E+00  0.00000000000E+00 -0.18552106353E+02  0.27063149419E+04  0.27062513527E+04 0.  0.
        4    1    3    3  502    0 -0.37132071571E+03 -0.10912774409E+04  0.69938857561E+03  0.13482994918E+04  0.12699999809E+01 0.  1.
       -4    1    3    3    0  502  0.37132071571E+03  0.10912774409E+04 -0.71794068196E+03  0.13580154501E+04  0.12699999809E+01 0. -1.
</event>
<event>
 5   0  0.2030645E-06  0.2690378E+04  0.7818609E-02  0.8338134E-01
        2   -1    0    0  501    0  0.00000000000E+00  0.00000000000E+00  0.17401168972E+04  0.17401168972E+04  0.25500000920E-02 0.  1.
       -2   -1    0    0    0  501  0.00000000000E+00  0.00000000000E+00 -0.10398920553E+04  0.10398920553E+04  0.25500000920E-02 0. -1.
    10030    2    1    2    0    0  0.00000000000E+00  0.00000000000E+00  0.70022484199E+03  0.27800089525E+04  0.26903782163E+04 0.  0.
        1    1    3    3  502    0 -0.67391941933E+03  0.50564873148E+03 -0.73348296730E+03  0.11170699561E+04  0.50400001928E-02 0. -1.
       -1    1    3    3    0  502  0.67391941933E+03 -0.50564873148E+03  0.14337078093E+04  0.16629389964E+04  0.50400001928E-02 0.  1.
</event>
<event>
 5   0  0.7436613E-07  0.2700073E+04  0.7818609E-02  0.8334981E-01
        1   -1    0    0  501    0  0.00000000000E+00  0.00000000000E+00  0.24917480800E+04  0.24917480800E+04  0.50400001928E-02 0.  1.
       -1   -1    0    0    0  501  0.00000000000E+00  0.00000000000E+00 -0.73145353994E+03  0.73145353996E+03  0.50400001928E-02 0. -1.
    10030    2    1    2    0    0  0.00000000000E+00  0.00000000000E+00  0.17602945401E+04  0.32232016200E+04  0.27000725574E+04 0.  0.
        2    1    3    3  502    0 -0.13467003121E+02  0.18384529105E+03  0.24766540820E+04  0.24835047601E+04  0.25500000920E-02 0.  1.
       -2    1    3    3    0  502  0.13467003121E+02 -0.18384529105E+03 -0.71635954196E+03  0.73969685992E+03  0.25500000920E-02 0. -1.
</event>
<event>
 5   0  0.7335091E-07  0.2703001E+04  0.7818609E-02  0.8334032E-01
       -1   -1    0    0    0  501  0.00000000000E+00  0.00000000000E+00  0.10184852217E+04  0.10184852217E+04  0.50400001928E-02 0.  1.
        1   -1    0    0  501    0  0.00000000000E+00  0.00000000000E+00 -0.17934018049E+04  0.17934018050E+04  0.50400001928E-02 0. -1.
    10030    2    1    2    0    0  0.00000000000E+00  0.00000000000E+00 -0.77491658324E+03  0.28118870267E+04  0.27030007288E+04 0.  0.
        3    1    3    3  502    0 -0.41746408657E+03 -0.29389625057E+03 -0.16892274812E+04  0.17646928240E+04  0.10100000352E+00 0. -1.
       -3    1    3    3    0  502  0.41746408657E+03  0.29389625057E+03  0.91431089798E+03  0.10471942026E+04  0.10100000352E+00 0.  1.
</event>
<event>
 5   0  0.7806808E-07  0.2706412E+04  0.7818609E-02  0.8332928E-01
       -1   -1    0    0    0  501  0.00000000000E+00  0.00000000000E+00  0.85091593449E+03  0.85091593451E+03  0.50400001928E-02 0. -1.
        1   -1    0    0  501    0  0.00000000000E+00  0.00000000000E+00 -0.21519944562E+04  0.21519944562E+04  0.50400001928E-02 0.  1.
    10030    2    1    2    0    0  0.00000000000E+00  0.00000000000E+00 -0.13010785217E+04  0.30029103907E+04  0.27064119227E+04 0.  0.
        5    1    3    3  502    0 -0.87283050641E+03 -0.86473428797E+03 -0.12797119993E+04  0.17740584468E+04  0.46999998093E+01 0.  1.
       -5    1    3    3    0  502  0.87283050641E+03  0.86473428797E+03 -0.21366522449E+02  0.12288519439E+04  0.46999998093E+01 0. -1.
</event>
<event>
 5   0  0.1932012E-06  0.2700492E+04  0.7818609E-02  0.8334845E-01
        2   -1    0    0  501    0  0.00000000000E+00  0.00000000000E+00  0.15708635371E+04  0.15708635371E+04  0.25500000920E-02 0.  1.
       -2   -1    0    0    0  501  0.00000000000E+00  0.00000000000E+00 -0.11606124906E+04  0.11606124906E+04  0.25500000920E-02 0. -1.
    10030    2    1    2    0    0  0.00000000000E+00  0.00000000000E+00  0.41025104653E+03  0.27314760277E+04  0.27004916902E+04 0.  0.
        2    1    3    3  502    0 -0.10763996091E+03  0.33079461792E+03  0.15247603516E+04  0.15639391197E+04  0.25500000920E-02 0.  1.
       -2    1    3    3    0  502  0.10763996091E+03 -0.33079461792E+03 -0.11145093050E+04  0.11675369080E+04  0.25500000920E-02 0. -1.
</event>
<event>
 5   0  0.2030645E-06  0.2691860E+04  0.7818609E-02  0.8337651E-01
       -2   -1    0    0    0  501  0.00000000000E+00  0.00000000000E+00  0.10484226845E+04  0.10484226845E+04  0.25500000920E-02 0. -1.
        2   -1    0    0  501    0  0.00000000000E+00  0.00000000000E+00 -0.17278595523E+04  0.17278595523E+04  0.25500000920E-02 0.  1.
    10030    2    1    2    0    0  0.00000000000E+00  0.00000000000E+00 -0.67943686774E+03  0.27762822368E+04  0.26918596919E+04 0.  0.
        1    1    3    3  502    0  0.10219315816E+04  0.70421838032E+03 -0.87687841005E+03  0.15195997600E+04  0.50400001928E-02 0.  1.
       -1    1    3    3    0  502 -0.10219315816E+04 -0.70421838032E+03  0.19744154231E+03  0.12566824767E+04  0.50400001928E-02 0. -1.
</event>
<event>
 5   0  0.1991277E-06  0.2682185E+04  0.7818609E-02  0.8340809E-01
       -2   -1    0    0    0  501  0.00000000000E+00  0.00000000000E+00  0.82864186017E+03  0.82864186018E+03  0.25500000920E-02 0. -1.
        2   -1    0    0  501    0  0.00000000000E+00  0.00000000000E+00 -0.21704541374E+04  0.21704541374E+04  0.25500000920E-02 0.  1.
    10030    2    1    2    0    0  0.00000000000E+00  0.00000000000E+00 -0.13418122772E+04  0.29990959976E+04  0.26821850450E+04 0.  0.
        5    1    3    3  502    0  0.63025159046E+03  0.37845119452E+03  0.58325435756E+03  0.93842959753E+03  0.46999998093E+01 0. -1.
       -5    1    3    3    0  502 -0.63025159046E+03 -0.37845119452E+03 -0.19250666348E+04  0.20606664001E+04  0.46999998093E+01 0.  1.
</event>
<event>
 5   0  0.7436613E-07  0.2690590E+04  0.7818609E-02  0.8338064E-01
       -1   -1    0    0    0  501  0.00000000000E+00  0.00000000000E+00  0.15977827127E+04  0.15977827127E+04  0.50400001928E-02 0.  1.
        1   -1    0    0  501    0  0.00000000000E+00  0.00000000000E+00 -0.11327067665E+04  0.11327067665E+04  0.50400001928E-02 0. -1.
    10030    2    1    2    0    0  0.00000000000E+00  0.00000000000E+00  0.46507594623E+03  0.27304894792E+04  0.26905904854E+04 0.  0.
        2    1    3    3  502    0 -0.21957266900E+03  0.11827285179E+04  0.84376539937E+03  0.14693532432E+04  0.25500000920E-02 0.  1.
       -2    1    3    3    0  502  0.21957266900E+03 -0.11827285179E+04 -0.37868945314E+03  0.12611362361E+04  0.25500000920E-02 0. -1.
</event>
<event>
 5   0  0.1999104E-06  0.2701662E+04  0.7818609E-02  0.8334466E-01
        2   -1    0    0  501    0  0.00000000000E+00  0.00000000000E+00  0.89656131125E+03  0.89656131125E+03  0.25500000920E-02 0.  1.
       -2   -1    0    0    0  501  0.00000000000E+00  0.00000000000E+00 -0.20352707210E+04  0.20352707210E+04  0.25500000920E-02 0. -1.
    10030    2    1    2    0    0  0.00000000000E+00  0.00000000000E+00 -0.11387094098E+04  0.29318320323E+04  0.27016624411E+04 0.  0.
        4    1    3    3  502    0  0.13247548909E+03  0.11645442750E+04 -0.12981588524E+04  0.17489800292E+04  0.12699999809E+01 0.  1.
       -4    1    3    3    0  502 -0.13247548909E+03 -0.11645442750E+04  0.15944944261E+03  0.11828520031E+04  0.12699999809E+01 0. -1.
</event>
<event>
 5   0  0.2030645E-06  0.2695421E+04  0.7818609E-02  0.8336492E-01
        2   -1    0    0  501    0  0.00000000000E+00  0.00000000000E+00  0.16060071473E+04  0.16060071473E+04  0.25500000920E-02 0. -1.
       -2   -1    0    0    0  501  0.00000000000E+00  0.00000000000E+00 -0.11309557756E+04  0.11309557756E+04  0.25500000920E-02 0.  1.
    10030    2    1    2    0    0  0.00000000000E+00  0.00000000000E+00  0.47505137166E+03  0.27369629229E+04  0.26954206046E+04 0.  0.
        1    1    3    3  502    0  0.13117647464E+04 -0.13626031767E+03 -0.44293610446E+02  0.13195664243E+04  0.50400001928E-02 0.  1.
       -1    1    3    3    0  502 -0.13117647464E+04  0.13626031767E+03  0.51934498210E+03  0.14173964987E+04  0.50400001928E-02 0. -1.
</event>
<event>
 5   0  0.7566905E-07  0.2700019E+04  0.7818609E-02  0.8334999E-01
       -1   -1    0    0    0  501  0.00000000000E+00  0.00000000000E+00  0.97928946951E+03  0.97928946953E+03  0.50400001928E-02 0.  1.
        1   -1    0    0  501    0  0.00000000000E+00  0.00000000000E+00 -0.18610695735E+04  0.18610695735E+04  0.50400001928E-02 0. -1.
    10030    2    1    2    0    0  0.00000000000E+00  0.00000000000E+00 -0.88178010397E+03  0.28403590430E+04  0.27000191372E+04 0.  0.
        1    1    3    3  502    0 -0.43086105079E+03 -0.89914080951E+03  0.51660031116E+03  0.11229297939E+04  0.50400001928E-02 0.  1.
       -1    1    3    3    0  502  0.43086105079E+03  0.89914080951E+03 -0.13983804151E+04  0.17174292492E+04  0.50400001928E-02 0. -1.
</event>
<event>
 5   0  0.7806808E-07  0.2703087E+04  0.7818609E-02  0.8334004E-01
       -1   -1    0    0    0  501  0.00000000000E+00  0.00000000000E+00  0.67662982045E+03  0.67662982047E+03  0.50400001928E-02 0. -1.
        1   -1    0    0  501    0  0.00000000000E+00  0.00000000000E+00 -0.26996593407E+04  0.26996593407E+04  0.50400001928E-02 0.  1.
    10030    2    1    2    0    0  0.00000000000E+00  0.00000000000E+00 -0.20230295202E+04  0.33762891611E+04  0.27030871351E+04 0.  0.
        5    1    3    3  502    0  0.12554874494E+04  0.11582917981E+03 -0.40346657919E+03  0.13238098447E+04  0.46999998093E+01 0. -1.
       -5    1    3    3    0  502 -0.12554874494E+04 -0.11582917981E+03 -0.16195629410E+04  0.20524793164E+04  0.46999998093E+01 0.  1.
</event>
<event>
 5   0  0.1991277E-06  0.2683742E+04  0.7818609E-02  0.8340299E-01
       -2   -1    0    0    0  501  0.00000000000E+00  0.00000000000E+00  0.85553696954E+03  0.85553696955E+03  0.25500000920E-02 0.  1.
        2   -1    0    0  501    0  0.00000000000E+00  0.00000000000E+00 -0.21046643691E+04  0.21046643691E+04  0.25500000920E-02 0. -1.
    10030    2    1    2    0    0  0.00000000000E+00  0.00000000000E+00 -0.12491273996E+04  0.29602013387E+04  0.26837422948E+04 0.  0.
        5    1    3    3  502    0 -0.37125852571E+03 -0.85340627739E+03 -0.16908185303E+04  0.19300322690E+04  0.46999998093E+01 0. -1.
       -5    1    3    3    0  502  0.37125852571E+03  0.85340627739E+03  0.44169113066E+03  0.10301690697E+04  0.46999998093E+01 0.  1.
</event>
<event>
 5   0  0.1991277E-06  0.2691391E+04  0.7818609E-02  0.8337804E-01
        2   -1    0    0  501    0  0.00000000000E+00  0.00000000000E+00  0.13743747742E+04  0.13743747743E+04  0.25500000920E-02 0.  1.
       -2   -1    0    0    0  501  0.00000000000E+00  0.00000000000E+00 -0.13176143669E+04  0.13176143669E+04  0.25500000920E-02 0. -1.
    10030    2    1    2    0    0  0.00000000000E+00  0.00000000000E+00  0.56760407342E+02  0.26919891412E+04  0.26913906800E+04 0.  0.
        5    1    3    3  502    0  0.29245716907E+03 -0.10321607143E+04  0.84095664069E+03  0.13631276893E+04  0.46999998093E+01 0.  1.
       -5    1    3    3    0  502 -0.29245716907E+03  0.10321607143E+04 -0.78419623335E+03  0.13288614519E+04  0.46999998093E+01 0. -1.
</event>
<event>
 5   0  0.1991277E-06  0.2699771E+04  0.7818609E-02  0.8335079E-01
        2   -1    0    0  501    0  0.00000000000E+00  0.00000000000E+00  0.16842216201E+04  0.16842216201E+04  0.25500000920E-02 0.  1.
       -2   -1    0    0    0  501  0.00000000000E+00  0.00000000000E+00 -0.10819185401E+04  0.10819185401E+04  0.25500000920E-02 0. -1.
    10030    2    1    2    0    0  0.00000000000E+00  0.00000000000E+00  0.60230308005E+03  0.27661401602E+04  0.26997708024E+04 0.  0.
        5    1    3    3  502    0 -0.27511040879E+03 -0.12569037176E+04 -0.11714433159E+03  0.12919897742E+04  0.46999998093E+01 0.  1.
       -5    1    3    3    0  502  0.27511040879E+03  0.12569037176E+04  0.71944741163E+03  0.14741503860E+04  0.46999998093E+01 0. -1.
</event>
<event>
 5   0  0.1999104E-06  0.2696208E+04  0.7818609E-02  0.8336236E-01
        2   -1    0    0  501    0  0.00000000000E+00  0.00000000000E+00  0.13780188769E+04  0.13780188769E+04  0.25500000920E-02 0.  1.
       -2   -1    0    0    0  501  0.00000000000E+00  0.00000000000E+00 -0.13188384238E+04  0.13188384238E+04  0.25500000920E-02 0. -1.
    10030    2    1    2    0    0  0.00000000000E+00  0.00000000000E+00  0.59180453130E+02  0.26968573007E+04  0.26962078879E+04 0.  0.
        4    1    3    3  502    0 -0.13093468653E+04 -0.30813999288E+03  0.11929550514E+03  0.13503971635E+04  0.12699999809E+01 0.  1.
       -4    1    3    3    0  502  0.13093468653E+04  0.30813999288E+03 -0.60115052007E+02  0.13464601372E+04  0.12699999809E+01 0. -1.
</event>
<event>
 5   0  0.1999104E-06  0.2702426E+04  0.7818609E-02  0.8334218E-01
       -2   -1    0    0    0  501  0.00000000000E+00  0.00000000000E+00  0.13467061853E+04  0.13467061853E+04  0.25500000920E-02 0. -1.
        2   -1    0    0  501    0  0.00000000000E+00  0.00000000000E+00 -0.13557353985E+04  0.13557353985E+04  0.25500000920E-02 0.  1.
    10030    2    1    2    0    0  0.00000000000E+00  0.00000000000E+00 -0.90292131757E+01  0.27024415838E+04  0.27024264999E+04 0.  0.
        4    1    3    3  502    0  0.20140048975E+03 -0.11198341176E+03  0.13269105626E+04  0.13467723251E+04  0.12699999809E+01 0. -1.
       -4    1    3    3    0  502 -0.20140048975E+03  0.11198341176E+03 -0.13359397757E+04  0.13556692587E+04  0.12699999809E+01 0.  1.
</event>
<event>
 5   0  0.7806808E-07  0.2689579E+04  0.7818609E-02  0.8338394E-01
        1   -1    0    0  501    0  0.00000000000E+00  0.00000000000E+00  0.13728359382E+04  0.13728359382E+04  0.50400001928E-02 0. -1.
       -1   -1    0    0    0  501  0.00000000000E+00  0.00000000000E+00 -0.13173158300E+04  0.13173158301E+04  0.50400001928E-02 0.  1.
    10030    2    1    2    0    0  0.00000000000E+00  0.00000000000E+00  0.55520108115E+02  0.26901517682E+04  0.26895787874E+04 0.  0.
        5    1    3    3  502    0  0.44603340850E+03  0.41313145928E+03  0.12275209163E+04  0.13698368859E+04  0.46999998093E+01 0. -1.
       -5    1    3    3    0  502 -0.44603340850E+03 -0.41313145928E+03 -0.11720008082E+04  0.13203148823E+04  0.46999998093E+01 0.  1.
</event>
<event>
 5   0  0.2063087E-06  0.2706288E+04  0.7818609E-02  0.8332968E-01
       -2   -1    0    0    0  501  0.00000000000E+00  0.00000000000E+00  0.18976756926E+04  0.18976756926E+04  0.25500000920E-02 0. -1.
        2   -1    0    0  501    0  0.00000000000E+00  0.00000000000E+00 -0.96486388306E+03  0.96486388306E+03  0.25500000920E-02 0.  1.
    10030    2    1    2    0    0  0.00000000000E+00  0.00000000000E+00  0.93281180957E+03  0.28625395757E+04  0.27062880391E+04 0.  0.
        3    1    3    3  502    0 -0.32754400597E+03 -0.26408733743E+03 -0.89391538920E+03  0.98798377056E+03  0.10100000352E+00 0.  1.
       -3    1    3    3    0  502  0.32754400597E+03  0.26408733743E+03  0.18267271988E+04  0.18745558051E+04  0.10100000352E+00 0. -1.
</event>
<event>
 5   0  0.1932012E-06  0.2701027E+04  0.7818609E-02  0.8334672E-01
       -2   -1    0    0    0  501  0.00000000000E+00  0.00000000000E+00  0.18109883914E+04  0.18109883914E+04  0.25500000920E-02 0. -1.
        2   -1    0    0  501    0  0.00000000000E+00  0.00000000000E+00 -0.10071225119E+04  0.10071225119E+04  0.25500000920E-02 0.  1.
    10030    2    1    2    0    0  0.00000000000E+00  0.00000000000E+00  0.80386587953E+03  0.28181109033E+04  0.27010273437E+04 0.  0.
        2    1    3    3  502    0  0.26895438785E+03 -0.98473444680E+03  0.13244841483E+04  0.16722131002E+04  0.25500000920E-02 0. -1.
       -2    1    3    3    0  502 -0.26895438785E+03  0.98473444680E+03 -0.52061826875E+03  0.11458978031E+04  0.25500000920E-02 0.  1.
</event>
<event>
 5   0  0.7335091E-07  0.2698545E+04  0.7818609E-02  0.8335477E-01
        1   -1    0    0  501    0  0.00000000000E+00  0.00000000000E+00  0.14748552720E+04  0.14748552720E+04  0.50400001928E-02 0. -1.
       -1   -1    0    0    0  501  0.00000000000E+00  0.00000000000E+00 -0.12343833391E+04  0.12343833391E+04  0.50400001928E-02 0.  1.
    10030    2    1    2    0    0  0.00000000000E+00  0.00000000000E+00  0.24047193291E+03  0.27092386111E+04  0.26985453676E+04 0.  0.
        3    1    3    3  502    0  0.41794062527E+03  0.78424248365E+03 -0.89908331895E+03  0.12641445582E+04  0.10100000352E+00 0.  1.
       -3    1    3    3    0  502 -0.41794062527E+03 -0.78424248365E+03  0.11395552519E+04  0.14450940529E+04  0.10100000352E+00 0. -1.
</event>
<event>
 5   0  0.1991277E-06  0.2694779E+04  0.7818609E-02  0.8336701E-01
       -2   -1    0    0    0  501  0.00000000000E+00  0.00000000000E+00  0.69051176313E+03  0.69051176314E+03  0.25500000920E-02 0. -1.
        2   -1    0    0  501    0  0.00000000000E+00  0.00000000000E+00 -0.26291482575E+04  0.26291482575E+04  0.25500000920E-02 0.  1.
    10030    2    1    2    0    0  0.00000000000E+00  0.00000000000E+00 -0.19386364944E+04  0.33196600207E+04  0.26947785058E+04 0.  0.
        5    1    3    3  502    0 -0.21849231755E+02  0.42108182490E+03  0.60713417576E+03  0.73920314499E+03  0.46999998093E+01 0. -1.
       -5    1    3    3    0  502  0.21849231755E+02 -0.42108182490E+03 -0.25457706702E+04  0.25804568757E+04  0.46999998093E+01 0.  1.
</event>
<event>
 5   0  0.1932012E-06  0.2696878E+04  0.7818609E-02  0.8336019E-01
        2   -1    0    0  501    0  0.00000000000E+00  0.00000000000E+00  0.17377449476E+04  0.17377449476E+04  0.25500000920E-02 0.  1.
       -2   -1    0    0    0  501  0.00000000000E+00  0.00000000000E+00 -0.10463493491E+04  0.10463493491E+04  0.25500000920E-02 0. -1.
    10030    2    1    2    0    0  0.00000000000E+00  0.00000000000E+00  0.69139559854E+03  0.27840942967E+04  0.26968784138E+04 0.  0.
        2    1    3    3  502    0 -0.55064488454E+03 -0.40009341839E+03 -0.85599324362E+03  0.10936219481E+04  0.25500000920E-02 0. -1.
       -2    1    3    3    0  502  0.55064488454E+03  0.40009341839E+03  0.15473888422E+04  0.16904723485E+04  0.25500000920E-02 0.  1.
</event>
<event>
 5   0  0.7566905E-07  0.2692276E+04  0.7818609E-02  0.8337515E-01
       -1   -1    0    0    0  501  0.00000000000E+00  0.00000000000E+00  0.16554084652E+04  0.16554084652E+04  0.50400001928E-02 0. -1.
        1   -1    0    0  501    0  0.00000000000E+00  0.00000000000E+00 -0.10946471414E+04  0.10946471414E+04  0.50400001928E-02 0.  1.
    10030    2    1    2    0    0  0.00000000000E+00  0.00000000000E+00  0.56076132381E+03  0.27500556066E+04  0.26922764675E+04 0.  0.
        1    1    3    3  502    0  0.53828382388E+03 -0.73069663841E+03 -0.73514948976E+03  0.11679519788E+04  0.50400001928E-02 0.  1.
       -1    1    3    3    0  502 -0.53828382388E+03  0.73069663841E+03  0.12959108136E+04  0.15821036278E+04  0.50400001928E-02 0. -1.
</event>
<event>
 5   0  0.1991277E-06  0.2696475E+04  0.7818609E-02  0.8336150E-01
        2   -1    0    0  501    0  0.00000000000E+00  0.00000000000E+00  0.17440099289E+04  0.17440099289E+04  0.25500000920E-02 0. -1.
       -2   -1    0    0    0  501  0.00000000000E+00  0.00000000000E+00 -0.10422784795E+04  0.10422784795E+04  0.25500000920E-02 0.  1.
    10030    2    1    2    0    0  0.00000000000E+00  0.00000000000E+00  0.70173144941E+03  0.27862884085E+04  0.26964747483E+04 0.  0.
        5    1    3    3  502    0 -0.58144146921E+03  0.11087547284E+04 -0.16610912487E+03  0.12629432138E+04  0.46999998093E+01 0.  1.
       -5    1    3    3    0  502  0.58144146921E+03 -0.11087547284E+04  0.86784057427E+03  0.15233451947E+04  0.46999998093E+01 0. -1.
</event>
<event>
 5   0  0.7436613E-07  0.2678009E+04  0.7818609E-02  0.8342176E-01
       -1   -1    0    0    0  501  0.00000000000E+00  0.00000000000E+00  0.18813908213E+04  0.18813908213E+04  0.50400001928E-02 0. -1.
        1   -1    0    0  501    0  0.00000000000E+00  0.00000000000E+00 -0.95298268444E+03  0.95298268445E+03  0.50400001928E-02 0.  1.
    10030    2    1    2    0    0  0.00000000000E+00  0.00000000000E+00  0.92840813682E+03  0.28343735057E+04  0.26780088688E+04 0.  0.
        2    1    3    3  502    0 -0.26647117363E+02 -0.12734852779E+03 -0.94627673674E+03  0.95517923914E+03  0.25500000920E-02 0.  1.
       -2    1    3    3    0  502  0.26647117363E+02  0.12734852779E+03  0.18746848736E+04  0.18791942666E+04  0.25500000920E-02 0. -1.
</event>
<event>
 5   0  0.2063087E-06  0.2699386E+04  0.7818609E-02  0.8335204E-01
       -2   -1    0    0    0  501  0.00000000000E+00  0.00000000000E+00  0.12458277598E+04  0.12458277598E+04  0.25500000920E-02 0. -1.
        2   -1    0    0  501    0  0.00000000000E+00  0.00000000000E+00 -0.14622178560E+04  0.14622178560E+04  0.25500000920E-02 0.  1.
    10030    2    1    2    0    0  0.00000000000E+00  0.00000000000E+00 -0.21639009618E+03  0.27080456158E+04  0.26993862976E+04 0.  0.
        3    1    3    3  502    0  0.57186077414E+03 -0.51447536583E+03 -0.12207891997E+04  0.14429261683E+04  0.10100000352E+00 0.  1.
       -3    1    3    3    0  502 -0.57186077414E+03  0.51447536583E+03  0.10043991035E+04  0.12651194475E+04  0.10100000352E+00 0. -1.
</event>
<event>
 5   0  0.7436613E-07  0.2716403E+04  0.7818609E-02  0.8329702E-01
        1   -1    0    0  501    0  0.00000000000E+00  0.00000000000E+00  0.23579252225E+04  0.23579252225E+04  0.50400001928E-02 0.  1.
       -1   -1    0    0    0  501  0.00000000000E+00  0.00000000000E+00 -0.78234514013E+03  0.78234514015E+03  0.50400001928E-02 0. -1.
    10030    2    1    2    0    0  0.00000000000E+00  0.00000000000E+00  0.15755800824E+04  0.31402703627E+04  0.27164030177E+04 0.  0.
        2    1    3    3  502    0  0.27866410532E+03 -0.31246626330E+03 -0.70588445618E+03  0.82070805697E+03  0.25500000920E-02 0. -1.
       -2    1    3    3    0  502 -0.27866410532E+03  0.31246626330E+03  0.22814645386E+04  0.23195623057E+04  0.25500000920E-02 0.  1.
</event>
<event>
 5   0  0.7806808E-07  0.2697077E+04  0.7818609E-02  0.8335954E-01
       -1   -1    0    0    0  501  0.00000000000E+00  0.00000000000E+00  0.60781320010E+03  0.60781320012E+03  0.50400001928E-02 0. -1.
        1   -1    0    0  501    0  0.00000000000E+00  0.00000000000E+00 -0.29919650205E+04  0.29919650205E+04  0.50400001928E-02 0.  1.
    10030    2    1    2    0    0  0.00000000000E+00  0.00000000000E+00 -0.23841518204E+04  0.35997782206E+04  0.26970768129E+04 0.  0.
        5    1    3    3  502    0  0.11103298202E+03  0.10917973687E+04 -0.22380758340E+04  0.24926602950E+04  0.46999998093E+01 0.  1.
       -5    1    3    3    0  502 -0.11103298202E+03 -0.10917973687E+04 -0.14607598639E+03  0.11071179256E+04  0.46999998093E+01 0. -1.
</event>
<event>
 5   0  0.1932012E-06  0.2703580E+04  0.7818609E-02  0.8333844E-01
        2   -1    0    0  501    0  0.00000000000E+00  0.00000000000E+00  0.13659094483E+04  0.13659094483E+04  0.25500000920E-02 0. -1.
       -2   -1    0    0    0  501  0.00000000000E+00  0.00000000000E+00 -0.13378169189E+04  0.13378169189E+04  0.25500000920E-02 0.  1.
    10030    2    1    2    0    0  0.00000000000E+00  0.00000000000E+00  0.28092529426E+02  0.27037263671E+04  0.27035804183E+04 0.  0.
        2    1    3    3  502    0  0.25618721962E+03 -0.95761911751E+03 -0.90506292515E+03  0.13423133629E+04  0.25500000920E-02 0.  1.
       -2    1    3    3    0  502 -0.25618721962E+03  0.95761911751E+03  0.93315545457E+03  0.13614130042E+04  0.25500000920E-02 0. -1.
</event>
<event>
 5   0  0.2030645E-06  0.2691697E+04  0.7818609E-02  0.8337704E-01
        2   -1    0    0  501    0  0.00000000000E+00  0.00000000000E+00  0.12106193508E+04  0.12106193508E+04  0.25500000920E-02 0.  1.
       -2   -1    0    0    0  501  0.00000000000E+00  0.00000000000E+00 -0.14961826663E+04  0.14961826663E+04  0.25500000920E-02 0. -1.
    10030    2    1    2    0    0  0.00000000000E+00  0.00000000000E+00 -0.28556331551E+03  0.27068020171E+04  0.26916966309E+04 0.  0.
        1    1    3    3  502    0 -0.85856367903E+03  0.22528398242E+03  0.87453935422E+03  0.12460752569E+04  0.50400001928E-02 0.  1.
       -1    1    3    3    0  502  0.85856367903E+03 -0.22528398242E+03 -0.11601026697E+04  0.14607267602E+04  0.50400001928E-02 0. -1.
</event>
<event>
 5   0  0.7768032E-07  0.2700903E+04  0.7818609E-02  0.8334712E-01
        1   -1    0    0  501    0  0.00000000000E+00  0.00000000000E+00  0.15112352523E+04  0.15112352523E+04  0.50400001928E-02 0. -1.
       -1   -1    0    0    0  501  0.00000000000E+00  0.00000000000E+00 -0.12067737290E+04  0.12067737290E+04  0.50400001928E-02 0.  1.
    10030    2    1    2    0    0  0.00000000000E+00  0.00000000000E+00  0.30446152330E+03  0.27180089813E+04  0.27009028126E+04 0.  0.
        4    1    3    3  502    0 -0.12287989210E+03 -0.90927068496E+03 -0.84492577286E+03  0.12473066267E+04  0.12699999809E+01 0.  1.
       -4    1    3    3    0  502  0.12287989210E+03  0.90927068496E+03  0.11493872962E+04  0.14707023546E+04  0.12699999809E+01 0. -1.
</event>
<event>
 5   0  0.7335091E-07  0.2713441E+04  0.7818609E-02  0.8330657E-01
        1   -1    0    0  501    0  0.00000000000E+00  0.00000000000E+00  0.22038469880E+04  0.22038469880E+04  0.50400001928E-02 0.  1.
       -1   -1    0    0    0  501  0.00000000000E+00  0.00000000000E+00 -0.83521697303E+03  0.83521697305E+03  0.50400001928E-02 0. -1.
    10030    2    1    2    0    0  0.00000000000E+00  0.00000000000E+00  0.13686300150E+04  0.30390639611E+04  0.27134409228E+04 0.  0.
        3    1    3    3  502    0  0.90095463647E+03 -0.99716539789E+03  0.89274500130E+03  0.16133975751E+04  0.10100000352E+00 0. -1.
       -3    1    3    3    0  502 -0.90095463647E+03  0.99716539789E+03  0.47588501370E+03  0.14256663860E+04  0.10100000352E+00 0.  1.
</event>
<event>
 5   0  0.1932012E-06  0.2696776E+04  0.7818609E-02  0.8336052E-01
        2   -1    0    0  501    0  0.00000000000E+00  0.00000000000E+00  0.27180787620E+04  0.27180787620E+04  0.25500000920E-02 0. -1.
       -2   -1    0    0    0  501  0.00000000000E+00  0.00000000000E+00 -0.66890994513E+03  0.66890994514E+03  0.25500000920E-02 0.  1.
    10030    2    1    2    0    0  0.00000000000E+00  0.00000000000E+00  0.20491688169E+04  0.33869887072E+04  0.26967757901E+04 0.  0.
        2    1    3    3  502    0  0.29130008592E+03 -0.37148932300E+03  0.26108967755E+04  0.26532323738E+04  0.25500000920E-02 0. -1.
       -2    1    3    3    0  502 -0.29130008592E+03  0.37148932300E+03 -0.56172795864E+03  0.73375633332E+03  0.25500000920E-02 0.  1.
</event>
<event>
 5   0  0.7335091E-07  0.2697635E+04  0.7818609E-02  0.8335773E-01
       -1   -1    0    0    0  501  0.00000000000E+00  0.00000000000E+00  0.96065865452E+03  0.96065865454E+03  0.50400001928E-02 0.  1.
        1   -1    0    0  501    0  0.00000000000E+00  0.00000000000E+00 -0.18938133996E+04  0.18938133996E+04  0.50400001928E-02 0. -1.
    10030    2    1    2    0    0  0.00000000000E+00  0.00000000000E+00 -0.93315474509E+03  0.28544720542E+04  0.26976346917E+04 0.  0.
        3    1    3    3  502    0  0.10356525555E+04  0.78915654122E+03 -0.83913235690E+03  0.15490278838E+04  0.10100000352E+00 0. -1.
       -3    1    3    3    0  502 -0.10356525555E+04 -0.78915654122E+03 -0.94022388191E+02  0.13054441704E+04  0.10100000352E+00 0.  1.
</event>
<event>
 5   0  0.7566905E-07  0.2697370E+04  0.7818609E-02  0.8335859E-01
        1   -1    0    0  501    0  0.00000000000E+00  0.00000000000E+00  0.24138869882E+04  0.24138869882E+04  0.50400001928E-02 0.  1.
       -1   -1    0    0    0  501  0.00000000000E+00  0.00000000000E+00 -0.75353595593E+03  0.75353595595E+03  0.50400001928E-02 0. -1.
    10030    2    1    2    0    0  0.00000000000E+00  0.00000000000E+00  0.16603510323E+04  0.31674229442E+04  0.26973695625E+04 0.  0.
        1    1    3    3  502    0 -0.40855038801E+03  0.88059893534E+03  0.19295915389E+04  0.21600211599E+04  0.50400001928E-02 0.  1.
       -1    1    3    3    0  502  0.40855038801E+03 -0.88059893534E+03 -0.26924050659E+03  0.10074017842E+04  0.50400001928E-02 0. -1.
</event>
<event>
 5   0  0.7436613E-07  0.2701667E+04  0.7818609E-02  0.8334464E-01
       -1   -1    0    0    0  501  0.00000000000E+00  0.00000000000E+00  0.10456135104E+04  0.10456135104E+04  0.50400001928E-02 0. -1.
        1   -1    0    0  501    0  0.00000000000E+00  0.00000000000E+00 -0.17451493974E+04  0.17451493974E+04  0.50400001928E-02 0.  1.
    10030    2    1    2    0    0  0.00000000000E+00  0.00000000000E+00 -0.69953588705E+03  0.27907629078E+04  0.27016674759E+04 0.  0.
        2    1    3    3  502    0  0.81608662446E+03  0.10707063414E+04 -0.46452774506E+03  0.14241472797E+04  0.25500000920E-02 0. -1.
       -2    1    3    3    0  502 -0.81608662446E+03 -0.10707063414E+04 -0.23500814199E+03  0.13666156281E+04  0.25500000920E-02 0.  1.
</event>
<event>
 5   0  0.1999104E-06  0.2701017E+04  0.7818609E-02  0.8334675E-01
       -2   -1    0    0    0  501  0.00000000000E+00  0.00000000000E+00  0.11742385257E+04  0.11742385257E+04  0.25500000920E-02 0. -1.
        2   -1    0    0  501    0  0.00000000000E+00  0.00000000000E+00 -0.15532396085E+04  0.15532396085E+04  0.25500000920E-02 0.  1.
    10030    2    1    2    0    0  0.00000000000E+00  0.00000000000E+00 -0.37900108276E+03  0.27274781343E+04  0.27010174291E+04 0.  0.
        4    1    3    3  502    0 -0.92319293480E+03  0.50694621340E+03  0.66411659121E+03  0.12451233344E+04  0.12699999809E+01 0. -1.
       -4    1    3    3    0  502  0.92319293480E+03 -0.50694621340E+03 -0.10431176740E+04  0.14823547999E+04  0.12699999809E+01 0.  1.
</event>
<event>
 5   0  0.7436613E-07  0.2704175E+04  0.7818609E-02  0.8333652E-01
        1   -1    0    0  501    0  0.00000000000E+00  0.00000000000E+00  0.17282497755E+04  0.17282497755E+04  0.50400001928E-02 0. -1.
       -1   -1    0    0    0  501  0.00000000000E+00  0.00000000000E+00 -0.10577984922E+04  0.10577984922E+04  0.50400001928E-02 0.  1.
    10030    2    1    2    0    0  0.00000000000E+00  0.00000000000E+00  0.67045128332E+03  0.27860482677E+04  0.27041745555E+04 0.  0.
        2    1    3    3  502    0 -0.97361929120E+03  0.89780016917E+03  0.61579469467E+03  0.14605419453E+04  0.25500000920E-02 0.  1.
       -2    1    3    3    0  502  0.97361929120E+03 -0.89780016917E+03  0.54656588651E+02  0.13255063224E+04  0.25500000920E-02 0. -1.
</event>
<event>
 5   0  0.1999104E-06  0.2698831E+04  0.7818609E-02  0.8335384E-01
       -2   -1    0    0    0  501  0.00000000000E+00  0.00000000000E+00  0.11524435496E+04  0.11524435496E+04  0.25500000920E-02 0. -1.
        2   -1    0    0  501    0  0.00000000000E+00  0.00000000000E+00 -0.15800531135E+04  0.15800531135E+04  0.25500000920E-02 0.  1.
    10030    2    1    2    0    0  0.00000000000E+00  0.00000000000E+00 -0.42760956389E+03  0.27324966631E+04  0.26988308718E+04 0.  0.
        4    1    3    3  502    0 -0.42512816841E+03  0.11620381446E+04  0.33129181099E+03  0.12809459341E+04  0.12699999809E+01 0. -1.
       -4    1    3    3    0  502  0.42512816841E+03 -0.11620381446E+04 -0.75890137488E+03  0.14515507290E+04  0.12699999809E+01 0.  1.
</event>
<event>
 5   0  0.2030645E-06  0.2704095E+04  0.7818609E-02  0.8333678E-01
       -2   -1    0    0    0  501  0.00000000000E+00  0.00000000000E+00  0.11155676975E+04  0.11155676975E+04  0.25500000920E-02 0. -1.
        2   -1    0    0  501    0  0.00000000000E+00  0.00000000000E+00 -0.16386563083E+04  0.16386563083E+04  0.25500000920E-02 0.  1.
    10030    2    1    2    0    0  0.00000000000E+00  0.00000000000E+00 -0.52308861087E+03  0.27542240058E+04  0.27040947060E+04 0.  0.
        1    1    3    3  502    0  0.13332579677E+04 -0.11368041097E+03 -0.45886753612E+03  0.14145880885E+04  0.50400001928E-02 0.  1.
       -1    1    3    3    0  502 -0.13332579677E+04  0.11368041097E+03 -0.64221074752E+02  0.13396359173E+04  0.50400001928E-02 0. -1.
</event>
<event>
 5   0  0.7436613E-07  0.2706295E+04  0.7818609E-02  0.8332965E-01
       -1   -1    0    0    0  501  0.00000000000E+00  0.00000000000E+00  0.10257891452E+04  0.10257891452E+04  0.50400001928E-02 0. -1.
        1   -1    0    0  501    0  0.00000000000E+00  0.00000000000E+00 -0.17849751363E+04  0.17849751363E+04  0.50400001928E-02 0.  1.
    10030    2    1    2    0    0  0.00000000000E+00  0.00000000000E+00 -0.75918599114E+03  0.28107642816E+04  0.27062949723E+04 0.  0.
        2    1    3    3  502    0  0.10664216910E+04  0.48008754358E+03  0.32731980124E+03  0.12144453569E+04  0.25500000920E-02 0. -1.
       -2    1    3    3    0  502 -0.10664216910E+04 -0.48008754358E+03 -0.10865057924E+04  0.15963189247E+04  0.25500000920E-02 0.  1.
</event>
<event>
 5   0  0.2063087E-06  0.2697808E+04  0.7818609E-02  0.8335716E-01
       -2   -1    0    0    0  501  0.00000000000E+00  0.00000000000E+00  0.80016515915E+03  0.80016515916E+03  0.25500000920E-02 0.  1.
        2   -1    0    0  501    0  0.00000000000E+00  0.00000000000E+00 -0.22739583535E+04  0.22739583535E+04  0.25500000920E-02 0. -1.
    10030    2    1    2    0    0  0.00000000000E+00  0.00000000000E+00 -0.14737931944E+04  0.30741235127E+04  0.26978081828E+04 0.  0.
        3    1    3    3  502    0  0.10527433356E+03  0.11371132396E+04 -0.15549777152E+04  0.19292653810E+04  0.10100000352E+00 0. -1.
       -3    1    3    3    0  502 -0.10527433356E+03 -0.11371132396E+04  0.81184520891E+02  0.11448581317E+04  0.10100000352E+00 0.  1.
</event>
<event>
 5   0  0.1999104E-06  0.2700350E+04  0.7818609E-02  0.8334892E-01
       -2   -1    0    0    0  501  0.00000000000E+00  0.00000000000E+00  0.10650072271E+04  0.10650072271E+04  0.25500000920E-02 0.  1.
        2   -1    0    0  501    0  0.00000000000E+00  0.00000000000E+00 -0.17116991884E+04  0.17116991884E+04  0.25500000920E-02 0. -1.
    10030    2    1    2    0    0  0.00000000000E+00  0.00000000000E+00 -0.64669196132E+03  0.27767064156E+04  0.27003496117E+04 0.  0.
        4    1    3    3  502    0 -0.80097254167E+03 -0.52287997173E+03 -0.13031862045E+04  0.16165569504E+04  0.12699999809E+01 0. -1.
       -4    1    3    3    0  502  0.80097254167E+03  0.52287997173E+03  0.65649424318E+03  0.11601494652E+04  0.12699999809E+01 0.  1.
</event>
<event>
 5   0  0.7335091E-07  0.2709681E+04  0.7818609E-02  0.8331871E-01
        1   -1    0    0  501    0  0.00000000000E+00  0.00000000000E+00  0.16964495044E+04  0.16964495044E+04  0.50400001928E-02 0. -1.
       -1   -1    0    0    0  501  0.00000000000E+00  0.00000000000E+00 -0.10820203971E+04  0.10820203972E+04  0.50400001928E-02 0.  1.
    10030    2    1    2    0    0  0.00000000000E+00  0.00000000000E+00  0.61442910725E+03  0.27784699016E+04  0.27096811373E+04 0.  0.
        3    1    3    3  502    0  0.20166180228E+03  0.13081636942E+04  0.10678894779E+02  0.13236592395E+04  0.10100000352E+00 0.  1.
       -3    1    3    3    0  502 -0.20166180228E+03 -0.13081636942E+04  0.60375021247E+03  0.14548106621E+04  0.10100000352E+00 0. -1.
</event>
<event>
 5   0  0.7436613E-07  0.2698472E+04  0.7818609E-02  0.8335501E-01
       -1   -1    0    0    0  501  0.00000000000E+00  0.00000000000E+00  0.75950945156E+03  0.75950945158E+03  0.50400001928E-02 0.  1.
        1   -1    0    0  501    0  0.00000000000E+00  0.00000000000E+00 -0.23968605841E+04  0.23968605841E+04  0.50400001928E-02 0. -1.
    10030    2    1    2    0    0  0.00000000000E+00  0.00000000000E+00 -0.16373511325E+04  0.31563700357E+04  0.26984723587E+04 0.  0.
        2    1    3    3  502    0  0.13211527326E+02  0.24385246415E+03  0.73344307776E+03  0.77303125231E+03  0.25500000920E-02 0.  1.
       -2    1    3    3    0  502 -0.13211527326E+02 -0.24385246415E+03 -0.23707942103E+04  0.23833387834E+04  0.25500000920E-02 0. -1.
</event>
<event>
 5   0  0.7806808E-07  0.2771545E+04  0.7818609E-02  0.8312157E-01
        1   -1    0    0  501    0  0.00000000000E+00  0.00000000000E+00  0.22084980012E+04  0.22084980012E+04  0.50400001928E-02 0. -1.
       -1   -1    0    0    0  501  0.00000000000E+00  0.00000000000E+00 -0.86953465722E+03  0.86953465724E+03  0.50400001928E-02 0.  1.
    10030    2    1    2    0    0  0.00000000000E+00  0.00000000000E+00  0.13389633440E+04  0.30780326585E+04  0.27715450944E+04 0.  0.
        5    1    3    3  502    0 -0.52087824435E+03  0.35078725850E+03  0.20413908323E+04  0.21358053438E+04  0.46999998093E+01 0. -1.
       -5    1    3    3    0  502  0.52087824435E+03 -0.35078725850E+03 -0.70242748834E+03  0.94222731469E+03  0.46999998093E+01 0.  1.
</event>
<event>
 5   0  0.1999104E-06  0.2698721E+04  0.7818609E-02  0.8335420E-01
        2   -1    0    0  501    0  0.00000000000E+00  0.00000000000E+00  0.11792985517E+04  0.11792985517E+04  0.25500000920E-02 0.  1.
       -2   -1    0    0    0  501  0.00000000000E+00  0.00000000000E+00 -0.15439463161E+04  0.15439463161E+04  0.25500000920E-02 0. -1.
    10030    2    1    2    0    0  0.00000000000E+00  0.00000000000E+00 -0.36464776433E+03  0.27232448678E+04  0.26987209226E+04 0.  0.
        4    1    3    3  502    0 -0.73019873660E+03  0.10984451665E+04  0.10486749458E+03  0.13231669521E+04  0.12699999809E+01 0.  1.
       -4    1    3    3    0  502  0.73019873660E+03 -0.10984451665E+04 -0.46951525891E+03  0.14000779157E+04  0.12699999809E+01 0. -1.
</event>
<event>
 5   0  0.7566905E-07  0.2699440E+04  0.7818609E-02  0.8335187E-01
       -1   -1    0    0    0  501  0.00000000000E+00  0.00000000000E+00  0.10796856198E+04  0.10796856198E+04  0.50400001928E-02 0. -1.
        1   -1    0    0  501    0  0.00000000000E+00  0.00000000000E+00 -0.16872913849E+04  0.16872913849E+04  0.50400001928E-02 0.  1.
    10030    2    1    2    0    0  0.00000000000E+00  0.00000000000E+00 -0.60760576511E+03  0.27669770046E+04  0.26994401231E+04 0.  0.
        1    1    3    3  502    0  0.77544486301E+03 -0.11045843934E+04 -0.32221978833E+03  0.13875327058E+04  0.50400001928E-02 0.  1.
       -1    1    3    3    0  502 -0.77544486301E+03  0.11045843934E+04 -0.28538597678E+03  0.13794442988E+04  0.50400001928E-02 0. -1.
</event>
<event>
 5   0  0.7806808E-07  0.2705383E+04  0.7818609E-02  0.8333261E-01
       -1   -1    0    0    0  501  0.00000000000E+00  0.00000000000E+00  0.83585142070E+03  0.83585142072E+03  0.50400001928E-02 0. -1.
        1   -1    0    0  501    0  0.00000000000E+00  0.00000000000E+00 -0.21891141881E+04  0.21891141881E+04  0.50400001928E-02 0.  1.
    10030    2    1    2    0    0  0.00000000000E+00  0.00000000000E+00 -0.13532627674E+04  0.30249656088E+04  0.27053829335E+04 0.  0.
        5    1    3    3  502    0  0.74239480669E+03 -0.10500362861E+04 -0.20751571726E+03  0.13026170251E+04  0.46999998093E+01 0. -1.
       -5    1    3    3    0  502 -0.74239480669E+03  0.10500362861E+04 -0.11457470501E+04  0.17223485837E+04  0.46999998093E+01 0.  1.
</event>
<event>
 5   0  0.7566905E-07  0.2710791E+04  0.7818609E-02  0.8331512E-01
       -1   -1    0    0    0  501  0.00000000000E+00  0.00000000000E+00  0.11996786601E+04  0.11996786601E+04  0.50400001928E-02 0.  1.
        1   -1    0    0  501    0  0.00000000000E+00  0.00000000000E+00 -0.15313247311E+04  0.15313247312E+04  0.50400001928E-02 0. -1.
    10030    2    1    2    0    0  0.00000000000E+00  0.00000000000E+00 -0.33164607101E+03  0.27310033913E+04  0.27107914724E+04 0.  0.
        1    1    3    3  502    0  0.10961438082E+04  0.62642003460E+03 -0.66261667905E+03  0.14258310458E+04  0.50400001928E-02 0. -1.
       -1    1    3    3    0  502 -0.10961438082E+04 -0.62642003460E+03  0.33097060804E+03  0.13051723454E+04  0.50400001928E-02 0.  1.
</event>
<event>
 5   0  0.7436613E-07  0.2699992E+04  0.7818609E-02  0.8335008E-01
        1   -1    0    0  501    0  0.00000000000E+00  0.00000000000E+00  0.15644235675E+04  0.15644235675E+04  0.50400001928E-02 0. -1.
       -1   -1    0    0    0  501  0.00000000000E+00  0.00000000000E+00 -0.11649585004E+04  0.11649585004E+04  0.50400001928E-02 0.  1.
    10030    2    1    2    0    0  0.00000000000E+00  0.00000000000E+00  0.39946506707E+03  0.27293820679E+04  0.26999915060E+04 0.  0.
        2    1    3    3  502    0  0.58690864532E+03  0.58094928595E+03  0.12793111754E+04  0.15226952795E+04  0.25500000920E-02 0. -1.
       -2    1    3    3    0  502 -0.58690864532E+03 -0.58094928595E+03 -0.87984610834E+03  0.12066867883E+04  0.25500000920E-02 0.  1.
</event>
<event>
 5   0  0.1991277E-06  0.2712729E+04  0.7818609E-02  0.8330887E-01
       -2   -1    0    0    0  501  0.00000000000E+00  0.00000000000E+00  0.14465184113E+04  0.14465184113E+04  0.25500000920E-02 0. -1.
        2   -1    0    0  501    0  0.00000000000E+00  0.00000000000E+00 -0.12718294399E+04  0.12718294399E+04  0.25500000920E-02 0.  1.
    10030    2    1    2    0    0  0.00000000000E+00  0.00000000000E+00  0.17468897140E+03  0.27183478511E+04  0.27127290323E+04 0.  0.
        5    1    3    3  502    0  0.47995698636E+03 -0.10464249423E+04  0.80600409000E+03  0.14053570905E+04  0.46999998093E+01 0. -1.
       -5    1    3    3    0  502 -0.47995698636E+03  0.10464249423E+04 -0.63131511860E+03  0.13129907607E+04  0.46999998093E+01 0.  1.
</event>
<event>
 5   0  0.1999104E-06  0.2701388E+04  0.7818609E-02  0.8334555E-01
       -2   -1    0    0    0  501  0.00000000000E+00  0.00000000000E+00  0.11368662952E+04  0.11368662952E+04  0.25500000920E-02 0. -1.
        2   -1    0    0  501    0  0.00000000000E+00  0.00000000000E+00 -0.16047397687E+04  0.16047397687E+04  0.25500000920E-02 0.  1.
    10030    2    1    2    0    0  0.00000000000E+00  0.00000000000E+00 -0.46787347346E+03  0.27416060639E+04  0.27013882028E+04 0.  0.
        4    1    3    3  502    0  0.19331299913E+03  0.41898643255E+03  0.10543926945E+04  0.11509409687E+04  0.12699999809E+01 0. -1.
       -4    1    3    3    0  502 -0.19331299913E+03 -0.41898643255E+03 -0.15222661679E+04  0.15906650952E+04  0.12699999809E+01 0.  1.
</event>
<event>
 5   0  0.7335091E-07  0.2702257E+04  0.7818609E-02  0.8334273E-01
        1   -1    0    0  501    0  0.00000000000E+00  0.00000000000E+00  0.18291689434E+04  0.18291689434E+04  0.50400001928E-02 0. -1.
       -1   -1    0    0    0  501  0.00000000000E+00  0.00000000000E+00 -0.99802087972E+03  0.99802087973E+03  0.50400001928E-02 0.  1.
    10030    2    1    2    0    0  0.00000000000E+00  0.00000000000E+00  0.83114806371E+03  0.28271898232E+04  0.27022574253E+04 0.  0.
        3    1    3    3  502    0 -0.18721507482E+03  0.13063514297E+04  0.71870220501E+03  0.15027096898E+04  0.10100000352E+00 0.  1.
       -3    1    3    3    0  502  0.18721507482E+03 -0.13063514297E+04  0.11244585869E+03  0.13244801333E+04  0.10100000352E+00 0. -1.
</event>
<event>
 5   0  0.7436613E-07  0.2700060E+04  0.7818609E-02  0.8334985E-01
        1   -1    0    0  501    0  0.00000000000E+00  0.00000000000E+00  0.15306933642E+04  0.15306933642E+04  0.50400001928E-02 0. -1.
       -1   -1    0    0    0  501  0.00000000000E+00  0.00000000000E+00 -0.11906900583E+04  0.11906900583E+04  0.50400001928E-02 0.  1.
    10030    2    1    2    0    0  0.00000000000E+00  0.00000000000E+00  0.34000330591E+03  0.27213834226E+04  0.27000602743E+04 0.  0.
        2    1    3    3  502    0 -0.13027122313E+04  0.30437695354E+03  0.35275342555E+03  0.13835242921E+04  0.25500000920E-02 0. -1.
       -2    1    3    3    0  502  0.13027122313E+04 -0.30437695354E+03 -0.12750119643E+02  0.13378591305E+04  0.25500000920E-02 0.  1.
</event>
<event>
 5   0  0.1999104E-06  0.2699792E+04  0.7818609E-02  0.8335072E-01
        2   -1    0    0  501    0  0.00000000000E+00  0.00000000000E+00  0.18586688124E+04  0.18586688124E+04  0.25500000920E-02 0. -1.
       -2   -1    0    0    0  501  0.00000000000E+00  0.00000000000E+00 -0.98038965971E+03  0.98038965971E+03  0.25500000920E-02 0.  1.
    10030    2    1    2    0    0  0.00000000000E+00  0.00000000000E+00  0.87827915272E+03  0.28390584721E+04  0.26997923509E+04 0.  0.
        4    1    3    3  502    0 -0.10903009384E+04 -0.37445223649E+03 -0.29940447168E+03  0.11910563648E+04  0.12699999809E+01 0.  1.
       -4    1    3    3    0  502  0.10903009384E+04  0.37445223649E+03  0.11776836244E+04  0.16480021073E+04  0.12699999809E+01 0. -1.
</event>
<event>
 5   0  0.7566905E-07  0.2699121E+04  0.7818609E-02  0.8335290E-01
        1   -1    0    0  501    0  0.00000000000E+00  0.00000000000E+00  0.25407286939E+04  0.25407286939E+04  0.50400001928E-02 0. -1.
       -1   -1    0    0    0  501  0.00000000000E+00  0.00000000000E+00 -0.71684715981E+03  0.71684715983E+03  0.50400001928E-02 0.  1.
    10030    2    1    2    0    0  0.00000000000E+00  0.00000000000E+00  0.18238815341E+04  0.32575758538E+04  0.26991214483E+04 0.  0.
        1    1    3    3  502    0 -0.12520628123E+03 -0.12195257987E+04  0.15929528148E+04  0.20100792165E+04  0.50400001928E-02 0. -1.
       -1    1    3    3    0  502  0.12520628123E+03  0.12195257987E+04  0.23092871930E+03  0.12474966372E+04  0.50400001928E-02 0.  1.
</event>
<event>
 5   0  0.2030645E-06  0.2688496E+04  0.7818609E-02  0.8338747E-01
        2   -1    0    0  501    0  0.00000000000E+00  0.00000000000E+00  0.19706250612E+04  0.19706250612E+04  0.25500000920E-02 0.  1.
       -2   -1    0    0    0  501  0.00000000000E+00  0.00000000000E+00 -0.91696942462E+03  0.91696942462E+03  0.25500000920E-02 0. -1.
    10030    2    1    2    0    0  0.00000000000E+00  0.00000000000E+00  0.10536556366E+04  0.28875944858E+04  0.26884961808E+04 0.  0.
        1    1    3    3  502    0 -0.23727979510E+03  0.13216671181E+04  0.45977666259E+03  0.14193309169E+04  0.50400001928E-02 0. -1.
       -1    1    3    3    0  502  0.23727979510E+03 -0.13216671181E+04  0.59387897401E+03  0.14682635690E+04  0.50400001928E-02 0.  1.
</event>
<event>
 5   0  0.7566905E-07  0.2698108E+04  0.7818609E-02  0.8335619E-01
       -1   -1    0    0    0  501  0.00000000000E+00  0.00000000000E+00  0.91143722864E+03  0.91143722865E+03  0.50400001928E-02 0.  1.
        1   -1    0    0  501    0  0.00000000000E+00  0.00000000000E+00 -0.19967875971E+04  0.19967875971E+04  0.50400001928E-02 0. -1.
    10030    2    1    2    0    0  0.00000000000E+00  0.00000000000E+00 -0.10853503685E+04  0.29082248258E+04  0.26981078953E+04 0.  0.
        1    1    3    3  502    0  0.12639245546E+04 -0.45423918182E+03 -0.40587395179E+03  0.14030581523E+04  0.50400001928E-02 0. -1.
       -1    1    3    3    0  502 -0.12639245546E+04  0.45423918182E+03 -0.67947641670E+03  0.15051666735E+04  0.50400001928E-02 0.  1.
</event>
<event>
 5   0  0.7566905E-07  0.2706029E+04  0.7818609E-02  0.8333051E-01
       -1   -1    0    0    0  501  0.00000000000E+00  0.00000000000E+00  0.14260083122E+04  0.14260083122E+04  0.50400001928E-02 0. -1.
        1   -1    0    0  501    0  0.00000000000E+00  0.00000000000E+00 -0.12837574704E+04  0.12837574704E+04  0.50400001928E-02 0.  1.
    10030    2    1    2    0    0  0.00000000000E+00  0.00000000000E+00  0.14225084181E+03  0.27097657826E+04  0.27060294334E+04 0.  0.
        1    1    3    3  502    0 -0.10231002861E+03 -0.88788061009E+02  0.14192004474E+04  0.14256509291E+04  0.50400001928E-02 0. -1.
       -1    1    3    3    0  502  0.10231002861E+03  0.88788061009E+02 -0.12769496056E+04  0.12841148535E+04  0.50400001928E-02 0.  1.
</event>
<event>
 5   0  0.1991277E-06  0.2697029E+04  0.7818609E-02  0.8335969E-01
        2   -1    0    0  501    0  0.00000000000E+00  0.00000000000E+00  0.19473336757E+04  0.19473336757E+04  0.25500000920E-02 0.  1.
       -2   -1    0    0    0  501  0.00000000000E+00  0.00000000000E+00 -0.93383677877E+03  0.93383677877E+03  0.25500000920E-02 0. -1.
    10030    2    1    2    0    0  0.00000000000E+00  0.00000000000E+00  0.10134968969E+04  0.28811704544E+04  0.26970293338E+04 0.  0.
        5    1    3    3  502    0  0.90639009635E+02 -0.10200791259E+04 -0.43047255456E+03  0.11109030396E+04  0.46999998093E+01 0. -1.
       -5    1    3    3    0  502 -0.90639009635E+02  0.10200791259E+04  0.14439694515E+04  0.17702674148E+04  0.46999998093E+01 0.  1.
</event>
<event>
 5   0  0.6561875E-07  0.2716125E+04  0.7818609E-02  0.8329792E-01
        3   -1    0    0  501    0  0.00000000000E+00  0.00000000000E+00  0.14398181172E+04  0.14398181207E+04  0.10100000352E+00 0. -1.
       -3   -1    0    0    0  501  0.00000000000E+00  0.00000000000E+00 -0.12809492617E+04  0.12809492657E+04  0.10100000352E+00 0.  1.
    10030    2    1    2    0    0  0.00000000000E+00  0.00000000000E+00  0.15886885546E+03  0.27207673864E+04  0.27161251550E+04 0.  0.
        2    1    3    3  502    0 -0.97394612239E+03  0.93867636973E+03 -0.41807920926E+02  0.13533042077E+04  0.25500000920E-02 0.  1.
       -2    1    3    3    0  502  0.97394612239E+03 -0.93867636973E+03  0.20067677639E+03  0.13674631787E+04  0.25500000920E-02 0. -1.
</event>
<event>
 5   0  0.2063087E-06  0.2700650E+04  0.7818609E-02  0.8334794E-01
       -2   -1    0    0    0  501  0.00000000000E+00  0.00000000000E+00  0.87550593663E+03  0.87550593663E+03  0.25500000920E-02 0.  1.
        2   -1    0    0  501    0  0.00000000000E+00  0.00000000000E+00 -0.20826555722E+04  0.20826555722E+04  0.25500000920E-02 0. -1.
    10030    2    1    2    0    0  0.00000000000E+00  0.00000000000E+00 -0.12071496355E+04  0.29581615088E+04  0.27006497865E+04 0.  0.
        3    1    3    3  502    0 -0.49777522793E+03 -0.36949956441E+03 -0.19175711401E+04  0.20152888610E+04  0.10100000352E+00 0. -1.
       -3    1    3    3    0  502  0.49777522793E+03  0.36949956441E+03  0.71042150457E+03  0.94287264781E+03  0.10100000352E+00 0.  1.
</event>
<event>
 5   0  0.1999104E-06  0.2702763E+04  0.7818609E-02  0.8334109E-01
       -2   -1    0    0    0  501  0.00000000000E+00  0.00000000000E+00  0.11506311886E+04  0.11506311886E+04  0.25500000920E-02 0.  1.
        2   -1    0    0  501    0  0.00000000000E+00  0.00000000000E+00 -0.15871571328E+04  0.15871571328E+04  0.25500000920E-02 0. -1.
    10030    2    1    2    0    0  0.00000000000E+00  0.00000000000E+00 -0.43652594413E+03  0.27377883214E+04  0.27027633993E+04 0.  0.
        4    1    3    3  502    0  0.57757438490E+03 -0.95684049723E+03  0.55124918434E+03  0.12461994958E+04  0.12699999809E+01 0.  1.
       -4    1    3    3    0  502 -0.57757438490E+03  0.95684049723E+03 -0.98777512848E+03  0.14915888256E+04  0.12699999809E+01 0. -1.
</event>
<event>
 5   0  0.2063087E-06  0.2698228E+04  0.7818609E-02  0.8335580E-01
        2   -1    0    0  501    0  0.00000000000E+00  0.00000000000E+00  0.17899584298E+04  0.17899584298E+04  0.25500000920E-02 0.  1.
       -2   -1    0    0    0  501  0.00000000000E+00  0.00000000000E+00 -0.10168437741E+04  0.10168437741E+04  0.25500000920E-02 0. -1.
    10030    2    1    2    0    0  0.00000000000E+00  0.00000000000E+00  0.77311465568E+03  0.28068022039E+04  0.26982276296E+04 0.  0.
        3    1    3    3  502    0 -0.12360161153E+04 -0.10330335799E+03 -0.16555462746E+03  0.12513256035E+04  0.10100000352E+00 0. -1.
       -3    1    3    3    0  502  0.12360161153E+04  0.10330335799E+03  0.93866928314E+03  0.15554766004E+04  0.10100000352E+00 0.  1.
</event>
<event>
 5   0  0.2030645E-06  0.2707800E+04  0.7818609E-02  0.8332479E-01
       -2   -1    0    0    0  501  0.00000000000E+00  0.00000000000E+00  0.19928291157E+04  0.19928291157E+04  0.25500000920E-02 0.  1.
        2   -1    0    0  501    0  0.00000000000E+00  0.00000000000E+00 -0.91982029757E+03  0.91982029757E+03  0.25500000920E-02 0. -1.
    10030    2    1    2    0    0  0.00000000000E+00  0.00000000000E+00  0.10730088181E+04  0.29126494133E+04  0.27077996013E+04 0.  0.
        1    1    3    3  502    0  0.69276465273E+03 -0.11026617305E+04  0.93501693142E+03  0.16031351840E+04  0.50400001928E-02 0. -1.
       -1    1    3    3    0  502 -0.69276465273E+03  0.11026617305E+04  0.13799188673E+03  0.13095142293E+04  0.50400001928E-02 0.  1.
</event>
<event>
 5   0  0.7436613E-07  0.2696497E+04  0.7818609E-02  0.8336142E-01
        1   -1    0    0  501    0  0.00000000000E+00  0.00000000000E+00  0.23770921680E+04  0.23770921680E+04  0.50400001928E-02 0.  1.
       -1   -1    0    0    0  501  0.00000000000E+00  0.00000000000E+00 -0.76470494099E+03  0.76470494101E+03  0.50400001928E-02 0. -1.
    10030    2    1    2    0    0  0.00000000000E+00  0.00000000000E+00  0.16123872270E+04  0.31417971090E+04  0.26964970804E+04 0.  0.
        2    1    3    3  502    0  0.38288654874E+03 -0.80346187291E+03  0.19861654487E+04  0.21764664665E+04  0.25500000920E-02 0.  1.
       -2    1    3    3    0  502 -0.38288654874E+03  0.80346187291E+03 -0.37377822162E+03  0.96533064252E+03  0.25500000920E-02 0. -1.
</event>
<event>
 5   0  0.7768032E-07  0.2698649E+04  0.7818609E-02  0.8335443E-01
        1   -1    0    0  501    0  0.00000000000E+00  0.00000000000E+00  0.17146839998E+04  0.17146839998E+04  0.50400001928E-02 0. -1.
       -1   -1    0    0    0  501  0.00000000000E+00  0.00000000000E+00 -0.10618148944E+04  0.10618148945E+04  0.50400001928E-02 0.  1.
    10030    2    1    2    0    0  0.00000000000E+00  0.00000000000E+00  0.65286910539E+03  0.27764988943E+04  0.26986492994E+04 0.  0.
        4    1    3    3  502    0 -0.64364472962E+02 -0.32477552724E+03  0.16722417468E+04  0.17047040802E+04  0.12699999809E+01 0. -1.
       -4    1    3    3    0  502  0.64364472962E+02  0.32477552724E+03 -0.10193726414E+04  0.10717948141E+04  0.12699999809E+01 0.  1.
</event>
<event>
 5   0  0.1991277E-06  0.2706561E+04  0.7818609E-02  0.8332879E-01
       -2   -1    0    0    0  501  0.00000000000E+00  0.00000000000E+00  0.15587247009E+04  0.15587247009E+04  0.25500000920E-02 0.  1.
        2   -1    0    0  501    0  0.00000000000E+00  0.00000000000E+00 -0.11749141823E+04  0.11749141823E+04  0.25500000920E-02 0. -1.
    10030    2    1    2    0    0  0.00000000000E+00  0.00000000000E+00  0.38381051860E+03  0.27336388832E+04  0.27065607382E+04 0.  0.
        5    1    3    3  502    0  0.19205983743E+03  0.96528842257E+03  0.11300016437E+04  0.14985307887E+04  0.46999998093E+01 0.  1.
       -5    1    3    3    0  502 -0.19205983743E+03 -0.96528842257E+03 -0.74619112511E+03  0.12351080945E+04  0.46999998093E+01 0. -1.
</event>
<event>
 5   0  0.7566905E-07  0.2699784E+04  0.7818609E-02  0.8335075E-01
        1   -1    0    0  501    0  0.00000000000E+00  0.00000000000E+00  0.20392723676E+04  0.20392723676E+04  0.50400001928E-02 0. -1.
       -1   -1    0    0    0  501  0.00000000000E+00  0.00000000000E+00 -0.89355780952E+03  0.89355780953E+03  0.50400001928E-02 0.  1.
    10030    2    1    2    0    0  0.00000000000E+00  0.00000000000E+00  0.11457145580E+04  0.29328301771E+04  0.26997835097E+04 0.  0.
        1    1    3    3  502    0  0.30494390154E+03 -0.92513970564E+03  0.15880489211E+04  0.18630012437E+04  0.50400001928E-02 0. -1.
       -1    1    3    3    0  502 -0.30494390154E+03  0.92513970564E+03 -0.44233436307E+03  0.10698289334E+04  0.50400001928E-02 0.  1.
</event>
<event>
 5   0  0.7768032E-07  0.2700855E+04  0.7818609E-02  0.8334728E-01
        1   -1    0    0  501    0  0.00000000000E+00  0.00000000000E+00  0.16541383802E+04  0.16541383802E+04  0.50400001928E-02 0.  1.
       -1   -1    0    0    0  501  0.00000000000E+00  0.00000000000E+00 -0.11024798047E+04  0.11024798047E+04  0.50400001928E-02 0. -1.
    10030    2    1    2    0    0  0.00000000000E+00  0.00000000000E+00  0.55165857554E+03  0.27566181849E+04  0.27008547968E+04 0.  0.
        4    1    3    3  502    0  0.12484436584E+04  0.51397722780E+03  0.30590610867E+03  0.13843281111E+04  0.12699999809E+01 0.  1.
       -4    1    3    3    0  502 -0.12484436584E+04 -0.51397722780E+03  0.24575246687E+03  0.13722900738E+04  0.12699999809E+01 0. -1.
</event>
<event>
 5   0  0.7806808E-07  0.2701312E+04  0.7818609E-02  0.8334579E-01
       -1   -1    0    0    0  501  0.00000000000E+00  0.00000000000E+00  0.91350447186E+03  0.91350447187E+03  0.50400001928E-02 0. -1.
        1   -1    0    0  501    0  0.00000000000E+00  0.00000000000E+00 -0.19970039090E+04  0.19970039090E+04  0.50400001928E-02 0.  1.
    10030    2    1    2    0    0  0.00000000000E+00  0.00000000000E+00 -0.10834994372E+04  0.29105083809E+04  0.27013122746E+04 0.  0.
        5    1    3    3  502    0  0.70075927815E+03 -0.10590418507E+04 -0.10373927847E+04  0.16397679980E+04  0.46999998093E+01 0. -1.
       -5    1    3    3    0  502 -0.70075927815E+03  0.10590418507E+04 -0.46106652482E+02  0.12707403829E+04  0.46999998093E+01 0.  1.
</event>
<event>
 5   0  0.1999104E-06  0.2703144E+04  0.7818609E-02  0.8333986E-01
        2   -1    0    0  501    0  0.00000000000E+00  0.00000000000E+00  0.20622144131E+04  0.20622144131E+04  0.25500000920E-02 0.  1.
       -2   -1    0    0    0  501  0.00000000000E+00  0.00000000000E+00 -0.88581793550E+03  0.88581793550E+03  0.25500000920E-02 0. -1.
    10030    2    1    2    0    0  0.00000000000E+00  0.00000000000E+00  0.11763964776E+04  0.29480323486E+04  0.27031437357E+04 0.  0.
        4    1    3    3  502    0  0.23971889207E+03 -0.12388719044E+04  0.11162937189E+04  0.16847498397E+04  0.12699999809E+01 0.  1.
       -4    1    3    3    0  502 -0.23971889207E+03  0.12388719044E+04  0.60102758699E+02  0.12632825089E+04  0.12699999809E+01 0. -1.
</event>
<event>
 5   0  0.7566905E-07  0.2707019E+04  0.7818609E-02  0.8332731E-01
       -1   -1    0    0    0  501  0.00000000000E+00  0.00000000000E+00  0.98346033082E+03  0.98346033083E+03  0.50400001928E-02 0. -1.
        1   -1    0    0  501    0  0.00000000000E+00  0.00000000000E+00 -0.18627985584E+04  0.18627985584E+04  0.50400001928E-02 0.  1.
    10030    2    1    2    0    0  0.00000000000E+00  0.00000000000E+00 -0.87933822761E+03  0.28462588893E+04  0.27070193842E+04 0.  0.
        1    1    3    3  502    0  0.38204341532E+03 -0.62950204492E+03  0.75442135591E+03  0.10542208393E+04  0.50400001928E-02 0. -1.
       -1    1    3    3    0  502 -0.38204341532E+03  0.62950204492E+03 -0.16337595835E+04  0.17920380500E+04  0.50400001928E-02 0.  1.
</event>
<event>
 5   0  0.1932012E-06  0.2686462E+04  0.7818609E-02  0.8339411E-01
       -2   -1    0    0    0  501  0.00000000000E+00  0.00000000000E+00  0.13505108950E+04  0.13505108950E+04  0.25500000920E-02 0.  1.
        2   -1    0    0  501    0  0.00000000000E+00  0.00000000000E+00 -0.13359902293E+04  0.13359902293E+04  0.25500000920E-02 0. -1.
    10030    2    1    2    0    0  0.00000000000E+00  0.00000000000E+00  0.14520665680E+02  0.26865011243E+04  0.26864618815E+04 0.  0.
        2    1    3    3  502    0  0.48042136313E+03  0.45485754953E+03  0.11762809522E+04  0.13495691739E+04  0.25500000920E-02 0.  1.
       -2    1    3    3    0  502 -0.48042136313E+03 -0.45485754953E+03 -0.11617602866E+04  0.13369319504E+04  0.25500000920E-02 0. -1.
</event>
<event>
 5   0  0.1991277E-06  0.2701024E+04  0.7818609E-02  0.8334673E-01
        2   -1    0    0  501    0  0.00000000000E+00  0.00000000000E+00  0.18630283826E+04  0.18630283826E+04  0.25500000920E-02 0.  1.
       -2   -1    0    0    0  501  0.00000000000E+00  0.00000000000E+00 -0.97898832856E+03  0.97898832856E+03  0.25500000920E-02 0. -1.
    10030    2    1    2    0    0  0.00000000000E+00  0.00000000000E+00  0.88404005406E+03  0.28420167112E+04  0.27010242815E+04 0.  0.
        5    1    3    3  502    0  0.12537365422E+04  0.79277073465E+02  0.96359780787E+03  0.15832507688E+04  0.46999998093E+01 0.  1.
       -5    1    3    3    0  502 -0.12537365422E+04 -0.79277073465E+02 -0.79557753816E+02  0.12587659424E+04  0.46999998093E+01 0. -1.
</event>
<event>
 5   0  0.7335091E-07  0.2711723E+04  0.7818609E-02  0.8331211E-01
        1   -1    0    0  501    0  0.00000000000E+00  0.00000000000E+00  0.20097995979E+04  0.20097995979E+04  0.50400001928E-02 0.  1.
       -1   -1    0    0    0  501  0.00000000000E+00  0.00000000000E+00 -0.91469807860E+03  0.91469807861E+03  0.50400001928E-02 0. -1.
    10030    2    1    2    0    0  0.00000000000E+00  0.00000000000E+00  0.10951015193E+04  0.29244976765E+04  0.27117225747E+04 0.  0.
        3    1    3    3  502    0  0.26435274457E+03  0.11787692421E+04  0.12114687977E+04  0.17108582517E+04  0.10100000352E+00 0.  1.
       -3    1    3    3    0  502 -0.26435274457E+03 -0.11787692421E+04 -0.11636727838E+03  0.12136394248E+04  0.10100000352E+00 0. -1.
</event>
<event>
 5   0  0.7806808E-07  0.2698714E+04  0.7818609E-02  0.8335422E-01
        1   -1    0    0  501    0  0.00000000000E+00  0.00000000000E+00  0.71546930027E+03  0.71546930029E+03  0.50400001928E-02 0. -1.
       -1   -1    0    0    0  501  0.00000000000E+00  0.00000000000E+00 -0.25448536320E+04  0.25448536320E+04  0.50400001928E-02 0.  1.
    10030    2    1    2    0    0  0.00000000000E+00  0.00000000000E+00 -0.18293843317E+04  0.32603229323E+04  0.26987142475E+04 0.  0.
        5    1    3    3  502    0  0.67244182575E+03  0.10356780612E+03 -0.23224493015E+04  0.24200613933E+04  0.46999998093E+01 0.  1.
       -5    1    3    3    0  502 -0.67244182575E+03 -0.10356780612E+03  0.49306496975E+03  0.84026153898E+03  0.46999998093E+01 0. -1.
</event>
<event>
 5   0  0.1932012E-06  0.2701969E+04  0.7818609E-02  0.8334366E-01
       -2   -1    0    0    0  501  0.00000000000E+00  0.00000000000E+00  0.94662647690E+03  0.94662647690E+03  0.25500000920E-02 0. -1.
        2   -1    0    0  501    0  0.00000000000E+00  0.00000000000E+00 -0.19280664255E+04  0.19280664255E+04  0.25500000920E-02 0.  1.
    10030    2    1    2    0    0  0.00000000000E+00  0.00000000000E+00 -0.98143994855E+03  0.28746929024E+04  0.27019687101E+04 0.  0.
        2    1    3    3  502    0 -0.23876870916E+03  0.10443972853E+04  0.38492516435E+03  0.11383951722E+04  0.25500000920E-02 0. -1.
       -2    1    3    3    0  502  0.23876870916E+03 -0.10443972853E+04 -0.13663651129E+04  0.17362977301E+04  0.25500000920E-02 0.  1.
</event>
<event>
 5   0  0.7768032E-07  0.2694827E+04  0.7818609E-02  0.8336685E-01
        1   -1    0    0  501    0  0.00000000000E+00  0.00000000000E+00  0.17775010005E+04  0.17775010005E+04  0.50400001928E-02 0.  1.
       -1   -1    0    0    0  501  0.00000000000E+00  0.00000000000E+00 -0.10213906375E+04  0.10213906375E+04  0.50400001928E-02 0. -1.
    10030    2    1    2    0    0  0.00000000000E+00  0.00000000000E+00  0.75611036295E+03  0.27988916380E+04  0.26948268071E+04 0.  0.
        4    1    3    3  502    0  0.20606501826E+03  0.10206218903E+04 -0.51018326312E+03  0.11594914444E+04  0.12699999809E+01 0. -1.
       -4    1    3    3    0  502 -0.20606501826E+03 -0.10206218903E+04  0.12662936261E+04  0.16394001937E+04  0.12699999809E+01 0.  1.
</event>
<event>
 5   0  0.2063087E-06  0.2698196E+04  0.7818609E-02  0.8335591E-01
        2   -1    0    0  501    0  0.00000000000E+00  0.00000000000E+00  0.16914218164E+04  0.16914218164E+04  0.25500000920E-02 0. -1.
       -2   -1    0    0    0  501  0.00000000000E+00  0.00000000000E+00 -0.10760561865E+04  0.10760561865E+04  0.25500000920E-02 0.  1.
    10030    2    1    2    0    0  0.00000000000E+00  0.00000000000E+00  0.61536562991E+03  0.27674780028E+04  0.26981956263E+04 0.  0.
        3    1    3    3  502    0 -0.81789587263E+03 -0.78197076717E+03  0.10611424269E+04  0.15512753462E+04  0.10100000352E+00 0. -1.
       -3    1    3    3    0  502  0.81789587263E+03  0.78197076717E+03 -0.44577679701E+03  0.12162026567E+04  0.10100000352E+00 0.  1.
</event>
<event>
 5   0  0.1991277E-06  0.2644144E+04  0.7818609E-02  0.8353359E-01
        2   -1    0    0  501    0  0.00000000000E+00  0.00000000000E+00  0.11365732020E+04  0.11365732020E+04  0.25500000920E-02 0.  1.
       -2   -1    0    0    0  501  0.00000000000E+00  0.00000000000E+00 -0.15378452650E+04  0.15378452650E+04  0.25500000920E-02 0. -1.
    10030    2    1    2    0    0  0.00000000000E+00  0.00000000000E+00 -0.40127206298E+03  0.26744184670E+04  0.26441435037E+04 0.  0.
        5    1    3    3  502    0 -0.66004781830E+02 -0.13718469486E+03  0.11276696175E+04  0.11379091035E+04  0.46999998093E+01 0.  1.
       -5    1    3    3    0  502  0.66004781830E+02  0.13718469486E+03 -0.15289416804E+04  0.15365093634E+04  0.46999998093E+01 0. -1.
</event>
<event>
 5   0  0.2030645E-06  0.2698063E+04  0.7818609E-02  0.8335634E-01
       -2   -1    0    0    0  501  0.00000000000E+00  0.00000000000E+00  0.12773503958E+04  0.12773503958E+04  0.25500000920E-02 0.  1.
        2   -1    0    0  501    0  0.00000000000E+00  0.00000000000E+00 -0.14247355587E+04  0.14247355587E+04  0.25500000920E-02 0. -1.
    10030    2    1    2    0    0  0.00000000000E+00  0.00000000000E+00 -0.14738516286E+03  0.27020859545E+04  0.26980634016E+04 0.  0.
        1    1    3    3  502    0  0.37279609659E+02  0.12794936601E+04  0.35284465689E+03  0.13277775218E+04  0.50400001928E-02 0. -1.
       -1    1    3    3    0  502 -0.37279609659E+02 -0.12794936601E+04 -0.50022981975E+03  0.13743084327E+04  0.50400001928E-02 0.  1.
</event>
<event>
 5   0  0.7566905E-07  0.2701562E+04  0.7818609E-02  0.8334498E-01
       -1   -1    0    0    0  501  0.00000000000E+00  0.00000000000E+00  0.12848235861E+04  0.12848235861E+04  0.50400001928E-02 0.  1.
        1   -1    0    0  501    0  0.00000000000E+00  0.00000000000E+00 -0.14201244400E+04  0.14201244400E+04  0.50400001928E-02 0. -1.
    10030    2    1    2    0    0  0.00000000000E+00  0.00000000000E+00 -0.13530085389E+03  0.27049480262E+04  0.27015620487E+04 0.  0.
        1    1    3    3  502    0 -0.10834957417E+04  0.86366682984E+02  0.73534423368E+03  0.13123084120E+04  0.50400001928E-02 0.  1.
       -1    1    3    3    0  502  0.10834957417E+04 -0.86366682984E+02 -0.87064508757E+03  0.13926396141E+04  0.50400001928E-02 0. -1.
</event>
<event>
 5   0  0.2030645E-06  0.2699618E+04  0.7818609E-02  0.8335129E-01
       -2   -1    0    0    0  501  0.00000000000E+00  0.00000000000E+00  0.62298961453E+03  0.62298961453E+03  0.25500000920E-02 0.  1.
        2   -1    0    0  501    0  0.00000000000E+00  0.00000000000E+00 -0.29245831220E+04  0.29245831220E+04  0.25500000920E-02 0. -1.
    10030    2    1    2    0    0  0.00000000000E+00  0.00000000000E+00 -0.23015935075E+04  0.35475727366E+04  0.26996184263E+04 0.  0.
        1    1    3    3  502    0  0.66409804604E+03  0.10308747353E+03 -0.26890993475E+04  0.27718060074E+04  0.50400001928E-02 0. -1.
       -1    1    3    3    0  502 -0.66409804604E+03 -0.10308747353E+03  0.38750584002E+03  0.77576672913E+03  0.50400001928E-02 0.  1.
</event>
<event>
 5   0  0.7566905E-07  0.2687315E+04  0.7818609E-02  0.8339133E-01
       -1   -1    0    0    0  501  0.00000000000E+00  0.00000000000E+00  0.87275961578E+03  0.87275961579E+03  0.50400001928E-02 0.  1.
        1   -1    0    0  501    0  0.00000000000E+00  0.00000000000E+00 -0.20686283504E+04  0.20686283504E+04  0.50400001928E-02 0. -1.
    10030    2    1    2    0    0  0.00000000000E+00  0.00000000000E+00 -0.11958687346E+04  0.29413879662E+04  0.26873148564E+04 0.  0.
        1    1    3    3  502    0 -0.12497209758E+03 -0.83620684493E+03  0.54509560587E+03  0.10059767056E+04  0.50400001928E-02 0.  1.
       -1    1    3    3    0  502  0.12497209758E+03  0.83620684493E+03 -0.17409643405E+04  0.19354112606E+04  0.50400001928E-02 0. -1.
</event>
<event>
 5   0  0.1999104E-06  0.2701143E+04  0.7818609E-02  0.8334634E-01
       -2   -1    0    0    0  501  0.00000000000E+00  0.00000000000E+00  0.83620313271E+03  0.83620313271E+03  0.25500000920E-02 0.  1.
        2   -1    0    0  501    0  0.00000000000E+00  0.00000000000E+00 -0.21813399408E+04  0.21813399408E+04  0.25500000920E-02 0. -1.
    10030    2    1    2    0    0  0.00000000000E+00  0.00000000000E+00 -0.13451368081E+04  0.30175430735E+04  0.27011429374E+04 0.  0.
        4    1    3    3  502    0 -0.31984638687E+03 -0.12318415105E+04 -0.16762004884E+03  0.12836795986E+04  0.12699999809E+01 0.  1.
       -4    1    3    3    0  502  0.31984638687E+03  0.12318415105E+04 -0.11775167593E+04  0.17338634749E+04  0.12699999809E+01 0. -1.
</event>
<event>
 5   0  0.7566905E-07  0.2699515E+04  0.7818609E-02  0.8335162E-01
       -1   -1    0    0    0  501  0.00000000000E+00  0.00000000000E+00  0.12513499239E+04  0.12513499239E+04  0.50400001928E-02 0. -1.
        1   -1    0    0  501    0  0.00000000000E+00  0.00000000000E+00 -0.14559036984E+04  0.14559036984E+04  0.50400001928E-02 0.  1.
    10030    2    1    2    0    0  0.00000000000E+00  0.00000000000E+00 -0.20455377455E+03  0.27072536223E+04  0.26995147580E+04 0.  0.
        1    1    3    3  502    0 -0.11370744150E+04  0.51147319313E+03 -0.62077154307E+03  0.13928030590E+04  0.50400001928E-02 0.  1.
       -1    1    3    3    0  502  0.11370744150E+04 -0.51147319313E+03  0.41621776852E+03  0.13144505633E+04  0.50400001928E-02 0. -1.
</event>
<event>
 5   0  0.1991277E-06  0.2701532E+04  0.7818609E-02  0.8334508E-01
       -2   -1    0    0    0  501  0.00000000000E+00  0.00000000000E+00  0.83313758945E+03  0.83313758946E+03  0.25500000920E-02 0. -1.
        2   -1    0    0  501    0  0.00000000000E+00  0.00000000000E+00 -0.21899976050E+04  0.21899976050E+04  0.25500000920E-02 0.  1.
    10030    2    1    2    0    0  0.00000000000E+00  0.00000000000E+00 -0.13568600156E+04  0.30231351945E+04  0.27015323989E+04 0.  0.
        5    1    3    3  502    0  0.45271676942E+03  0.40961877834E+03  0.66991758667E+03  0.90639488073E+03  0.46999998093E+01 0. -1.
       -5    1    3    3    0  502 -0.45271676942E+03 -0.40961877834E+03 -0.20267776023E+04  0.21167403138E+04  0.46999998093E+01 0.  1.
</event>
<event>
 5   0  0.1991277E-06  0.2703598E+04  0.7818609E-02  0.8333838E-01
       -2   -1    0    0    0  501  0.00000000000E+00  0.00000000000E+00  0.16875399504E+04  0.16875399504E+04  0.25500000920E-02 0. -1.
        2   -1    0    0  501    0  0.00000000000E+00  0.00000000000E+00 -0.10828547432E+04  0.10828547432E+04  0.25500000920E-02 0.  1.
    10030    2    1    2    0    0  0.00000000000E+00  0.00000000000E+00  0.60468520727E+03  0.27703946936E+04  0.27035980763E+04 0.  0.
        5    1    3    3  502    0 -0.47828418994E+02  0.12068441475E+04 -0.31976332148E+03  0.12494122722E+04  0.46999998093E+01 0.  1.
       -5    1    3    3    0  502  0.47828418994E+02 -0.12068441475E+04  0.92444852875E+03  0.15209824214E+04  0.46999998093E+01 0. -1.
</event>
<event>
 5   0  0.1932012E-06  0.2700232E+04  0.7818609E-02  0.8334930E-01
        2   -1    0    0  501    0  0.00000000000E+00  0.00000000000E+00  0.14941932155E+04  0.14941932155E+04  0.25500000920E-02 0.  1.
       -2   -1    0    0    0  501  0.00000000000E+00  0.00000000000E+00 -0.12199313296E+04  0.12199313296E+04  0.25500000920E-02 0. -1.
    10030    2    1    2    0    0  0.00000000000E+00  0.00000000000E+00  0.27426188583E+03  0.27141245451E+04  0.27002319279E+04 0.  0.
        2    1    3    3  502    0 -0.10647170138E+04  0.80045693413E+03  0.35839870255E+03  0.13794213471E+04  0.25500000920E-02 0. -1.
       -2    1    3    3    0  502  0.10647170138E+04 -0.80045693413E+03 -0.84136816715E+02  0.13347031980E+04  0.25500000920E-02 0.  1.
</event>
<event>
 5   0  0.1932012E-06  0.2688862E+04  0.7818609E-02  0.8338628E-01
       -2   -1    0    0    0  501  0.00000000000E+00  0.00000000000E+00  0.11029427935E+04  0.11029427935E+04  0.25500000920E-02 0. -1.
        2   -1    0    0  501    0  0.00000000000E+00  0.00000000000E+00 -0.16387927863E+04  0.16387927863E+04  0.25500000920E-02 0.  1.
    10030    2    1    2    0    0  0.00000000000E+00  0.00000000000E+00 -0.53584999274E+03  0.27417355798E+04  0.26888619850E+04 0.  0.
        2    1    3    3  502    0 -0.49589964020E+03  0.11691618133E+04 -0.71777929192E+03  0.14587881651E+04  0.25500000920E-02 0. -1.
       -2    1    3    3    0  502  0.49589964020E+03 -0.11691618133E+04  0.18192929918E+03  0.12829474146E+04  0.25500000920E-02 0.  1.
</event>
<event>
 5   0  0.2030645E-06  0.2736498E+04  0.7818609E-02  0.8323259E-01
        2   -1    0    0  501    0  0.00000000000E+00  0.00000000000E+00  0.15741507137E+04  0.15741507137E+04  0.25500000920E-02 0.  1.
       -2   -1    0    0    0  501  0.00000000000E+00  0.00000000000E+00 -0.11892792614E+04  0.11892792614E+04  0.25500000920E-02 0. -1.
    10030    2    1    2    0    0  0.00000000000E+00  0.00000000000E+00  0.38487145231E+03  0.27634299751E+04  0.27364976142E+04 0.  0.
        1    1    3    3  502    0  0.13452535116E+04  0.17125087419E+03  0.37607965133E+03  0.14072916458E+04  0.50400001928E-02 0. -1.
       -1    1    3    3    0  502 -0.13452535116E+04 -0.17125087419E+03  0.87918009741E+01  0.13561383292E+04  0.50400001928E-02 0.  1.
</event>
<event>
 5   0  0.7806808E-07  0.2697992E+04  0.7818609E-02  0.8335657E-01
        1   -1    0    0  501    0  0.00000000000E+00  0.00000000000E+00  0.20184225376E+04  0.20184225376E+04  0.50400001928E-02 0. -1.
       -1   -1    0    0    0  501  0.00000000000E+00  0.00000000000E+00 -0.90159047114E+03  0.90159047116E+03  0.50400001928E-02 0.  1.
    10030    2    1    2    0    0  0.00000000000E+00  0.00000000000E+00  0.11168320665E+04  0.29200130088E+04  0.26979922362E+04 0.  0.
        5    1    3    3  502    0 -0.84135902596E+03  0.78956996460E+02 -0.57961150766E+03  0.10247393852E+04  0.46999998093E+01 0.  1.
       -5    1    3    3    0  502  0.84135902596E+03 -0.78956996460E+02  0.16964435741E+04  0.18952736235E+04  0.46999998093E+01 0. -1.
</event>
<event>
 5   0  0.7335091E-07  0.2691417E+04  0.7818609E-02  0.8337795E-01
        1   -1    0    0  501    0  0.00000000000E+00  0.00000000000E+00  0.77624024546E+03  0.77624024547E+03  0.50400001928E-02 0.  1.
       -1   -1    0    0    0  501  0.00000000000E+00  0.00000000000E+00 -0.23329519129E+04  0.23329519129E+04  0.50400001928E-02 0. -1.
    10030    2    1    2    0    0  0.00000000000E+00  0.00000000000E+00 -0.15567116674E+04  0.31091921583E+04  0.26914168503E+04 0.  0.
        3    1    3    3  502    0  0.10701876382E+04  0.78294319389E+03 -0.10433774754E+04  0.16872872288E+04  0.10100000352E+00 0. -1.
       -3    1    3    3    0  502 -0.10701876382E+04 -0.78294319389E+03 -0.51333419196E+03  0.14219049296E+04  0.10100000352E+00 0.  1.
</event>
<event>
 5   0  0.2063087E-06  0.2708865E+04  0.7818609E-02  0.8332134E-01
        2   -1    0    0  501    0  0.00000000000E+00  0.00000000000E+00  0.23476038996E+04  0.23476038996E+04  0.25500000920E-02 0.  1.
       -2   -1    0    0    0  501  0.00000000000E+00  0.00000000000E+00 -0.78142954091E+03  0.78142954092E+03  0.25500000920E-02 0. -1.
    10030    2    1    2    0    0  0.00000000000E+00  0.00000000000E+00  0.15661743587E+04  0.31290334405E+04  0.27088647346E+04 0.  0.
        3    1    3    3  502    0  0.88298030435E+03 -0.67005792980E+03  0.16821857308E+04  0.20145423029E+04  0.10100000352E+00 0. -1.
       -3    1    3    3    0  502 -0.88298030435E+03  0.67005792980E+03 -0.11601137210E+03  0.11144911376E+04  0.10100000352E+00 0.  1.
</event>
<event>
 5   0  0.7566905E-07  0.2695089E+04  0.7818609E-02  0.8336600E-01
       -1   -1    0    0    0  501  0.00000000000E+00  0.00000000000E+00  0.81813519162E+03  0.81813519164E+03  0.50400001928E-02 0.  1.
        1   -1    0    0  501    0  0.00000000000E+00  0.00000000000E+00 -0.22195304343E+04  0.22195304343E+04  0.50400001928E-02 0. -1.
    10030    2    1    2    0    0  0.00000000000E+00  0.00000000000E+00 -0.14013952427E+04  0.30376656259E+04  0.26950888350E+04 0.  0.
        1    1    3    3  502    0  0.10134331712E+04  0.19317216127E+03 -0.16777893286E+04  0.19696038453E+04  0.50400001928E-02 0. -1.
       -1    1    3    3    0  502 -0.10134331712E+04 -0.19317216127E+03  0.27639408595E+03  0.10680617806E+04  0.50400001928E-02 0.  1.
</event>
<event>
 5   0  0.1932012E-06  0.2692685E+04  0.7818609E-02  0.8337382E-01
        2   -1    0    0  501    0  0.00000000000E+00  0.00000000000E+00  0.13816372942E+04  0.13816372942E+04  0.25500000920E-02 0.  1.
       -2   -1    0    0    0  501  0.00000000000E+00  0.00000000000E+00 -0.13119494702E+04  0.13119494702E+04  0.25500000920E-02 0. -1.
    10030    2    1    2    0    0  0.00000000000E+00  0.00000000000E+00  0.69687823926E+02  0.26935867644E+04  0.26926851402E+04 0.  0.
        2    1    3    3  502    0 -0.12701340973E+04 -0.29139326779E+02  0.48058102936E+03  0.13583253849E+04  0.25500000920E-02 0.  1.
       -2    1    3    3    0  502  0.12701340973E+04  0.29139326779E+02 -0.41089320543E+03  0.13352613795E+04  0.25500000920E-02 0. -1.
</event>
<event>
 5   0  0.7768032E-07  0.2698568E+04  0.7818609E-02  0.8335470E-01
       -1   -1    0    0    0  501  0.00000000000E+00  0.00000000000E+00  0.81357387717E+03  0.81357387718E+03  0.50400001928E-02 0.  1.
        1   -1    0    0  501    0  0.00000000000E+00  0.00000000000E+00 -0.22377398228E+04  0.22377398228E+04  0.50400001928E-02 0. -1.
    10030    2    1    2    0    0  0.00000000000E+00  0.00000000000E+00 -0.14241659456E+04  0.30513137000E+04  0.26985675191E+04 0.  0.
        4    1    3    3  502    0  0.63927001714E+03  0.11533681006E+04 -0.38900487550E+03  0.13748638247E+04  0.12699999809E+01 0.  1.
       -4    1    3    3    0  502 -0.63927001714E+03 -0.11533681006E+04 -0.10351610701E+04  0.16764498753E+04  0.12699999809E+01 0. -1.
</event>
<event>
 5   0  0.7566905E-07  0.2695969E+04  0.7818609E-02  0.8336314E-01
       -1   -1    0    0    0  501  0.00000000000E+00  0.00000000000E+00  0.12240947608E+04  0.12240947608E+04  0.50400001928E-02 0. -1.
        1   -1    0    0  501    0  0.00000000000E+00  0.00000000000E+00 -0.14844135544E+04  0.14844135544E+04  0.50400001928E-02 0.  1.
    10030    2    1    2    0    0  0.00000000000E+00  0.00000000000E+00 -0.26031879362E+03  0.27085083152E+04  0.26959694766E+04 0.  0.
        1    1    3    3  502    0  0.84947488528E+03  0.11939338382E+03 -0.11748034109E+04  0.14546564595E+04  0.50400001928E-02 0.  1.
       -1    1    3    3    0  502 -0.84947488528E+03 -0.11939338382E+03  0.91448461726E+03  0.12538518557E+04  0.50400001928E-02 0. -1.
</event>
<event>
 5   0  0.7436613E-07  0.2698021E+04  0.7818609E-02  0.8335647E-01
       -1   -1    0    0    0  501  0.00000000000E+00  0.00000000000E+00  0.11685808139E+04  0.11685808139E+04  0.50400001928E-02 0. -1.
        1   -1    0    0  501    0  0.00000000000E+00  0.00000000000E+00 -0.15572991327E+04  0.15572991327E+04  0.50400001928E-02 0.  1.
    10030    2    1    2    0    0  0.00000000000E+00  0.00000000000E+00 -0.38871831888E+03  0.27258799466E+04  0.26980214143E+04 0.  0.
        2    1    3    3  502    0 -0.93422848962E+03  0.83625069611E+03 -0.69722507854E+03  0.14346500994E+04  0.25500000920E-02 0.  1.
       -2    1    3    3    0  502  0.93422848962E+03 -0.83625069611E+03  0.30850675966E+03  0.12912298472E+04  0.25500000920E-02 0. -1.
</event>
<event>
 5   0  0.7806808E-07  0.2699119E+04  0.7818609E-02  0.8335291E-01
       -1   -1    0    0    0  501  0.00000000000E+00  0.00000000000E+00  0.79575939080E+03  0.79575939081E+03  0.50400001928E-02 0. -1.
        1   -1    0    0  501    0  0.00000000000E+00  0.00000000000E+00 -0.22887703389E+04  0.22887703390E+04  0.50400001928E-02 0.  1.
    10030    2    1    2    0    0  0.00000000000E+00  0.00000000000E+00 -0.14930109481E+04  0.30845297298E+04  0.26991187381E+04 0.  0.
        5    1    3    3  502    0  0.48523389140E+03 -0.11209319037E+04 -0.90670493854E+02  0.12248197788E+04  0.46999998093E+01 0. -1.
       -5    1    3    3    0  502 -0.48523389140E+03  0.11209319037E+04 -0.14023404543E+04  0.18597099510E+04  0.46999998093E+01 0.  1.
</event>
<event>
 5   0  0.1999104E-06  0.2702880E+04  0.7818609E-02  0.8334071E-01
        2   -1    0    0  501    0  0.00000000000E+00  0.00000000000E+00  0.91495046393E+03  0.91495046394E+03  0.25500000920E-02 0.  1.
       -2   -1    0    0    0  501  0.00000000000E+00  0.00000000000E+00 -0.19961632876E+04  0.19961632876E+04  0.25500000920E-02 0. -1.
    10030    2    1    2    0    0  0.00000000000E+00  0.00000000000E+00 -0.10812128236E+04  0.29111137515E+04  0.27028803348E+04 0.  0.
        4    1    3    3  502    0  0.22507729569E+03 -0.46076004506E+03 -0.18873083381E+04  0.19557336179E+04  0.12699999809E+01 0. -1.
       -4    1    3    3    0  502 -0.22507729569E+03  0.46076004506E+03  0.80609551453E+03  0.95538013356E+03  0.12699999809E+01 0.  1.
</event>
<event>
 5   0  0.1999104E-06  0.2698573E+04  0.7818609E-02  0.8335468E-01
        2   -1    0    0  501    0  0.00000000000E+00  0.00000000000E+00  0.21320047274E+04  0.21320047274E+04  0.25500000920E-02 0. -1.
       -2   -1    0    0    0  501  0.00000000000E+00  0.00000000000E+00 -0.85392563007E+03  0.85392563008E+03  0.25500000920E-02 0.  1.
    10030    2    1    2    0    0  0.00000000000E+00  0.00000000000E+00  0.12780790973E+04  0.29859303575E+04  0.26985725709E+04 0.  0.
        4    1    3    3  502    0 -0.86515118931E+03  0.83844768087E+03  0.13112606898E+04  0.17806985437E+04  0.12699999809E+01 0. -1.
       -4    1    3    3    0  502  0.86515118931E+03 -0.83844768087E+03 -0.33181592528E+02  0.12052318138E+04  0.12699999809E+01 0.  1.
</event>
<event>
 5   0  0.7436613E-07  0.2700306E+04  0.7818609E-02  0.8334906E-01
        1   -1    0    0  501    0  0.00000000000E+00  0.00000000000E+00  0.21442466381E+04  0.21442466381E+04  0.50400001928E-02 0.  1.
       -1   -1    0    0    0  501  0.00000000000E+00  0.00000000000E+00 -0.85014158610E+03  0.85014158612E+03  0.50400001928E-02 0. -1.
    10030    2    1    2    0    0  0.00000000000E+00  0.00000000000E+00  0.12941050520E+04  0.29943882242E+04  0.27003060848E+04 0.  0.
        2    1    3    3  502    0  0.10868096157E+04 -0.61584394019E+03  0.12151921529E+04  0.17427308650E+04  0.25500000920E-02 0.  1.
       -2    1    3    3    0  502 -0.10868096157E+04  0.61584394019E+03  0.78912899143E+02  0.12516573593E+04  0.25500000920E-02 0. -1.
</event>
<event>
 5   0  0.1999104E-06  0.2692944E+04  0.7818609E-02  0.8337298E-01
       -2   -1    0    0    0  501  0.00000000000E+00  0.00000000000E+00  0.80967720938E+03  0.80967720939E+03  0.25500000920E-02 0. -1.
        2   -1    0    0  501    0  0.00000000000E+00  0.00000000000E+00 -0.22391480725E+04  0.22391480725E+04  0.25500000920E-02 0.  1.
    10030    2    1    2    0    0  0.00000000000E+00  0.00000000000E+00 -0.14294708631E+04  0.30488252819E+04  0.26929442347E+04 0.  0.
        4    1    3    3  502    0  0.17212632785E+03 -0.16124993698E-01  0.79716939497E+03  0.81554161768E+03  0.12699999809E+01 0. -1.
       -4    1    3    3    0  502 -0.17212632785E+03  0.16124993698E-01 -0.22266402581E+04  0.22332836642E+04  0.12699999809E+01 0.  1.
</event>
<event>
 5   0  0.2030645E-06  0.2693130E+04  0.7818609E-02  0.8337238E-01
        2   -1    0    0  501    0  0.00000000000E+00  0.00000000000E+00  0.17377000309E+04  0.17377000309E+04  0.25500000920E-02 0. -1.
       -2   -1    0    0    0  501  0.00000000000E+00  0.00000000000E+00 -0.10434693162E+04  0.10434693162E+04  0.25500000920E-02 0.  1.
    10030    2    1    2    0    0  0.00000000000E+00  0.00000000000E+00  0.69423071464E+03  0.27811693471E+04  0.26931295275E+04 0.  0.
        1    1    3    3  502    0  0.61485608718E+03 -0.10071108281E+04  0.10171050698E+04  0.15578263546E+04  0.50400001928E-02 0. -1.
       -1    1    3    3    0  502 -0.61485608718E+03  0.10071108281E+04 -0.32287435517E+03  0.12233429925E+04  0.50400001928E-02 0.  1.
</event>
<event>
 5   0  0.1999104E-06  0.2699446E+04  0.7818609E-02  0.8335185E-01
        2   -1    0    0  501    0  0.00000000000E+00  0.00000000000E+00  0.16102795409E+04  0.16102795409E+04  0.25500000920E-02 0. -1.
       -2   -1    0    0    0  501  0.00000000000E+00  0.00000000000E+00 -0.11313262801E+04  0.11313262801E+04  0.25500000920E-02 0.  1.
    10030    2    1    2    0    0  0.00000000000E+00  0.00000000000E+00  0.47895326086E+03  0.27416058210E+04  0.26994455452E+04 0.  0.
        4    1    3    3  502    0  0.14049328563E+03  0.46033701570E+03 -0.10412099387E+04  0.11470694315E+04  0.12699999809E+01 0.  1.
       -4    1    3    3    0  502 -0.14049328563E+03 -0.46033701570E+03  0.15201631995E+04  0.15945363895E+04  0.12699999809E+01 0. -1.
</event>
<event>
 5   0  0.7806808E-07  0.2698441E+04  0.7818609E-02  0.8335511E-01
        1   -1    0    0  501    0  0.00000000000E+00  0.00000000000E+00  0.14378041866E+04  0.14378041866E+04  0.50400001928E-02 0. -1.
       -1   -1    0    0    0  501  0.00000000000E+00  0.00000000000E+00 -0.12660941130E+04  0.12660941130E+04  0.50400001928E-02 0.  1.
    10030    2    1    2    0    0  0.00000000000E+00  0.00000000000E+00  0.17171007353E+03  0.27038982996E+04  0.26984405988E+04 0.  0.
        5    1    3    3  502    0 -0.12827711635E+04 -0.24939870656E+03  0.42220006855E+03  0.13733086181E+04  0.46999998093E+01 0.  1.
       -5    1    3    3    0  502  0.12827711635E+04  0.24939870656E+03 -0.25048999502E+03  0.13305896815E+04  0.46999998093E+01 0. -1.
</event>
<event>
 5   0  0.1991277E-06  0.2701014E+04  0.7818609E-02  0.8334676E-01
        2   -1    0    0  501    0  0.00000000000E+00  0.00000000000E+00  0.12334585204E+04  0.12334585204E+04  0.25500000920E-02 0.  1.
       -2   -1    0    0    0  501  0.00000000000E+00  0.00000000000E+00 -0.14786624432E+04  0.14786624432E+04  0.25500000920E-02 0. -1.
    10030    2    1    2    0    0  0.00000000000E+00  0.00000000000E+00 -0.24520392286E+03  0.27121209636E+04  0.27010137278E+04 0.  0.
        5    1    3    3  502    0 -0.70858809240E+03  0.44256150156E+03 -0.11880445166E+04  0.14523875622E+04  0.46999998093E+01 0. -1.
       -5    1    3    3    0  502  0.70858809240E+03 -0.44256150156E+03  0.94284059378E+03  0.12597334014E+04  0.46999998093E+01 0.  1.
</event>
<event>
 5   0  0.7806808E-07  0.2696916E+04  0.7818609E-02  0.8336006E-01
       -1   -1    0    0    0  501  0.00000000000E+00  0.00000000000E+00  0.10337477699E+04  0.10337477699E+04  0.50400001928E-02 0. -1.
        1   -1    0    0  501    0  0.00000000000E+00  0.00000000000E+00 -0.17589772257E+04  0.17589772257E+04  0.50400001928E-02 0.  1.
    10030    2    1    2    0    0  0.00000000000E+00  0.00000000000E+00 -0.72522945576E+03  0.27927249956E+04  0.26969158566E+04 0.  0.
        5    1    3    3  502    0  0.37057763262E+03 -0.67420765151E+03 -0.15094015170E+04  0.16941660983E+04  0.46999998093E+01 0.  1.
       -5    1    3    3    0  502 -0.37057763262E+03  0.67420765151E+03  0.78417206127E+03  0.10985588973E+04  0.46999998093E+01 0. -1.
</event>
<event>
 5   0  0.7335091E-07  0.2700608E+04  0.7818609E-02  0.8334808E-01
        1   -1    0    0  501    0  0.00000000000E+00  0.00000000000E+00  0.15869288055E+04  0.15869288055E+04  0.50400001928E-02 0. -1.
       -1   -1    0    0    0  501  0.00000000000E+00  0.00000000000E+00 -0.11489618047E+04  0.11489618047E+04  0.50400001928E-02 0.  1.
    10030    2    1    2    0    0  0.00000000000E+00  0.00000000000E+00  0.43796700077E+03  0.27358906102E+04  0.27006077718E+04 0.  0.
        3    1    3    3  502    0  0.11166667063E+04 -0.47152472109E+03  0.82177021975E+03  0.14644406440E+04  0.10100000352E+00 0. -1.
       -3    1    3    3    0  502 -0.11166667063E+04  0.47152472109E+03 -0.38380321898E+03  0.12714499662E+04  0.10100000352E+00 0.  1.
</event>
<event>
 5   0  0.1991277E-06  0.2704174E+04  0.7818609E-02  0.8333652E-01
       -2   -1    0    0    0  501  0.00000000000E+00  0.00000000000E+00  0.13909274380E+04  0.13909274380E+04  0.25500000920E-02 0.  1.
        2   -1    0    0  501    0  0.00000000000E+00  0.00000000000E+00 -0.13143312165E+04  0.13143312165E+04  0.25500000920E-02 0. -1.
    10030    2    1    2    0    0  0.00000000000E+00  0.00000000000E+00  0.76596221433E+02  0.27052586545E+04  0.27041740711E+04 0.  0.
        5    1    3    3  502    0  0.10040726571E+03  0.12274232257E+04  0.59661501292E+03  0.13684374146E+04  0.46999998093E+01 0.  1.
       -5    1    3    3    0  502 -0.10040726571E+03 -0.12274232257E+04 -0.52001879149E+03  0.13368212399E+04  0.46999998093E+01 0. -1.
</event>
<event>
 5   0  0.7566905E-07  0.2722111E+04  0.7818609E-02  0.8327866E-01
        1   -1    0    0  501    0  0.00000000000E+00  0.00000000000E+00  0.15953274405E+04  0.15953274405E+04  0.50400001928E-02 0.  1.
       -1   -1    0    0    0  501  0.00000000000E+00  0.00000000000E+00 -0.11611861683E+04  0.11611861683E+04  0.50400001928E-02 0. -1.
    10030    2    1    2    0    0  0.00000000000E+00  0.00000000000E+00  0.43414127222E+03  0.27565136088E+04  0.27221110615E+04 0.  0.
        1    1    3    3  502    0 -0.84238254987E+03 -0.63679261000E+03  0.10866190841E+04  0.15152076499E+04  0.50400001928E-02 0.  1.
       -1    1    3    3    0  502  0.84238254987E+03  0.63679261000E+03 -0.65247781186E+03  0.12413059588E+04  0.50400001928E-02 0. -1.
</event>
<event>
 5   0  0.7768032E-07  0.2699857E+04  0.7818609E-02  0.8335051E-01
        1   -1    0    0  501    0  0.00000000000E+00  0.00000000000E+00  0.17256310263E+04  0.17256310263E+04  0.50400001928E-02 0.  1.
       -1   -1    0    0    0  501  0.00000000000E+00  0.00000000000E+00 -0.10560233267E+04  0.10560233267E+04  0.50400001928E-02 0. -1.
    10030    2    1    2    0    0  0.00000000000E+00  0.00000000000E+00  0.66960769967E+03  0.27816543530E+04  0.26998567496E+04 0.  0.
        4    1    3    3  502    0 -0.49291795151E+03 -0.10205039473E+04 -0.42083918264E+03  0.12089266495E+04  0.12699999809E+01 0. -1.
       -4    1    3    3    0  502  0.49291795151E+03  0.10205039473E+04  0.10904468823E+04  0.15727277035E+04  0.12699999809E+01 0.  1.
</event>
<event>
 5   0  0.7806808E-07  0.2699225E+04  0.7818609E-02  0.8335256E-01
       -1   -1    0    0    0  501  0.00000000000E+00  0.00000000000E+00  0.15117072352E+04  0.15117072352E+04  0.50400001928E-02 0.  1.
        1   -1    0    0  501    0  0.00000000000E+00  0.00000000000E+00 -0.12048985509E+04  0.12048985510E+04  0.50400001928E-02 0. -1.
    10030    2    1    2    0    0  0.00000000000E+00  0.00000000000E+00  0.30680868423E+03  0.27166057861E+04  0.26992249681E+04 0.  0.
        5    1    3    3  502    0 -0.19217413692E+03  0.13122477256E+03 -0.11845470449E+04  0.12071970143E+04  0.46999998093E+01 0. -1.
       -5    1    3    3    0  502  0.19217413692E+03 -0.13122477256E+03  0.14913557291E+04  0.15094087718E+04  0.46999998093E+01 0.  1.
</event>
<event>
 5   0  0.7566905E-07  0.2681918E+04  0.7818609E-02  0.8340896E-01
       -1   -1    0    0    0  501  0.00000000000E+00  0.00000000000E+00  0.61364613117E+03  0.61364613119E+03  0.50400001928E-02 0. -1.
        1   -1    0    0  501    0  0.00000000000E+00  0.00000000000E+00 -0.29303061944E+04  0.29303061944E+04  0.50400001928E-02 0.  1.
    10030    2    1    2    0    0  0.00000000000E+00  0.00000000000E+00 -0.23166600632E+04  0.35439523255E+04  0.26819180147E+04 0.  0.
        1    1    3    3  502    0  0.35916107083E+02  0.63584952038E+03 -0.27177098219E+04  0.27913332398E+04  0.50400001928E-02 0.  1.
       -1    1    3    3    0  502 -0.35916107083E+02 -0.63584952038E+03  0.40104975871E+03  0.75261908579E+03  0.50400001928E-02 0. -1.
</event>
<event>
 5   0  0.7566905E-07  0.2699922E+04  0.7818609E-02  0.8335030E-01
       -1   -1    0    0    0  501  0.00000000000E+00  0.00000000000E+00  0.21018945220E+04  0.21018945220E+04  0.50400001928E-02 0.  1.
        1   -1    0    0  501    0  0.00000000000E+00  0.00000000000E+00 -0.86702449216E+03  0.86702449218E+03  0.50400001928E-02 0. -1.
    10030    2    1    2    0    0  0.00000000000E+00  0.00000000000E+00  0.12348700298E+04  0.29689190142E+04  0.26999215030E+04 0.  0.
        1    1    3    3  502    0 -0.13121338535E+04 -0.21101989899E+03  0.87804859407E+03  0.15928571753E+04  0.50400001928E-02 0. -1.
       -1    1    3    3    0  502  0.13121338535E+04  0.21101989899E+03  0.35682143578E+03  0.13760618389E+04  0.50400001928E-02 0.  1.
</event>
<event>
 5   0  0.1999104E-06  0.2699706E+04  0.7818609E-02  0.8335100E-01
       -2   -1    0    0    0  501  0.00000000000E+00  0.00000000000E+00  0.13785616981E+04  0.13785616982E+04  0.25500000920E-02 0.  1.
        2   -1    0    0  501    0  0.00000000000E+00  0.00000000000E+00 -0.13217417604E+04  0.13217417604E+04  0.25500000920E-02 0. -1.
    10030    2    1    2    0    0  0.00000000000E+00  0.00000000000E+00  0.56819937707E+02  0.27003034586E+04  0.26997055882E+04 0.  0.
        4    1    3    3  502    0 -0.80875885074E+03  0.43109533105E+03  0.10196727769E+04  0.13710099372E+04  0.12699999809E+01 0.  1.
       -4    1    3    3    0  502  0.80875885074E+03 -0.43109533105E+03 -0.96285283920E+03  0.13292935214E+04  0.12699999809E+01 0. -1.
</event>
<event>
 5   0  0.7768032E-07  0.2700311E+04  0.7818609E-02  0.8334904E-01
        1   -1    0    0  501    0  0.00000000000E+00  0.00000000000E+00  0.10667000812E+04  0.10667000812E+04  0.50400001928E-02 0.  1.
       -1   -1    0    0    0  501  0.00000000000E+00  0.00000000000E+00 -0.17089341087E+04  0.17089341087E+04  0.50400001928E-02 0. -1.
    10030    2    1    2    0    0  0.00000000000E+00  0.00000000000E+00 -0.64223402752E+03  0.27756341899E+04  0.27003112062E+04 0.  0.
        4    1    3    3  502    0  0.71364436273E+03 -0.28661021258E+03 -0.14617947007E+04  0.16517502990E+04  0.12699999809E+01 0. -1.
       -4    1    3    3    0  502 -0.71364436273E+03  0.28661021258E+03  0.81956067317E+03  0.11238838909E+04  0.12699999809E+01 0.  1.
</event>
<event>
 5   0  0.7566905E-07  0.2700120E+04  0.7818609E-02  0.8334966E-01
       -1   -1    0    0    0  501  0.00000000000E+00  0.00000000000E+00  0.96320473166E+03  0.96320473168E+03  0.50400001928E-02 0. -1.
        1   -1    0    0  501    0  0.00000000000E+00  0.00000000000E+00 -0.18922895487E+04  0.18922895487E+04  0.50400001928E-02 0.  1.
    10030    2    1    2    0    0  0.00000000000E+00  0.00000000000E+00 -0.92908481700E+03  0.28554942803E+04  0.27001201803E+04 0.  0.
        1    1    3    3  502    0  0.11305572523E+04 -0.48151142643E+03  0.12678352354E+03  0.12353489452E+04  0.50400001928E-02 0. -1.
       -1    1    3    3    0  502 -0.11305572523E+04  0.48151142643E+03 -0.10558683405E+04  0.16201453352E+04  0.50400001928E-02 0.  1.
</event>
<event>
 5   0  0.7335091E-07  0.2693063E+04  0.7818609E-02  0.8337259E-01
        1   -1    0    0  501    0  0.00000000000E+00  0.00000000000E+00  0.26544107158E+04  0.26544107158E+04  0.50400001928E-02 0.  1.
       -1   -1    0    0    0  501  0.00000000000E+00  0.00000000000E+00 -0.68306933166E+03  0.68306933168E+03  0.50400001928E-02 0. -1.
    10030    2    1    2    0    0  0.00000000000E+00  0.00000000000E+00  0.19713413841E+04  0.33374800475E+04  0.26930626087E+04 0.  0.
        3    1    3    3  502    0 -0.84666346700E+02 -0.13181351970E+04  0.13100180756E+04  0.18603215196E+04  0.10100000352E+00 0.  1.
       -3    1    3    3    0  502  0.84666346700E+02  0.13181351970E+04  0.66132330850E+03  0.14771585278E+04  0.10100000352E+00 0. -1.
</event>
<event>
 5   0  0.7335091E-07  0.2701359E+04  0.7818609E-02  0.8334564E-01
       -1   -1    0    0    0  501  0.00000000000E+00  0.00000000000E+00  0.25210575835E+04  0.25210575835E+04  0.50400001928E-02 0. -1.
        1   -1    0    0  501    0  0.00000000000E+00  0.00000000000E+00 -0.72363899455E+03  0.72363899457E+03  0.50400001928E-02 0.  1.
    10030    2    1    2    0    0  0.00000000000E+00  0.00000000000E+00  0.17974185889E+04  0.32446965781E+04  0.27013593430E+04 0.  0.
        3    1    3    3  502    0  0.25275469857E+03 -0.50170088405E+03  0.23740758003E+04  0.24396361677E+04  0.10100000352E+00 0. -1.
       -3    1    3    3    0  502 -0.25275469857E+03  0.50170088405E+03 -0.57665721140E+03  0.80506041038E+03  0.10100000352E+00 0.  1.
</event>
<event>
 5   0  0.1999104E-06  0.2697938E+04  0.7818609E-02  0.8335674E-01
        2   -1    0    0  501    0  0.00000000000E+00  0.00000000000E+00  0.21802427652E+04  0.21802427652E+04  0.25500000920E-02 0. -1.
       -2   -1    0    0    0  501  0.00000000000E+00  0.00000000000E+00 -0.83464009263E+03  0.83464009263E+03  0.25500000920E-02 0.  1.
    10030    2    1    2    0    0  0.00000000000E+00  0.00000000000E+00  0.13456026726E+04  0.30148828578E+04  0.26979384897E+04 0.  0.
        4    1    3    3  502    0  0.71729018000E+03 -0.10782861625E+04  0.10946545019E+04  0.16957229556E+04  0.12699999809E+01 0. -1.
       -4    1    3    3    0  502 -0.71729018000E+03  0.10782861625E+04  0.25094817066E+03  0.13191599023E+04  0.12699999809E+01 0.  1.
</event>
<event>
 5   0  0.7436613E-07  0.2704348E+04  0.7818609E-02  0.8333596E-01
       -1   -1    0    0    0  501  0.00000000000E+00  0.00000000000E+00  0.94051045046E+03  0.94051045048E+03  0.50400001928E-02 0. -1.
        1   -1    0    0  501    0  0.00000000000E+00  0.00000000000E+00 -0.19440236057E+04  0.19440236057E+04  0.50400001928E-02 0.  1.
    10030    2    1    2    0    0  0.00000000000E+00  0.00000000000E+00 -0.10035131553E+04  0.28845340562E+04  0.27043479933E+04 0.  0.
        2    1    3    3  502    0  0.94103317731E+03 -0.95652461194E+03 -0.32362089448E+03  0.13802946270E+04  0.25500000920E-02 0.  1.
       -2    1    3    3    0  502 -0.94103317731E+03  0.95652461194E+03 -0.67989226079E+03  0.15042394292E+04  0.25500000920E-02 0. -1.
</event>
<event>
 5   0  0.7768032E-07  0.2708897E+04  0.7818609E-02  0.8332124E-01
       -1   -1    0    0    0  501  0.00000000000E+00  0.00000000000E+00  0.95338372820E+03  0.95338372821E+03  0.50400001928E-02 0. -1.
        1   -1    0    0  501    0  0.00000000000E+00  0.00000000000E+00 -0.19242308015E+04  0.19242308015E+04  0.50400001928E-02 0.  1.
    10030    2    1    2    0    0  0.00000000000E+00  0.00000000000E+00 -0.97084707334E+03  0.28776145298E+04  0.27088967020E+04 0.  0.
        4    1    3    3  502    0 -0.10634041426E+04  0.19706113160E+03  0.38075545839E+03  0.11465765531E+04  0.12699999809E+01 0. -1.
       -4    1    3    3    0  502  0.10634041426E+04 -0.19706113160E+03 -0.13516025317E+04  0.17310379767E+04  0.12699999809E+01 0.  1.
</event>
<event>
 5   0  0.1999104E-06  0.2697698E+04  0.7818609E-02  0.8335752E-01
        2   -1    0    0  501    0  0.00000000000E+00  0.00000000000E+00  0.19010347687E+04  0.19010347687E+04  0.25500000920E-02 0. -1.
       -2   -1    0    0    0  501  0.00000000000E+00  0.00000000000E+00 -0.95705418783E+03  0.95705418783E+03  0.25500000920E-02 0.  1.
    10030    2    1    2    0    0  0.00000000000E+00  0.00000000000E+00  0.94398058091E+03  0.28580889566E+04  0.26976977493E+04 0.  0.
        4    1    3    3  502    0 -0.56528876612E+03 -0.96875873131E+03  0.12657665027E+04  0.16912159297E+04  0.12699999809E+01 0. -1.
       -4    1    3    3    0  502  0.56528876612E+03  0.96875873131E+03 -0.32178592176E+03  0.11668730269E+04  0.12699999809E+01 0.  1.
</event>
<event>
 5   0  0.1991277E-06  0.2698871E+04  0.7818609E-02  0.8335371E-01
       -2   -1    0    0    0  501  0.00000000000E+00  0.00000000000E+00  0.23035796247E+04  0.23035796247E+04  0.25500000920E-02 0. -1.
        2   -1    0    0  501    0  0.00000000000E+00  0.00000000000E+00 -0.79049850140E+03  0.79049850141E+03  0.25500000920E-02 0.  1.
    10030    2    1    2    0    0  0.00000000000E+00  0.00000000000E+00  0.15130811233E+04  0.30940781261E+04  0.26988710538E+04 0.  0.
        5    1    3    3  502    0  0.26177155812E+03 -0.70794092825E+03 -0.52585229149E+03  0.91991707723E+03  0.46999998093E+01 0.  1.
       -5    1    3    3    0  502 -0.26177155812E+03  0.70794092825E+03  0.20389334148E+04  0.21741610489E+04  0.46999998093E+01 0. -1.
</event>
<event>
 5   0  0.7768032E-07  0.2691050E+04  0.7818609E-02  0.8337915E-01
       -1   -1    0    0    0  501  0.00000000000E+00  0.00000000000E+00  0.12321497816E+04  0.12321497817E+04  0.50400001928E-02 0. -1.
        1   -1    0    0  501    0  0.00000000000E+00  0.00000000000E+00 -0.14693325781E+04  0.14693325781E+04  0.50400001928E-02 0.  1.
    10030    2    1    2    0    0  0.00000000000E+00  0.00000000000E+00 -0.23718279647E+03  0.27014823598E+04  0.26910502153E+04 0.  0.
        4    1    3    3  502    0 -0.12767529913E+04  0.20221635077E+03  0.25628165196E+03  0.13178283467E+04  0.12699999809E+01 0. -1.
       -4    1    3    3    0  502  0.12767529913E+04 -0.20221635077E+03 -0.49346444843E+03  0.13836540131E+04  0.12699999809E+01 0.  1.
</event>
<event>
 5   0  0.1999104E-06  0.2697914E+04  0.7818609E-02  0.8335682E-01
       -2   -1    0    0    0  501  0.00000000000E+00  0.00000000000E+00  0.12143797840E+04  0.12143797840E+04  0.25500000920E-02 0. -1.
        2   -1    0    0  501    0  0.00000000000E+00  0.00000000000E+00 -0.14984480746E+04  0.14984480746E+04  0.25500000920E-02 0.  1.
    10030    2    1    2    0    0  0.00000000000E+00  0.00000000000E+00 -0.28406829064E+03  0.27128278586E+04  0.26979140455E+04 0.  0.
        4    1    3    3  502    0 -0.12422675597E+04  0.49027637246E+03 -0.33304164170E+03  0.13764148935E+04  0.12699999809E+01 0.  1.
       -4    1    3    3    0  502  0.12422675597E+04 -0.49027637246E+03  0.48973351059E+02  0.13364129651E+04  0.12699999809E+01 0. -1.
</event>
<event>
 5   0  0.2063087E-06  0.2701540E+04  0.7818609E-02  0.8334505E-01
        2   -1    0    0  501    0  0.00000000000E+00  0.00000000000E+00  0.19381154558E+04  0.19381154558E+04  0.25500000920E-02 0. -1.
       -2   -1    0    0    0  501  0.00000000000E+00  0.00000000000E+00 -0.94141963354E+03  0.94141963354E+03  0.25500000920E-02 0.  1.
    10030    2    1    2    0    0  0.00000000000E+00  0.00000000000E+00  0.99669582229E+03  0.28795350894E+04  0.27015402586E+04 0.  0.
        3    1    3    3  502    0 -0.29443261492E+02 -0.54044011310E+03 -0.82078613148E+03  0.98317460571E+03  0.10100000352E+00 0.  1.
       -3    1    3    3    0  502  0.29443261492E+02  0.54044011310E+03  0.18174819538E+04  0.18963604837E+04  0.10100000352E+00 0. -1.
</event>
<event>
 5   0  0.7806808E-07  0.2718122E+04  0.7818609E-02  0.8329149E-01
        1   -1    0    0  501    0  0.00000000000E+00  0.00000000000E+00  0.13299281240E+04  0.13299281240E+04  0.50400001928E-02 0.  1.
       -1   -1    0    0    0  501  0.00000000000E+00  0.00000000000E+00 -0.13888324730E+04  0.13888324730E+04  0.50400001928E-02 0. -1.
    10030    2    1    2    0    0  0.00000000000E+00  0.00000000000E+00 -0.58904349029E+02  0.27187605970E+04  0.27181224147E+04 0.  0.
        5    1    3    3  502    0 -0.10829834826E+03  0.34550034327E+03  0.12807890659E+04  0.13309927651E+04  0.46999998093E+01 0.  1.
       -5    1    3    3    0  502  0.10829834826E+03 -0.34550034327E+03 -0.13396934149E+04  0.13877678319E+04  0.46999998093E+01 0. -1.
</event>
<event>
 5   0  0.1932012E-06  0.2706319E+04  0.7818609E-02  0.8332958E-01
       -2   -1    0    0    0  501  0.00000000000E+00  0.00000000000E+00  0.13568274849E+04  0.13568274849E+04  0.25500000920E-02 0.  1.
        2   -1    0    0  501    0  0.00000000000E+00  0.00000000000E+00 -0.13495011663E+04  0.13495011663E+04  0.25500000920E-02 0. -1.
    10030    2    1    2    0    0  0.00000000000E+00  0.00000000000E+00  0.73263186067E+01  0.27063286513E+04  0.27063187347E+04 0.  0.
        2    1    3    3  502    0 -0.12279375450E+03 -0.45515378049E+03 -0.12647251067E+04  0.13497306641E+04  0.25500000920E-02 0. -1.
       -2    1    3    3    0  502  0.12279375450E+03  0.45515378049E+03  0.12720514253E+04  0.13565979872E+04  0.25500000920E-02 0.  1.
</event>
<event>
 5   0  0.6561875E-07  0.2691863E+04  0.7818609E-02  0.8337650E-01
       -3   -1    0    0    0  501  0.00000000000E+00  0.00000000000E+00  0.93671125966E+03  0.93671126510E+03  0.10100000352E+00 0. -1.
        3   -1    0    0  501    0  0.00000000000E+00  0.00000000000E+00 -0.19339276218E+04  0.19339276244E+04  0.10100000352E+00 0.  1.
    10030    2    1    2    0    0  0.00000000000E+00  0.00000000000E+00 -0.99721636213E+03  0.28706388895E+04  0.26918631394E+04 0.  0.
        4    1    3    3  502    0  0.20208280803E+03  0.22316624683E+03  0.90034147632E+03  0.94934557559E+03  0.12699999809E+01 0. -1.
       -4    1    3    3    0  502 -0.20208280803E+03 -0.22316624683E+03 -0.18975578384E+04  0.19212933139E+04  0.12699999809E+01 0.  1.
</event>
<event>
 5   0  0.1932012E-06  0.2697494E+04  0.7818609E-02  0.8335819E-01
        2   -1    0    0  501    0  0.00000000000E+00  0.00000000000E+00  0.21830532584E+04  0.21830532584E+04  0.25500000920E-02 0.  1.
       -2   -1    0    0    0  501  0.00000000000E+00  0.00000000000E+00 -0.83329064297E+03  0.83329064297E+03  0.25500000920E-02 0. -1.
    10030    2    1    2    0    0  0.00000000000E+00  0.00000000000E+00  0.13497626155E+04  0.30163439014E+04  0.26974935428E+04 0.  0.
        2    1    3    3  502    0  0.57616258667E+02  0.30622285833E+03 -0.79249082131E+03  0.85154786953E+03  0.25500000920E-02 0. -1.
       -2    1    3    3    0  502 -0.57616258667E+02 -0.30622285833E+03  0.21422534368E+04  0.21647960319E+04  0.25500000920E-02 0.  1.
</event>
<event>
 5   0  0.7335091E-07  0.2703910E+04  0.7818609E-02  0.8333737E-01
        1   -1    0    0  501    0  0.00000000000E+00  0.00000000000E+00  0.19396209618E+04  0.19396209618E+04  0.50400001928E-02 0.  1.
       -1   -1    0    0    0  501  0.00000000000E+00  0.00000000000E+00 -0.94234007363E+03  0.94234007365E+03  0.50400001928E-02 0. -1.
    10030    2    1    2    0    0  0.00000000000E+00  0.00000000000E+00  0.99728088816E+03  0.28819610354E+04  0.27039101760E+04 0.  0.
        3    1    3    3  502    0  0.74330299601E+03 -0.90488115647E+03  0.12187582239E+04  0.16901718462E+04  0.10100000352E+00 0.  1.
       -3    1    3    3    0  502 -0.74330299601E+03  0.90488115647E+03 -0.22147733569E+03  0.11917891893E+04  0.10100000352E+00 0. -1.
</event>
<event>
 5   0  0.2063087E-06  0.2651368E+04  0.7818609E-02  0.8350959E-01
       -2   -1    0    0    0  501  0.00000000000E+00  0.00000000000E+00  0.10952151635E+04  0.10952151635E+04  0.25500000920E-02 0.  1.
        2   -1    0    0  501    0  0.00000000000E+00  0.00000000000E+00 -0.16046515639E+04  0.16046515639E+04  0.25500000920E-02 0. -1.
    10030    2    1    2    0    0  0.00000000000E+00  0.00000000000E+00 -0.50943640036E+03  0.26998667274E+04  0.26513684957E+04 0.  0.
        3    1    3    3  502    0  0.40551245971E+03 -0.76286681520E+03  0.76917535886E+03  0.11567354389E+04  0.10100000352E+00 0.  1.
       -3    1    3    3    0  502 -0.40551245971E+03  0.76286681520E+03 -0.12786117592E+04  0.15431312886E+04  0.10100000352E+00 0. -1.
</event>
<event>
 5   0  0.7768032E-07  0.2695602E+04  0.7818609E-02  0.8336433E-01
        1   -1    0    0  501    0  0.00000000000E+00  0.00000000000E+00  0.10831932934E+04  0.10831932934E+04  0.50400001928E-02 0. -1.
       -1   -1    0    0    0  501  0.00000000000E+00  0.00000000000E+00 -0.16770488217E+04  0.16770488217E+04  0.50400001928E-02 0.  1.
    10030    2    1    2    0    0  0.00000000000E+00  0.00000000000E+00 -0.59385552835E+03  0.27602421151E+04  0.26956023716E+04 0.  0.
        4    1    3    3  502    0  0.12306203546E+04 -0.70448118441E+02 -0.85513950456E+03  0.15002181774E+04  0.12699999809E+01 0.  1.
       -4    1    3    3    0  502 -0.12306203546E+04  0.70448118441E+02  0.26128397621E+03  0.12600239377E+04  0.12699999809E+01 0. -1.
</event>
<event>
 5   0  0.7566905E-07  0.2663793E+04  0.7818609E-02  0.8346849E-01
        1   -1    0    0  501    0  0.00000000000E+00  0.00000000000E+00  0.12202564389E+04  0.12202564389E+04  0.50400001928E-02 0.  1.
       -1   -1    0    0    0  501  0.00000000000E+00  0.00000000000E+00 -0.14537506625E+04  0.14537506625E+04  0.50400001928E-02 0. -1.
    10030    2    1    2    0    0  0.00000000000E+00  0.00000000000E+00 -0.23349422353E+03  0.26740071014E+04  0.26637932401E+04 0.  0.
        1    1    3    3  502    0 -0.30992578578E+03 -0.28373307709E+03  0.11519780281E+04  0.12262185078E+04  0.50400001928E-02 0.  1.
       -1    1    3    3    0  502  0.30992578578E+03  0.28373307709E+03 -0.13854722516E+04  0.14477885936E+04  0.50400001928E-02 0. -1.
</event>
<event>
 5   0  0.1932012E-06  0.2699930E+04  0.7818609E-02  0.8335028E-01
        2   -1    0    0  501    0  0.00000000000E+00  0.00000000000E+00  0.17966520608E+04  0.17966520608E+04  0.25500000920E-02 0. -1.
       -2   -1    0    0    0  501  0.00000000000E+00  0.00000000000E+00 -0.10143344802E+04  0.10143344802E+04  0.25500000920E-02 0.  1.
    10030    2    1    2    0    0  0.00000000000E+00  0.00000000000E+00  0.78231758059E+03  0.28109865410E+04  0.26999304689E+04 0.  0.
        2    1    3    3  502    0  0.44646818978E+03 -0.89555008659E+03  0.13345552682E+04  0.16680472313E+04  0.25500000920E-02 0. -1.
       -2    1    3    3    0  502 -0.44646818978E+03  0.89555008659E+03 -0.55223768759E+03  0.11429393097E+04  0.25500000920E-02 0.  1.
</event>
<event>
 5   0  0.7335091E-07  0.2714503E+04  0.7818609E-02  0.8330314E-01
       -1   -1    0    0    0  501  0.00000000000E+00  0.00000000000E+00  0.85821087930E+03  0.85821087932E+03  0.50400001928E-02 0.  1.
        1   -1    0    0  501    0  0.00000000000E+00  0.00000000000E+00 -0.21464793480E+04  0.21464793480E+04  0.50400001928E-02 0. -1.
    10030    2    1    2    0    0  0.00000000000E+00  0.00000000000E+00 -0.12882684687E+04  0.30046902273E+04  0.27145032169E+04 0.  0.
        3    1    3    3  502    0 -0.10486210018E+04 -0.78023142111E+03 -0.10489713623E+04  0.16759200473E+04  0.10100000352E+00 0. -1.
       -3    1    3    3    0  502  0.10486210018E+04  0.78023142111E+03 -0.23929710642E+03  0.13287701800E+04  0.10100000352E+00 0.  1.
</event>
<event>
 5   0  0.1999104E-06  0.2695469E+04  0.7818609E-02  0.8336477E-01
        2   -1    0    0  501    0  0.00000000000E+00  0.00000000000E+00  0.19738522769E+04  0.19738522769E+04  0.25500000920E-02 0. -1.
       -2   -1    0    0    0  501  0.00000000000E+00  0.00000000000E+00 -0.92022523376E+03  0.92022523376E+03  0.25500000920E-02 0.  1.
    10030    2    1    2    0    0  0.00000000000E+00  0.00000000000E+00  0.10536270431E+04  0.28940775107E+04  0.26954692897E+04 0.  0.
        4    1    3    3  502    0  0.94145217783E+02 -0.35252445922E+02  0.19698204871E+04  0.19723844507E+04  0.12699999809E+01 0. -1.
       -4    1    3    3    0  502 -0.94145217783E+02  0.35252445922E+02 -0.91619344401E+03  0.92169305993E+03  0.12699999809E+01 0.  1.
</event>
<event>
 5   0  0.2063087E-06  0.2697813E+04  0.7818609E-02  0.8335715E-01
        2   -1    0    0  501    0  0.00000000000E+00  0.00000000000E+00  0.20064951205E+04  0.20064951205E+04  0.25500000920E-02 0.  1.
       -2   -1    0    0    0  501  0.00000000000E+00  0.00000000000E+00 -0.90682905765E+03  0.90682905765E+03  0.25500000920E-02 0. -1.
    10030    2    1    2    0    0  0.00000000000E+00  0.00000000000E+00  0.10996660629E+04  0.29133241782E+04  0.26978125060E+04 0.  0.
        3    1    3    3  502    0  0.60293503776E+03  0.76280849718E+03 -0.45980963932E+03  0.10755614244E+04  0.10100000352E+00 0. -1.
       -3    1    3    3    0  502 -0.60293503776E+03 -0.76280849718E+03  0.15594757022E+04  0.18377627538E+04  0.10100000352E+00 0.  1.
</event>
<event>
 5   0  0.6561875E-07  0.2703607E+04  0.7818609E-02  0.8333835E-01
        4   -1    0    0  501    0  0.00000000000E+00  0.00000000000E+00  0.10384271486E+04  0.10384279252E+04  0.12699999809E+01 0.  1.
       -4   -1    0    0    0  501  0.00000000000E+00  0.00000000000E+00 -0.17597492223E+04  0.17597496806E+04  0.12699999809E+01 0. -1.
    10030    2    1    2    0    0  0.00000000000E+00  0.00000000000E+00 -0.72132207368E+03  0.27981776058E+04  0.27036072902E+04 0.  0.
        5    1    3    3  502    0  0.58144434425E+03 -0.26707171781E+03  0.87176691794E+03  0.10813900671E+04  0.46999998093E+01 0.  1.
       -5    1    3    3    0  502 -0.58144434425E+03  0.26707171781E+03 -0.15930889916E+04  0.17167875387E+04  0.46999998093E+01 0. -1.
</event>
<event>
 5   0  0.7768032E-07  0.2698201E+04  0.7818609E-02  0.8335589E-01
       -1   -1    0    0    0  501  0.00000000000E+00  0.00000000000E+00  0.13648390261E+04  0.13648390261E+04  0.50400001928E-02 0. -1.
        1   -1    0    0  501    0  0.00000000000E+00  0.00000000000E+00 -0.13335431002E+04  0.13335431002E+04  0.50400001928E-02 0.  1.
    10030    2    1    2    0    0  0.00000000000E+00  0.00000000000E+00  0.31295925917E+02  0.26983821262E+04  0.26982006345E+04 0.  0.
        4    1    3    3  502    0  0.13409353287E+04 -0.99063281061E+02  0.12587771453E+03  0.13504695115E+04  0.12699999809E+01 0.  1.
       -4    1    3    3    0  502 -0.13409353287E+04  0.99063281061E+02 -0.94581788617E+02  0.13479126148E+04  0.12699999809E+01 0. -1.
</event>
<event>
 5   0  0.7335091E-07  0.2700122E+04  0.7818609E-02  0.8334965E-01
        1   -1    0    0  501    0  0.00000000000E+00  0.00000000000E+00  0.13420980532E+04  0.13420980532E+04  0.50400001928E-02 0.  1.
       -1   -1    0    0    0  501  0.00000000000E+00  0.00000000000E+00 -0.13580715458E+04  0.13580715458E+04  0.50400001928E-02 0. -1.
    10030    2    1    2    0    0  0.00000000000E+00  0.00000000000E+00 -0.15973492623E+02  0.27001695990E+04  0.27001223511E+04 0.  0.
        3    1    3    3  502    0  0.12097178315E+04 -0.41682155572E+03 -0.43870036197E+03  0.13526327879E+04  0.10100000352E+00 0. -1.
       -3    1    3    3    0  502 -0.12097178315E+04  0.41682155572E+03  0.42272686934E+03  0.13475368111E+04  0.10100000352E+00 0.  1.
</event>
<event>
 5   0  0.7806808E-07  0.2704224E+04  0.7818609E-02  0.8333636E-01
       -1   -1    0    0    0  501  0.00000000000E+00  0.00000000000E+00  0.19411660044E+04  0.19411660044E+04  0.50400001928E-02 0.  1.
        1   -1    0    0  501    0  0.00000000000E+00  0.00000000000E+00 -0.94180875252E+03  0.94180875254E+03  0.50400001928E-02 0. -1.
    10030    2    1    2    0    0  0.00000000000E+00  0.00000000000E+00  0.99935725184E+03  0.28829747569E+04  0.27042242015E+04 0.  0.
        5    1    3    3  502    0  0.11960554869E+04 -0.61588538410E+03  0.64398275668E+03  0.14915091066E+04  0.46999998093E+01 0.  1.
       -5    1    3    3    0  502 -0.11960554869E+04  0.61588538410E+03  0.35537449516E+03  0.13914656503E+04  0.46999998093E+01 0. -1.
</event>
<event>
 5   0  0.1999104E-06  0.2696117E+04  0.7818609E-02  0.8336266E-01
       -2   -1    0    0    0  501  0.00000000000E+00  0.00000000000E+00  0.12537327577E+04  0.12537327577E+04  0.25500000920E-02 0. -1.
        2   -1    0    0  501    0  0.00000000000E+00  0.00000000000E+00 -0.14494804579E+04  0.14494804579E+04  0.25500000920E-02 0.  1.
    10030    2    1    2    0    0  0.00000000000E+00  0.00000000000E+00 -0.19574770026E+03  0.27032132156E+04  0.26961165640E+04 0.  0.
        4    1    3    3  502    0 -0.11030385079E+04  0.88918633039E+01  0.67907649299E+03  0.12953453251E+04  0.12699999809E+01 0. -1.
       -4    1    3    3    0  502  0.11030385079E+04 -0.88918633039E+01 -0.87482419324E+03  0.14078678905E+04  0.12699999809E+01 0.  1.
</event>
<event>
 5   0  0.2030645E-06  0.2699811E+04  0.7818609E-02  0.8335066E-01
        2   -1    0    0  501    0  0.00000000000E+00  0.00000000000E+00  0.50974151786E+03  0.50974151787E+03  0.25500000920E-02 0. -1.
       -2   -1    0    0    0  501  0.00000000000E+00  0.00000000000E+00 -0.35748415759E+04  0.35748415759E+04  0.25500000920E-02 0.  1.
    10030    2    1    2    0    0  0.00000000000E+00  0.00000000000E+00 -0.30651000580E+04  0.40845830937E+04  0.26998112312E+04 0.  0.
        1    1    3    3  502    0  0.24841290552E+03 -0.98812796325E+03 -0.19283955191E+03  0.10369633244E+04  0.50400001928E-02 0.  1.
       -1    1    3    3    0  502 -0.24841290552E+03  0.98812796325E+03 -0.28722605061E+04  0.30476197693E+04  0.50400001928E-02 0. -1.
</event>
<event>
 5   0  0.1991277E-06  0.2682689E+04  0.7818609E-02  0.8340644E-01
        2   -1    0    0  501    0  0.00000000000E+00  0.00000000000E+00  0.13623831030E+04  0.13623831030E+04  0.25500000920E-02 0. -1.
       -2   -1    0    0    0  501  0.00000000000E+00  0.00000000000E+00 -0.13206310630E+04  0.13206310630E+04  0.25500000920E-02 0.  1.
    10030    2    1    2    0    0  0.00000000000E+00  0.00000000000E+00  0.41752039918E+02  0.26830141660E+04  0.26826892817E+04 0.  0.
        5    1    3    3  502    0 -0.13335471081E+04  0.14271173843E+03 -0.77898594449E+00  0.13411700961E+04  0.46999998093E+01 0. -1.
       -5    1    3    3    0  502  0.13335471081E+04 -0.14271173843E+03  0.42531025863E+02  0.13418440699E+04  0.46999998093E+01 0.  1.
</event>
<event>
 5   0  0.1999104E-06  0.2698329E+04  0.7818609E-02  0.8335547E-01
        2   -1    0    0  501    0  0.00000000000E+00  0.00000000000E+00  0.13432413398E+04  0.13432413398E+04  0.25500000920E-02 0. -1.
       -2   -1    0    0    0  501  0.00000000000E+00  0.00000000000E+00 -0.13551133345E+04  0.13551133345E+04  0.25500000920E-02 0.  1.
    10030    2    1    2    0    0  0.00000000000E+00  0.00000000000E+00 -0.11871994665E+02  0.26983546743E+04  0.26983285574E+04 0.  0.
        4    1    3    3  502    0 -0.94916524092E+03  0.88274235492E+03  0.36835884665E+03  0.13475305461E+04  0.12699999809E+01 0. -1.
       -4    1    3    3    0  502  0.94916524092E+03 -0.88274235492E+03 -0.38023084132E+03  0.13508241282E+04  0.12699999809E+01 0.  1.
</event>
<event>
 5   0  0.1932012E-06  0.2699394E+04  0.7818609E-02  0.8335202E-01
       -2   -1    0    0    0  501  0.00000000000E+00  0.00000000000E+00  0.11895876130E+04  0.11895876130E+04  0.25500000920E-02 0. -1.
        2   -1    0    0  501    0  0.00000000000E+00  0.00000000000E+00 -0.15313559379E+04  0.15313559379E+04  0.25500000920E-02 0.  1.
    10030    2    1    2    0    0  0.00000000000E+00  0.00000000000E+00 -0.34176832497E+03  0.27209435509E+04  0.26993940467E+04 0.  0.
        2    1    3    3  502    0 -0.73183166283E+03  0.48026942464E+03 -0.12064344755E+04  0.14905436749E+04  0.25500000920E-02 0.  1.
       -2    1    3    3    0  502  0.73183166283E+03 -0.48026942464E+03  0.86466615057E+03  0.12303998760E+04  0.25500000920E-02 0. -1.
</event>
<event>
 5   0  0.1991277E-06  0.2702510E+04  0.7818609E-02  0.8334191E-01
       -2   -1    0    0    0  501  0.00000000000E+00  0.00000000000E+00  0.12650254094E+04  0.12650254094E+04  0.25500000920E-02 0. -1.
        2   -1    0    0  501    0  0.00000000000E+00  0.00000000000E+00 -0.14433623450E+04  0.14433623450E+04  0.25500000920E-02 0.  1.
    10030    2    1    2    0    0  0.00000000000E+00  0.00000000000E+00 -0.17833693561E+03  0.27083877544E+04  0.27025099752E+04 0.  0.
        5    1    3    3  502    0 -0.89543960030E+03 -0.87506298847E+03  0.42018948316E+03  0.13206546117E+04  0.46999998093E+01 0. -1.
       -5    1    3    3    0  502  0.89543960030E+03  0.87506298847E+03 -0.59852641877E+03  0.13877331428E+04  0.46999998093E+01 0.  1.
</event>
<event>
 5   0  0.1991277E-06  0.2701254E+04  0.7818609E-02  0.8334598E-01
        2   -1    0    0  501    0  0.00000000000E+00  0.00000000000E+00  0.21277279653E+04  0.21277279653E+04  0.25500000920E-02 0. -1.
       -2   -1    0    0    0  501  0.00000000000E+00  0.00000000000E+00 -0.85734340104E+03  0.85734340104E+03  0.25500000920E-02 0.  1.
    10030    2    1    2    0    0  0.00000000000E+00  0.00000000000E+00  0.12703845642E+04  0.29850713663E+04  0.27012541755E+04 0.  0.
        5    1    3    3  502    0  0.78149006830E+03  0.38023489906E+03 -0.50729382090E+03  0.10063172542E+04  0.46999998093E+01 0.  1.
       -5    1    3    3    0  502 -0.78149006830E+03 -0.38023489906E+03  0.17776783851E+04  0.19787541121E+04  0.46999998093E+01 0. -1.
</event>
<event>
 5   0  0.7436613E-07  0.2698825E+04  0.7818609E-02  0.8335386E-01
       -1   -1    0    0    0  501  0.00000000000E+00  0.00000000000E+00  0.15757496396E+04  0.15757496397E+04  0.50400001928E-02 0.  1.
        1   -1    0    0  501    0  0.00000000000E+00  0.00000000000E+00 -0.11555859417E+04  0.11555859417E+04  0.50400001928E-02 0. -1.
    10030    2    1    2    0    0  0.00000000000E+00  0.00000000000E+00  0.42016369793E+03  0.27313355814E+04  0.26988250268E+04 0.  0.
        2    1    3    3  502    0  0.25719731359E+03 -0.78508879502E+03 -0.86972887273E+03  0.11995595801E+04  0.25500000920E-02 0. -1.
       -2    1    3    3    0  502 -0.25719731359E+03  0.78508879502E+03  0.12898925707E+04  0.15317760013E+04  0.25500000920E-02 0.  1.
</event>
<event>
 5   0  0.7436613E-07  0.2698838E+04  0.7818609E-02  0.8335382E-01
        1   -1    0    0  501    0  0.00000000000E+00  0.00000000000E+00  0.16492627857E+04  0.16492627857E+04  0.50400001928E-02 0. -1.
       -1   -1    0    0    0  501  0.00000000000E+00  0.00000000000E+00 -0.11040881219E+04  0.11040881219E+04  0.50400001928E-02 0.  1.
    10030    2    1    2    0    0  0.00000000000E+00  0.00000000000E+00  0.54517466378E+03  0.27533509076E+04  0.26988378622E+04 0.  0.
        2    1    3    3  502    0 -0.12179165647E+04  0.41830896359E+03 -0.13883024018E+03  0.12952131034E+04  0.25500000920E-02 0. -1.
       -2    1    3    3    0  502  0.12179165647E+04 -0.41830896359E+03  0.68400490396E+03  0.14581378043E+04  0.25500000920E-02 0.  1.
</event>
<event>
 5   0  0.7436613E-07  0.2713297E+04  0.7818609E-02  0.8330704E-01
       -1   -1    0    0    0  501  0.00000000000E+00  0.00000000000E+00  0.23711592064E+04  0.23711592064E+04  0.50400001928E-02 0. -1.
        1   -1    0    0  501    0  0.00000000000E+00  0.00000000000E+00 -0.77620043679E+03  0.77620043681E+03  0.50400001928E-02 0.  1.
    10030    2    1    2    0    0  0.00000000000E+00  0.00000000000E+00  0.15949587696E+04  0.31473596432E+04  0.27132967488E+04 0.  0.
        2    1    3    3  502    0  0.68398020974E+03  0.61654814734E+03 -0.35815866325E+03  0.98804765744E+03  0.25500000920E-02 0.  1.
       -2    1    3    3    0  502 -0.68398020974E+03 -0.61654814734E+03  0.19531174328E+04  0.21593119857E+04  0.25500000920E-02 0. -1.
</event>
<event>
 5   0  0.7806808E-07  0.2693890E+04  0.7818609E-02  0.8336990E-01
       -1   -1    0    0    0  501  0.00000000000E+00  0.00000000000E+00  0.83704770722E+03  0.83704770723E+03  0.50400001928E-02 0. -1.
        1   -1    0    0  501    0  0.00000000000E+00  0.00000000000E+00 -0.21674524999E+04  0.21674524999E+04  0.50400001928E-02 0.  1.
    10030    2    1    2    0    0  0.00000000000E+00  0.00000000000E+00 -0.13304047927E+04  0.30045002072E+04  0.26938902321E+04 0.  0.
        5    1    3    3  502    0  0.45678130546E+03  0.10112643736E+03  0.74350938454E+03  0.87846685325E+03  0.46999998093E+01 0. -1.
       -5    1    3    3    0  502 -0.45678130546E+03 -0.10112643736E+03 -0.20739141773E+04  0.21260333539E+04  0.46999998093E+01 0.  1.
</event>
<event>
 5   0  0.1991277E-06  0.2702664E+04  0.7818609E-02  0.8334141E-01
        2   -1    0    0  501    0  0.00000000000E+00  0.00000000000E+00  0.13796633307E+04  0.13796633307E+04  0.25500000920E-02 0.  1.
       -2   -1    0    0    0  501  0.00000000000E+00  0.00000000000E+00 -0.13235825149E+04  0.13235825149E+04  0.25500000920E-02 0. -1.
    10030    2    1    2    0    0  0.00000000000E+00  0.00000000000E+00  0.56080815841E+02  0.27032458456E+04  0.27026640642E+04 0.  0.
        5    1    3    3  502    0  0.12575183633E+03  0.48661382262E+03  0.12826906079E+04  0.13776515605E+04  0.46999998093E+01 0.  1.
       -5    1    3    3    0  502 -0.12575183633E+03 -0.48661382262E+03 -0.12266097920E+04  0.13255942851E+04  0.46999998093E+01 0. -1.
</event>
<event>
 5   0  0.7335091E-07  0.2701291E+04  0.7818609E-02  0.8334586E-01
       -1   -1    0    0    0  501  0.00000000000E+00  0.00000000000E+00  0.11709626056E+04  0.11709626056E+04  0.50400001928E-02 0. -1.
        1   -1    0    0  501    0  0.00000000000E+00  0.00000000000E+00 -0.15579010204E+04  0.15579010204E+04  0.50400001928E-02 0.  1.
    10030    2    1    2    0    0  0.00000000000E+00  0.00000000000E+00 -0.38693841477E+03  0.27288636261E+04  0.27012914232E+04 0.  0.
        3    1    3    3  502    0  0.11563300892E+04  0.36198377265E+03  0.40937331832E+03  0.12789519345E+04  0.10100000352E+00 0. -1.
       -3    1    3    3    0  502 -0.11563300892E+04 -0.36198377265E+03 -0.79631173309E+03  0.14499116915E+04  0.10100000352E+00 0.  1.
</event>
<event>
 5   0  0.7436613E-07  0.2703386E+04  0.7818609E-02  0.8333907E-01
       -1   -1    0    0    0  501  0.00000000000E+00  0.00000000000E+00  0.74123644185E+03  0.74123644186E+03  0.50400001928E-02 0.  1.
        1   -1    0    0  501    0  0.00000000000E+00  0.00000000000E+00 -0.24649010462E+04  0.24649010462E+04  0.50400001928E-02 0. -1.
    10030    2    1    2    0    0  0.00000000000E+00  0.00000000000E+00 -0.17236646044E+04  0.32061374881E+04  0.27033863808E+04 0.  0.
        2    1    3    3  502    0  0.11232245634E+04  0.70122981949E+03 -0.11838355171E+04  0.17761822010E+04  0.25500000920E-02 0. -1.
       -2    1    3    3    0  502 -0.11232245634E+04 -0.70122981949E+03 -0.53982908726E+03  0.14299552871E+04  0.25500000920E-02 0.  1.
</event>
<event>
 5   0  0.7806808E-07  0.2699671E+04  0.7818609E-02  0.8335112E-01
        1   -1    0    0  501    0  0.00000000000E+00  0.00000000000E+00  0.15387594099E+04  0.15387594099E+04  0.50400001928E-02 0.  1.
       -1   -1    0    0    0  501  0.00000000000E+00  0.00000000000E+00 -0.11841067167E+04  0.11841067167E+04  0.50400001928E-02 0. -1.
    10030    2    1    2    0    0  0.00000000000E+00  0.00000000000E+00  0.35465269318E+03  0.27228661266E+04  0.26996706115E+04 0.  0.
        5    1    3    3  502    0  0.25204294587E+02 -0.21686029358E+03  0.15208259939E+04  0.15364235865E+04  0.46999998093E+01 0.  1.
       -5    1    3    3    0  502 -0.25204294587E+02  0.21686029358E+03 -0.11661733008E+04  0.11864425400E+04  0.46999998093E+01 0. -1.
</event>
<event>
 5   0  0.1932012E-06  0.2701355E+04  0.7818609E-02  0.8334565E-01
       -2   -1    0    0    0  501  0.00000000000E+00  0.00000000000E+00  0.86629782455E+03  0.86629782456E+03  0.25500000920E-02 0. -1.
        2   -1    0    0  501    0  0.00000000000E+00  0.00000000000E+00 -0.21058926109E+04  0.21058926109E+04  0.25500000920E-02 0.  1.
    10030    2    1    2    0    0  0.00000000000E+00  0.00000000000E+00 -0.12395947863E+04  0.29721904354E+04  0.27013553543E+04 0.  0.
        2    1    3    3  502    0  0.10848488878E+03 -0.10234903697E+04 -0.15821489927E+04  0.18874577991E+04  0.25500000920E-02 0.  1.
       -2    1    3    3    0  502 -0.10848488878E+03  0.10234903697E+04  0.34255420641E+03  0.10847326364E+04  0.25500000920E-02 0. -1.
</event>
<event>
 5   0  0.1999104E-06  0.2702148E+04  0.7818609E-02  0.8334308E-01
       -2   -1    0    0    0  501  0.00000000000E+00  0.00000000000E+00  0.20953547157E+04  0.20953547157E+04  0.25500000920E-02 0.  1.
        2   -1    0    0  501    0  0.00000000000E+00  0.00000000000E+00 -0.87116564527E+03  0.87116564527E+03  0.25500000920E-02 0. -1.
    10030    2    1    2    0    0  0.00000000000E+00  0.00000000000E+00  0.12241890705E+04  0.29665203610E+04  0.27021480663E+04 0.  0.
        4    1    3    3  502    0 -0.84083124525E+03 -0.31392144709E+03  0.17207778898E+04  0.19407787141E+04  0.12699999809E+01 0.  1.
       -4    1    3    3    0  502  0.84083124525E+03  0.31392144709E+03 -0.49658881934E+03  0.10257416470E+04  0.12699999809E+01 0. -1.
</event>
<event>
 5   0  0.7335091E-07  0.2700688E+04  0.7818609E-02  0.8334782E-01
       -1   -1    0    0    0  501  0.00000000000E+00  0.00000000000E+00  0.12027388387E+04  0.12027388387E+04  0.50400001928E-02 0. -1.
        1   -1    0    0  501    0  0.00000000000E+00  0.00000000000E+00 -0.15160635386E+04  0.15160635386E+04  0.50400001928E-02 0.  1.
    10030    2    1    2    0    0  0.00000000000E+00  0.00000000000E+00 -0.31332469985E+03  0.27188023773E+04  0.27006876901E+04 0.  0.
        3    1    3    3  502    0  0.10517889330E+04 -0.15637227171E+03 -0.99454068606E+03  0.14559613434E+04  0.10100000352E+00 0.  1.
       -3    1    3    3    0  502 -0.10517889330E+04  0.15637227171E+03  0.68121598621E+03  0.12628410340E+04  0.10100000352E+00 0. -1.
</event>
<event>
 5   0  0.1932012E-06  0.2709196E+04  0.7818609E-02  0.8332027E-01
        2   -1    0    0  501    0  0.00000000000E+00  0.00000000000E+00  0.19307488539E+04  0.19307488539E+04  0.25500000920E-02 0.  1.
       -2   -1    0    0    0  501  0.00000000000E+00  0.00000000000E+00 -0.95037516288E+03  0.95037516289E+03  0.25500000920E-02 0. -1.
    10030    2    1    2    0    0  0.00000000000E+00  0.00000000000E+00  0.98037369098E+03  0.28811240168E+04  0.27091960110E+04 0.  0.
        2    1    3    3  502    0  0.36463449726E+03 -0.81161655413E+03 -0.59603109779E+03  0.10709494932E+04  0.25500000920E-02 0. -1.
       -2    1    3    3    0  502 -0.36463449726E+03  0.81161655413E+03  0.15764047888E+04  0.18101745235E+04  0.25500000920E-02 0.  1.
</event>
<event>
 5   0  0.7806808E-07  0.2694449E+04  0.7818609E-02  0.8336808E-01
       -1   -1    0    0    0  501  0.00000000000E+00  0.00000000000E+00  0.11523606938E+04  0.11523606938E+04  0.50400001928E-02 0.  1.
        1   -1    0    0  501    0  0.00000000000E+00  0.00000000000E+00 -0.15750392796E+04  0.15750392796E+04  0.50400001928E-02 0. -1.
    10030    2    1    2    0    0  0.00000000000E+00  0.00000000000E+00 -0.42267858572E+03  0.27273999734E+04  0.26944486316E+04 0.  0.
        5    1    3    3  502    0  0.35015328884E+03  0.92537420865E+03 -0.11368881281E+04  0.15071368410E+04  0.46999998093E+01 0. -1.
       -5    1    3    3    0  502 -0.35015328884E+03 -0.92537420865E+03  0.71420954242E+03  0.12202631324E+04  0.46999998093E+01 0.  1.
</event>
<event>
 5   0  0.7566905E-07  0.2698403E+04  0.7818609E-02  0.8335523E-01
       -1   -1    0    0    0  501  0.00000000000E+00  0.00000000000E+00  0.91941137148E+03  0.91941137149E+03  0.50400001928E-02 0. -1.
        1   -1    0    0  501    0  0.00000000000E+00  0.00000000000E+00 -0.19799025219E+04  0.19799025219E+04  0.50400001928E-02 0.  1.
    10030    2    1    2    0    0  0.00000000000E+00  0.00000000000E+00 -0.10604911504E+04  0.28993138934E+04  0.26984031523E+04 0.  0.
        1    1    3    3  502    0  0.90920223860E+03 -0.54925948543E+03 -0.14240544223E+04  0.17765882164E+04  0.50400001928E-02 0.  1.
       -1    1    3    3    0  502 -0.90920223860E+03  0.54925948543E+03  0.36356327191E+03  0.11227256770E+04  0.50400001928E-02 0. -1.
</event>
<event>
 5   0  0.7768032E-07  0.2692962E+04  0.7818609E-02  0.8337292E-01
       -1   -1    0    0    0  501  0.00000000000E+00  0.00000000000E+00  0.76632323534E+03  0.76632323535E+03  0.50400001928E-02 0. -1.
        1   -1    0    0  501    0  0.00000000000E+00  0.00000000000E+00 -0.23658573926E+04  0.23658573926E+04  0.50400001928E-02 0.  1.
    10030    2    1    2    0    0  0.00000000000E+00  0.00000000000E+00 -0.15995341573E+04  0.31321806280E+04  0.26929623031E+04 0.  0.
        4    1    3    3  502    0  0.36008132807E+03 -0.48050102338E+03 -0.22015156526E+04  0.22819317645E+04  0.12699999809E+01 0.  1.
       -4    1    3    3    0  502 -0.36008132807E+03  0.48050102338E+03  0.60198149530E+03  0.85024886349E+03  0.12699999809E+01 0. -1.
</event>
<event>
 5   0  0.7806808E-07  0.2696098E+04  0.7818609E-02  0.8336272E-01
       -1   -1    0    0    0  501  0.00000000000E+00  0.00000000000E+00  0.17889093961E+04  0.17889093961E+04  0.50400001928E-02 0.  1.
        1   -1    0    0  501    0  0.00000000000E+00  0.00000000000E+00 -0.10158346654E+04  0.10158346654E+04  0.50400001928E-02 0. -1.
    10030    2    1    2    0    0  0.00000000000E+00  0.00000000000E+00  0.77307473067E+03  0.28047440615E+04  0.26960980529E+04 0.  0.
        5    1    3    3  502    0 -0.12180375551E+04  0.36001105927E+03  0.85639109008E+03  0.15318783364E+04  0.46999998093E+01 0.  1.
       -5    1    3    3    0  502  0.12180375551E+04 -0.36001105927E+03 -0.83316359408E+02  0.12728657251E+04  0.46999998093E+01 0. -1.
</event>
<event>
 5   0  0.7566905E-07  0.2696452E+04  0.7818609E-02  0.8336157E-01
        1   -1    0    0  501    0  0.00000000000E+00  0.00000000000E+00  0.26679866796E+04  0.26679866796E+04  0.50400001928E-02 0. -1.
       -1   -1    0    0    0  501  0.00000000000E+00  0.00000000000E+00 -0.68130533836E+03  0.68130533838E+03  0.50400001928E-02 0.  1.
    10030    2    1    2    0    0  0.00000000000E+00  0.00000000000E+00  0.19866813412E+04  0.33492920179E+04  0.26964521635E+04 0.  0.
        1    1    3    3  502    0 -0.21503268799E+03 -0.47511939225E+03 -0.55094615181E+03  0.75862978851E+03  0.50400001928E-02 0.  1.
       -1    1    3    3    0  502  0.21503268799E+03  0.47511939225E+03  0.25376274930E+04  0.25906622294E+04  0.50400001928E-02 0. -1.
</event>
<event>
 5   0  0.2063087E-06  0.2698339E+04  0.7818609E-02  0.8335544E-01
       -2   -1    0    0    0  501  0.00000000000E+00  0.00000000000E+00  0.16011856314E+04  0.16011856314E+04  0.25500000920E-02 0.  1.
        2   -1    0    0  501    0  0.00000000000E+00  0.00000000000E+00 -0.11368189725E+04  0.11368189725E+04  0.25500000920E-02 0. -1.
    10030    2    1    2    0    0  0.00000000000E+00  0.00000000000E+00  0.46436665899E+03  0.27380046039E+04  0.26983388996E+04 0.  0.
        3    1    3    3  502    0 -0.24292894203E+03 -0.12774593485E+04 -0.13274396828E+03  0.13071104885E+04  0.10100000352E+00 0. -1.
       -3    1    3    3    0  502  0.24292894203E+03  0.12774593485E+04  0.59711062727E+03  0.14308941154E+04  0.10100000352E+00 0.  1.
</event>
<event>
 5   0  0.2063087E-06  0.2696861E+04  0.7818609E-02  0.8336024E-01
       -2   -1    0    0    0  501  0.00000000000E+00  0.00000000000E+00  0.99806538059E+03  0.99806538059E+03  0.25500000920E-02 0. -1.
        2   -1    0    0  501    0  0.00000000000E+00  0.00000000000E+00 -0.18217896208E+04  0.18217896208E+04  0.25500000920E-02 0.  1.
    10030    2    1    2    0    0  0.00000000000E+00  0.00000000000E+00 -0.82372424024E+03  0.28198550014E+04  0.26968612506E+04 0.  0.
        3    1    3    3  502    0 -0.80779733759E+03  0.76678807946E+03 -0.12066361265E+04  0.16420935569E+04  0.10100000352E+00 0.  1.
       -3    1    3    3    0  502  0.80779733759E+03 -0.76678807946E+03  0.38291188630E+03  0.11777614446E+04  0.10100000352E+00 0. -1.
</event>
<event>
 5   0  0.7806808E-07  0.2701405E+04  0.7818609E-02  0.8334549E-01
       -1   -1    0    0    0  501  0.00000000000E+00  0.00000000000E+00  0.10931512735E+04  0.10931512735E+04  0.50400001928E-02 0. -1.
        1   -1    0    0  501    0  0.00000000000E+00  0.00000000000E+00 -0.16689336004E+04  0.16689336004E+04  0.50400001928E-02 0.  1.
    10030    2    1    2    0    0  0.00000000000E+00  0.00000000000E+00 -0.57578232686E+03  0.27620848739E+04  0.27014047388E+04 0.  0.
        5    1    3    3  502    0 -0.74071915156E+03 -0.36257261733E+03  0.80583353488E+03  0.11530453331E+04  0.46999998093E+01 0. -1.
       -5    1    3    3    0  502  0.74071915156E+03  0.36257261733E+03 -0.13816158617E+04  0.16090395408E+04  0.46999998093E+01 0.  1.
</event>
<event>
 5   0  0.7335091E-07  0.2701142E+04  0.7818609E-02  0.8334635E-01
        1   -1    0    0  501    0  0.00000000000E+00  0.00000000000E+00  0.18556386206E+04  0.18556386206E+04  0.50400001928E-02 0. -1.
       -1   -1    0    0    0  501  0.00000000000E+00  0.00000000000E+00 -0.98297238532E+03  0.98297238533E+03  0.50400001928E-02 0.  1.
    10030    2    1    2    0    0  0.00000000000E+00  0.00000000000E+00  0.87266623524E+03  0.28386110059E+04  0.27011416262E+04 0.  0.
        3    1    3    3  502    0 -0.22513510046E+03 -0.81561669891E+03 -0.66991596169E+03  0.10792144453E+04  0.10100000352E+00 0.  1.
       -3    1    3    3    0  502  0.22513510046E+03  0.81561669891E+03  0.15425821969E+04  0.17593965606E+04  0.10100000352E+00 0. -1.
</event>
<event>
 5   0  0.7335091E-07  0.2700243E+04  0.7818609E-02  0.8334926E-01
       -1   -1    0    0    0  501  0.00000000000E+00  0.00000000000E+00  0.11224220477E+04  0.11224220477E+04  0.50400001928E-02 0. -1.
        1   -1    0    0  501    0  0.00000000000E+00  0.00000000000E+00 -0.16240129701E+04  0.16240129701E+04  0.50400001928E-02 0.  1.
    10030    2    1    2    0    0  0.00000000000E+00  0.00000000000E+00 -0.50159092240E+03  0.27464350177E+04  0.27002429249E+04 0.  0.
        3    1    3    3  502    0 -0.10631669708E+04 -0.27033281775E+03  0.54970307994E+03  0.12270196928E+04  0.10100000352E+00 0. -1.
       -3    1    3    3    0  502  0.10631669708E+04  0.27033281775E+03 -0.10512940023E+04  0.15194153250E+04  0.10100000352E+00 0.  1.
</event>
<event>
 5   0  0.1932012E-06  0.2700550E+04  0.7818609E-02  0.8334826E-01
        2   -1    0    0  501    0  0.00000000000E+00  0.00000000000E+00  0.94846170562E+03  0.94846170562E+03  0.25500000920E-02 0. -1.
       -2   -1    0    0    0  501  0.00000000000E+00  0.00000000000E+00 -0.19223157876E+04  0.19223157876E+04  0.25500000920E-02 0.  1.
    10030    2    1    2    0    0  0.00000000000E+00  0.00000000000E+00 -0.97385408202E+03  0.28707774933E+04  0.27005502481E+04 0.  0.
        2    1    3    3  502    0 -0.12941288420E+04  0.43049696829E+01 -0.77341548782E+02  0.12964450269E+04  0.25500000920E-02 0. -1.
       -2    1    3    3    0  502  0.12941288420E+04 -0.43049696829E+01 -0.89651253324E+03  0.15743324664E+04  0.25500000920E-02 0.  1.
</event>
<event>
 5   0  0.1932012E-06  0.2701176E+04  0.7818609E-02  0.8334623E-01
       -2   -1    0    0    0  501  0.00000000000E+00  0.00000000000E+00  0.15200497621E+04  0.15200497621E+04  0.25500000920E-02 0. -1.
        2   -1    0    0  501    0  0.00000000000E+00  0.00000000000E+00 -0.12000187726E+04  0.12000187726E+04  0.25500000920E-02 0.  1.
    10030    2    1    2    0    0  0.00000000000E+00  0.00000000000E+00  0.32003098955E+03  0.27200685347E+04  0.27011762251E+04 0.  0.
        2    1    3    3  502    0 -0.23885626110E+03  0.11658083832E+04 -0.48314301574E+03  0.12843631392E+04  0.25500000920E-02 0.  1.
       -2    1    3    3    0  502  0.23885626110E+03 -0.11658083832E+04  0.80317400529E+03  0.14357053954E+04  0.25500000920E-02 0. -1.
</event>
<event>
 5   0  0.7768032E-07  0.2697565E+04  0.7818609E-02  0.8335795E-01
        1   -1    0    0  501    0  0.00000000000E+00  0.00000000000E+00  0.18264829665E+04  0.18264829665E+04  0.50400001928E-02 0.  1.
       -1   -1    0    0    0  501  0.00000000000E+00  0.00000000000E+00 -0.99602029716E+03  0.99602029717E+03  0.50400001928E-02 0. -1.
    10030    2    1    2    0    0  0.00000000000E+00  0.00000000000E+00  0.83046266933E+03  0.28225032637E+04  0.26975649071E+04 0.  0.
        4    1    3    3  502    0 -0.84982821029E+03  0.24941051434E+03 -0.64913352875E+03  0.10980844880E+04  0.12699999809E+01 0. -1.
       -4    1    3    3    0  502  0.84982821029E+03 -0.24941051434E+03  0.14795961981E+04  0.17244187757E+04  0.12699999809E+01 0.  1.
</event>
<event>
 5   0  0.2030645E-06  0.2694694E+04  0.7818609E-02  0.8336728E-01
        2   -1    0    0  501    0  0.00000000000E+00  0.00000000000E+00  0.17560095991E+04  0.17560095991E+04  0.25500000920E-02 0. -1.
       -2   -1    0    0    0  501  0.00000000000E+00  0.00000000000E+00 -0.10337896737E+04  0.10337896737E+04  0.25500000920E-02 0.  1.
    10030    2    1    2    0    0  0.00000000000E+00  0.00000000000E+00  0.72221992541E+03  0.27897992728E+04  0.26946944839E+04 0.  0.
        1    1    3    3  502    0 -0.66856091458E+03  0.94093664293E+03  0.10806270173E+04  0.15811673577E+04  0.50400001928E-02 0. -1.
       -1    1    3    3    0  502  0.66856091458E+03 -0.94093664293E+03 -0.35840709189E+03  0.12086319150E+04  0.50400001928E-02 0.  1.
</event>
<event>
 5   0  0.6561875E-07  0.2698990E+04  0.7818609E-02  0.8335333E-01
        4   -1    0    0  501    0  0.00000000000E+00  0.00000000000E+00  0.14104317364E+04  0.14104323082E+04  0.12699999809E+01 0. -1.
       -4   -1    0    0    0  501  0.00000000000E+00  0.00000000000E+00 -0.12911894924E+04  0.12911901170E+04  0.12699999809E+01 0.  1.
    10030    2    1    2    0    0  0.00000000000E+00  0.00000000000E+00  0.11924224403E+03  0.27016224251E+04  0.26989896286E+04 0.  0.
        5    1    3    3  502    0  0.76482360324E+03 -0.14491414832E+02 -0.10531957853E+04  0.13016945100E+04  0.46999998093E+01 0.  1.
       -5    1    3    3    0  502 -0.76482360324E+03  0.14491414832E+02  0.11724380293E+04  0.13999279152E+04  0.46999998093E+01 0. -1.
</event>
<event>
 5   0  0.6561875E-07  0.2705064E+04  0.7818609E-02  0.8333364E-01
        4   -1    0    0  501    0  0.00000000000E+00  0.00000000000E+00  0.81087879373E+03  0.81087978827E+03  0.12699999809E+01 0.  1.
       -4   -1    0    0    0  501  0.00000000000E+00  0.00000000000E+00 -0.22559972460E+04  0.22559976035E+04  0.12699999809E+01 0. -1.
    10030    2    1    2    0    0  0.00000000000E+00  0.00000000000E+00 -0.14451184523E+04  0.30668773917E+04  0.27050636952E+04 0.  0.
        5    1    3    3  502    0 -0.92105289057E+03 -0.92067368370E+03 -0.11365609560E+04  0.17285170974E+04  0.46999998093E+01 0. -1.
       -5    1    3    3    0  502  0.92105289057E+03  0.92067368370E+03 -0.30855749621E+03  0.13383602944E+04  0.46999998093E+01 0.  1.
</event>
<event>
 5   0  0.1932012E-06  0.2674500E+04  0.7818609E-02  0.8343326E-01
       -2   -1    0    0    0  501  0.00000000000E+00  0.00000000000E+00  0.13581305962E+04  0.13581305962E+04  0.25500000920E-02 0.  1.
        2   -1    0    0  501    0  0.00000000000E+00  0.00000000000E+00 -0.13166908719E+04  0.13166908720E+04  0.25500000920E-02 0. -1.
    10030    2    1    2    0    0  0.00000000000E+00  0.00000000000E+00  0.41439724254E+02  0.26748214682E+04  0.26745004460E+04 0.  0.
        2    1    3    3  502    0 -0.95141434206E+03 -0.35227790205E+03 -0.85056160429E+03  0.13239123888E+04  0.25500000920E-02 0.  1.
       -2    1    3    3    0  502  0.95141434206E+03  0.35227790205E+03  0.89200132854E+03  0.13509090793E+04  0.25500000920E-02 0. -1.
</event>
<event>
 5   0  0.6561875E-07  0.2699039E+04  0.7818609E-02  0.8335317E-01
        3   -1    0    0  501    0  0.00000000000E+00  0.00000000000E+00  0.19836473513E+04  0.19836473539E+04  0.10100000352E+00 0. -1.
       -3   -1    0    0    0  501  0.00000000000E+00  0.00000000000E+00 -0.91810812057E+03  0.91810812613E+03  0.10100000352E+00 0.  1.
    10030    2    1    2    0    0  0.00000000000E+00  0.00000000000E+00  0.10655392307E+04  0.29017554800E+04  0.26990389055E+04 0.  0.
        2    1    3    3  502    0  0.45101520863E+03  0.97825345258E+03  0.14067252486E+04  0.17717986513E+04  0.25500000920E-02 0. -1.
       -2    1    3    3    0  502 -0.45101520863E+03 -0.97825345258E+03 -0.34118601782E+03  0.11299568287E+04  0.25500000920E-02 0.  1.
</event>
<event>
 5   0  0.1991277E-06  0.2695994E+04  0.7818609E-02  0.8336306E-01
        2   -1    0    0  501    0  0.00000000000E+00  0.00000000000E+00  0.21419439839E+04  0.21419439839E+04  0.25500000920E-02 0.  1.
       -2   -1    0    0    0  501  0.00000000000E+00  0.00000000000E+00 -0.84833929860E+03  0.84833929860E+03  0.25500000920E-02 0. -1.
    10030    2    1    2    0    0  0.00000000000E+00  0.00000000000E+00  0.12936046853E+04  0.29902832825E+04  0.26959935140E+04 0.  0.
        5    1    3    3  502    0  0.19967710439E+03 -0.79433927106E+03 -0.54068467957E+03  0.98143152399E+03  0.46999998093E+01 0. -1.
       -5    1    3    3    0  502 -0.19967710439E+03  0.79433927106E+03  0.18342893649E+04  0.20088517585E+04  0.46999998093E+01 0.  1.
</event>
<event>
 5   0  0.7335091E-07  0.2699262E+04  0.7818609E-02  0.8335244E-01
       -1   -1    0    0    0  501  0.00000000000E+00  0.00000000000E+00  0.84079386661E+03  0.84079386663E+03  0.50400001928E-02 0.  1.
        1   -1    0    0  501    0  0.00000000000E+00  0.00000000000E+00 -0.21664103187E+04  0.21664103187E+04  0.50400001928E-02 0. -1.
    10030    2    1    2    0    0  0.00000000000E+00  0.00000000000E+00 -0.13256164521E+04  0.30072041853E+04  0.26992624982E+04 0.  0.
        3    1    3    3  502    0 -0.27909738114E+03  0.11635855719E+04  0.32649298262E+02  0.11970349695E+04  0.10100000352E+00 0.  1.
       -3    1    3    3    0  502  0.27909738114E+03 -0.11635855719E+04 -0.13582657503E+04  0.18101692159E+04  0.10100000352E+00 0. -1.
</event>
<event>
 5   0  0.1999104E-06  0.2699643E+04  0.7818609E-02  0.8335121E-01
        2   -1    0    0  501    0  0.00000000000E+00  0.00000000000E+00  0.25048692617E+04  0.25048692617E+04  0.25500000920E-02 0.  1.
       -2   -1    0    0    0  501  0.00000000000E+00  0.00000000000E+00 -0.72739056046E+03  0.72739056047E+03  0.25500000920E-02 0. -1.
    10030    2    1    2    0    0  0.00000000000E+00  0.00000000000E+00  0.17774787012E+04  0.32322598222E+04  0.26996431291E+04 0.  0.
        4    1    3    3  502    0 -0.40512773176E+03  0.49982823641E+02 -0.65171933150E+03  0.76900355113E+03  0.12699999809E+01 0. -1.
       -4    1    3    3    0  502  0.40512773176E+03 -0.49982823641E+02  0.24291980327E+04  0.24632562710E+04  0.12699999809E+01 0.  1.
</event>
<event>
 5   0  0.7768032E-07  0.2696328E+04  0.7818609E-02  0.8336197E-01
        1   -1    0    0  501    0  0.00000000000E+00  0.00000000000E+00  0.21459587549E+04  0.21459587549E+04  0.50400001928E-02 0.  1.
       -1   -1    0    0    0  501  0.00000000000E+00  0.00000000000E+00 -0.84696240062E+03  0.84696240063E+03  0.50400001928E-02 0. -1.
    10030    2    1    2    0    0  0.00000000000E+00  0.00000000000E+00  0.12989963543E+04  0.29929211555E+04  0.26963281541E+04 0.  0.
        4    1    3    3  502    0 -0.12234744415E+04  0.83063652648E+02  0.27744741123E+02  0.12266053411E+04  0.12699999809E+01 0. -1.
       -4    1    3    3    0  502  0.12234744415E+04 -0.83063652648E+02  0.12712516132E+04  0.17663158144E+04  0.12699999809E+01 0.  1.
</event>
<event>
 5   0  0.7566905E-07  0.2710103E+04  0.7818609E-02  0.8331734E-01
       -1   -1    0    0    0  501  0.00000000000E+00  0.00000000000E+00  0.10907889549E+04  0.10907889550E+04  0.50400001928E-02 0.  1.
        1   -1    0    0  501    0  0.00000000000E+00  0.00000000000E+00 -0.16833362033E+04  0.16833362033E+04  0.50400001928E-02 0. -1.
    10030    2    1    2    0    0  0.00000000000E+00  0.00000000000E+00 -0.59254724834E+03  0.27741251583E+04  0.27101029781E+04 0.  0.
        1    1    3    3  502    0 -0.98563041353E+03  0.88567112043E+03 -0.58631133419E+03  0.14490140187E+04  0.50400001928E-02 0. -1.
       -1    1    3    3    0  502  0.98563041353E+03 -0.88567112043E+03 -0.62359141541E+01  0.13251111396E+04  0.50400001928E-02 0.  1.
</event>
<event>
 5   0  0.1991277E-06  0.2697353E+04  0.7818609E-02  0.8335864E-01
       -2   -1    0    0    0  501  0.00000000000E+00  0.00000000000E+00  0.80718988271E+03  0.80718988271E+03  0.25500000920E-02 0.  1.
        2   -1    0    0  501    0  0.00000000000E+00  0.00000000000E+00 -0.22534088682E+04  0.22534088682E+04  0.25500000920E-02 0. -1.
    10030    2    1    2    0    0  0.00000000000E+00  0.00000000000E+00 -0.14462189855E+04  0.30605987509E+04  0.26973533992E+04 0.  0.
        5    1    3    3  502    0  0.91872349605E+03 -0.77611925935E+03 -0.14156217712E+04  0.18575309031E+04  0.46999998093E+01 0. -1.
       -5    1    3    3    0  502 -0.91872349605E+03  0.77611925935E+03 -0.30597214319E+02  0.12030678478E+04  0.46999998093E+01 0.  1.
</event>
<event>
 5   0  0.7806808E-07  0.2697525E+04  0.7818609E-02  0.8335809E-01
       -1   -1    0    0    0  501  0.00000000000E+00  0.00000000000E+00  0.11452079534E+04  0.11452079534E+04  0.50400001928E-02 0. -1.
        1   -1    0    0  501    0  0.00000000000E+00  0.00000000000E+00 -0.15884973971E+04  0.15884973971E+04  0.50400001928E-02 0.  1.
    10030    2    1    2    0    0  0.00000000000E+00  0.00000000000E+00 -0.44328944371E+03  0.27337053504E+04  0.26975246824E+04 0.  0.
        5    1    3    3  502    0 -0.12645731131E+04 -0.14412278123E+03 -0.67397335756E+03  0.14402009274E+04  0.46999998093E+01 0.  1.
       -5    1    3    3    0  502  0.12645731131E+04  0.14412278123E+03  0.23068391385E+03  0.12935044231E+04  0.46999998093E+01 0. -1.
</event>
<event>
 5   0  0.2063087E-06  0.2699405E+04  0.7818609E-02  0.8335198E-01
        2   -1    0    0  501    0  0.00000000000E+00  0.00000000000E+00  0.10019389568E+04  0.10019389568E+04  0.25500000920E-02 0. -1.
       -2   -1    0    0    0  501  0.00000000000E+00  0.00000000000E+00 -0.18181717755E+04  0.18181717755E+04  0.25500000920E-02 0.  1.
    10030    2    1    2    0    0  0.00000000000E+00  0.00000000000E+00 -0.81623281872E+03  0.28201107323E+04  0.26994052175E+04 0.  0.
        3    1    3    3  502    0  0.85325539468E+03  0.89176122101E+03 -0.97881641614E+03  0.15752347224E+04  0.10100000352E+00 0.  1.
       -3    1    3    3    0  502 -0.85325539468E+03 -0.89176122101E+03  0.16258359742E+03  0.12448760100E+04  0.10100000352E+00 0. -1.
</event>
<event>
 5   0  0.2030645E-06  0.2698545E+04  0.7818609E-02  0.8335477E-01
       -2   -1    0    0    0  501  0.00000000000E+00  0.00000000000E+00  0.13205509174E+04  0.13205509174E+04  0.25500000920E-02 0. -1.
        2   -1    0    0  501    0  0.00000000000E+00  0.00000000000E+00 -0.13786183856E+04  0.13786183856E+04  0.25500000920E-02 0.  1.
    10030    2    1    2    0    0  0.00000000000E+00  0.00000000000E+00 -0.58067468207E+02  0.26991693029E+04  0.26985446254E+04 0.  0.
        1    1    3    3  502    0 -0.82473313708E+03  0.78592455049E+02 -0.10942564366E+04  0.13725008818E+04  0.50400001928E-02 0.  1.
       -1    1    3    3    0  502  0.82473313708E+03 -0.78592455049E+02  0.10361889684E+04  0.13266684212E+04  0.50400001928E-02 0. -1.
</event>
<event>
 5   0  0.7436613E-07  0.2716895E+04  0.7818609E-02  0.8329544E-01
       -1   -1    0    0    0  501  0.00000000000E+00  0.00000000000E+00  0.13078624187E+04  0.13078624187E+04  0.50400001928E-02 0.  1.
        1   -1    0    0  501    0  0.00000000000E+00  0.00000000000E+00 -0.14109890409E+04  0.14109890410E+04  0.50400001928E-02 0. -1.
    10030    2    1    2    0    0  0.00000000000E+00  0.00000000000E+00 -0.10312662222E+03  0.27188514597E+04  0.27168949482E+04 0.  0.
        2    1    3    3  502    0  0.37163927857E+03 -0.42009618870E+03 -0.12897024355E+04  0.14063886139E+04  0.25500000920E-02 0. -1.
       -2    1    3    3    0  502 -0.37163927857E+03  0.42009618870E+03  0.11865758132E+04  0.13124628458E+04  0.25500000920E-02 0.  1.
</event>
<event>
 5   0  0.7436613E-07  0.2700166E+04  0.7818609E-02  0.8334951E-01
        1   -1    0    0  501    0  0.00000000000E+00  0.00000000000E+00  0.12436054829E+04  0.12436054829E+04  0.50400001928E-02 0.  1.
       -1   -1    0    0    0  501  0.00000000000E+00  0.00000000000E+00 -0.14656770470E+04  0.14656770470E+04  0.50400001928E-02 0. -1.
    10030    2    1    2    0    0  0.00000000000E+00  0.00000000000E+00 -0.22207156408E+03  0.27092825300E+04  0.27001659296E+04 0.  0.
        2    1    3    3  502    0  0.23938939371E+03  0.64672049971E+03 -0.12756308224E+04  0.14500995419E+04  0.25500000920E-02 0. -1.
       -2    1    3    3    0  502 -0.23938939371E+03 -0.64672049971E+03  0.10535592583E+04  0.12591829880E+04  0.25500000920E-02 0.  1.
</event>
<event>
 5   0  0.2063087E-06  0.2700712E+04  0.7818609E-02  0.8334774E-01
        2   -1    0    0  501    0  0.00000000000E+00  0.00000000000E+00  0.17440332466E+04  0.17440332466E+04  0.25500000920E-02 0. -1.
       -2   -1    0    0    0  501  0.00000000000E+00  0.00000000000E+00 -0.10455429048E+04  0.10455429048E+04  0.25500000920E-02 0.  1.
    10030    2    1    2    0    0  0.00000000000E+00  0.00000000000E+00  0.69849034178E+03  0.27895761514E+04  0.27007121926E+04 0.  0.
        3    1    3    3  502    0  0.81753704116E+03  0.56203795617E+03 -0.59698055102E+03  0.11578597784E+04  0.10100000352E+00 0.  1.
       -3    1    3    3    0  502 -0.81753704116E+03 -0.56203795617E+03  0.12954708928E+04  0.16317163731E+04  0.10100000352E+00 0. -1.
</event>
<event>
 5   0  0.1991277E-06  0.2700308E+04  0.7818609E-02  0.8334905E-01
       -2   -1    0    0    0  501  0.00000000000E+00  0.00000000000E+00  0.91350030962E+03  0.91350030963E+03  0.25500000920E-02 0. -1.
        2   -1    0    0  501    0  0.00000000000E+00  0.00000000000E+00 -0.19955291029E+04  0.19955291029E+04  0.25500000920E-02 0.  1.
    10030    2    1    2    0    0  0.00000000000E+00  0.00000000000E+00 -0.10820287933E+04  0.29090294125E+04  0.27003084664E+04 0.  0.
        5    1    3    3  502    0 -0.11124055304E+03 -0.12340795604E+04  0.36688661377E+02  0.12396350148E+04  0.46999998093E+01 0. -1.
       -5    1    3    3    0  502  0.11124055304E+03  0.12340795604E+04 -0.11187174547E+04  0.16693943978E+04  0.46999998093E+01 0.  1.
</event>
<event>
 5   0  0.7768032E-07  0.2695935E+04  0.7818609E-02  0.8336325E-01
       -1   -1    0    0    0  501  0.00000000000E+00  0.00000000000E+00  0.94581435022E+03  0.94581435023E+03  0.50400001928E-02 0. -1.
        1   -1    0    0  501    0  0.00000000000E+00  0.00000000000E+00 -0.19211137829E+04  0.19211137829E+04  0.50400001928E-02 0.  1.
    10030    2    1    2    0    0  0.00000000000E+00  0.00000000000E+00 -0.97529943266E+03  0.28669281331E+04  0.26959354475E+04 0.  0.
        4    1    3    3  502    0 -0.11067287352E+04  0.24194395151E+03 -0.12644823060E+04  0.16977345152E+04  0.12699999809E+01 0.  1.
       -4    1    3    3    0  502  0.11067287352E+04 -0.24194395151E+03  0.28918287337E+03  0.11691936179E+04  0.12699999809E+01 0. -1.
</event>
<event>
 5   0  0.7768032E-07  0.2699864E+04  0.7818609E-02  0.8335049E-01
       -1   -1    0    0    0  501  0.00000000000E+00  0.00000000000E+00  0.12527058325E+04  0.12527058325E+04  0.50400001928E-02 0.  1.
        1   -1    0    0  501    0  0.00000000000E+00  0.00000000000E+00 -0.14547040234E+04  0.14547040234E+04  0.50400001928E-02 0. -1.
    10030    2    1    2    0    0  0.00000000000E+00  0.00000000000E+00 -0.20199819091E+03  0.27074098559E+04  0.26998638593E+04 0.  0.
        4    1    3    3  502    0  0.59378620137E+03  0.39403524594E+03  0.10487081729E+04  0.12679259729E+04  0.12699999809E+01 0.  1.
       -4    1    3    3    0  502 -0.59378620137E+03 -0.39403524594E+03 -0.12507063638E+04  0.14394838830E+04  0.12699999809E+01 0. -1.
</event>
<event>
 5   0  0.7566905E-07  0.2698551E+04  0.7818609E-02  0.8335475E-01
        1   -1    0    0  501    0  0.00000000000E+00  0.00000000000E+00  0.13003859265E+04  0.13003859266E+04  0.50400001928E-02 0. -1.
       -1   -1    0    0    0  501  0.00000000000E+00  0.00000000000E+00 -0.14000036540E+04  0.14000036540E+04  0.50400001928E-02 0.  1.
    10030    2    1    2    0    0  0.00000000000E+00  0.00000000000E+00 -0.99617727455E+02  0.27003895806E+04  0.26985514995E+04 0.  0.
        1    1    3    3  502    0  0.36253365110E+03 -0.12526522759E+04  0.29680356096E+03  0.13374082123E+04  0.50400001928E-02 0.  1.
       -1    1    3    3    0  502 -0.36253365110E+03  0.12526522759E+04 -0.39642128841E+03  0.13629813683E+04  0.50400001928E-02 0. -1.
</event>
<event>
 5   0  0.7566905E-07  0.2703777E+04  0.7818609E-02  0.8333781E-01
        1   -1    0    0  501    0  0.00000000000E+00  0.00000000000E+00  0.18217720571E+04  0.18217720571E+04  0.50400001928E-02 0.  1.
       -1   -1    0    0    0  501  0.00000000000E+00  0.00000000000E+00 -0.10032003685E+04  0.10032003685E+04  0.50400001928E-02 0. -1.
    10030    2    1    2    0    0  0.00000000000E+00  0.00000000000E+00  0.81857168864E+03  0.28249724256E+04  0.27037769132E+04 0.  0.
        1    1    3    3  502    0 -0.13431650515E+04  0.14955206433E+03  0.37394321980E+03  0.14022452379E+04  0.50400001928E-02 0.  1.
       -1    1    3    3    0  502  0.13431650515E+04 -0.14955206433E+03  0.44462846884E+03  0.14227271878E+04  0.50400001928E-02 0. -1.
</event>
<event>
 5   0  0.7436613E-07  0.2698553E+04  0.7818609E-02  0.8335475E-01
       -1   -1    0    0    0  501  0.00000000000E+00  0.00000000000E+00  0.95013286067E+03  0.95013286068E+03  0.50400001928E-02 0.  1.
        1   -1    0    0  501    0  0.00000000000E+00  0.00000000000E+00 -0.19160967658E+04  0.19160967658E+04  0.50400001928E-02 0. -1.
    10030    2    1    2    0    0  0.00000000000E+00  0.00000000000E+00 -0.96596390516E+03  0.28662296265E+04  0.26985525761E+04 0.  0.
        2    1    3    3  502    0  0.99009464823E+03  0.16622579165E+03  0.47448988354E+03  0.11104319321E+04  0.25500000920E-02 0.  1.
       -2    1    3    3    0  502 -0.99009464823E+03 -0.16622579165E+03 -0.14404537887E+04  0.17557976944E+04  0.25500000920E-02 0. -1.
</event>
<event>
 5   0  0.7806808E-07  0.2704231E+04  0.7818609E-02  0.8333633E-01
        1   -1    0    0  501    0  0.00000000000E+00  0.00000000000E+00  0.19937006573E+04  0.19937006573E+04  0.50400001928E-02 0.  1.
       -1   -1    0    0    0  501  0.00000000000E+00  0.00000000000E+00 -0.91699659600E+03  0.91699659601E+03  0.50400001928E-02 0. -1.
    10030    2    1    2    0    0  0.00000000000E+00  0.00000000000E+00  0.10767040613E+04  0.29106972534E+04  0.27042312891E+04 0.  0.
        5    1    3    3  502    0 -0.18011207280E+03 -0.77039560211E+02 -0.90163234778E+03  0.92268002751E+03  0.46999998093E+01 0. -1.
       -5    1    3    3    0  502  0.18011207280E+03  0.77039560211E+02  0.19783364091E+04  0.19880172258E+04  0.46999998093E+01 0.  1.
</event>
<event>
 5   0  0.7436613E-07  0.2697743E+04  0.7818609E-02  0.8335738E-01
       -1   -1    0    0    0  501  0.00000000000E+00  0.00000000000E+00  0.74600114950E+03  0.74600114952E+03  0.50400001928E-02 0. -1.
        1   -1    0    0  501    0  0.00000000000E+00  0.00000000000E+00 -0.24389434681E+04  0.24389434681E+04  0.50400001928E-02 0.  1.
    10030    2    1    2    0    0  0.00000000000E+00  0.00000000000E+00 -0.16929423186E+04  0.31849446177E+04  0.26977432278E+04 0.  0.
        2    1    3    3  502    0  0.12938505468E+04  0.23547875875E+03 -0.49238065229E+03  0.14042571667E+04  0.25500000920E-02 0. -1.
       -2    1    3    3    0  502 -0.12938505468E+04 -0.23547875875E+03 -0.12005616663E+04  0.17806874510E+04  0.25500000920E-02 0.  1.
</event>
<event>
 5   0  0.2030645E-06  0.2695713E+04  0.7818609E-02  0.8336397E-01
       -2   -1    0    0    0  501  0.00000000000E+00  0.00000000000E+00  0.14342503103E+04  0.14342503103E+04  0.25500000920E-02 0. -1.
        2   -1    0    0  501    0  0.00000000000E+00  0.00000000000E+00 -0.12666663068E+04  0.12666663068E+04  0.25500000920E-02 0.  1.
    10030    2    1    2    0    0  0.00000000000E+00  0.00000000000E+00  0.16758400346E+03  0.27009166172E+04  0.26957125542E+04 0.  0.
        1    1    3    3  502    0 -0.20187169552E+03 -0.29843384260E+03 -0.12175231042E+04  0.12697154993E+04  0.50400001928E-02 0.  1.
       -1    1    3    3    0  502  0.20187169552E+03  0.29843384260E+03  0.13851071077E+04  0.14312011178E+04  0.50400001928E-02 0. -1.
</event>
<event>
 5   0  0.2030645E-06  0.2700494E+04  0.7818609E-02  0.8334845E-01
        2   -1    0    0  501    0  0.00000000000E+00  0.00000000000E+00  0.13540718523E+04  0.13540718523E+04  0.25500000920E-02 0.  1.
       -2   -1    0    0    0  501  0.00000000000E+00  0.00000000000E+00 -0.13464327373E+04  0.13464327373E+04  0.25500000920E-02 0. -1.
    10030    2    1    2    0    0  0.00000000000E+00  0.00000000000E+00  0.76391149967E+01  0.27005045896E+04  0.27004937849E+04 0.  0.
        1    1    3    3  502    0  0.11051228006E+04  0.33534090757E+02 -0.77126143063E+03  0.13480597665E+04  0.50400001928E-02 0. -1.
       -1    1    3    3    0  502 -0.11051228006E+04 -0.33534090757E+02  0.77890054563E+03  0.13524448231E+04  0.50400001928E-02 0.  1.
</event>
<event>
 5   0  0.1932012E-06  0.2652141E+04  0.7818609E-02  0.8350703E-01
       -2   -1    0    0    0  501  0.00000000000E+00  0.00000000000E+00  0.15574617020E+04  0.15574617020E+04  0.25500000920E-02 0.  1.
        2   -1    0    0  501    0  0.00000000000E+00  0.00000000000E+00 -0.11290569307E+04  0.11290569308E+04  0.25500000920E-02 0. -1.
    10030    2    1    2    0    0  0.00000000000E+00  0.00000000000E+00  0.42840477121E+03  0.26865186327E+04  0.26521409683E+04 0.  0.
        2    1    3    3  502    0 -0.11326666082E+04  0.68697315985E+03  0.15344861959E+03  0.13335712379E+04  0.25500000920E-02 0. -1.
       -2    1    3    3    0  502  0.11326666082E+04 -0.68697315985E+03  0.27495615162E+03  0.13529473948E+04  0.25500000920E-02 0.  1.
</event>
<event>
 5   0  0.7768032E-07  0.2698649E+04  0.7818609E-02  0.8335443E-01
        1   -1    0    0  501    0  0.00000000000E+00  0.00000000000E+00  0.13437222095E+04  0.13437222095E+04  0.50400001928E-02 0. -1.
       -1   -1    0    0    0  501  0.00000000000E+00  0.00000000000E+00 -0.13549500175E+04  0.13549500175E+04  0.50400001928E-02 0.  1.
    10030    2    1    2    0    0  0.00000000000E+00  0.00000000000E+00 -0.11227808021E+02  0.26986722271E+04  0.26986488704E+04 0.  0.
        4    1    3    3  502    0 -0.76120939408E+03  0.20647097067E+03 -0.11004314975E+04  0.13538910949E+04  0.12699999809E+01 0.  1.
       -4    1    3    3    0  502  0.76120939408E+03 -0.20647097067E+03  0.10892036895E+04  0.13447811322E+04  0.12699999809E+01 0. -1.
</event>
<event>
 5   0  0.7768032E-07  0.2702024E+04  0.7818609E-02  0.8334349E-01
       -1   -1    0    0    0  501  0.00000000000E+00  0.00000000000E+00  0.25383117792E+04  0.25383117792E+04  0.50400001928E-02 0.  1.
        1   -1    0    0  501    0  0.00000000000E+00  0.00000000000E+00 -0.71907354301E+03  0.71907354303E+03  0.50400001928E-02 0. -1.
    10030    2    1    2    0    0  0.00000000000E+00  0.00000000000E+00  0.18192382362E+04  0.32573853222E+04  0.27020235708E+04 0.  0.
        4    1    3    3  502    0 -0.86965496534E+02 -0.12762529625E+04  0.38573576575E+03  0.13361056529E+04  0.12699999809E+01 0.  1.
       -4    1    3    3    0  502  0.86965496534E+02  0.12762529625E+04  0.14335024704E+04  0.19212796693E+04  0.12699999809E+01 0. -1.
</event>
<event>
 5   0  0.7566905E-07  0.2701432E+04  0.7818609E-02  0.8334541E-01
        1   -1    0    0  501    0  0.00000000000E+00  0.00000000000E+00  0.19530411052E+04  0.19530411052E+04  0.50400001928E-02 0. -1.
       -1   -1    0    0    0  501  0.00000000000E+00  0.00000000000E+00 -0.93415008601E+03  0.93415008603E+03  0.50400001928E-02 0.  1.
    10030    2    1    2    0    0  0.00000000000E+00  0.00000000000E+00  0.10188910192E+04  0.28871911913E+04  0.27014318547E+04 0.  0.
        1    1    3    3  502    0  0.68798990279E+03  0.59241216753E+03 -0.55939859189E+03  0.10664000503E+04  0.50400001928E-02 0.  1.
       -1    1    3    3    0  502 -0.68798990279E+03 -0.59241216753E+03  0.15782896111E+04  0.18207911410E+04  0.50400001928E-02 0. -1.
</event>
<event>
 5   0  0.7436613E-07  0.2698169E+04  0.7818609E-02  0.8335599E-01
       -1   -1    0    0    0  501  0.00000000000E+00  0.00000000000E+00  0.65062030226E+03  0.65062030228E+03  0.50400001928E-02 0.  1.
        1   -1    0    0  501    0  0.00000000000E+00  0.00000000000E+00 -0.27973751213E+04  0.27973751213E+04  0.50400001928E-02 0. -1.
    10030    2    1    2    0    0  0.00000000000E+00  0.00000000000E+00 -0.21467548190E+04  0.34479954236E+04  0.26981690436E+04 0.  0.
        2    1    3    3  502    0 -0.85832850677E+03  0.70243613890E+03 -0.20548565831E+04  0.23350760013E+04  0.25500000920E-02 0. -1.
       -2    1    3    3    0  502  0.85832850677E+03 -0.70243613890E+03 -0.91898235959E+02  0.11129194223E+04  0.25500000920E-02 0.  1.
</event>
<event>
 5   0  0.7436613E-07  0.2698362E+04  0.7818609E-02  0.8335537E-01
       -1   -1    0    0    0  501  0.00000000000E+00  0.00000000000E+00  0.83604027030E+03  0.83604027031E+03  0.50400001928E-02 0.  1.
        1   -1    0    0  501    0  0.00000000000E+00  0.00000000000E+00 -0.21772745005E+04  0.21772745005E+04  0.50400001928E-02 0. -1.
    10030    2    1    2    0    0  0.00000000000E+00  0.00000000000E+00 -0.13412342302E+04  0.30133147709E+04  0.26983618453E+04 0.  0.
        2    1    3    3  502    0  0.71763366643E+03  0.78753010225E+03 -0.15949263876E+04  0.19180698431E+04  0.25500000920E-02 0. -1.
       -2    1    3    3    0  502 -0.71763366643E+03 -0.78753010225E+03  0.25369215733E+03  0.10952449278E+04  0.25500000920E-02 0.  1.
</event>
<event>
 5   0  0.2063087E-06  0.2701901E+04  0.7818609E-02  0.8334389E-01
       -2   -1    0    0    0  501  0.00000000000E+00  0.00000000000E+00  0.17568563196E+04  0.17568563196E+04  0.25500000920E-02 0. -1.
        2   -1    0    0  501    0  0.00000000000E+00  0.00000000000E+00 -0.10388253124E+04  0.10388253124E+04  0.25500000920E-02 0.  1.
    10030    2    1    2    0    0  0.00000000000E+00  0.00000000000E+00  0.71803100718E+03  0.27956816320E+04  0.27019006755E+04 0.  0.
        3    1    3    3  502    0 -0.25110852698E+03  0.98579233389E+03  0.12788160373E+04  0.16340784820E+04  0.10100000352E+00 0. -1.
       -3    1    3    3    0  502  0.25110852698E+03 -0.98579233389E+03 -0.56078503012E+03  0.11616031500E+04  0.10100000352E+00 0.  1.
</event>
<event>
 5   0  0.2030645E-06  0.2701920E+04  0.7818609E-02  0.8334382E-01
        2   -1    0    0  501    0  0.00000000000E+00  0.00000000000E+00  0.24972157131E+04  0.24972157131E+04  0.25500000920E-02 0. -1.
       -2   -1    0    0    0  501  0.00000000000E+00  0.00000000000E+00 -0.73085129168E+03  0.73085129168E+03  0.25500000920E-02 0.  1.
    10030    2    1    2    0    0  0.00000000000E+00  0.00000000000E+00  0.17663644214E+04  0.32280670048E+04  0.27019203019E+04 0.  0.
        1    1    3    3  502    0 -0.40193206492E+03  0.73083300045E+03 -0.38651189231E+03  0.91927020090E+03  0.50400001928E-02 0.  1.
       -1    1    3    3    0  502  0.40193206492E+03 -0.73083300045E+03  0.21528763137E+04  0.23087968039E+04  0.50400001928E-02 0. -1.
</event>
<event>
 5   0  0.2063087E-06  0.2700406E+04  0.7818609E-02  0.8334873E-01
        2   -1    0    0  501    0  0.00000000000E+00  0.00000000000E+00  0.82686971205E+03  0.82686971206E+03  0.25500000920E-02 0. -1.
       -2   -1    0    0    0  501  0.00000000000E+00  0.00000000000E+00 -0.22047584936E+04  0.22047584936E+04  0.25500000920E-02 0.  1.
    10030    2    1    2    0    0  0.00000000000E+00  0.00000000000E+00 -0.13778887816E+04  0.30316282057E+04  0.27004059108E+04 0.  0.
        3    1    3    3  502    0 -0.49866341329E+03 -0.72080312391E+03  0.46407665283E+03  0.99176080437E+03  0.10100000352E+00 0. -1.
       -3    1    3    3    0  502  0.49866341329E+03  0.72080312391E+03 -0.18419654344E+04  0.20398674013E+04  0.10100000352E+00 0.  1.
</event>
<event>
 5   0  0.7566905E-07  0.2691365E+04  0.7818609E-02  0.8337812E-01
       -1   -1    0    0    0  501  0.00000000000E+00  0.00000000000E+00  0.17125574506E+04  0.17125574506E+04  0.50400001928E-02 0.  1.
        1   -1    0    0  501    0  0.00000000000E+00  0.00000000000E+00 -0.10574018882E+04  0.10574018882E+04  0.50400001928E-02 0. -1.
    10030    2    1    2    0    0  0.00000000000E+00  0.00000000000E+00  0.65515556237E+03  0.27699593388E+04  0.26913650677E+04 0.  0.
        1    1    3    3  502    0  0.11490296134E+04 -0.54429742755E+03 -0.12612743195E+03  0.12776685295E+04  0.50400001928E-02 0.  1.
       -1    1    3    3    0  502 -0.11490296134E+04  0.54429742755E+03  0.78128299432E+03  0.14922908093E+04  0.50400001928E-02 0. -1.
</event>
<event>
 5   0  0.1932012E-06  0.2702883E+04  0.7818609E-02  0.8334070E-01
        2   -1    0    0  501    0  0.00000000000E+00  0.00000000000E+00  0.24691943351E+04  0.24691943351E+04  0.25500000920E-02 0. -1.
       -2   -1    0    0    0  501  0.00000000000E+00  0.00000000000E+00 -0.73967212660E+03  0.73967212661E+03  0.25500000920E-02 0.  1.
    10030    2    1    2    0    0  0.00000000000E+00  0.00000000000E+00  0.17295222085E+04  0.32088664617E+04  0.27028830717E+04 0.  0.
        2    1    3    3  502    0 -0.94990749285E+02  0.75323430971E+03  0.21920973862E+04  0.23198439858E+04  0.25500000920E-02 0. -1.
       -2    1    3    3    0  502  0.94990749285E+02 -0.75323430971E+03 -0.46257517767E+03  0.88902247596E+03  0.25500000920E-02 0.  1.
</event>
<event>
 5   0  0.1932012E-06  0.2699481E+04  0.7818609E-02  0.8335173E-01
        2   -1    0    0  501    0  0.00000000000E+00  0.00000000000E+00  0.13886359260E+04  0.13886359260E+04  0.25500000920E-02 0.  1.
       -2   -1    0    0    0  501  0.00000000000E+00  0.00000000000E+00 -0.13119342005E+04  0.13119342005E+04  0.25500000920E-02 0. -1.
    10030    2    1    2    0    0  0.00000000000E+00  0.00000000000E+00  0.76701725578E+02  0.27005701265E+04  0.26994806636E+04 0.  0.
        2    1    3    3  502    0 -0.43936694381E+03 -0.15232408449E+03 -0.12292647070E+04  0.13142821835E+04  0.25500000920E-02 0. -1.
       -2    1    3    3    0  502  0.43936694381E+03  0.15232408449E+03  0.13059664325E+04  0.13862879430E+04  0.25500000920E-02 0.  1.
</event>
<event>
 5   0  0.7566905E-07  0.2705588E+04  0.7818609E-02  0.8333194E-01
        1   -1    0    0  501    0  0.00000000000E+00  0.00000000000E+00  0.15724539654E+04  0.15724539655E+04  0.50400001928E-02 0. -1.
       -1   -1    0    0    0  501  0.00000000000E+00  0.00000000000E+00 -0.11638187746E+04  0.11638187746E+04  0.50400001928E-02 0.  1.
    10030    2    1    2    0    0  0.00000000000E+00  0.00000000000E+00  0.40863519089E+03  0.27362727400E+04  0.27055878822E+04 0.  0.
        1    1    3    3  502    0 -0.64959836984E+03 -0.26370388675E+03 -0.96575386894E+03  0.11933978035E+04  0.50400001928E-02 0.  1.
       -1    1    3    3    0  502  0.64959836984E+03  0.26370388675E+03  0.13743890598E+04  0.15428749365E+04  0.50400001928E-02 0. -1.
</event>
<event>
 5   0  0.7768032E-07  0.2702723E+04  0.7818609E-02  0.8334122E-01
       -1   -1    0    0    0  501  0.00000000000E+00  0.00000000000E+00  0.12913263884E+04  0.12913263884E+04  0.50400001928E-02 0. -1.
        1   -1    0    0  501    0  0.00000000000E+00  0.00000000000E+00 -0.14141877363E+04  0.14141877363E+04  0.50400001928E-02 0.  1.
    10030    2    1    2    0    0  0.00000000000E+00  0.00000000000E+00 -0.12286134791E+03  0.27055141246E+04  0.27027230283E+04 0.  0.
        4    1    3    3  502    0  0.80300508955E+03 -0.48727374188E+03  0.91112988346E+03  0.13085916669E+04  0.12699999809E+01 0. -1.
       -4    1    3    3    0  502 -0.80300508955E+03  0.48727374188E+03 -0.10339912314E+04  0.13969224577E+04  0.12699999809E+01 0.  1.
</event>
<event>
 5   0  0.7806808E-07  0.2708247E+04  0.7818609E-02  0.8332334E-01
        1   -1    0    0  501    0  0.00000000000E+00  0.00000000000E+00  0.14309179873E+04  0.14309179873E+04  0.50400001928E-02 0. -1.
       -1   -1    0    0    0  501  0.00000000000E+00  0.00000000000E+00 -0.12814500515E+04  0.12814500515E+04  0.50400001928E-02 0.  1.
    10030    2    1    2    0    0  0.00000000000E+00  0.00000000000E+00  0.14946793575E+03  0.27123680388E+04  0.27082466125E+04 0.  0.
        5    1    3    3  502    0 -0.94372322140E+03 -0.17472506012E+03  0.10314287146E+04  0.14089037045E+04  0.46999998093E+01 0.  1.
       -5    1    3    3    0  502  0.94372322140E+03  0.17472506012E+03 -0.88196077886E+03  0.13034643343E+04  0.46999998093E+01 0. -1.
</event>
<event>
 5   0  0.1999104E-06  0.2700905E+04  0.7818609E-02  0.8334711E-01
       -2   -1    0    0    0  501  0.00000000000E+00  0.00000000000E+00  0.12588044502E+04  0.12588044502E+04  0.25500000920E-02 0. -1.
        2   -1    0    0  501    0  0.00000000000E+00  0.00000000000E+00 -0.14487734706E+04  0.14487734706E+04  0.25500000920E-02 0.  1.
    10030    2    1    2    0    0  0.00000000000E+00  0.00000000000E+00 -0.18996902033E+03  0.27075779208E+04  0.27009053979E+04 0.  0.
        4    1    3    3  502    0  0.90074320407E+03  0.90097077514E+03  0.35404418669E+03  0.13222842192E+04  0.12699999809E+01 0. -1.
       -4    1    3    3    0  502 -0.90074320407E+03 -0.90097077514E+03 -0.54401320702E+03  0.13852937016E+04  0.12699999809E+01 0.  1.
</event>
<event>
 5   0  0.7806808E-07  0.2697106E+04  0.7818609E-02  0.8335945E-01
       -1   -1    0    0    0  501  0.00000000000E+00  0.00000000000E+00  0.81504212553E+03  0.81504212554E+03  0.50400001928E-02 0.  1.
        1   -1    0    0  501    0  0.00000000000E+00  0.00000000000E+00 -0.22312891270E+04  0.22312891270E+04  0.50400001928E-02 0. -1.
    10030    2    1    2    0    0  0.00000000000E+00  0.00000000000E+00 -0.14162470014E+04  0.30463312525E+04  0.26971055840E+04 0.  0.
        5    1    3    3  502    0 -0.32275515056E+02 -0.53902959461E+03  0.68758768092E+03  0.87429601491E+03  0.46999998093E+01 0. -1.
       -5    1    3    3    0  502  0.32275515056E+02  0.53902959461E+03 -0.21038346824E+04  0.21720352376E+04  0.46999998093E+01 0.  1.
</event>
<event>
 5   0  0.2063087E-06  0.2741042E+04  0.7818609E-02  0.8321810E-01
        2   -1    0    0  501    0  0.00000000000E+00  0.00000000000E+00  0.16011526882E+04  0.16011526882E+04  0.25500000920E-02 0. -1.
       -2   -1    0    0    0  501  0.00000000000E+00  0.00000000000E+00 -0.11731093325E+04  0.11731093325E+04  0.25500000920E-02 0.  1.
    10030    2    1    2    0    0  0.00000000000E+00  0.00000000000E+00  0.42804335563E+03  0.27742620207E+04  0.27410415256E+04 0.  0.
        3    1    3    3  502    0 -0.99424828897E+03  0.16182774369E+03  0.11545903507E+04  0.15322521878E+04  0.10100000352E+00 0. -1.
       -3    1    3    3    0  502  0.99424828897E+03 -0.16182774369E+03 -0.72654699511E+03  0.12420098329E+04  0.10100000352E+00 0.  1.
</event>
<event>
 5   0  0.7806808E-07  0.2700864E+04  0.7818609E-02  0.8334725E-01
        1   -1    0    0  501    0  0.00000000000E+00  0.00000000000E+00  0.11272704100E+04  0.11272704100E+04  0.50400001928E-02 0.  1.
       -1   -1    0    0    0  501  0.00000000000E+00  0.00000000000E+00 -0.16177715721E+04  0.16177715721E+04  0.50400001928E-02 0. -1.
    10030    2    1    2    0    0  0.00000000000E+00  0.00000000000E+00 -0.49050116209E+03  0.27450419821E+04  0.27008635829E+04 0.  0.
        5    1    3    3  502    0  0.71205857646E+03 -0.11032092289E+04 -0.56592038178E+03  0.14298202641E+04  0.46999998093E+01 0. -1.
       -5    1    3    3    0  502 -0.71205857646E+03  0.11032092289E+04  0.75419219688E+02  0.13152217181E+04  0.46999998093E+01 0.  1.
</event>
<event>
 5   0  0.7335091E-07  0.2691511E+04  0.7818609E-02  0.8337765E-01
       -1   -1    0    0    0  501  0.00000000000E+00  0.00000000000E+00  0.11894105575E+04  0.11894105575E+04  0.50400001928E-02 0. -1.
        1   -1    0    0  501    0  0.00000000000E+00  0.00000000000E+00 -0.15226512471E+04  0.15226512471E+04  0.50400001928E-02 0.  1.
    10030    2    1    2    0    0  0.00000000000E+00  0.00000000000E+00 -0.33324068962E+03  0.27120618045E+04  0.26915107049E+04 0.  0.
        3    1    3    3  502    0  0.42125558307E+03 -0.10152609811E+04  0.61573991529E+03  0.12598995117E+04  0.10100000352E+00 0. -1.
       -3    1    3    3    0  502 -0.42125558307E+03  0.10152609811E+04 -0.94898060491E+03  0.14521622929E+04  0.10100000352E+00 0.  1.
</event>
<event>
 5   0  0.7335091E-07  0.2703999E+04  0.7818609E-02  0.8333709E-01
        1   -1    0    0  501    0  0.00000000000E+00  0.00000000000E+00  0.29325735779E+04  0.29325735780E+04  0.50400001928E-02 0.  1.
       -1   -1    0    0    0  501  0.00000000000E+00  0.00000000000E+00 -0.62330985226E+03  0.62330985228E+03  0.50400001928E-02 0. -1.
    10030    2    1    2    0    0  0.00000000000E+00  0.00000000000E+00  0.23092637257E+04  0.35558834302E+04  0.27039985234E+04 0.  0.
        3    1    3    3  502    0 -0.65901754184E+03  0.45023051789E+03  0.25897146454E+04  0.27099139460E+04  0.10100000352E+00 0.  1.
       -3    1    3    3    0  502  0.65901754184E+03 -0.45023051789E+03 -0.28045091973E+03  0.84596948425E+03  0.10100000352E+00 0. -1.
</event>
<event>
 5   0  0.7806808E-07  0.2700931E+04  0.7818609E-02  0.8334703E-01
        1   -1    0    0  501    0  0.00000000000E+00  0.00000000000E+00  0.12062199983E+04  0.12062199984E+04  0.50400001928E-02 0.  1.
       -1   -1    0    0    0  501  0.00000000000E+00  0.00000000000E+00 -0.15119608245E+04  0.15119608245E+04  0.50400001928E-02 0. -1.
    10030    2    1    2    0    0  0.00000000000E+00  0.00000000000E+00 -0.30574082615E+03  0.27181808228E+04  0.27009312344E+04 0.  0.
        5    1    3    3  502    0  0.55260836948E+03 -0.11027273330E+04 -0.70624732193E+03  0.14213342150E+04  0.46999998093E+01 0.  1.
       -5    1    3    3    0  502 -0.55260836948E+03  0.11027273330E+04  0.40050649578E+03  0.12968466078E+04  0.46999998093E+01 0. -1.
</event>
<event>
 5   0  0.1999104E-06  0.2699520E+04  0.7818609E-02  0.8335161E-01
       -2   -1    0    0    0  501  0.00000000000E+00  0.00000000000E+00  0.14509114577E+04  0.14509114577E+04  0.25500000920E-02 0.  1.
        2   -1    0    0  501    0  0.00000000000E+00  0.00000000000E+00 -0.12556602922E+04  0.12556602922E+04  0.25500000920E-02 0. -1.
    10030    2    1    2    0    0  0.00000000000E+00  0.00000000000E+00  0.19525116554E+03  0.27065717499E+04  0.26995198869E+04 0.  0.
        4    1    3    3  502    0 -0.78168825747E+03  0.73511919689E+03 -0.72330114834E+03  0.12940644998E+04  0.12699999809E+01 0. -1.
       -4    1    3    3    0  502  0.78168825747E+03 -0.73511919689E+03  0.91855231388E+03  0.14125072502E+04  0.12699999809E+01 0.  1.
</event>
<event>
 5   0  0.2063087E-06  0.2742907E+04  0.7818609E-02  0.8321216E-01
        2   -1    0    0  501    0  0.00000000000E+00  0.00000000000E+00  0.21164267888E+04  0.21164267888E+04  0.25500000920E-02 0.  1.
       -2   -1    0    0    0  501  0.00000000000E+00  0.00000000000E+00 -0.88870798050E+03  0.88870798050E+03  0.25500000920E-02 0. -1.
    10030    2    1    2    0    0  0.00000000000E+00  0.00000000000E+00  0.12277188083E+04  0.30051347693E+04  0.27429074919E+04 0.  0.
        3    1    3    3  502    0  0.10965995948E+04 -0.15154322599E+03 -0.27309742376E+03  0.11402097324E+04  0.10100000352E+00 0. -1.
       -3    1    3    3    0  502 -0.10965995948E+04  0.15154322599E+03  0.15008162320E+04  0.18649250369E+04  0.10100000352E+00 0.  1.
</event>
<event>
 5   0  0.1932012E-06  0.2703147E+04  0.7818609E-02  0.8333985E-01
       -2   -1    0    0    0  501  0.00000000000E+00  0.00000000000E+00  0.76837325734E+03  0.76837325735E+03  0.25500000920E-02 0. -1.
        2   -1    0    0  501    0  0.00000000000E+00  0.00000000000E+00 -0.23774256047E+04  0.23774256047E+04  0.25500000920E-02 0.  1.
    10030    2    1    2    0    0  0.00000000000E+00  0.00000000000E+00 -0.16090523473E+04  0.31457988620E+04  0.27031465043E+04 0.  0.
        2    1    3    3  502    0  0.74766022030E+03 -0.79960895607E+03 -0.17270392543E+04  0.20447579010E+04  0.25500000920E-02 0.  1.
       -2    1    3    3    0  502 -0.74766022030E+03  0.79960895607E+03  0.11798690700E+03  0.11010409610E+04  0.25500000920E-02 0. -1.
</event>
<event>
 5   0  0.2030645E-06  0.2702583E+04  0.7818609E-02  0.8334168E-01
       -2   -1    0    0    0  501  0.00000000000E+00  0.00000000000E+00  0.96795473437E+03  0.96795473437E+03  0.25500000920E-02 0. -1.
        2   -1    0    0  501    0  0.00000000000E+00  0.00000000000E+00 -0.18864395281E+04  0.18864395281E+04  0.25500000920E-02 0.  1.
    10030    2    1    2    0    0  0.00000000000E+00  0.00000000000E+00 -0.91848479377E+03  0.28543942625E+04  0.27025825222E+04 0.  0.
        1    1    3    3  502    0  0.98313267987E+03 -0.56840676219E+03 -0.12327417083E+04  0.16760931457E+04  0.50400001928E-02 0.  1.
       -1    1    3    3    0  502 -0.98313267987E+03  0.56840676219E+03  0.31425691457E+03  0.11783011168E+04  0.50400001928E-02 0. -1.
</event>
<event>
 5   0  0.1991277E-06  0.2711339E+04  0.7818609E-02  0.8331335E-01
        2   -1    0    0  501    0  0.00000000000E+00  0.00000000000E+00  0.11656917546E+04  0.11656917546E+04  0.25500000920E-02 0.  1.
       -2   -1    0    0    0  501  0.00000000000E+00  0.00000000000E+00 -0.15766087599E+04  0.15766087599E+04  0.25500000920E-02 0. -1.
    10030    2    1    2    0    0  0.00000000000E+00  0.00000000000E+00 -0.41091700530E+03  0.27423005145E+04  0.27113390284E+04 0.  0.
        5    1    3    3  502    0 -0.40974468629E+02  0.12678583538E+04  0.27820090719E+03  0.12986768448E+04  0.46999998093E+01 0. -1.
       -5    1    3    3    0  502  0.40974468629E+02 -0.12678583538E+04 -0.68911791249E+03  0.14436236697E+04  0.46999998093E+01 0.  1.
</event>
<event>
 5   0  0.2063087E-06  0.2700062E+04  0.7818609E-02  0.8334985E-01
       -2   -1    0    0    0  501  0.00000000000E+00  0.00000000000E+00  0.14816071874E+04  0.14816071874E+04  0.25500000920E-02 0. -1.
        2   -1    0    0  501    0  0.00000000000E+00  0.00000000000E+00 -0.12301399338E+04  0.12301399338E+04  0.25500000920E-02 0.  1.
    10030    2    1    2    0    0  0.00000000000E+00  0.00000000000E+00  0.25146725355E+03  0.27117471212E+04  0.27000623455E+04 0.  0.
        3    1    3    3  502    0 -0.34495059510E+03 -0.56270805103E+03 -0.10570525790E+04  0.12461907674E+04  0.10100000352E+00 0.  1.
       -3    1    3    3    0  502  0.34495059510E+03  0.56270805103E+03  0.13085198325E+04  0.14655563538E+04  0.10100000352E+00 0. -1.
</event>
<event>
 5   0  0.7335091E-07  0.2699107E+04  0.7818609E-02  0.8335295E-01
        1   -1    0    0  501    0  0.00000000000E+00  0.00000000000E+00  0.13377480105E+04  0.13377480105E+04  0.50400001928E-02 0. -1.
       -1   -1    0    0    0  501  0.00000000000E+00  0.00000000000E+00 -0.13614635972E+04  0.13614635972E+04  0.50400001928E-02 0.  1.
    10030    2    1    2    0    0  0.00000000000E+00  0.00000000000E+00 -0.23715586712E+02  0.26992116077E+04  0.26991074217E+04 0.  0.
        3    1    3    3  502    0 -0.60264899859E+03  0.47445196164E+03  0.10985925293E+04  0.13398492583E+04  0.10100000352E+00 0. -1.
       -3    1    3    3    0  502  0.60264899859E+03 -0.47445196164E+03 -0.11223081160E+04  0.13593623494E+04  0.10100000352E+00 0.  1.
</event>
<event>
 5   0  0.7335091E-07  0.2755573E+04  0.7818609E-02  0.8317195E-01
        1   -1    0    0  501    0  0.00000000000E+00  0.00000000000E+00  0.10835820013E+04  0.10835820014E+04  0.50400001928E-02 0.  1.
       -1   -1    0    0    0  501  0.00000000000E+00  0.00000000000E+00 -0.17518711990E+04  0.17518711990E+04  0.50400001928E-02 0. -1.
    10030    2    1    2    0    0  0.00000000000E+00  0.00000000000E+00 -0.66828919769E+03  0.28354532004E+04  0.27555733342E+04 0.  0.
        3    1    3    3  502    0 -0.10826554732E+04  0.24752512853E+03  0.50489725123E+03  0.12199724617E+04  0.10100000352E+00 0.  1.
       -3    1    3    3    0  502  0.10826554732E+04 -0.24752512853E+03 -0.11731864489E+04  0.16154807387E+04  0.10100000352E+00 0. -1.
</event>
<event>
 5   0  0.7806808E-07  0.2697569E+04  0.7818609E-02  0.8335794E-01
       -1   -1    0    0    0  501  0.00000000000E+00  0.00000000000E+00  0.10095035780E+04  0.10095035780E+04  0.50400001928E-02 0. -1.
        1   -1    0    0  501    0  0.00000000000E+00  0.00000000000E+00 -0.18020939316E+04  0.18020939316E+04  0.50400001928E-02 0.  1.
    10030    2    1    2    0    0  0.00000000000E+00  0.00000000000E+00 -0.79259035362E+03  0.28115975097E+04  0.26975694778E+04 0.  0.
        5    1    3    3  502    0 -0.68667475098E+02  0.13236224590E+04 -0.13571386778E+03  0.13323407897E+04  0.46999998093E+01 0. -1.
       -5    1    3    3    0  502  0.68667475098E+02 -0.13236224590E+04 -0.65687648584E+03  0.14792567200E+04  0.46999998093E+01 0.  1.
</event>
<event>
 5   0  0.7335091E-07  0.2701970E+04  0.7818609E-02  0.8334366E-01
       -1   -1    0    0    0  501  0.00000000000E+00  0.00000000000E+00  0.14199191885E+04  0.14199191885E+04  0.50400001928E-02 0.  1.
        1   -1    0    0  501    0  0.00000000000E+00  0.00000000000E+00 -0.12853977853E+04  0.12853977853E+04  0.50400001928E-02 0. -1.
    10030    2    1    2    0    0  0.00000000000E+00  0.00000000000E+00  0.13452140320E+03  0.27053169738E+04  0.27019703775E+04 0.  0.
        3    1    3    3  502    0 -0.13763131972E+03 -0.69969846001E+02  0.14110567148E+04  0.14194785036E+04  0.10100000352E+00 0.  1.
       -3    1    3    3    0  502  0.13763131972E+03  0.69969846001E+02 -0.12765353116E+04  0.12858384702E+04  0.10100000352E+00 0. -1.
</event>
<event>
 5   0  0.1932012E-06  0.2699440E+04  0.7818609E-02  0.8335187E-01
        2   -1    0    0  501    0  0.00000000000E+00  0.00000000000E+00  0.16561426447E+04  0.16561426447E+04  0.25500000920E-02 0. -1.
       -2   -1    0    0    0  501  0.00000000000E+00  0.00000000000E+00 -0.10999923123E+04  0.10999923123E+04  0.25500000920E-02 0.  1.
    10030    2    1    2    0    0  0.00000000000E+00  0.00000000000E+00  0.55615033237E+03  0.27561349569E+04  0.26994400732E+04 0.  0.
        2    1    3    3  502    0  0.10446770207E+04 -0.83937233452E+03  0.11392481950E+03  0.13449441840E+04  0.25500000920E-02 0. -1.
       -2    1    3    3    0  502 -0.10446770207E+04  0.83937233452E+03  0.44222551287E+03  0.14111907730E+04  0.25500000920E-02 0.  1.
</event>
<event>
 5   0  0.2063087E-06  0.2706310E+04  0.7818609E-02  0.8332961E-01
        2   -1    0    0  501    0  0.00000000000E+00  0.00000000000E+00  0.93734205991E+03  0.93734205991E+03  0.25500000920E-02 0. -1.
       -2   -1    0    0    0  501  0.00000000000E+00  0.00000000000E+00 -0.19534254170E+04  0.19534254170E+04  0.25500000920E-02 0.  1.
    10030    2    1    2    0    0  0.00000000000E+00  0.00000000000E+00 -0.10160833571E+04  0.28907674769E+04  0.27063095198E+04 0.  0.
        3    1    3    3  502    0 -0.10384842881E+04  0.55037731417E+03  0.20823245242E+03  0.11936186866E+04  0.10100000352E+00 0. -1.
       -3    1    3    3    0  502  0.10384842881E+04 -0.55037731417E+03 -0.12243158095E+04  0.16971487902E+04  0.10100000352E+00 0.  1.
</event>
<event>
 5   0  0.7335091E-07  0.2728064E+04  0.7818609E-02  0.8325956E-01
        1   -1    0    0  501    0  0.00000000000E+00  0.00000000000E+00  0.96699058717E+03  0.96699058718E+03  0.50400001928E-02 0.  1.
       -1   -1    0    0    0  501  0.00000000000E+00  0.00000000000E+00 -0.19240971502E+04  0.19240971502E+04  0.50400001928E-02 0. -1.
    10030    2    1    2    0    0  0.00000000000E+00  0.00000000000E+00 -0.95710656300E+03  0.28910877374E+04  0.27280643930E+04 0.  0.
        3    1    3    3  502    0 -0.11141790493E+04 -0.78322935079E+03 -0.55884805911E+03  0.14721257872E+04  0.10100000352E+00 0. -1.
       -3    1    3    3    0  502  0.11141790493E+04  0.78322935079E+03 -0.39825850390E+03  0.14189619502E+04  0.10100000352E+00 0.  1.
</event>
<event>
 5   0  0.7436613E-07  0.2734094E+04  0.7818609E-02  0.8324027E-01
       -1   -1    0    0    0  501  0.00000000000E+00  0.00000000000E+00  0.80174860707E+03  0.80174860708E+03  0.50400001928E-02 0.  1.
        1   -1    0    0  501    0  0.00000000000E+00  0.00000000000E+00 -0.23309269087E+04  0.23309269087E+04  0.50400001928E-02 0. -1.
    10030    2    1    2    0    0  0.00000000000E+00  0.00000000000E+00 -0.15291783017E+04  0.31326755158E+04  0.27340939284E+04 0.  0.
        2    1    3    3  502    0 -0.14793172247E+02  0.62965674243E+03 -0.21547824926E+04  0.22449441066E+04  0.25500000920E-02 0. -1.
       -2    1    3    3    0  502  0.14793172247E+02 -0.62965674243E+03  0.62560419093E+03  0.88773140924E+03  0.25500000920E-02 0.  1.
</event>
<event>
 5   0  0.1932012E-06  0.2701453E+04  0.7818609E-02  0.8334534E-01
       -2   -1    0    0    0  501  0.00000000000E+00  0.00000000000E+00  0.85033805113E+03  0.85033805114E+03  0.25500000920E-02 0. -1.
        2   -1    0    0  501    0  0.00000000000E+00  0.00000000000E+00 -0.21455727164E+04  0.21455727164E+04  0.25500000920E-02 0.  1.
    10030    2    1    2    0    0  0.00000000000E+00  0.00000000000E+00 -0.12952346653E+04  0.29959107676E+04  0.27014530329E+04 0.  0.
        2    1    3    3  502    0 -0.28765235891E+03 -0.65585686447E+02  0.81416751516E+03  0.86597581063E+03  0.25500000920E-02 0. -1.
       -2    1    3    3    0  502  0.28765235891E+03  0.65585686447E+02 -0.21094021804E+04  0.21299349569E+04  0.25500000920E-02 0.  1.
</event>
<event>
 5   0  0.7768032E-07  0.2697642E+04  0.7818609E-02  0.8335771E-01
       -1   -1    0    0    0  501  0.00000000000E+00  0.00000000000E+00  0.95743118218E+03  0.95743118219E+03  0.50400001928E-02 0. -1.
        1   -1    0    0  501    0  0.00000000000E+00  0.00000000000E+00 -0.19002074726E+04  0.19002074727E+04  0.50400001928E-02 0.  1.
    10030    2    1    2    0    0  0.00000000000E+00  0.00000000000E+00 -0.94277629047E+03  0.28576386548E+04  0.26976418494E+04 0.  0.
        4    1    3    3  502    0 -0.82291365199E+03  0.41650602880E+03  0.57118597185E+03  0.10848590591E+04  0.12699999809E+01 0.  1.
       -4    1    3    3    0  502  0.82291365199E+03 -0.41650602880E+03 -0.15139622623E+04  0.17727795958E+04  0.12699999809E+01 0. -1.
</event>
<event>
 5   0  0.2030645E-06  0.2691834E+04  0.7818609E-02  0.8337659E-01
       -2   -1    0    0    0  501  0.00000000000E+00  0.00000000000E+00  0.22348585309E+04  0.22348585309E+04  0.25500000920E-02 0.  1.
        2   -1    0    0  501    0  0.00000000000E+00  0.00000000000E+00 -0.81056247659E+03  0.81056247660E+03  0.25500000920E-02 0. -1.
    10030    2    1    2    0    0  0.00000000000E+00  0.00000000000E+00  0.14242960543E+04  0.30454210075E+04  0.26918339218E+04 0.  0.
        1    1    3    3  502    0  0.12635990715E+03  0.73970714118E+01 -0.80381379997E+03  0.81371872772E+03  0.50400001928E-02 0. -1.
       -1    1    3    3    0  502 -0.12635990715E+03 -0.73970714118E+01  0.22281098543E+04  0.22317022798E+04  0.50400001928E-02 0.  1.
</event>
<event>
 5   0  0.7768032E-07  0.2698357E+04  0.7818609E-02  0.8335538E-01
        1   -1    0    0  501    0  0.00000000000E+00  0.00000000000E+00  0.11769789340E+04  0.11769789340E+04  0.50400001928E-02 0. -1.
       -1   -1    0    0    0  501  0.00000000000E+00  0.00000000000E+00 -0.15465714297E+04  0.15465714297E+04  0.50400001928E-02 0.  1.
    10030    2    1    2    0    0  0.00000000000E+00  0.00000000000E+00 -0.36959249576E+03  0.27235503637E+04  0.26983565315E+04 0.  0.
        4    1    3    3  502    0  0.11250943364E+03 -0.91132446122E+02  0.11691140958E+04  0.11780462119E+04  0.12699999809E+01 0. -1.
       -4    1    3    3    0  502 -0.11250943364E+03  0.91132446122E+02 -0.15387065916E+04  0.15455041518E+04  0.12699999809E+01 0.  1.
</event>
<event>
 5   0  0.7335091E-07  0.2676984E+04  0.7818609E-02  0.8342512E-01
        1   -1    0    0  501    0  0.00000000000E+00  0.00000000000E+00  0.10256853331E+04  0.10256853331E+04  0.50400001928E-02 0. -1.
       -1   -1    0    0    0  501  0.00000000000E+00  0.00000000000E+00 -0.17466962120E+04  0.17466962120E+04  0.50400001928E-02 0.  1.
    10030    2    1    2    0    0  0.00000000000E+00  0.00000000000E+00 -0.72101087893E+03  0.27723815451E+04  0.26769838894E+04 0.  0.
        3    1    3    3  502    0 -0.17124408234E+03 -0.74185087227E+03 -0.15005962786E+04  0.16826932144E+04  0.10100000352E+00 0.  1.
       -3    1    3    3    0  502  0.17124408234E+03  0.74185087227E+03  0.77958539966E+03  0.10896883307E+04  0.10100000352E+00 0. -1.
</event>
<event>
 5   0  0.7436613E-07  0.2703469E+04  0.7818609E-02  0.8333880E-01
        1   -1    0    0  501    0  0.00000000000E+00  0.00000000000E+00  0.12286296935E+04  0.12286296935E+04  0.50400001928E-02 0. -1.
       -1   -1    0    0    0  501  0.00000000000E+00  0.00000000000E+00 -0.14871737992E+04  0.14871737993E+04  0.50400001928E-02 0.  1.
    10030    2    1    2    0    0  0.00000000000E+00  0.00000000000E+00 -0.25854410570E+03  0.27158034928E+04  0.27034688008E+04 0.  0.
        2    1    3    3  502    0 -0.31304155736E+03 -0.96128974144E+03  0.77210266921E+03  0.12720910012E+04  0.25500000920E-02 0. -1.
       -2    1    3    3    0  502  0.31304155736E+03  0.96128974144E+03 -0.10306467749E+04  0.14437124916E+04  0.25500000920E-02 0.  1.
</event>
<event>
 5   0  0.2030645E-06  0.2699567E+04  0.7818609E-02  0.8335145E-01
        2   -1    0    0  501    0  0.00000000000E+00  0.00000000000E+00  0.24992015819E+04  0.24992015819E+04  0.25500000920E-02 0.  1.
       -2   -1    0    0    0  501  0.00000000000E+00  0.00000000000E+00 -0.72899905101E+03  0.72899905101E+03  0.25500000920E-02 0. -1.
    10030    2    1    2    0    0  0.00000000000E+00  0.00000000000E+00  0.17702025309E+04  0.32282006329E+04  0.26995670627E+04 0.  0.
        1    1    3    3  502    0 -0.52267739487E+03  0.67656202528E+03  0.21341412301E+04  0.22990186217E+04  0.50400001928E-02 0.  1.
       -1    1    3    3    0  502  0.52267739487E+03 -0.67656202528E+03 -0.36393869917E+03  0.92918201120E+03  0.50400001928E-02 0. -1.
</event>
<event>
 5   0  0.1991277E-06  0.2705044E+04  0.7818609E-02  0.8333370E-01
       -2   -1    0    0    0  501  0.00000000000E+00  0.00000000000E+00  0.97918403659E+03  0.97918403660E+03  0.25500000920E-02 0. -1.
        2   -1    0    0  501    0  0.00000000000E+00  0.00000000000E+00 -0.18682039993E+04  0.18682039993E+04  0.25500000920E-02 0.  1.
    10030    2    1    2    0    0  0.00000000000E+00  0.00000000000E+00 -0.88901996274E+03  0.28473880359E+04  0.27050438320E+04 0.  0.
        5    1    3    3  502    0  0.75344663943E+03  0.36924895834E+03  0.67209639666E+03  0.10750638530E+04  0.46999998093E+01 0. -1.
       -5    1    3    3    0  502 -0.75344663943E+03 -0.36924895834E+03 -0.15611163594E+04  0.17723241829E+04  0.46999998093E+01 0.  1.
</event>
<event>
 5   0  0.7806808E-07  0.2698482E+04  0.7818609E-02  0.8335498E-01
        1   -1    0    0  501    0  0.00000000000E+00  0.00000000000E+00  0.11428224949E+04  0.11428224950E+04  0.50400001928E-02 0.  1.
       -1   -1    0    0    0  501  0.00000000000E+00  0.00000000000E+00 -0.15929430162E+04  0.15929430162E+04  0.50400001928E-02 0. -1.
    10030    2    1    2    0    0  0.00000000000E+00  0.00000000000E+00 -0.45012052121E+03  0.27357655111E+04  0.26984818784E+04 0.  0.
        5    1    3    3  502    0  0.65901210995E+03 -0.65191368057E+03  0.76886294166E+03  0.12043507467E+04  0.46999998093E+01 0.  1.
       -5    1    3    3    0  502 -0.65901210995E+03  0.65191368057E+03 -0.12189834629E+04  0.15314147644E+04  0.46999998093E+01 0. -1.
</event>
<event>
 5   0  0.1999104E-06  0.2699431E+04  0.7818609E-02  0.8335189E-01
       -2   -1    0    0    0  501  0.00000000000E+00  0.00000000000E+00  0.83360736385E+03  0.83360736385E+03  0.25500000920E-02 0.  1.
        2   -1    0    0  501    0  0.00000000000E+00  0.00000000000E+00 -0.21853603006E+04  0.21853603006E+04  0.25500000920E-02 0. -1.
    10030    2    1    2    0    0  0.00000000000E+00  0.00000000000E+00 -0.13517529367E+04  0.30189676644E+04  0.26994313766E+04 0.  0.
        4    1    3    3  502    0  0.11645227396E+04 -0.40084342841E+03 -0.58294074110E+02  0.12329592358E+04  0.12699999809E+01 0.  1.
       -4    1    3    3    0  502 -0.11645227396E+04  0.40084342841E+03 -0.12934588626E+04  0.17860084287E+04  0.12699999809E+01 0. -1.
</event>
<event>
 5   0  0.7566905E-07  0.2700147E+04  0.7818609E-02  0.8334957E-01
        1   -1    0    0  501    0  0.00000000000E+00  0.00000000000E+00  0.11969335266E+04  0.11969335267E+04  0.50400001928E-02 0.  1.
       -1   -1    0    0    0  501  0.00000000000E+00  0.00000000000E+00 -0.15228068514E+04  0.15228068514E+04  0.50400001928E-02 0. -1.
    10030    2    1    2    0    0  0.00000000000E+00  0.00000000000E+00 -0.32587332472E+03  0.27197403780E+04  0.27001470886E+04 0.  0.
        1    1    3    3  502    0 -0.26853116602E+02  0.69860853127E+03 -0.13262735664E+04  0.14992586644E+04  0.50400001928E-02 0. -1.
       -1    1    3    3    0  502  0.26853116602E+02 -0.69860853127E+03  0.10004002416E+04  0.12204817136E+04  0.50400001928E-02 0.  1.
</event>
<event>
 5   0  0.7806808E-07  0.2699084E+04  0.7818609E-02  0.8335302E-01
        1   -1    0    0  501    0  0.00000000000E+00  0.00000000000E+00  0.17270271003E+04  0.17270271003E+04  0.50400001928E-02 0. -1.
       -1   -1    0    0    0  501  0.00000000000E+00  0.00000000000E+00 -0.10545658492E+04  0.10545658492E+04  0.50400001928E-02 0.  1.
    10030    2    1    2    0    0  0.00000000000E+00  0.00000000000E+00  0.67246125112E+03  0.27815929496E+04  0.26990841415E+04 0.  0.
        5    1    3    3  502    0 -0.37827792588E+03  0.12413053356E+04 -0.45648570684E+02  0.12984756476E+04  0.46999998093E+01 0.  1.
       -5    1    3    3    0  502  0.37827792588E+03 -0.12413053356E+04  0.71810982180E+03  0.14831173020E+04  0.46999998093E+01 0. -1.
</event>
<event>
 5   0  0.7436613E-07  0.2683458E+04  0.7818609E-02  0.8340392E-01
        1   -1    0    0  501    0  0.00000000000E+00  0.00000000000E+00  0.28533245721E+04  0.28533245721E+04  0.50400001928E-02 0.  1.
       -1   -1    0    0    0  501  0.00000000000E+00  0.00000000000E+00 -0.63092613023E+03  0.63092613025E+03  0.50400001928E-02 0. -1.
    10030    2    1    2    0    0  0.00000000000E+00  0.00000000000E+00  0.22223984418E+04  0.34842507023E+04  0.26834582393E+04 0.  0.
        2    1    3    3  502    0  0.38933845947E+03  0.21922810970E+03 -0.53148780096E+03  0.69435198760E+03  0.25500000920E-02 0. -1.
       -2    1    3    3    0  502 -0.38933845947E+03 -0.21922810970E+03  0.27538862428E+04  0.27898987147E+04  0.25500000920E-02 0.  1.
</event>
<event>
 5   0  0.7436613E-07  0.2698066E+04  0.7818609E-02  0.8335633E-01
        1   -1    0    0  501    0  0.00000000000E+00  0.00000000000E+00  0.10726886235E+04  0.10726886236E+04  0.50400001928E-02 0. -1.
       -1   -1    0    0    0  501  0.00000000000E+00  0.00000000000E+00 -0.16965690387E+04  0.16965690387E+04  0.50400001928E-02 0.  1.
    10030    2    1    2    0    0  0.00000000000E+00  0.00000000000E+00 -0.62388041517E+03  0.27692576623E+04  0.26980662015E+04 0.  0.
        2    1    3    3  502    0 -0.57783790665E+03  0.28745548362E+03 -0.15278343782E+04  0.16585551509E+04  0.25500000920E-02 0.  1.
       -2    1    3    3    0  502  0.57783790665E+03 -0.28745548362E+03  0.90395396304E+03  0.11107025114E+04  0.25500000920E-02 0. -1.
</event>
<event>
 5   0  0.7806808E-07  0.2700745E+04  0.7818609E-02  0.8334763E-01
        1   -1    0    0  501    0  0.00000000000E+00  0.00000000000E+00  0.13698824355E+04  0.13698824355E+04  0.50400001928E-02 0.  1.
       -1   -1    0    0    0  501  0.00000000000E+00  0.00000000000E+00 -0.13311399873E+04  0.13311399873E+04  0.50400001928E-02 0. -1.
    10030    2    1    2    0    0  0.00000000000E+00  0.00000000000E+00  0.38742448168E+02  0.27010224228E+04  0.27007445550E+04 0.  0.
        5    1    3    3  502    0 -0.31790299248E+03 -0.66908846234E+02 -0.12914672912E+04  0.13317090375E+04  0.46999998093E+01 0. -1.
       -5    1    3    3    0  502  0.31790299248E+03  0.66908846234E+02  0.13302097394E+04  0.13693133853E+04  0.46999998093E+01 0.  1.
</event>
<event>
 5   0  0.7806808E-07  0.2703984E+04  0.7818609E-02  0.8333713E-01
        1   -1    0    0  501    0  0.00000000000E+00  0.00000000000E+00  0.22583193998E+04  0.22583193998E+04  0.50400001928E-02 0.  1.
       -1   -1    0    0    0  501  0.00000000000E+00  0.00000000000E+00 -0.80939954406E+03  0.80939954408E+03  0.50400001928E-02 0. -1.
    10030    2    1    2    0    0  0.00000000000E+00  0.00000000000E+00  0.14489198557E+04  0.30677189439E+04  0.27039842400E+04 0.  0.
        5    1    3    3  502    0 -0.80209240972E+03 -0.47386575516E+03  0.18360326830E+04  0.20588684006E+04  0.46999998093E+01 0.  1.
       -5    1    3    3    0  502  0.80209240972E+03  0.47386575516E+03 -0.38711282733E+03  0.10088505433E+04  0.46999998093E+01 0. -1.
</event>
<event>
 5   0  0.7436613E-07  0.2700543E+04  0.7818609E-02  0.8334829E-01
       -1   -1    0    0    0  501  0.00000000000E+00  0.00000000000E+00  0.15511024483E+04  0.15511024483E+04  0.50400001928E-02 0. -1.
        1   -1    0    0  501    0  0.00000000000E+00  0.00000000000E+00 -0.11754434269E+04  0.11754434269E+04  0.50400001928E-02 0.  1.
    10030    2    1    2    0    0  0.00000000000E+00  0.00000000000E+00  0.37565902143E+03  0.27265458752E+04  0.27005430397E+04 0.  0.
        2    1    3    3  502    0  0.85640665217E+03  0.12635380609E+03  0.12340677583E+04  0.15074219284E+04  0.25500000920E-02 0. -1.
       -2    1    3    3    0  502 -0.85640665217E+03 -0.12635380609E+03 -0.85840873685E+03  0.12191239468E+04  0.25500000920E-02 0.  1.
</event>
<event>
 5   0  0.7436613E-07  0.2718890E+04  0.7818609E-02  0.8328902E-01
       -1   -1    0    0    0  501  0.00000000000E+00  0.00000000000E+00  0.11092091526E+04  0.11092091526E+04  0.50400001928E-02 0.  1.
        1   -1    0    0  501    0  0.00000000000E+00  0.00000000000E+00 -0.16661332483E+04  0.16661332483E+04  0.50400001928E-02 0. -1.
    10030    2    1    2    0    0  0.00000000000E+00  0.00000000000E+00 -0.55692409566E+03  0.27753424009E+04  0.27188896619E+04 0.  0.
        2    1    3    3  502    0 -0.58239790545E+02 -0.21211941776E+03  0.10909227286E+04  0.11128786639E+04  0.25500000920E-02 0.  1.
       -2    1    3    3    0  502  0.58239790545E+02  0.21211941776E+03 -0.16478468243E+04  0.16624637370E+04  0.25500000920E-02 0. -1.
</event>
<event>
 5   0  0.7436613E-07  0.2703790E+04  0.7818609E-02  0.8333776E-01
       -1   -1    0    0    0  501  0.00000000000E+00  0.00000000000E+00  0.86876211861E+03  0.86876211863E+03  0.50400001928E-02 0. -1.
        1   -1    0    0  501    0  0.00000000000E+00  0.00000000000E+00 -0.21037062832E+04  0.21037062832E+04  0.50400001928E-02 0.  1.
    10030    2    1    2    0    0  0.00000000000E+00  0.00000000000E+00 -0.12349441646E+04  0.29724684019E+04  0.27037901750E+04 0.  0.
        2    1    3    3  502    0 -0.80970093908E+03 -0.47779675136E+03 -0.16854559333E+04  0.19299396492E+04  0.25500000920E-02 0.  1.
       -2    1    3    3    0  502  0.80970093908E+03  0.47779675136E+03  0.45051176872E+03  0.10425287527E+04  0.25500000920E-02 0. -1.
</event>
<event>
 5   0  0.2030645E-06  0.2696191E+04  0.7818609E-02  0.8336242E-01
        2   -1    0    0  501    0  0.00000000000E+00  0.00000000000E+00  0.18474008915E+04  0.18474008915E+04  0.25500000920E-02 0. -1.
       -2   -1    0    0    0  501  0.00000000000E+00  0.00000000000E+00 -0.98373932071E+03  0.98373932072E+03  0.25500000920E-02 0.  1.
    10030    2    1    2    0    0  0.00000000000E+00  0.00000000000E+00  0.86366157076E+03  0.28311402122E+04  0.26961905705E+04 0.  0.
        1    1    3    3  502    0 -0.24115175588E+02 -0.77066409165E+03  0.15930079600E+04  0.17697963285E+04  0.50400001928E-02 0. -1.
       -1    1    3    3    0  502  0.24115175588E+02  0.77066409165E+03 -0.72934638924E+03  0.10613438837E+04  0.50400001928E-02 0.  1.
</event>
<event>
 5   0  0.7806808E-07  0.2697805E+04  0.7818609E-02  0.8335718E-01
        1   -1    0    0  501    0  0.00000000000E+00  0.00000000000E+00  0.20040553622E+04  0.20040553622E+04  0.50400001928E-02 0.  1.
       -1   -1    0    0    0  501  0.00000000000E+00  0.00000000000E+00 -0.90792792102E+03  0.90792792103E+03  0.50400001928E-02 0. -1.
    10030    2    1    2    0    0  0.00000000000E+00  0.00000000000E+00  0.10961274412E+04  0.29119832832E+04  0.26978048993E+04 0.  0.
        5    1    3    3  502    0 -0.31402821022E+03  0.13116938189E+04  0.56858170504E+03  0.14637150121E+04  0.46999998093E+01 0.  1.
       -5    1    3    3    0  502  0.31402821022E+03 -0.13116938189E+04  0.52754573613E+03  0.14482682711E+04  0.46999998093E+01 0. -1.
</event>
<event>
 5   0  0.7436613E-07  0.2698716E+04  0.7818609E-02  0.8335422E-01
        1   -1    0    0  501    0  0.00000000000E+00  0.00000000000E+00  0.20131666182E+04  0.20131666182E+04  0.50400001928E-02 0.  1.
       -1   -1    0    0    0  501  0.00000000000E+00  0.00000000000E+00 -0.90442920575E+03  0.90442920577E+03  0.50400001928E-02 0. -1.
    10030    2    1    2    0    0  0.00000000000E+00  0.00000000000E+00  0.11087374124E+04  0.29175958239E+04  0.26987157579E+04 0.  0.
        2    1    3    3  502    0 -0.39759837950E+03 -0.39481031653E+03  0.18814477841E+04  0.19631111588E+04  0.25500000920E-02 0.  1.
       -2    1    3    3    0  502  0.39759837950E+03  0.39481031653E+03 -0.77271037172E+03  0.95448466514E+03  0.25500000920E-02 0. -1.
</event>
<event>
 5   0  0.7566905E-07  0.2705789E+04  0.7818609E-02  0.8333129E-01
       -1   -1    0    0    0  501  0.00000000000E+00  0.00000000000E+00  0.12911197064E+04  0.12911197064E+04  0.50400001928E-02 0.  1.
        1   -1    0    0  501    0  0.00000000000E+00  0.00000000000E+00 -0.14176253697E+04  0.14176253697E+04  0.50400001928E-02 0. -1.
    10030    2    1    2    0    0  0.00000000000E+00  0.00000000000E+00 -0.12650566323E+03  0.27087450761E+04  0.27057893866E+04 0.  0.
        1    1    3    3  502    0 -0.73188939769E+03 -0.11361132084E+04 -0.66463451947E+00  0.13514495013E+04  0.50400001928E-02 0. -1.
       -1    1    3    3    0  502  0.73188939769E+03  0.11361132084E+04 -0.12584102871E+03  0.13572955748E+04  0.50400001928E-02 0.  1.
</event>
<event>
 5   0  0.1991277E-06  0.2699772E+04  0.7818609E-02  0.8335079E-01
        2   -1    0    0  501    0  0.00000000000E+00  0.00000000000E+00  0.20280525389E+04  0.20280525389E+04  0.25500000920E-02 0.  1.
       -2   -1    0    0    0  501  0.00000000000E+00  0.00000000000E+00 -0.89849380629E+03  0.89849380630E+03  0.25500000920E-02 0. -1.
    10030    2    1    2    0    0  0.00000000000E+00  0.00000000000E+00  0.11295587326E+04  0.29265463452E+04  0.26997723201E+04 0.  0.
        5    1    3    3  502    0  0.10160975076E+04 -0.29000650160E+03 -0.34578665772E+03  0.11118221164E+04  0.46999998093E+01 0. -1.
       -5    1    3    3    0  502 -0.10160975076E+04  0.29000650160E+03  0.14753453904E+04  0.18147242288E+04  0.46999998093E+01 0.  1.
</event>
<event>
 5   0  0.1991277E-06  0.2700128E+04  0.7818609E-02  0.8334964E-01
        2   -1    0    0  501    0  0.00000000000E+00  0.00000000000E+00  0.60470982705E+03  0.60470982705E+03  0.25500000920E-02 0.  1.
       -2   -1    0    0    0  501  0.00000000000E+00  0.00000000000E+00 -0.30141269262E+04  0.30141269262E+04  0.25500000920E-02 0. -1.
    10030    2    1    2    0    0  0.00000000000E+00  0.00000000000E+00 -0.24094170991E+04  0.36188367532E+04  0.27001275320E+04 0.  0.
        5    1    3    3  502    0  0.44373541290E+03 -0.12665000710E+04 -0.10071572192E+04  0.16778889417E+04  0.46999998093E+01 0.  1.
       -5    1    3    3    0  502 -0.44373541290E+03  0.12665000710E+04 -0.14022598800E+04  0.19409478116E+04  0.46999998093E+01 0. -1.
</event>
<event>
 5   0  0.1999104E-06  0.2699111E+04  0.7818609E-02  0.8335294E-01
       -2   -1    0    0    0  501  0.00000000000E+00  0.00000000000E+00  0.10310663593E+04  0.10310663593E+04  0.25500000920E-02 0.  1.
        2   -1    0    0  501    0  0.00000000000E+00  0.00000000000E+00 -0.17664230520E+04  0.17664230520E+04  0.25500000920E-02 0. -1.
    10030    2    1    2    0    0  0.00000000000E+00  0.00000000000E+00 -0.73535669264E+03  0.27974894113E+04  0.26991105092E+04 0.  0.
        4    1    3    3  502    0  0.97629831881E+03 -0.84801732287E+03  0.32404233343E+02  0.12935777651E+04  0.12699999809E+01 0. -1.
       -4    1    3    3    0  502 -0.97629831881E+03  0.84801732287E+03 -0.76776092598E+03  0.15039116462E+04  0.12699999809E+01 0.  1.
</event>
<event>
 5   0  0.7806808E-07  0.2692414E+04  0.7818609E-02  0.8337471E-01
       -1   -1    0    0    0  501  0.00000000000E+00  0.00000000000E+00  0.11037100091E+04  0.11037100091E+04  0.50400001928E-02 0.  1.
        1   -1    0    0  501    0  0.00000000000E+00  0.00000000000E+00 -0.16419826905E+04  0.16419826905E+04  0.50400001928E-02 0. -1.
    10030    2    1    2    0    0  0.00000000000E+00  0.00000000000E+00 -0.53827268138E+03  0.27456926995E+04  0.26924135865E+04 0.  0.
        5    1    3    3  502    0  0.12655217545E+04  0.39891760670E+03 -0.50072059332E+03  0.14182467242E+04  0.46999998093E+01 0.  1.
       -5    1    3    3    0  502 -0.12655217545E+04 -0.39891760670E+03 -0.37552088055E+02  0.13274459753E+04  0.46999998093E+01 0. -1.
</event>
<event>
 5   0  0.1932012E-06  0.2699292E+04  0.7818609E-02  0.8335235E-01
        2   -1    0    0  501    0  0.00000000000E+00  0.00000000000E+00  0.15967576932E+04  0.15967576932E+04  0.25500000920E-02 0.  1.
       -2   -1    0    0    0  501  0.00000000000E+00  0.00000000000E+00 -0.11407766538E+04  0.11407766538E+04  0.25500000920E-02 0. -1.
    10030    2    1    2    0    0  0.00000000000E+00  0.00000000000E+00  0.45598103938E+03  0.27375343471E+04  0.26992916836E+04 0.  0.
        2    1    3    3  502    0 -0.64650550840E+03  0.33740643612E+03  0.13797436485E+04  0.15606104610E+04  0.25500000920E-02 0.  1.
       -2    1    3    3    0  502  0.64650550840E+03 -0.33740643612E+03 -0.92376260910E+03  0.11769238860E+04  0.25500000920E-02 0. -1.
</event>
<event>
 5   0  0.7436613E-07  0.2687096E+04  0.7818609E-02  0.8339204E-01
        1   -1    0    0  501    0  0.00000000000E+00  0.00000000000E+00  0.90251178649E+03  0.90251178651E+03  0.50400001928E-02 0.  1.
       -1   -1    0    0    0  501  0.00000000000E+00  0.00000000000E+00 -0.20001083558E+04  0.20001083558E+04  0.50400001928E-02 0. -1.
    10030    2    1    2    0    0  0.00000000000E+00  0.00000000000E+00 -0.10975965693E+04  0.29026201423E+04  0.26870961020E+04 0.  0.
        2    1    3    3  502    0 -0.81310605377E+03 -0.11264436769E+01  0.60655808717E+03  0.10144236968E+04  0.25500000920E-02 0.  1.
       -2    1    3    3    0  502  0.81310605377E+03  0.11264436769E+01 -0.17041546565E+04  0.18881964455E+04  0.25500000920E-02 0. -1.
</event>
<event>
 5   0  0.1932012E-06  0.2699854E+04  0.7818609E-02  0.8335052E-01
        2   -1    0    0  501    0  0.00000000000E+00  0.00000000000E+00  0.72006178979E+03  0.72006178979E+03  0.25500000920E-02 0. -1.
       -2   -1    0    0    0  501  0.00000000000E+00  0.00000000000E+00 -0.25307592141E+04  0.25307592141E+04  0.25500000920E-02 0.  1.
    10030    2    1    2    0    0  0.00000000000E+00  0.00000000000E+00 -0.18106974243E+04  0.32508210039E+04  0.26998540770E+04 0.  0.
        2    1    3    3  502    0  0.22546331233E+03  0.91510417042E+03 -0.20690424006E+04  0.22735843515E+04  0.25500000920E-02 0.  1.
       -2    1    3    3    0  502 -0.22546331233E+03 -0.91510417042E+03  0.25834497631E+03  0.97723665236E+03  0.25500000920E-02 0. -1.
</event>
<event>
 5   0  0.7806808E-07  0.2702950E+04  0.7818609E-02  0.8334048E-01
       -1   -1    0    0    0  501  0.00000000000E+00  0.00000000000E+00  0.13460130217E+04  0.13460130217E+04  0.50400001928E-02 0.  1.
        1   -1    0    0  501    0  0.00000000000E+00  0.00000000000E+00 -0.13569594623E+04  0.13569594623E+04  0.50400001928E-02 0. -1.
    10030    2    1    2    0    0  0.00000000000E+00  0.00000000000E+00 -0.10946440648E+02  0.27029724840E+04  0.27029503186E+04 0.  0.
        5    1    3    3  502    0  0.10317872736E+04 -0.11378010822E+03 -0.87088896338E+03  0.13549909843E+04  0.46999998093E+01 0. -1.
       -5    1    3    3    0  502 -0.10317872736E+04  0.11378010822E+03  0.85994252273E+03  0.13479814997E+04  0.46999998093E+01 0.  1.
</event>
<event>
 5   0  0.1999104E-06  0.2700388E+04  0.7818609E-02  0.8334879E-01
        2   -1    0    0  501    0  0.00000000000E+00  0.00000000000E+00  0.22681540506E+04  0.22681540506E+04  0.25500000920E-02 0.  1.
       -2   -1    0    0    0  501  0.00000000000E+00  0.00000000000E+00 -0.80374785868E+03  0.80374785869E+03  0.25500000920E-02 0. -1.
    10030    2    1    2    0    0  0.00000000000E+00  0.00000000000E+00  0.14644061919E+04  0.30719019092E+04  0.27003880916E+04 0.  0.
        4    1    3    3  502    0  0.40976522817E+03  0.74917293244E+03  0.19219675319E+04  0.21031234941E+04  0.12699999809E+01 0.  1.
       -4    1    3    3    0  502 -0.40976522817E+03 -0.74917293244E+03 -0.45756134000E+03  0.96877841516E+03  0.12699999809E+01 0. -1.
</event>
<event>
 5   0  0.7566905E-07  0.2701290E+04  0.7818609E-02  0.8334586E-01
       -1   -1    0    0    0  501  0.00000000000E+00  0.00000000000E+00  0.11243133300E+04  0.11243133301E+04  0.50400001928E-02 0. -1.
        1   -1    0    0  501    0  0.00000000000E+00  0.00000000000E+00 -0.16225391598E+04  0.16225391598E+04  0.50400001928E-02 0.  1.
    10030    2    1    2    0    0  0.00000000000E+00  0.00000000000E+00 -0.49822582978E+03  0.27468524899E+04  0.27012903627E+04 0.  0.
        1    1    3    3  502    0  0.11727109766E+04 -0.53421498153E+03 -0.66041727820E+03  0.14480288887E+04  0.50400001928E-02 0.  1.
       -1    1    3    3    0  502 -0.11727109766E+04  0.53421498153E+03  0.16219144842E+03  0.12988236012E+04  0.50400001928E-02 0. -1.
</event>
<event>
 5   0  0.7806808E-07  0.2695036E+04  0.7818609E-02  0.8336618E-01
        1   -1    0    0  501    0  0.00000000000E+00  0.00000000000E+00  0.20821835096E+04  0.20821835096E+04  0.50400001928E-02 0. -1.
       -1   -1    0    0    0  501  0.00000000000E+00  0.00000000000E+00 -0.87206737785E+03  0.87206737787E+03  0.50400001928E-02 0.  1.
    10030    2    1    2    0    0  0.00000000000E+00  0.00000000000E+00  0.12101161317E+04  0.29542508875E+04  0.26950356684E+04 0.  0.
        5    1    3    3  502    0  0.38941079225E+03  0.96641163163E+03  0.15417586751E+04  0.18608154420E+04  0.46999998093E+01 0. -1.
       -5    1    3    3    0  502 -0.38941079225E+03 -0.96641163163E+03 -0.33164254337E+03  0.10934354455E+04  0.46999998093E+01 0.  1.
</event>
<event>
 5   0  0.7566905E-07  0.2683046E+04  0.7818609E-02  0.8340527E-01
       -1   -1    0    0    0  501  0.00000000000E+00  0.00000000000E+00  0.15271513937E+04  0.15271513937E+04  0.50400001928E-02 0. -1.
        1   -1    0    0  501    0  0.00000000000E+00  0.00000000000E+00 -0.11784579866E+04  0.11784579866E+04  0.50400001928E-02 0.  1.
    10030    2    1    2    0    0  0.00000000000E+00  0.00000000000E+00  0.34869340716E+03  0.27056093803E+04  0.26830458487E+04 0.  0.
        1    1    3    3  502    0 -0.12914885459E+04  0.20287018337E+03 -0.12915743765E+03  0.13136896967E+04  0.50400001928E-02 0. -1.
       -1    1    3    3    0  502  0.12914885459E+04 -0.20287018337E+03  0.47785084482E+03  0.13919196836E+04  0.50400001928E-02 0.  1.
</event>
<event>
 5   0  0.1932012E-06  0.2696814E+04  0.7818609E-02  0.8336040E-01
       -2   -1    0    0    0  501  0.00000000000E+00  0.00000000000E+00  0.10022826233E+04  0.10022826233E+04  0.25500000920E-02 0. -1.
        2   -1    0    0  501    0  0.00000000000E+00  0.00000000000E+00 -0.18140600722E+04  0.18140600722E+04  0.25500000920E-02 0.  1.
    10030    2    1    2    0    0  0.00000000000E+00  0.00000000000E+00 -0.81177744890E+03  0.28163426956E+04  0.26968135924E+04 0.  0.
        2    1    3    3  502    0  0.58817319245E+03  0.11622572358E+04 -0.42003745568E+02  0.13032858094E+04  0.25500000920E-02 0. -1.
       -2    1    3    3    0  502 -0.58817319245E+03 -0.11622572358E+04 -0.76977370333E+03  0.15130568862E+04  0.25500000920E-02 0.  1.
</event>
<event>
 5   0  0.2063087E-06  0.2700047E+04  0.7818609E-02  0.8334990E-01
       -2   -1    0    0    0  501  0.00000000000E+00  0.00000000000E+00  0.15107195514E+04  0.15107195514E+04  0.25500000920E-02 0. -1.
        2   -1    0    0  501    0  0.00000000000E+00  0.00000000000E+00 -0.12064209013E+04  0.12064209013E+04  0.25500000920E-02 0.  1.
    10030    2    1    2    0    0  0.00000000000E+00  0.00000000000E+00  0.30429865004E+03  0.27171404527E+04  0.27000471424E+04 0.  0.
        3    1    3    3  502    0 -0.46380495689E+02 -0.86290221870E+03  0.11959293527E+04  0.14754654914E+04  0.10100000352E+00 0. -1.
       -3    1    3    3    0  502  0.46380495689E+02  0.86290221870E+03 -0.89163070264E+03  0.12416749613E+04  0.10100000352E+00 0.  1.
</event>
<event>
 5   0  0.7806808E-07  0.2702132E+04  0.7818609E-02  0.8334313E-01
       -1   -1    0    0    0  501  0.00000000000E+00  0.00000000000E+00  0.10791700147E+04  0.10791700147E+04  0.50400001928E-02 0.  1.
        1   -1    0    0  501    0  0.00000000000E+00  0.00000000000E+00 -0.16914663633E+04  0.16914663633E+04  0.50400001928E-02 0. -1.
    10030    2    1    2    0    0  0.00000000000E+00  0.00000000000E+00 -0.61229634863E+03  0.27706363780E+04  0.27021323285E+04 0.  0.
        5    1    3    3  502    0  0.63315075293E+02  0.12355343198E+04  0.25057523602E+03  0.12622851869E+04  0.46999998093E+01 0. -1.
       -5    1    3    3    0  502 -0.63315075293E+02 -0.12355343198E+04 -0.86287158465E+03  0.15083511911E+04  0.46999998093E+01 0.  1.
</event>
<event>
 5   0  0.6561875E-07  0.2697331E+04  0.7818609E-02  0.8335872E-01
        4   -1    0    0  501    0  0.00000000000E+00  0.00000000000E+00  0.90040665567E+03  0.90040755132E+03  0.12699999809E+01 0. -1.
       -4   -1    0    0    0  501  0.00000000000E+00  0.00000000000E+00 -0.20200832020E+04  0.20200836012E+04  0.12699999809E+01 0.  1.
    10030    2    1    2    0    0  0.00000000000E+00  0.00000000000E+00 -0.11196765464E+04  0.29204911526E+04  0.26973307183E+04 0.  0.
        1    1    3    3  502    0  0.38455661599E+03 -0.86280281612E+03 -0.16020705231E+04  0.18598232313E+04  0.50400001928E-02 0.  1.
       -1    1    3    3    0  502 -0.38455661599E+03  0.86280281612E+03  0.48239397679E+03  0.10606679213E+04  0.50400001928E-02 0. -1.
</event>
<event>
 5   0  0.1991277E-06  0.2700875E+04  0.7818609E-02  0.8334721E-01
        2   -1    0    0  501    0  0.00000000000E+00  0.00000000000E+00  0.14708656278E+04  0.14708656278E+04  0.25500000920E-02 0.  1.
       -2   -1    0    0    0  501  0.00000000000E+00  0.00000000000E+00 -0.12398695334E+04  0.12398695334E+04  0.25500000920E-02 0. -1.
    10030    2    1    2    0    0  0.00000000000E+00  0.00000000000E+00  0.23099609447E+03  0.27107351612E+04  0.27008750283E+04 0.  0.
        5    1    3    3  502    0 -0.51652723175E+03  0.12414840084E+04  0.24075938870E+03  0.13660417627E+04  0.46999998093E+01 0.  1.
       -5    1    3    3    0  502  0.51652723175E+03 -0.12414840084E+04 -0.97632942354E+01  0.13446933985E+04  0.46999998093E+01 0. -1.
</event>
<event>
 5   0  0.1991277E-06  0.2700663E+04  0.7818609E-02  0.8334790E-01
       -2   -1    0    0    0  501  0.00000000000E+00  0.00000000000E+00  0.16316445744E+04  0.16316445744E+04  0.25500000920E-02 0.  1.
        2   -1    0    0  501    0  0.00000000000E+00  0.00000000000E+00 -0.11175199189E+04  0.11175199190E+04  0.25500000920E-02 0. -1.
    10030    2    1    2    0    0  0.00000000000E+00  0.00000000000E+00  0.51412465547E+03  0.27491644934E+04  0.27006631131E+04 0.  0.
        5    1    3    3  502    0  0.10976431886E+04 -0.78316111703E+03  0.18357641417E+03  0.13608395550E+04  0.46999998093E+01 0. -1.
       -5    1    3    3    0  502 -0.10976431886E+04  0.78316111703E+03  0.33054824130E+03  0.13883249384E+04  0.46999998093E+01 0.  1.
</event>
<event>
 5   0  0.7566905E-07  0.2699333E+04  0.7818609E-02  0.8335222E-01
       -1   -1    0    0    0  501  0.00000000000E+00  0.00000000000E+00  0.14111304069E+04  0.14111304069E+04  0.50400001928E-02 0. -1.
        1   -1    0    0  501    0  0.00000000000E+00  0.00000000000E+00 -0.12908794255E+04  0.12908794256E+04  0.50400001928E-02 0.  1.
    10030    2    1    2    0    0  0.00000000000E+00  0.00000000000E+00  0.12025098139E+03  0.27020098325E+04  0.26993326650E+04 0.  0.
        1    1    3    3  502    0 -0.44872954366E+03  0.75459898267E+03  0.10862379602E+04  0.13966713050E+04  0.50400001928E-02 0. -1.
       -1    1    3    3    0  502  0.44872954366E+03 -0.75459898267E+03 -0.96598697884E+03  0.13053385275E+04  0.50400001928E-02 0.  1.
</event>
<event>
 5   0  0.1999104E-06  0.2701717E+04  0.7818609E-02  0.8334448E-01
        2   -1    0    0  501    0  0.00000000000E+00  0.00000000000E+00  0.13211834298E+04  0.13211834298E+04  0.25500000920E-02 0.  1.
       -2   -1    0    0    0  501  0.00000000000E+00  0.00000000000E+00 -0.13812002607E+04  0.13812002607E+04  0.25500000920E-02 0. -1.
    10030    2    1    2    0    0  0.00000000000E+00  0.00000000000E+00 -0.60016830888E+02  0.27023836905E+04  0.27017171559E+04 0.  0.
        4    1    3    3  502    0  0.23004055602E+03  0.13310513249E+04 -0.15827547226E+02  0.13508769045E+04  0.12699999809E+01 0.  1.
       -4    1    3    3    0  502 -0.23004055602E+03 -0.13310513249E+04 -0.44189283662E+02  0.13515067860E+04  0.12699999809E+01 0. -1.
</event>
<event>
 5   0  0.7566905E-07  0.2692117E+04  0.7818609E-02  0.8337567E-01
       -1   -1    0    0    0  501  0.00000000000E+00  0.00000000000E+00  0.15178852703E+04  0.15178852703E+04  0.50400001928E-02 0.  1.
        1   -1    0    0  501    0  0.00000000000E+00  0.00000000000E+00 -0.11936823801E+04  0.11936823801E+04  0.50400001928E-02 0. -1.
    10030    2    1    2    0    0  0.00000000000E+00  0.00000000000E+00  0.32420289024E+03  0.27115676504E+04  0.26921165667E+04 0.  0.
        1    1    3    3  502    0 -0.12550184568E+04 -0.44990240773E+03  0.34888510255E+03  0.13781162208E+04  0.50400001928E-02 0.  1.
       -1    1    3    3    0  502  0.12550184568E+04  0.44990240773E+03 -0.24682212305E+02  0.13334514295E+04  0.50400001928E-02 0. -1.
</event>
<event>
 5   0  0.7335091E-07  0.2694263E+04  0.7818609E-02  0.8336869E-01
       -1   -1    0    0    0  501  0.00000000000E+00  0.00000000000E+00  0.13150386182E+04  0.13150386182E+04  0.50400001928E-02 0. -1.
        1   -1    0    0  501    0  0.00000000000E+00  0.00000000000E+00 -0.13800072048E+04  0.13800072048E+04  0.50400001928E-02 0.  1.
    10030    2    1    2    0    0  0.00000000000E+00  0.00000000000E+00 -0.64968586602E+02  0.26950458230E+04  0.26942626210E+04 0.  0.
        3    1    3    3  502    0  0.65018707667E+03 -0.91844769039E+03  0.70832086561E+03  0.13296645643E+04  0.10100000352E+00 0. -1.
       -3    1    3    3    0  502 -0.65018707667E+03  0.91844769039E+03 -0.77328945221E+03  0.13653812588E+04  0.10100000352E+00 0.  1.
</event>
<event>
 5   0  0.7768032E-07  0.2697167E+04  0.7818609E-02  0.8335925E-01
       -1   -1    0    0    0  501  0.00000000000E+00  0.00000000000E+00  0.95806071258E+03  0.95806071259E+03  0.50400001928E-02 0.  1.
        1   -1    0    0  501    0  0.00000000000E+00  0.00000000000E+00 -0.18982904034E+04  0.18982904034E+04  0.50400001928E-02 0. -1.
    10030    2    1    2    0    0  0.00000000000E+00  0.00000000000E+00 -0.94022969079E+03  0.28563511160E+04  0.26971670001E+04 0.  0.
        4    1    3    3  502    0  0.89342740620E+03  0.23177414893E+03 -0.15113756240E+04  0.17709290432E+04  0.12699999809E+01 0. -1.
       -4    1    3    3    0  502 -0.89342740620E+03 -0.23177414893E+03  0.57114593318E+03  0.10854220728E+04  0.12699999809E+01 0.  1.
</event>
<event>
 5   0  0.1999104E-06  0.2700724E+04  0.7818609E-02  0.8334770E-01
        2   -1    0    0  501    0  0.00000000000E+00  0.00000000000E+00  0.12719161282E+04  0.12719161282E+04  0.25500000920E-02 0.  1.
       -2   -1    0    0    0  501  0.00000000000E+00  0.00000000000E+00 -0.14336460062E+04  0.14336460062E+04  0.25500000920E-02 0. -1.
    10030    2    1    2    0    0  0.00000000000E+00  0.00000000000E+00 -0.16172987794E+03  0.27055621344E+04  0.27007239603E+04 0.  0.
        4    1    3    3  502    0  0.32204329423E+03 -0.10134474403E+04 -0.91463487326E+03  0.14026211755E+04  0.12699999809E+01 0. -1.
       -4    1    3    3    0  502 -0.32204329423E+03  0.10134474403E+04  0.75290499531E+03  0.13029409589E+04  0.12699999809E+01 0.  1.
</event>
<event>
 5   0  0.7768032E-07  0.2701403E+04  0.7818609E-02  0.8334550E-01
        1   -1    0    0  501    0  0.00000000000E+00  0.00000000000E+00  0.21060150442E+04  0.21060150442E+04  0.50400001928E-02 0. -1.
       -1   -1    0    0    0  501  0.00000000000E+00  0.00000000000E+00 -0.86627824533E+03  0.86627824535E+03  0.50400001928E-02 0.  1.
    10030    2    1    2    0    0  0.00000000000E+00  0.00000000000E+00  0.12397367988E+04  0.29722932895E+04  0.27014033517E+04 0.  0.
        4    1    3    3  502    0 -0.68577344960E+03  0.26618569358E+03  0.18662712428E+04  0.20060184477E+04  0.12699999809E+01 0. -1.
       -4    1    3    3    0  502  0.68577344960E+03 -0.26618569358E+03 -0.62653444399E+03  0.96627484187E+03  0.12699999809E+01 0.  1.
</event>
<event>
 5   0  0.7335091E-07  0.2685989E+04  0.7818609E-02  0.8339565E-01
       -1   -1    0    0    0  501  0.00000000000E+00  0.00000000000E+00  0.22434082437E+04  0.22434082437E+04  0.50400001928E-02 0. -1.
        1   -1    0    0  501    0  0.00000000000E+00  0.00000000000E+00 -0.80397080187E+03  0.80397080189E+03  0.50400001928E-02 0.  1.
    10030    2    1    2    0    0  0.00000000000E+00  0.00000000000E+00  0.14394374418E+04  0.30473790456E+04  0.26859893705E+04 0.  0.
        3    1    3    3  502    0  0.95391877722E+02 -0.41093682903E+03 -0.72684594326E+03  0.84040093005E+03  0.10100000352E+00 0.  1.
       -3    1    3    3    0  502 -0.95391877722E+02  0.41093682903E+03  0.21662833851E+04  0.22069781155E+04  0.10100000352E+00 0. -1.
</event>
<event>
 5   0  0.2030645E-06  0.2694263E+04  0.7818609E-02  0.8336869E-01
       -2   -1    0    0    0  501  0.00000000000E+00  0.00000000000E+00  0.14724835126E+04  0.14724835127E+04  0.25500000920E-02 0. -1.
        2   -1    0    0  501    0  0.00000000000E+00  0.00000000000E+00 -0.12324508766E+04  0.12324508766E+04  0.25500000920E-02 0.  1.
    10030    2    1    2    0    0  0.00000000000E+00  0.00000000000E+00  0.24003263609E+03  0.27049343892E+04  0.26942632358E+04 0.  0.
        1    1    3    3  502    0 -0.30032536932E+03  0.34618249770E+03 -0.11517787828E+04  0.12396096215E+04  0.50400001928E-02 0.  1.
       -1    1    3    3    0  502  0.30032536932E+03 -0.34618249770E+03  0.13918114189E+04  0.14653247677E+04  0.50400001928E-02 0. -1.
</event>
<event>
 5   0  0.1991277E-06  0.2704143E+04  0.7818609E-02  0.8333662E-01
       -2   -1    0    0    0  501  0.00000000000E+00  0.00000000000E+00  0.69655643265E+03  0.69655643265E+03  0.25500000920E-02 0.  1.
        2   -1    0    0  501    0  0.00000000000E+00  0.00000000000E+00 -0.26244792812E+04  0.26244792812E+04  0.25500000920E-02 0. -1.
    10030    2    1    2    0    0  0.00000000000E+00  0.00000000000E+00 -0.19279228486E+04  0.33210357139E+04  0.27041434324E+04 0.  0.
        5    1    3    3  502    0 -0.92084280656E+03 -0.12364625913E+03 -0.21703037452E+04  0.23608219560E+04  0.46999998093E+01 0. -1.
       -5    1    3    3    0  502  0.92084280656E+03  0.12364625913E+03  0.24238089656E+03  0.96021375787E+03  0.46999998093E+01 0.  1.
</event>
<event>
 5   0  0.7768032E-07  0.2703111E+04  0.7818609E-02  0.8333996E-01
       -1   -1    0    0    0  501  0.00000000000E+00  0.00000000000E+00  0.97273663980E+03  0.97273663982E+03  0.50400001928E-02 0. -1.
        1   -1    0    0  501    0  0.00000000000E+00  0.00000000000E+00 -0.18778995075E+04  0.18778995075E+04  0.50400001928E-02 0.  1.
    10030    2    1    2    0    0  0.00000000000E+00  0.00000000000E+00 -0.90516286772E+03  0.28506361473E+04  0.27031105467E+04 0.  0.
        4    1    3    3  502    0  0.13696203647E+03  0.11537084018E+04 -0.11808488830E+04  0.16565649318E+04  0.12699999809E+01 0.  1.
       -4    1    3    3    0  502 -0.13696203647E+03 -0.11537084018E+04  0.27568601528E+03  0.11940712155E+04  0.12699999809E+01 0. -1.
</event>
<event>
 5   0  0.1999104E-06  0.2690805E+04  0.7818609E-02  0.8337995E-01
        2   -1    0    0  501    0  0.00000000000E+00  0.00000000000E+00  0.14660055232E+04  0.14660055232E+04  0.25500000920E-02 0.  1.
       -2   -1    0    0    0  501  0.00000000000E+00  0.00000000000E+00 -0.12347208478E+04  0.12347208478E+04  0.25500000920E-02 0. -1.
    10030    2    1    2    0    0  0.00000000000E+00  0.00000000000E+00  0.23128467536E+03  0.27007263710E+04  0.26908047736E+04 0.  0.
        4    1    3    3  502    0  0.12655622366E+04  0.37545183730E+03 -0.14511187981E+03  0.13280327283E+04  0.12699999809E+01 0. -1.
       -4    1    3    3    0  502 -0.12655622366E+04 -0.37545183730E+03  0.37639655517E+03  0.13726936427E+04  0.12699999809E+01 0.  1.
</event>
<event>
 5   0  0.1932012E-06  0.2698631E+04  0.7818609E-02  0.8335449E-01
        2   -1    0    0  501    0  0.00000000000E+00  0.00000000000E+00  0.16121369629E+04  0.16121369629E+04  0.25500000920E-02 0.  1.
       -2   -1    0    0    0  501  0.00000000000E+00  0.00000000000E+00 -0.11293408908E+04  0.11293408908E+04  0.25500000920E-02 0. -1.
    10030    2    1    2    0    0  0.00000000000E+00  0.00000000000E+00  0.48279607217E+03  0.27414778537E+04  0.26986309075E+04 0.  0.
        2    1    3    3  502    0  0.41902108465E+03  0.12473114340E+04 -0.62156758124E+02  0.13172805113E+04  0.25500000920E-02 0. -1.
       -2    1    3    3    0  502 -0.41902108465E+03 -0.12473114340E+04  0.54495283029E+03  0.14241973424E+04  0.25500000920E-02 0.  1.
</event>
<event>
 5   0  0.7566905E-07  0.2705267E+04  0.7818609E-02  0.8333298E-01
        1   -1    0    0  501    0  0.00000000000E+00  0.00000000000E+00  0.12355061811E+04  0.12355061811E+04  0.50400001928E-02 0.  1.
       -1   -1    0    0    0  501  0.00000000000E+00  0.00000000000E+00 -0.14808644192E+04  0.14808644192E+04  0.50400001928E-02 0. -1.
    10030    2    1    2    0    0  0.00000000000E+00  0.00000000000E+00 -0.24535823810E+03  0.27163706004E+04  0.27052668211E+04 0.  0.
        1    1    3    3  502    0 -0.23600864696E+03 -0.13311003042E+04 -0.76785479484E+02  0.13540399223E+04  0.50400001928E-02 0.  1.
       -1    1    3    3    0  502  0.23600864696E+03  0.13311003042E+04 -0.16857275862E+03  0.13623306780E+04  0.50400001928E-02 0. -1.
</event>
<event>
 5   0  0.1932012E-06  0.2709452E+04  0.7818609E-02  0.8331945E-01
        2   -1    0    0  501    0  0.00000000000E+00  0.00000000000E+00  0.21162582082E+04  0.21162582082E+04  0.25500000920E-02 0.  1.
       -2   -1    0    0    0  501  0.00000000000E+00  0.00000000000E+00 -0.86723018428E+03  0.86723018428E+03  0.25500000920E-02 0. -1.
    10030    2    1    2    0    0  0.00000000000E+00  0.00000000000E+00  0.12490280240E+04  0.29834883925E+04  0.27094523402E+04 0.  0.
        2    1    3    3  502    0  0.13074678457E+04 -0.12106176529E+03  0.25739481192E+03  0.13380508988E+04  0.25500000920E-02 0.  1.
       -2    1    3    3    0  502 -0.13074678457E+04  0.12106176529E+03  0.99163321204E+03  0.16454374937E+04  0.25500000920E-02 0. -1.
</event>
<event>
 5   0  0.7436613E-07  0.2698355E+04  0.7818609E-02  0.8335539E-01
        1   -1    0    0  501    0  0.00000000000E+00  0.00000000000E+00  0.15131813539E+04  0.15131813539E+04  0.50400001928E-02 0.  1.
       -1   -1    0    0    0  501  0.00000000000E+00  0.00000000000E+00 -0.12029490019E+04  0.12029490019E+04  0.50400001928E-02 0. -1.
    10030    2    1    2    0    0  0.00000000000E+00  0.00000000000E+00  0.31023235199E+03  0.27161303558E+04  0.26983550540E+04 0.  0.
        2    1    3    3  502    0 -0.80126802558E+02 -0.19088664382E+03  0.14970984790E+04  0.15113443920E+04  0.25500000920E-02 0.  1.
       -2    1    3    3    0  502  0.80126802558E+02  0.19088664382E+03 -0.11868661270E+04  0.12047859639E+04  0.25500000920E-02 0. -1.
</event>
<event>
 5   0  0.7566905E-07  0.2691104E+04  0.7818609E-02  0.8337897E-01
        1   -1    0    0  501    0  0.00000000000E+00  0.00000000000E+00  0.15864796062E+04  0.15864796062E+04  0.50400001928E-02 0.  1.
       -1   -1    0    0    0  501  0.00000000000E+00  0.00000000000E+00 -0.11412126897E+04  0.11412126898E+04  0.50400001928E-02 0. -1.
    10030    2    1    2    0    0  0.00000000000E+00  0.00000000000E+00  0.44526691642E+03  0.27276922959E+04  0.26911043522E+04 0.  0.
        1    1    3    3  502    0  0.63624550188E+01  0.10552060807E+04  0.10688557040E+04  0.15019829791E+04  0.50400001928E-02 0.  1.
       -1    1    3    3    0  502 -0.63624550188E+01 -0.10552060807E+04 -0.62358878755E+03  0.12257093169E+04  0.50400001928E-02 0. -1.
</event>
<event>
 5   0  0.2030645E-06  0.2702601E+04  0.7818609E-02  0.8334161E-01
        2   -1    0    0  501    0  0.00000000000E+00  0.00000000000E+00  0.19821496203E+04  0.19821496203E+04  0.25500000920E-02 0. -1.
       -2   -1    0    0    0  501  0.00000000000E+00  0.00000000000E+00 -0.92122876168E+03  0.92122876169E+03  0.25500000920E-02 0.  1.
    10030    2    1    2    0    0  0.00000000000E+00  0.00000000000E+00  0.10609208586E+04  0.29033783820E+04  0.27026011472E+04 0.  0.
        1    1    3    3  502    0 -0.62221466110E+03 -0.94322128339E+03 -0.26567192247E+03  0.11607751911E+04  0.50400001928E-02 0.  1.
       -1    1    3    3    0  502  0.62221466110E+03  0.94322128339E+03  0.13265927811E+04  0.17426031909E+04  0.50400001928E-02 0. -1.
</event>
<event>
 5   0  0.1932012E-06  0.2698584E+04  0.7818609E-02  0.8335465E-01
       -2   -1    0    0    0  501  0.00000000000E+00  0.00000000000E+00  0.91407234149E+03  0.91407234149E+03  0.25500000920E-02 0. -1.
        2   -1    0    0  501    0  0.00000000000E+00  0.00000000000E+00 -0.19917333608E+04  0.19917333608E+04  0.25500000920E-02 0.  1.
    10030    2    1    2    0    0  0.00000000000E+00  0.00000000000E+00 -0.10776610193E+04  0.29058057022E+04  0.26985836112E+04 0.  0.
        2    1    3    3  502    0  0.88390841801E+03  0.84497991323E+03 -0.11529811117E+04  0.16806696847E+04  0.25500000920E-02 0.  1.
       -2    1    3    3    0  502 -0.88390841801E+03 -0.84497991323E+03  0.75320092388E+02  0.12251360176E+04  0.25500000920E-02 0. -1.
</event>
<event>
 5   0  0.7566905E-07  0.2698970E+04  0.7818609E-02  0.8335339E-01
        1   -1    0    0  501    0  0.00000000000E+00  0.00000000000E+00  0.11608551761E+04  0.11608551761E+04  0.50400001928E-02 0. -1.
       -1   -1    0    0    0  501  0.00000000000E+00  0.00000000000E+00 -0.15687651636E+04  0.15687651636E+04  0.50400001928E-02 0.  1.
    10030    2    1    2    0    0  0.00000000000E+00  0.00000000000E+00 -0.40790998750E+03  0.27296203398E+04  0.26989695518E+04 0.  0.
        1    1    3    3  502    0 -0.99167778207E+03  0.23053819742E+03 -0.10997545249E+04  0.14986769829E+04  0.50400001928E-02 0.  1.
       -1    1    3    3    0  502  0.99167778207E+03 -0.23053819742E+03  0.69184453740E+03  0.12309433569E+04  0.50400001928E-02 0. -1.
</event>
<event>
 5   0  0.7436613E-07  0.2734537E+04  0.7818609E-02  0.8323885E-01
       -1   -1    0    0    0  501  0.00000000000E+00  0.00000000000E+00  0.10230968809E+04  0.10230968809E+04  0.50400001928E-02 0.  1.
        1   -1    0    0  501    0  0.00000000000E+00  0.00000000000E+00 -0.18272201829E+04  0.18272201829E+04  0.50400001928E-02 0. -1.
    10030    2    1    2    0    0  0.00000000000E+00  0.00000000000E+00 -0.80412330204E+03  0.28503170638E+04  0.27345370869E+04 0.  0.
        2    1    3    3  502    0 -0.10482353162E+04  0.15595780146E+02 -0.13169384910E+04  0.16832609707E+04  0.25500000920E-02 0. -1.
       -2    1    3    3    0  502  0.10482353162E+04 -0.15595780146E+02  0.51281518893E+03  0.11670560931E+04  0.25500000920E-02 0.  1.
</event>
<event>
 5   0  0.2030645E-06  0.2699807E+04  0.7818609E-02  0.8335068E-01
       -2   -1    0    0    0  501  0.00000000000E+00  0.00000000000E+00  0.12140603237E+04  0.12140603237E+04  0.25500000920E-02 0.  1.
        2   -1    0    0  501    0  0.00000000000E+00  0.00000000000E+00 -0.15009459662E+04  0.15009459662E+04  0.25500000920E-02 0. -1.
    10030    2    1    2    0    0  0.00000000000E+00  0.00000000000E+00 -0.28688564255E+03  0.27150062899E+04  0.26998066195E+04 0.  0.
        1    1    3    3  502    0 -0.59423357755E+03  0.10782217893E+04  0.41335582947E+03  0.12986680921E+04  0.50400001928E-02 0.  1.
       -1    1    3    3    0  502  0.59423357755E+03 -0.10782217893E+04 -0.70024147202E+03  0.14163381979E+04  0.50400001928E-02 0. -1.
</event>
<event>
 5   0  0.7436613E-07  0.2696680E+04  0.7818609E-02  0.8336083E-01
        1   -1    0    0  501    0  0.00000000000E+00  0.00000000000E+00  0.13552151889E+04  0.13552151889E+04  0.50400001928E-02 0.  1.
       -1   -1    0    0    0  501  0.00000000000E+00  0.00000000000E+00 -0.13414992380E+04  0.13414992380E+04  0.50400001928E-02 0. -1.
    10030    2    1    2    0    0  0.00000000000E+00  0.00000000000E+00  0.13715950872E+02  0.26967144269E+04  0.26966795458E+04 0.  0.
        2    1    3    3  502    0 -0.10587448748E+04 -0.61897661492E+03 -0.55345935005E+03  0.13455073437E+04  0.25500000920E-02 0. -1.
       -2    1    3    3    0  502  0.10587448748E+04  0.61897661492E+03  0.56717530092E+03  0.13512070832E+04  0.25500000920E-02 0.  1.
</event>
<event>
 5   0  0.7335091E-07  0.2705297E+04  0.7818609E-02  0.8333288E-01
        1   -1    0    0  501    0  0.00000000000E+00  0.00000000000E+00  0.11984795497E+04  0.11984795498E+04  0.50400001928E-02 0.  1.
       -1   -1    0    0    0  501  0.00000000000E+00  0.00000000000E+00 -0.15266490844E+04  0.15266490844E+04  0.50400001928E-02 0. -1.
    10030    2    1    2    0    0  0.00000000000E+00  0.00000000000E+00 -0.32816953468E+03  0.27251286342E+04  0.27052968099E+04 0.  0.
        3    1    3    3  502    0 -0.92329755797E+03  0.83499394936E+03 -0.69708022551E+03  0.14267494969E+04  0.10100000352E+00 0. -1.
       -3    1    3    3    0  502  0.92329755797E+03 -0.83499394936E+03  0.36891069084E+03  0.12983791372E+04  0.10100000352E+00 0.  1.
</event>
<event>
 5   0  0.1999104E-06  0.2698246E+04  0.7818609E-02  0.8335574E-01
       -2   -1    0    0    0  501  0.00000000000E+00  0.00000000000E+00  0.77782751672E+03  0.77782751672E+03  0.25500000920E-02 0. -1.
        2   -1    0    0  501    0  0.00000000000E+00  0.00000000000E+00 -0.23400215734E+04  0.23400215734E+04  0.25500000920E-02 0.  1.
    10030    2    1    2    0    0  0.00000000000E+00  0.00000000000E+00 -0.15621940567E+04  0.31178490901E+04  0.26982462226E+04 0.  0.
        4    1    3    3  502    0 -0.99225558807E+03  0.11135280320E+03 -0.18294701908E+04  0.20842104958E+04  0.12699999809E+01 0.  1.
       -4    1    3    3    0  502  0.99225558807E+03 -0.11135280320E+03  0.26727613415E+03  0.10336385943E+04  0.12699999809E+01 0. -1.
</event>
<event>
 5   0  0.1999104E-06  0.2692443E+04  0.7818609E-02  0.8337461E-01
        2   -1    0    0  501    0  0.00000000000E+00  0.00000000000E+00  0.17877286809E+04  0.17877286809E+04  0.25500000920E-02 0. -1.
       -2   -1    0    0    0  501  0.00000000000E+00  0.00000000000E+00 -0.10137511075E+04  0.10137511075E+04  0.25500000920E-02 0.  1.
    10030    2    1    2    0    0  0.00000000000E+00  0.00000000000E+00  0.77397757333E+03  0.28014797884E+04  0.26924427052E+04 0.  0.
        4    1    3    3  502    0 -0.38413003634E+03  0.60189623498E+03  0.15744673556E+04  0.17288100038E+04  0.12699999809E+01 0. -1.
       -4    1    3    3    0  502  0.38413003634E+03 -0.60189623498E+03 -0.80048978224E+03  0.10726697846E+04  0.12699999809E+01 0.  1.
</event>
<event>
 5   0  0.1999104E-06  0.2708429E+04  0.7818609E-02  0.8332275E-01
       -2   -1    0    0    0  501  0.00000000000E+00  0.00000000000E+00  0.72124463402E+03  0.72124463403E+03  0.25500000920E-02 0. -1.
        2   -1    0    0  501    0  0.00000000000E+00  0.00000000000E+00 -0.25426830564E+04  0.25426830564E+04  0.25500000920E-02 0.  1.
    10030    2    1    2    0    0  0.00000000000E+00  0.00000000000E+00 -0.18214384224E+04  0.32639276905E+04  0.27084287035E+04 0.  0.
        4    1    3    3  502    0 -0.85411052260E+01  0.12195516277E+04 -0.16201084988E+04  0.20278393141E+04  0.12699999809E+01 0.  1.
       -4    1    3    3    0  502  0.85411052260E+01 -0.12195516277E+04 -0.20132992363E+03  0.12360883764E+04  0.12699999809E+01 0. -1.
</event>
<event>
 5   0  0.2063087E-06  0.2700733E+04  0.7818609E-02  0.8334767E-01
       -2   -1    0    0    0  501  0.00000000000E+00  0.00000000000E+00  0.99526786760E+03  0.99526786760E+03  0.25500000920E-02 0.  1.
        2   -1    0    0  501    0  0.00000000000E+00  0.00000000000E+00 -0.18321597570E+04  0.18321597570E+04  0.25500000920E-02 0. -1.
    10030    2    1    2    0    0  0.00000000000E+00  0.00000000000E+00 -0.83689188945E+03  0.28274276247E+04  0.27007330372E+04 0.  0.
        3    1    3    3  502    0  0.56135566215E+03  0.94444451800E+03  0.40349208574E+03  0.11704279134E+04  0.10100000352E+00 0.  1.
       -3    1    3    3    0  502 -0.56135566215E+03 -0.94444451800E+03 -0.12403839752E+04  0.16569997113E+04  0.10100000352E+00 0. -1.
</event>
<event>
 5   0  0.7566905E-07  0.2687217E+04  0.7818609E-02  0.8339164E-01
        1   -1    0    0  501    0  0.00000000000E+00  0.00000000000E+00  0.19129926674E+04  0.19129926674E+04  0.50400001928E-02 0. -1.
       -1   -1    0    0    0  501  0.00000000000E+00  0.00000000000E+00 -0.94369645137E+03  0.94369645139E+03  0.50400001928E-02 0.  1.
    10030    2    1    2    0    0  0.00000000000E+00  0.00000000000E+00  0.96929621600E+03  0.28566891188E+04  0.26872174395E+04 0.  0.
        1    1    3    3  502    0  0.79152611066E+03  0.20155021044E+02 -0.66933648795E+03  0.10367888613E+04  0.50400001928E-02 0.  1.
       -1    1    3    3    0  502 -0.79152611066E+03 -0.20155021044E+02  0.16386327040E+04  0.18199002575E+04  0.50400001928E-02 0. -1.
</event>
<event>
 5   0  0.1932012E-06  0.2705322E+04  0.7818609E-02  0.8333280E-01
        2   -1    0    0  501    0  0.00000000000E+00  0.00000000000E+00  0.16872908960E+04  0.16872908960E+04  0.25500000920E-02 0.  1.
       -2   -1    0    0    0  501  0.00000000000E+00  0.00000000000E+00 -0.10843963665E+04  0.10843963665E+04  0.25500000920E-02 0. -1.
    10030    2    1    2    0    0  0.00000000000E+00  0.00000000000E+00  0.60289452953E+03  0.27716872625E+04  0.27053222483E+04 0.  0.
        2    1    3    3  502    0 -0.23119112276E+03  0.19432603428E+03  0.16523064900E+04  0.16796811244E+04  0.25500000920E-02 0.  1.
       -2    1    3    3    0  502  0.23119112276E+03 -0.19432603428E+03 -0.10494119604E+04  0.10920061381E+04  0.25500000920E-02 0. -1.
</event>
<event>
 5   0  0.2030645E-06  0.2699950E+04  0.7818609E-02  0.8335021E-01
        2   -1    0    0  501    0  0.00000000000E+00  0.00000000000E+00  0.22246487281E+04  0.22246487281E+04  0.25500000920E-02 0.  1.
       -2   -1    0    0    0  501  0.00000000000E+00  0.00000000000E+00 -0.81920020245E+03  0.81920020245E+03  0.25500000920E-02 0. -1.
    10030    2    1    2    0    0  0.00000000000E+00  0.00000000000E+00  0.14054485256E+04  0.30438489305E+04  0.26999501391E+04 0.  0.
        1    1    3    3  502    0 -0.77627038680E+03 -0.80977431026E+03 -0.14400852726E+03  0.11309591518E+04  0.50400001928E-02 0. -1.
       -1    1    3    3    0  502  0.77627038680E+03  0.80977431026E+03  0.15494570529E+04  0.19128897788E+04  0.50400001928E-02 0.  1.
</event>
<event>
 5   0  0.7436613E-07  0.2695953E+04  0.7818609E-02  0.8336319E-01
       -1   -1    0    0    0  501  0.00000000000E+00  0.00000000000E+00  0.19696016389E+04  0.19696016389E+04  0.50400001928E-02 0. -1.
        1   -1    0    0  501    0  0.00000000000E+00  0.00000000000E+00 -0.92254188737E+03  0.92254188738E+03  0.50400001928E-02 0.  1.
    10030    2    1    2    0    0  0.00000000000E+00  0.00000000000E+00  0.10470597515E+04  0.28921435263E+04  0.26959525317E+04 0.  0.
        2    1    3    3  502    0 -0.12775978317E+03 -0.12956245929E+04  0.14871239428E+03  0.13103743832E+04  0.25500000920E-02 0.  1.
       -2    1    3    3    0  502  0.12775978317E+03  0.12956245929E+04  0.89834735723E+03  0.15817691431E+04  0.25500000920E-02 0. -1.
</event>
<event>
 5   0  0.7436613E-07  0.2692787E+04  0.7818609E-02  0.8337349E-01
        1   -1    0    0  501    0  0.00000000000E+00  0.00000000000E+00  0.20220679336E+04  0.20220679336E+04  0.50400001928E-02 0. -1.
       -1   -1    0    0    0  501  0.00000000000E+00  0.00000000000E+00 -0.89649612020E+03  0.89649612021E+03  0.50400001928E-02 0.  1.
    10030    2    1    2    0    0  0.00000000000E+00  0.00000000000E+00  0.11255718134E+04  0.29185640539E+04  0.26927874460E+04 0.  0.
        2    1    3    3  502    0 -0.61542927368E+03  0.87168907903E+03 -0.32714320721E+03  0.11160724526E+04  0.25500000920E-02 0.  1.
       -2    1    3    3    0  502  0.61542927368E+03 -0.87168907903E+03  0.14527150207E+04  0.18024916013E+04  0.25500000920E-02 0. -1.
</event>
<event>
 5   0  0.2030645E-06  0.2692542E+04  0.7818609E-02  0.8337429E-01
        2   -1    0    0  501    0  0.00000000000E+00  0.00000000000E+00  0.14721999384E+04  0.14721999385E+04  0.25500000920E-02 0.  1.
       -2   -1    0    0    0  501  0.00000000000E+00  0.00000000000E+00 -0.12311134493E+04  0.12311134493E+04  0.25500000920E-02 0. -1.
    10030    2    1    2    0    0  0.00000000000E+00  0.00000000000E+00  0.24108648919E+03  0.27033133877E+04  0.26925416574E+04 0.  0.
        1    1    3    3  502    0  0.22858560609E+03 -0.59579858572E+03 -0.10696179524E+04  0.12455159165E+04  0.50400001928E-02 0. -1.
       -1    1    3    3    0  502 -0.22858560609E+03  0.59579858572E+03  0.13107044416E+04  0.14577974713E+04  0.50400001928E-02 0.  1.
</event>
<event>
 5   0  0.1999104E-06  0.2704894E+04  0.7818609E-02  0.8333419E-01
       -2   -1    0    0    0  501  0.00000000000E+00  0.00000000000E+00  0.17582928519E+04  0.17582928519E+04  0.25500000920E-02 0. -1.
        2   -1    0    0  501    0  0.00000000000E+00  0.00000000000E+00 -0.10402777220E+04  0.10402777220E+04  0.25500000920E-02 0.  1.
    10030    2    1    2    0    0  0.00000000000E+00  0.00000000000E+00  0.71801512983E+03  0.27985705739E+04  0.27048939962E+04 0.  0.
        4    1    3    3  502    0  0.12340762654E+04  0.53997543019E+03  0.23401998166E+03  0.13672178534E+04  0.12699999809E+01 0. -1.
       -4    1    3    3    0  502 -0.12340762654E+04 -0.53997543019E+03  0.48399514817E+03  0.14313527205E+04  0.12699999809E+01 0.  1.
</event>
<event>
 5   0  0.1999104E-06  0.2701050E+04  0.7818609E-02  0.8334665E-01
       -2   -1    0    0    0  501  0.00000000000E+00  0.00000000000E+00  0.10494560198E+04  0.10494560198E+04  0.25500000920E-02 0. -1.
        2   -1    0    0  501    0  0.00000000000E+00  0.00000000000E+00 -0.17379643499E+04  0.17379643499E+04  0.25500000920E-02 0.  1.
    10030    2    1    2    0    0  0.00000000000E+00  0.00000000000E+00 -0.68850833010E+03  0.27874203698E+04  0.27010495363E+04 0.  0.
        4    1    3    3  502    0  0.60791549161E+03 -0.90100918211E+03 -0.11714701249E+04  0.15980371265E+04  0.12699999809E+01 0.  1.
       -4    1    3    3    0  502 -0.60791549161E+03  0.90100918211E+03  0.48296179485E+03  0.11893832433E+04  0.12699999809E+01 0. -1.
</event>
<event>
 5   0  0.7335091E-07  0.2698611E+04  0.7818609E-02  0.8335456E-01
        1   -1    0    0  501    0  0.00000000000E+00  0.00000000000E+00  0.21051015573E+04  0.21051015573E+04  0.50400001928E-02 0.  1.
       -1   -1    0    0    0  501  0.00000000000E+00  0.00000000000E+00 -0.86486360597E+03  0.86486360598E+03  0.50400001928E-02 0. -1.
    10030    2    1    2    0    0  0.00000000000E+00  0.00000000000E+00  0.12402379513E+04  0.29699651633E+04  0.26986112901E+04 0.  0.
        3    1    3    3  502    0  0.90469923447E+03 -0.86618504580E+03  0.67789871020E+02  0.12543335741E+04  0.10100000352E+00 0.  1.
       -3    1    3    3    0  502 -0.90469923447E+03  0.86618504580E+03  0.11724480803E+04  0.17156315891E+04  0.10100000352E+00 0. -1.
</event>
<event>
 5   0  0.7806808E-07  0.2699703E+04  0.7818609E-02  0.8335101E-01
        1   -1    0    0  501    0  0.00000000000E+00  0.00000000000E+00  0.20222840540E+04  0.20222840540E+04  0.50400001928E-02 0.  1.
       -1   -1    0    0    0  501  0.00000000000E+00  0.00000000000E+00 -0.90101068940E+03  0.90101068941E+03  0.50400001928E-02 0. -1.
    10030    2    1    2    0    0  0.00000000000E+00  0.00000000000E+00  0.11212733646E+04  0.29232947434E+04  0.26997033538E+04 0.  0.
        5    1    3    3  502    0 -0.13016655077E+03 -0.94178067932E+03 -0.47694250047E+03  0.10636683777E+04  0.46999998093E+01 0. -1.
       -5    1    3    3    0  502  0.13016655077E+03  0.94178067932E+03  0.15982158650E+04  0.18596263657E+04  0.46999998093E+01 0.  1.
</event>
<event>
 5   0  0.1932012E-06  0.2694861E+04  0.7818609E-02  0.8336674E-01
       -2   -1    0    0    0  501  0.00000000000E+00  0.00000000000E+00  0.13118794640E+04  0.13118794640E+04  0.25500000920E-02 0. -1.
        2   -1    0    0  501    0  0.00000000000E+00  0.00000000000E+00 -0.13839446375E+04  0.13839446375E+04  0.25500000920E-02 0.  1.
    10030    2    1    2    0    0  0.00000000000E+00  0.00000000000E+00 -0.72065173469E+02  0.26958241016E+04  0.26948607009E+04 0.  0.
        2    1    3    3  502    0  0.30077565192E+02  0.11484747977E+04 -0.74032229351E+03  0.13667392287E+04  0.25500000920E-02 0.  1.
       -2    1    3    3    0  502 -0.30077565192E+02 -0.11484747977E+04  0.66825712004E+03  0.13290848729E+04  0.25500000920E-02 0. -1.
</event>
<event>
 5   0  0.7436613E-07  0.2699159E+04  0.7818609E-02  0.8335278E-01
        1   -1    0    0  501    0  0.00000000000E+00  0.00000000000E+00  0.12446573016E+04  0.12446573016E+04  0.50400001928E-02 0. -1.
       -1   -1    0    0    0  501  0.00000000000E+00  0.00000000000E+00 -0.14633459031E+04  0.14633459032E+04  0.50400001928E-02 0.  1.
    10030    2    1    2    0    0  0.00000000000E+00  0.00000000000E+00 -0.21868860155E+03  0.27080032048E+04  0.26991585082E+04 0.  0.
        2    1    3    3  502    0  0.39251004320E+03 -0.12896632746E+04 -0.45349178653E+02  0.13488335864E+04  0.25500000920E-02 0. -1.
       -2    1    3    3    0  502 -0.39251004320E+03  0.12896632746E+04 -0.17333942290E+03  0.13591696183E+04  0.25500000920E-02 0.  1.
</event>
<event>
 5   0  0.7436613E-07  0.2703221E+04  0.7818609E-02  0.8333961E-01
        1   -1    0    0  501    0  0.00000000000E+00  0.00000000000E+00  0.19747514210E+04  0.19747514210E+04  0.50400001928E-02 0.  1.
       -1   -1    0    0    0  501  0.00000000000E+00  0.00000000000E+00 -0.92510449934E+03  0.92510449935E+03  0.50400001928E-02 0. -1.
    10030    2    1    2    0    0  0.00000000000E+00  0.00000000000E+00  0.10496469217E+04  0.28998559203E+04  0.27032213558E+04 0.  0.
        2    1    3    3  502    0 -0.43025815520E+03  0.12241553971E+04  0.93072923954E+03  0.15968517256E+04  0.25500000920E-02 0.  1.
       -2    1    3    3    0  502  0.43025815520E+03 -0.12241553971E+04  0.11891768212E+03  0.13030041947E+04  0.25500000920E-02 0. -1.
</event>
<event>
 5   0  0.7566905E-07  0.2756432E+04  0.7818609E-02  0.8316924E-01
       -1   -1    0    0    0  501  0.00000000000E+00  0.00000000000E+00  0.89671814977E+03  0.89671814978E+03  0.50400001928E-02 0. -1.
        1   -1    0    0  501    0  0.00000000000E+00  0.00000000000E+00 -0.21182565684E+04  0.21182565684E+04  0.50400001928E-02 0.  1.
    10030    2    1    2    0    0  0.00000000000E+00  0.00000000000E+00 -0.12215384186E+04  0.30149747182E+04  0.27564318318E+04 0.  0.
        1    1    3    3  502    0 -0.85316921010E+03 -0.80082679812E+03  0.18572013694E+03  0.11847840440E+04  0.50400001928E-02 0. -1.
       -1    1    3    3    0  502  0.85316921010E+03  0.80082679812E+03 -0.14072585556E+04  0.18301906742E+04  0.50400001928E-02 0.  1.
</event>
<event>
 5   0  0.1932012E-06  0.2696128E+04  0.7818609E-02  0.8336262E-01
        2   -1    0    0  501    0  0.00000000000E+00  0.00000000000E+00  0.94885503840E+03  0.94885503840E+03  0.25500000920E-02 0. -1.
       -2   -1    0    0    0  501  0.00000000000E+00  0.00000000000E+00 -0.19152310534E+04  0.19152310534E+04  0.25500000920E-02 0.  1.
    10030    2    1    2    0    0  0.00000000000E+00  0.00000000000E+00 -0.96637601502E+03  0.28640860918E+04  0.26961280643E+04 0.  0.
        2    1    3    3  502    0  0.10041088538E+04  0.76034876231E+03  0.27280105452E+02  0.12598051575E+04  0.25500000920E-02 0. -1.
       -2    1    3    3    0  502 -0.10041088538E+04 -0.76034876231E+03 -0.99365612047E+03  0.16042809344E+04  0.25500000920E-02 0.  1.
</event>
<event>
 5   0  0.1999104E-06  0.2723379E+04  0.7818609E-02  0.8327459E-01
        2   -1    0    0  501    0  0.00000000000E+00  0.00000000000E+00  0.12731156356E+04  0.12731156356E+04  0.25500000920E-02 0.  1.
       -2   -1    0    0    0  501  0.00000000000E+00  0.00000000000E+00 -0.14564260327E+04  0.14564260327E+04  0.25500000920E-02 0. -1.
    10030    2    1    2    0    0  0.00000000000E+00  0.00000000000E+00 -0.18331039714E+03  0.27295416683E+04  0.27233793378E+04 0.  0.
        4    1    3    3  502    0 -0.11366059175E+04 -0.61542332548E+02  0.65738898580E+03  0.13144665694E+04  0.12699999809E+01 0.  1.
       -4    1    3    3    0  502  0.11366059175E+04  0.61542332548E+02 -0.84069938294E+03  0.14150750990E+04  0.12699999809E+01 0. -1.
</event>
<event>
 5   0  0.7335091E-07  0.2708997E+04  0.7818609E-02  0.8332092E-01
       -1   -1    0    0    0  501  0.00000000000E+00  0.00000000000E+00  0.14586376587E+04  0.14586376587E+04  0.50400001928E-02 0. -1.
        1   -1    0    0  501    0  0.00000000000E+00  0.00000000000E+00 -0.12577943172E+04  0.12577943172E+04  0.50400001928E-02 0.  1.
    10030    2    1    2    0    0  0.00000000000E+00  0.00000000000E+00  0.20084334151E+03  0.27164319760E+04  0.27089969790E+04 0.  0.
        3    1    3    3  502    0  0.64961974259E+03  0.83662750101E+03 -0.74611970674E+03  0.12956257223E+04  0.10100000352E+00 0.  1.
       -3    1    3    3    0  502 -0.64961974259E+03 -0.83662750101E+03  0.94696304825E+03  0.14208062536E+04  0.10100000352E+00 0. -1.
</event>
<event>
 5   0  0.2030645E-06  0.2713150E+04  0.7818609E-02  0.8330751E-01
       -2   -1    0    0    0  501  0.00000000000E+00  0.00000000000E+00  0.11342833001E+04  0.11342833001E+04  0.25500000920E-02 0. -1.
        2   -1    0    0  501    0  0.00000000000E+00  0.00000000000E+00 -0.16224302546E+04  0.16224302546E+04  0.25500000920E-02 0.  1.
    10030    2    1    2    0    0  0.00000000000E+00  0.00000000000E+00 -0.48814695449E+03  0.27567135547E+04  0.27131498620E+04 0.  0.
        1    1    3    3  502    0 -0.69850388948E+03 -0.10707914995E+04  0.21685506900E+03  0.12967375371E+04  0.50400001928E-02 0. -1.
       -1    1    3    3    0  502  0.69850388948E+03  0.10707914995E+04 -0.70500202350E+03  0.14599760177E+04  0.50400001928E-02 0.  1.
</event>
<event>
 5   0  0.7436613E-07  0.2692951E+04  0.7818609E-02  0.8337296E-01
        1   -1    0    0  501    0  0.00000000000E+00  0.00000000000E+00  0.20741973748E+04  0.20741973748E+04  0.50400001928E-02 0. -1.
       -1   -1    0    0    0  501  0.00000000000E+00  0.00000000000E+00 -0.87407153266E+03  0.87407153268E+03  0.50400001928E-02 0.  1.
    10030    2    1    2    0    0  0.00000000000E+00  0.00000000000E+00  0.12001258421E+04  0.29482689074E+04  0.26929514503E+04 0.  0.
        2    1    3    3  502    0 -0.20146776472E+03  0.23933209303E+03 -0.83373124050E+03  0.89049249990E+03  0.25500000920E-02 0.  1.
       -2    1    3    3    0  502  0.20146776472E+03 -0.23933209303E+03  0.20338570826E+04  0.20577764075E+04  0.25500000920E-02 0. -1.
</event>
<event>
 5   0  0.7566905E-07  0.2694548E+04  0.7818609E-02  0.8336776E-01
       -1   -1    0    0    0  501  0.00000000000E+00  0.00000000000E+00  0.13817186894E+04  0.13817186894E+04  0.50400001928E-02 0.  1.
        1   -1    0    0  501    0  0.00000000000E+00  0.00000000000E+00 -0.13136883498E+04  0.13136883498E+04  0.50400001928E-02 0. -1.
    10030    2    1    2    0    0  0.00000000000E+00  0.00000000000E+00  0.68030339675E+02  0.26954070392E+04  0.26945483814E+04 0.  0.
        1    1    3    3  502    0 -0.11262963935E+04  0.20327250900E+03  0.74507532911E+03  0.13656502206E+04  0.50400001928E-02 0.  1.
       -1    1    3    3    0  502  0.11262963935E+04 -0.20327250900E+03 -0.67704498943E+03  0.13297568186E+04  0.50400001928E-02 0. -1.
</event>
<event>
 5   0  0.7335091E-07  0.2699963E+04  0.7818609E-02  0.8335017E-01
        1   -1    0    0  501    0  0.00000000000E+00  0.00000000000E+00  0.10312457933E+04  0.10312457933E+04  0.50400001928E-02 0.  1.
       -1   -1    0    0    0  501  0.00000000000E+00  0.00000000000E+00 -0.17672310139E+04  0.17672310140E+04  0.50400001928E-02 0. -1.
    10030    2    1    2    0    0  0.00000000000E+00  0.00000000000E+00 -0.73598522064E+03  0.27984768073E+04  0.26999626286E+04 0.  0.
        3    1    3    3  502    0  0.12765779349E+03 -0.12244318523E+04 -0.94220996910E+03  0.15502546595E+04  0.10100000352E+00 0. -1.
       -3    1    3    3    0  502 -0.12765779349E+03  0.12244318523E+04  0.20622474846E+03  0.12482221478E+04  0.10100000352E+00 0.  1.
</event>
<event>
 5   0  0.7566905E-07  0.2692078E+04  0.7818609E-02  0.8337580E-01
        1   -1    0    0  501    0  0.00000000000E+00  0.00000000000E+00  0.12410543457E+04  0.12410543458E+04  0.50400001928E-02 0.  1.
       -1   -1    0    0    0  501  0.00000000000E+00  0.00000000000E+00 -0.14599042885E+04  0.14599042885E+04  0.50400001928E-02 0. -1.
    10030    2    1    2    0    0  0.00000000000E+00  0.00000000000E+00 -0.21884994277E+03  0.27009586343E+04  0.26920776821E+04 0.  0.
        1    1    3    3  502    0  0.30888987019E+03 -0.11938441270E+04  0.43193248872E+03  0.13066148730E+04  0.50400001928E-02 0.  1.
       -1    1    3    3    0  502 -0.30888987019E+03  0.11938441270E+04 -0.65078243149E+03  0.13943437613E+04  0.50400001928E-02 0. -1.
</event>
<event>
 5   0  0.7566905E-07  0.2705661E+04  0.7818609E-02  0.8333171E-01
       -1   -1    0    0    0  501  0.00000000000E+00  0.00000000000E+00  0.15203291016E+04  0.15203291017E+04  0.50400001928E-02 0. -1.
        1   -1    0    0  501    0  0.00000000000E+00  0.00000000000E+00 -0.12037855931E+04  0.12037855931E+04  0.50400001928E-02 0.  1.
    10030    2    1    2    0    0  0.00000000000E+00  0.00000000000E+00  0.31654350852E+03  0.27241146948E+04  0.27056609317E+04 0.  0.
        1    1    3    3  502    0 -0.37053113682E+03 -0.93456551992E+03 -0.75313390370E+03  0.12561515479E+04  0.50400001928E-02 0.  1.
       -1    1    3    3    0  502  0.37053113682E+03  0.93456551992E+03  0.10696774122E+04  0.14679631469E+04  0.50400001928E-02 0. -1.
</event>
<event>
 5   0  0.7436613E-07  0.2676095E+04  0.7818609E-02  0.8342803E-01
        1   -1    0    0  501    0  0.00000000000E+00  0.00000000000E+00  0.12501331028E+04  0.12501331028E+04  0.50400001928E-02 0.  1.
       -1   -1    0    0    0  501  0.00000000000E+00  0.00000000000E+00 -0.14321443869E+04  0.14321443869E+04  0.50400001928E-02 0. -1.
    10030    2    1    2    0    0  0.00000000000E+00  0.00000000000E+00 -0.18201128408E+03  0.26822774897E+04  0.26760949954E+04 0.  0.
        2    1    3    3  502    0 -0.29045435467E+03 -0.23405061147E+03 -0.13789753825E+04  0.14285364981E+04  0.25500000920E-02 0. -1.
       -2    1    3    3    0  502  0.29045435467E+03  0.23405061147E+03  0.11969640985E+04  0.12537409915E+04  0.25500000920E-02 0.  1.
</event>
<event>
 5   0  0.7566905E-07  0.2690589E+04  0.7818609E-02  0.8338065E-01
        1   -1    0    0  501    0  0.00000000000E+00  0.00000000000E+00  0.21926664413E+04  0.21926664413E+04  0.50400001928E-02 0. -1.
       -1   -1    0    0    0  501  0.00000000000E+00  0.00000000000E+00 -0.82539580596E+03  0.82539580598E+03  0.50400001928E-02 0.  1.
    10030    2    1    2    0    0  0.00000000000E+00  0.00000000000E+00  0.13672706354E+04  0.30180622473E+04  0.26905892920E+04 0.  0.
        1    1    3    3  502    0 -0.13842547292E+03 -0.55472604045E+03  0.20496074987E+04  0.21278565483E+04  0.50400001928E-02 0. -1.
       -1    1    3    3    0  502  0.13842547292E+03  0.55472604045E+03 -0.68233686330E+03  0.89020569901E+03  0.50400001928E-02 0.  1.
</event>
<event>
 5   0  0.1932012E-06  0.2680946E+04  0.7818609E-02  0.8341214E-01
        2   -1    0    0  501    0  0.00000000000E+00  0.00000000000E+00  0.15535770379E+04  0.15535770379E+04  0.25500000920E-02 0.  1.
       -2   -1    0    0    0  501  0.00000000000E+00  0.00000000000E+00 -0.11566004419E+04  0.11566004419E+04  0.25500000920E-02 0. -1.
    10030    2    1    2    0    0  0.00000000000E+00  0.00000000000E+00  0.39697659591E+03  0.27101774798E+04  0.26809460185E+04 0.  0.
        2    1    3    3  502    0 -0.71256269753E+03  0.17007730341E+03  0.13333128191E+04  0.15213135642E+04  0.25500000920E-02 0.  1.
       -2    1    3    3    0  502  0.71256269753E+03 -0.17007730341E+03 -0.93633622316E+03  0.11888639156E+04  0.25500000920E-02 0. -1.
</event>
<event>
 5   0  0.7436613E-07  0.2694993E+04  0.7818609E-02  0.8336631E-01
        1   -1    0    0  501    0  0.00000000000E+00  0.00000000000E+00  0.12603404564E+04  0.12603404564E+04  0.50400001928E-02 0. -1.
       -1   -1    0    0    0  501  0.00000000000E+00  0.00000000000E+00 -0.14406798066E+04  0.14406798066E+04  0.50400001928E-02 0.  1.
    10030    2    1    2    0    0  0.00000000000E+00  0.00000000000E+00 -0.18033935025E+03  0.27010202630E+04  0.26949931688E+04 0.  0.
        2    1    3    3  502    0  0.99716379838E+03  0.63073227599E+03  0.56212239727E+03  0.13069584669E+04  0.25500000920E-02 0. -1.
       -2    1    3    3    0  502 -0.99716379838E+03 -0.63073227599E+03 -0.74246174752E+03  0.13940617961E+04  0.25500000920E-02 0.  1.
</event>
<event>
 5   0  0.7806808E-07  0.2703127E+04  0.7818609E-02  0.8333991E-01
       -1   -1    0    0    0  501  0.00000000000E+00  0.00000000000E+00  0.68439118424E+03  0.68439118426E+03  0.50400001928E-02 0.  1.
        1   -1    0    0  501    0  0.00000000000E+00  0.00000000000E+00 -0.26691232384E+04  0.26691232384E+04  0.50400001928E-02 0. -1.
    10030    2    1    2    0    0  0.00000000000E+00  0.00000000000E+00 -0.19847320541E+04  0.33535144226E+04  0.27031273844E+04 0.  0.
        5    1    3    3  502    0  0.11641531092E+04 -0.48189494566E+03 -0.38557538347E+03  0.13176363940E+04  0.46999998093E+01 0.  1.
       -5    1    3    3    0  502 -0.11641531092E+04  0.48189494566E+03 -0.15991566707E+04  0.20358780287E+04  0.46999998093E+01 0. -1.
</event>
<event>
 5   0  0.2030645E-06  0.2707271E+04  0.7818609E-02  0.8332650E-01
       -2   -1    0    0    0  501  0.00000000000E+00  0.00000000000E+00  0.14205281525E+04  0.14205281525E+04  0.25500000920E-02 0.  1.
        2   -1    0    0  501    0  0.00000000000E+00  0.00000000000E+00 -0.12898931853E+04  0.12898931853E+04  0.25500000920E-02 0. -1.
    10030    2    1    2    0    0  0.00000000000E+00  0.00000000000E+00  0.13063496725E+03  0.27104213378E+04  0.27072713816E+04 0.  0.
        1    1    3    3  502    0 -0.68796231594E+03 -0.99123763623E+03 -0.54898047967E+03  0.13256031709E+04  0.50400001928E-02 0. -1.
       -1    1    3    3    0  502  0.68796231594E+03  0.99123763623E+03  0.67961544693E+03  0.13848181669E+04  0.50400001928E-02 0.  1.
</event>
<event>
 5   0  0.2030645E-06  0.2702354E+04  0.7818609E-02  0.8334242E-01
        2   -1    0    0  501    0  0.00000000000E+00  0.00000000000E+00  0.11929527199E+04  0.11929527199E+04  0.25500000920E-02 0.  1.
       -2   -1    0    0    0  501  0.00000000000E+00  0.00000000000E+00 -0.15303866740E+04  0.15303866740E+04  0.25500000920E-02 0. -1.
    10030    2    1    2    0    0  0.00000000000E+00  0.00000000000E+00 -0.33743395405E+03  0.27233393939E+04  0.27023537483E+04 0.  0.
        1    1    3    3  502    0 -0.12144402264E+04 -0.51371178561E+03 -0.46581834105E+03  0.13984818873E+04  0.50400001928E-02 0.  1.
       -1    1    3    3    0  502  0.12144402264E+04  0.51371178561E+03  0.12838438700E+03  0.13248575067E+04  0.50400001928E-02 0. -1.
</event>
<event>
 5   0  0.1932012E-06  0.2705381E+04  0.7818609E-02  0.8333261E-01
        2   -1    0    0  501    0  0.00000000000E+00  0.00000000000E+00  0.13619987747E+04  0.13619987747E+04  0.25500000920E-02 0.  1.
       -2   -1    0    0    0  501  0.00000000000E+00  0.00000000000E+00 -0.13434461608E+04  0.13434461608E+04  0.25500000920E-02 0. -1.
    10030    2    1    2    0    0  0.00000000000E+00  0.00000000000E+00  0.18552613923E+02  0.27054449354E+04  0.27053813223E+04 0.  0.
        2    1    3    3  502    0  0.11162934486E+04 -0.53097305093E+03 -0.54003487090E+03  0.13489555612E+04  0.25500000920E-02 0. -1.
       -2    1    3    3    0  502 -0.11162934486E+04  0.53097305093E+03  0.55858748482E+03  0.13564893743E+04  0.25500000920E-02 0.  1.
</event>
<event>
 5   0  0.1991277E-06  0.2700201E+04  0.7818609E-02  0.8334940E-01
       -2   -1    0    0    0  501  0.00000000000E+00  0.00000000000E+00  0.81357813027E+03  0.81357813027E+03  0.25500000920E-02 0.  1.
        2   -1    0    0  501    0  0.00000000000E+00  0.00000000000E+00 -0.22404374270E+04  0.22404374270E+04  0.25500000920E-02 0. -1.
    10030    2    1    2    0    0  0.00000000000E+00  0.00000000000E+00 -0.14268592967E+04  0.30540155573E+04  0.27002006539E+04 0.  0.
        5    1    3    3  502    0  0.54870631319E+03 -0.47139267407E+03 -0.20027371798E+04  0.21293820636E+04  0.46999998093E+01 0. -1.
       -5    1    3    3    0  502 -0.54870631319E+03  0.47139267407E+03  0.57587788313E+03  0.92463349365E+03  0.46999998093E+01 0.  1.
</event>
<event>
 5   0  0.7768032E-07  0.2695772E+04  0.7818609E-02  0.8336378E-01
       -1   -1    0    0    0  501  0.00000000000E+00  0.00000000000E+00  0.17115887171E+04  0.17115887171E+04  0.50400001928E-02 0. -1.
        1   -1    0    0  501    0  0.00000000000E+00  0.00000000000E+00 -0.10614683327E+04  0.10614683327E+04  0.50400001928E-02 0.  1.
    10030    2    1    2    0    0  0.00000000000E+00  0.00000000000E+00  0.65012038441E+03  0.27730570498E+04  0.26957724102E+04 0.  0.
        4    1    3    3  502    0  0.63913472133E+03 -0.57188791301E+03  0.13947010016E+04  0.16372970023E+04  0.12699999809E+01 0. -1.
       -4    1    3    3    0  502 -0.63913472133E+03  0.57188791301E+03 -0.74458061721E+03  0.11357600475E+04  0.12699999809E+01 0.  1.
</event>
<event>
 5   0  0.2030645E-06  0.2691269E+04  0.7818609E-02  0.8337843E-01
        2   -1    0    0  501    0  0.00000000000E+00  0.00000000000E+00  0.24523632836E+04  0.24523632836E+04  0.25500000920E-02 0.  1.
       -2   -1    0    0    0  501  0.00000000000E+00  0.00000000000E+00 -0.73836202389E+03  0.73836202390E+03  0.25500000920E-02 0. -1.
    10030    2    1    2    0    0  0.00000000000E+00  0.00000000000E+00  0.17140012597E+04  0.31907253075E+04  0.26912687843E+04 0.  0.
        1    1    3    3  502    0 -0.76712488846E+03 -0.36120495272E+03  0.20957982675E+04  0.22608228569E+04  0.50400001928E-02 0.  1.
       -1    1    3    3    0  502  0.76712488846E+03  0.36120495272E+03 -0.38179700780E+03  0.92990245056E+03  0.50400001928E-02 0. -1.
</event>
<event>
 5   0  0.7566905E-07  0.2697317E+04  0.7818609E-02  0.8335876E-01
       -1   -1    0    0    0  501  0.00000000000E+00  0.00000000000E+00  0.11588547745E+04  0.11588547745E+04  0.50400001928E-02 0.  1.
        1   -1    0    0  501    0  0.00000000000E+00  0.00000000000E+00 -0.15695488048E+04  0.15695488048E+04  0.50400001928E-02 0. -1.
    10030    2    1    2    0    0  0.00000000000E+00  0.00000000000E+00 -0.41069403034E+03  0.27284035793E+04  0.26973165378E+04 0.  0.
        1    1    3    3  502    0  0.12734467119E+04 -0.16425159239E+03  0.21200245212E+03  0.13013800957E+04  0.50400001928E-02 0. -1.
       -1    1    3    3    0  502 -0.12734467119E+04  0.16425159239E+03 -0.62269648246E+03  0.14270234837E+04  0.50400001928E-02 0.  1.
</event>
<event>
 5   0  0.7436613E-07  0.2705653E+04  0.7818609E-02  0.8333173E-01
       -1   -1    0    0    0  501  0.00000000000E+00  0.00000000000E+00  0.19019580502E+04  0.19019580502E+04  0.50400001928E-02 0. -1.
        1   -1    0    0  501    0  0.00000000000E+00  0.00000000000E+00 -0.96223950721E+03  0.96223950722E+03  0.50400001928E-02 0.  1.
    10030    2    1    2    0    0  0.00000000000E+00  0.00000000000E+00  0.93971854297E+03  0.28641975574E+04  0.27056527323E+04 0.  0.
        2    1    3    3  502    0  0.94074456141E+02 -0.84869269407E+01 -0.95874446141E+03  0.96338620164E+03  0.25500000920E-02 0.  1.
       -2    1    3    3    0  502 -0.94074456141E+02  0.84869269407E+01  0.18984630044E+04  0.19008113558E+04  0.25500000920E-02 0. -1.
</event>
<event>
 5   0  0.7335091E-07  0.2693862E+04  0.7818609E-02  0.8336999E-01
       -1   -1    0    0    0  501  0.00000000000E+00  0.00000000000E+00  0.91235736789E+03  0.91235736791E+03  0.50400001928E-02 0.  1.
        1   -1    0    0  501    0  0.00000000000E+00  0.00000000000E+00 -0.19884998171E+04  0.19884998171E+04  0.50400001928E-02 0. -1.
    10030    2    1    2    0    0  0.00000000000E+00  0.00000000000E+00 -0.10761424492E+04  0.29008571850E+04  0.26938615103E+04 0.  0.
        3    1    3    3  502    0 -0.22760714232E+03 -0.13257728236E+04 -0.46390316440E+03  0.14229141742E+04  0.10100000352E+00 0.  1.
       -3    1    3    3    0  502  0.22760714232E+03  0.13257728236E+04 -0.61223928483E+03  0.14779430108E+04  0.10100000352E+00 0. -1.
</event>
<event>
 5   0  0.7806808E-07  0.2700218E+04  0.7818609E-02  0.8334934E-01
       -1   -1    0    0    0  501  0.00000000000E+00  0.00000000000E+00  0.13068742333E+04  0.13068742333E+04  0.50400001928E-02 0. -1.
        1   -1    0    0  501    0  0.00000000000E+00  0.00000000000E+00 -0.13947739856E+04  0.13947739856E+04  0.50400001928E-02 0.  1.
    10030    2    1    2    0    0  0.00000000000E+00  0.00000000000E+00 -0.87899752316E+02  0.27016482190E+04  0.27002179047E+04 0.  0.
        5    1    3    3  502    0 -0.76749532193E+03 -0.69129125292E+03 -0.91380065702E+03  0.13791252287E+04  0.46999998093E+01 0.  1.
       -5    1    3    3    0  502  0.76749532193E+03  0.69129125292E+03  0.82590090470E+03  0.13225229903E+04  0.46999998093E+01 0. -1.
</event>
<event>
 5   0  0.7436613E-07  0.2699672E+04  0.7818609E-02  0.8335111E-01
       -1   -1    0    0    0  501  0.00000000000E+00  0.00000000000E+00  0.89471418180E+03  0.89471418182E+03  0.50400001928E-02 0.  1.
        1   -1    0    0  501    0  0.00000000000E+00  0.00000000000E+00 -0.20364683377E+04  0.20364683377E+04  0.50400001928E-02 0. -1.
    10030    2    1    2    0    0  0.00000000000E+00  0.00000000000E+00 -0.11417541559E+04  0.29311825195E+04  0.26996719079E+04 0.  0.
        2    1    3    3  502    0 -0.86236341673E+03 -0.17701122955E+03  0.54012866460E+03  0.10328323253E+04  0.25500000920E-02 0.  1.
       -2    1    3    3    0  502  0.86236341673E+03  0.17701122955E+03 -0.16818828205E+04  0.18983501942E+04  0.25500000920E-02 0. -1.
</event>
<event>
 5   0  0.2030645E-06  0.2704500E+04  0.7818609E-02  0.8333546E-01
        2   -1    0    0  501    0  0.00000000000E+00  0.00000000000E+00  0.22965990773E+04  0.22965990773E+04  0.25500000920E-02 0.  1.
       -2   -1    0    0    0  501  0.00000000000E+00  0.00000000000E+00 -0.79621190862E+03  0.79621190862E+03  0.25500000920E-02 0. -1.
    10030    2    1    2    0    0  0.00000000000E+00  0.00000000000E+00  0.15003871687E+04  0.30928109859E+04  0.27044996097E+04 0.  0.
        1    1    3    3  502    0 -0.54391544176E+02 -0.68075326069E+02 -0.79299805024E+03  0.79777101841E+03  0.50400001928E-02 0. -1.
       -1    1    3    3    0  502  0.54391544176E+02  0.68075326069E+02  0.22933852189E+04  0.22950399675E+04  0.50400001928E-02 0.  1.
</event>
<event>
 5   0  0.2063087E-06  0.2700456E+04  0.7818609E-02  0.8334857E-01
        2   -1    0    0  501    0  0.00000000000E+00  0.00000000000E+00  0.90434930926E+03  0.90434930926E+03  0.25500000920E-02 0.  1.
       -2   -1    0    0    0  501  0.00000000000E+00  0.00000000000E+00 -0.20159418956E+04  0.20159418956E+04  0.25500000920E-02 0. -1.
    10030    2    1    2    0    0  0.00000000000E+00  0.00000000000E+00 -0.11115925863E+04  0.29202912048E+04  0.27004560065E+04 0.  0.
        3    1    3    3  502    0 -0.51850111014E+03 -0.52646278480E+03 -0.17778859493E+04  0.19253272252E+04  0.10100000352E+00 0. -1.
       -3    1    3    3    0  502  0.51850111014E+03  0.52646278480E+03  0.66629336302E+03  0.99496397965E+03  0.10100000352E+00 0.  1.
</event>
<event>
 5   0  0.7566905E-07  0.2696274E+04  0.7818609E-02  0.8336215E-01
       -1   -1    0    0    0  501  0.00000000000E+00  0.00000000000E+00  0.12587203051E+04  0.12587203051E+04  0.50400001928E-02 0.  1.
        1   -1    0    0  501    0  0.00000000000E+00  0.00000000000E+00 -0.14439060364E+04  0.14439060364E+04  0.50400001928E-02 0. -1.
    10030    2    1    2    0    0  0.00000000000E+00  0.00000000000E+00 -0.18518573131E+03  0.27026263415E+04  0.26962743530E+04 0.  0.
        1    1    3    3  502    0  0.10412446663E+04 -0.85400613522E+03 -0.15564505153E+03  0.13556335479E+04  0.50400001928E-02 0. -1.
       -1    1    3    3    0  502 -0.10412446663E+04  0.85400613522E+03 -0.29540679782E+02  0.13469927936E+04  0.50400001928E-02 0.  1.
</event>
<event>
 5   0  0.7436613E-07  0.2697720E+04  0.7818609E-02  0.8335745E-01
        1   -1    0    0  501    0  0.00000000000E+00  0.00000000000E+00  0.16263731872E+04  0.16263731873E+04  0.50400001928E-02 0.  1.
       -1   -1    0    0    0  501  0.00000000000E+00  0.00000000000E+00 -0.11186995426E+04  0.11186995426E+04  0.50400001928E-02 0. -1.
    10030    2    1    2    0    0  0.00000000000E+00  0.00000000000E+00  0.50767364462E+03  0.27450727299E+04  0.26977197339E+04 0.  0.
        2    1    3    3  502    0  0.64942831105E+03 -0.74838650721E+03  0.11850970793E+04  0.15447636009E+04  0.25500000920E-02 0.  1.
       -2    1    3    3    0  502 -0.64942831105E+03  0.74838650721E+03 -0.67742343463E+03  0.12003091290E+04  0.25500000920E-02 0. -1.
</event>
<event>
 5   0  0.7566905E-07  0.2692082E+04  0.7818609E-02  0.8337579E-01
       -1   -1    0    0    0  501  0.00000000000E+00  0.00000000000E+00  0.11492291514E+04  0.11492291514E+04  0.50400001928E-02 0. -1.
        1   -1    0    0  501    0  0.00000000000E+00  0.00000000000E+00 -0.15765574962E+04  0.15765574962E+04  0.50400001928E-02 0.  1.
    10030    2    1    2    0    0  0.00000000000E+00  0.00000000000E+00 -0.42732834480E+03  0.27257866476E+04  0.26920815987E+04 0.  0.
        1    1    3    3  502    0  0.80399933767E+03 -0.47596543468E+03  0.76741908272E+03  0.12090864645E+04  0.50400001928E-02 0. -1.
       -1    1    3    3    0  502 -0.80399933767E+03  0.47596543468E+03 -0.11947474275E+04  0.15167001832E+04  0.50400001928E-02 0.  1.
</event>
<event>
 5   0  0.7768032E-07  0.2700696E+04  0.7818609E-02  0.8334779E-01
        1   -1    0    0  501    0  0.00000000000E+00  0.00000000000E+00  0.19324781611E+04  0.19324781611E+04  0.50400001928E-02 0.  1.
       -1   -1    0    0    0  501  0.00000000000E+00  0.00000000000E+00 -0.94357602962E+03  0.94357602964E+03  0.50400001928E-02 0. -1.
    10030    2    1    2    0    0  0.00000000000E+00  0.00000000000E+00  0.98890213151E+03  0.28760541908E+04  0.27006962589E+04 0.  0.
        4    1    3    3  502    0  0.65873496959E+03  0.30624876951E+03  0.17066576347E+04  0.18548320581E+04  0.12699999809E+01 0.  1.
       -4    1    3    3    0  502 -0.65873496959E+03 -0.30624876951E+03 -0.71775550317E+03  0.10212221326E+04  0.12699999809E+01 0. -1.
</event>
<event>
 5   0  0.7335091E-07  0.2700417E+04  0.7818609E-02  0.8334870E-01
        1   -1    0    0  501    0  0.00000000000E+00  0.00000000000E+00  0.15086218280E+04  0.15086218280E+04  0.50400001928E-02 0. -1.
       -1   -1    0    0    0  501  0.00000000000E+00  0.00000000000E+00 -0.12084292378E+04  0.12084292378E+04  0.50400001928E-02 0.  1.
    10030    2    1    2    0    0  0.00000000000E+00  0.00000000000E+00  0.30019259020E+03  0.27170510657E+04  0.27004168016E+04 0.  0.
        3    1    3    3  502    0 -0.13043230790E+04 -0.81109930462E+02 -0.19144304509E+03  0.13207906590E+04  0.10100000352E+00 0.  1.
       -3    1    3    3    0  502  0.13043230790E+04  0.81109930462E+02  0.49163563529E+03  0.13962604067E+04  0.10100000352E+00 0. -1.
</event>
<event>
 5   0  0.2030645E-06  0.2704928E+04  0.7818609E-02  0.8333408E-01
        2   -1    0    0  501    0  0.00000000000E+00  0.00000000000E+00  0.12382320452E+04  0.12382320452E+04  0.25500000920E-02 0.  1.
       -2   -1    0    0    0  501  0.00000000000E+00  0.00000000000E+00 -0.14772340307E+04  0.14772340307E+04  0.25500000920E-02 0. -1.
    10030    2    1    2    0    0  0.00000000000E+00  0.00000000000E+00 -0.23900198556E+03  0.27154660759E+04  0.27049277366E+04 0.  0.
        1    1    3    3  502    0 -0.85508429895E+03  0.49120663313E+03  0.80968887745E+03  0.12759503098E+04  0.50400001928E-02 0.  1.
       -1    1    3    3    0  502  0.85508429895E+03 -0.49120663313E+03 -0.10486908630E+04  0.14395157661E+04  0.50400001928E-02 0. -1.
</event>
<event>
 5   0  0.7806808E-07  0.2702713E+04  0.7818609E-02  0.8334125E-01
       -1   -1    0    0    0  501  0.00000000000E+00  0.00000000000E+00  0.81704309709E+03  0.81704309710E+03  0.50400001928E-02 0.  1.
        1   -1    0    0  501    0  0.00000000000E+00  0.00000000000E+00 -0.22350902265E+04  0.22350902265E+04  0.50400001928E-02 0. -1.
    10030    2    1    2    0    0  0.00000000000E+00  0.00000000000E+00 -0.14180471294E+04  0.30521333236E+04  0.27027134816E+04 0.  0.
        5    1    3    3  502    0 -0.55853165744E+02  0.12550752303E+04 -0.12711868835E+04  0.17872525263E+04  0.46999998093E+01 0. -1.
       -5    1    3    3    0  502  0.55853165744E+02 -0.12550752303E+04 -0.14686024589E+03  0.12648807974E+04  0.46999998093E+01 0.  1.
</event>
<event>
 5   0  0.1932012E-06  0.2669508E+04  0.7818609E-02  0.8344967E-01
       -2   -1    0    0    0  501  0.00000000000E+00  0.00000000000E+00  0.22125528671E+04  0.22125528671E+04  0.25500000920E-02 0. -1.
        2   -1    0    0  501    0  0.00000000000E+00  0.00000000000E+00 -0.80520921949E+03  0.80520921949E+03  0.25500000920E-02 0.  1.
    10030    2    1    2    0    0  0.00000000000E+00  0.00000000000E+00  0.14073436476E+04  0.30177620866E+04  0.26695077952E+04 0.  0.
        2    1    3    3  502    0 -0.25530662323E+02  0.11821034695E+04  0.14037771882E+04  0.18353775692E+04  0.25500000920E-02 0. -1.
       -2    1    3    3    0  502  0.25530662323E+02 -0.11821034695E+04  0.35664594055E+01  0.11823845174E+04  0.25500000920E-02 0.  1.
</event>
<event>
 5   0  0.7768032E-07  0.2690713E+04  0.7818609E-02  0.8338024E-01
        1   -1    0    0  501    0  0.00000000000E+00  0.00000000000E+00  0.15604610730E+04  0.15604610730E+04  0.50400001928E-02 0.  1.
       -1   -1    0    0    0  501  0.00000000000E+00  0.00000000000E+00 -0.11599038003E+04  0.11599038003E+04  0.50400001928E-02 0. -1.
    10030    2    1    2    0    0  0.00000000000E+00  0.00000000000E+00  0.40055727274E+03  0.27203648733E+04  0.26907134584E+04 0.  0.
        4    1    3    3  502    0 -0.26866022640E+03  0.10364938506E+04  0.10238009269E+04  0.14814411127E+04  0.12699999809E+01 0.  1.
       -4    1    3    3    0  502  0.26866022640E+03 -0.10364938506E+04 -0.62324365413E+03  0.12389237607E+04  0.12699999809E+01 0. -1.
</event>
<event>
 5   0  0.2063087E-06  0.2701377E+04  0.7818609E-02  0.8334558E-01
        2   -1    0    0  501    0  0.00000000000E+00  0.00000000000E+00  0.13299601213E+04  0.13299601213E+04  0.25500000920E-02 0.  1.
       -2   -1    0    0    0  501  0.00000000000E+00  0.00000000000E+00 -0.13717396974E+04  0.13717396974E+04  0.25500000920E-02 0. -1.
    10030    2    1    2    0    0  0.00000000000E+00  0.00000000000E+00 -0.41779576108E+02  0.27016998187E+04  0.27013767560E+04 0.  0.
        3    1    3    3  502    0 -0.15542709959E+03  0.51808388597E+03  0.12169135038E+04  0.13317082947E+04  0.10100000352E+00 0.  1.
       -3    1    3    3    0  502  0.15542709959E+03 -0.51808388597E+03 -0.12586930800E+04  0.13699915240E+04  0.10100000352E+00 0. -1.
</event>
<event>
 5   0  0.7566905E-07  0.2700197E+04  0.7818609E-02  0.8334941E-01
       -1   -1    0    0    0  501  0.00000000000E+00  0.00000000000E+00  0.12446432290E+04  0.12446432290E+04  0.50400001928E-02 0. -1.
        1   -1    0    0  501    0  0.00000000000E+00  0.00000000000E+00 -0.14644887782E+04  0.14644887783E+04  0.50400001928E-02 0.  1.
    10030    2    1    2    0    0  0.00000000000E+00  0.00000000000E+00 -0.21984554928E+03  0.27091320072E+04  0.27001970608E+04 0.  0.
        1    1    3    3  502    0  0.95681489728E+03  0.94478917179E+03 -0.23133856432E+03  0.13644188720E+04  0.50400001928E-02 0. -1.
       -1    1    3    3    0  502 -0.95681489728E+03 -0.94478917179E+03  0.11493015041E+02  0.13447131353E+04  0.50400001928E-02 0.  1.
</event>
<event>
 5   0  0.2063087E-06  0.2703083E+04  0.7818609E-02  0.8334005E-01
       -2   -1    0    0    0  501  0.00000000000E+00  0.00000000000E+00  0.11659557536E+04  0.11659557536E+04  0.25500000920E-02 0.  1.
        2   -1    0    0  501    0  0.00000000000E+00  0.00000000000E+00 -0.15666673256E+04  0.15666673256E+04  0.25500000920E-02 0. -1.
    10030    2    1    2    0    0  0.00000000000E+00  0.00000000000E+00 -0.40071157196E+03  0.27326230792E+04  0.27030832634E+04 0.  0.
        3    1    3    3  502    0 -0.11019299309E+04  0.21457145433E+03 -0.96115853644E+03  0.14778755780E+04  0.10100000352E+00 0. -1.
       -3    1    3    3    0  502  0.11019299309E+04 -0.21457145433E+03  0.56044696449E+03  0.12547475012E+04  0.10100000352E+00 0.  1.
</event>
<event>
 5   0  0.7335091E-07  0.2699990E+04  0.7818609E-02  0.8335008E-01
        1   -1    0    0  501    0  0.00000000000E+00  0.00000000000E+00  0.13036708432E+04  0.13036708433E+04  0.50400001928E-02 0.  1.
       -1   -1    0    0    0  501  0.00000000000E+00  0.00000000000E+00 -0.13979655068E+04  0.13979655068E+04  0.50400001928E-02 0. -1.
    10030    2    1    2    0    0  0.00000000000E+00  0.00000000000E+00 -0.94294663558E+02  0.27016363501E+04  0.26999902749E+04 0.  0.
        3    1    3    3  502    0 -0.94202369632E+03  0.96699428262E+03 -0.46623704558E+02  0.13507998990E+04  0.10100000352E+00 0. -1.
       -3    1    3    3    0  502  0.94202369632E+03 -0.96699428262E+03 -0.47670959001E+02  0.13508364511E+04  0.10100000352E+00 0.  1.
</event>
<event>
 5   0  0.7806808E-07  0.2679733E+04  0.7818609E-02  0.8341611E-01
       -1   -1    0    0    0  501  0.00000000000E+00  0.00000000000E+00  0.85808738381E+03  0.85808738383E+03  0.50400001928E-02 0. -1.
        1   -1    0    0  501    0  0.00000000000E+00  0.00000000000E+00 -0.20921441812E+04  0.20921441812E+04  0.50400001928E-02 0.  1.
    10030    2    1    2    0    0  0.00000000000E+00  0.00000000000E+00 -0.12340567974E+04  0.29502315651E+04  0.26797332159E+04 0.  0.
        5    1    3    3  502    0 -0.55123238685E+03 -0.47961168223E+03  0.61943119571E+03  0.95791523960E+03  0.46999998093E+01 0. -1.
       -5    1    3    3    0  502  0.55123238685E+03  0.47961168223E+03 -0.18534879931E+04  0.19923163255E+04  0.46999998093E+01 0.  1.
</event>
<event>
 5   0  0.7335091E-07  0.2632702E+04  0.7818609E-02  0.8357177E-01
       -1   -1    0    0    0  501  0.00000000000E+00  0.00000000000E+00  0.82514618607E+03  0.82514618609E+03  0.50400001928E-02 0. -1.
        1   -1    0    0  501    0  0.00000000000E+00  0.00000000000E+00 -0.20999665696E+04  0.20999665696E+04  0.50400001928E-02 0.  1.
    10030    2    1    2    0    0  0.00000000000E+00  0.00000000000E+00 -0.12748203836E+04  0.29251127557E+04  0.26327015827E+04 0.  0.
        3    1    3    3  502    0  0.36824336040E+03  0.42162228191E+03 -0.19611268714E+04  0.20394575595E+04  0.10100000352E+00 0.  1.
       -3    1    3    3    0  502 -0.36824336040E+03 -0.42162228191E+03  0.68630648786E+03  0.88565519620E+03  0.10100000352E+00 0. -1.
</event>
<event>
 5   0  0.1991277E-06  0.2700642E+04  0.7818609E-02  0.8334797E-01
       -2   -1    0    0    0  501  0.00000000000E+00  0.00000000000E+00  0.72165490687E+03  0.72165490687E+03  0.25500000920E-02 0. -1.
        2   -1    0    0  501    0  0.00000000000E+00  0.00000000000E+00 -0.25266465193E+04  0.25266465193E+04  0.25500000920E-02 0.  1.
    10030    2    1    2    0    0  0.00000000000E+00  0.00000000000E+00 -0.18049916125E+04  0.32483014262E+04  0.27006420411E+04 0.  0.
        5    1    3    3  502    0 -0.61110135066E+03 -0.11439598944E+04 -0.45043980387E+03  0.13729556466E+04  0.46999998093E+01 0. -1.
       -5    1    3    3    0  502  0.61110135066E+03  0.11439598944E+04 -0.13545518086E+04  0.18753457796E+04  0.46999998093E+01 0.  1.
</event>
<event>
 5   0  0.2030645E-06  0.2703359E+04  0.7818609E-02  0.8333916E-01
        2   -1    0    0  501    0  0.00000000000E+00  0.00000000000E+00  0.15555808279E+04  0.15555808279E+04  0.25500000920E-02 0.  1.
       -2   -1    0    0    0  501  0.00000000000E+00  0.00000000000E+00 -0.11745046048E+04  0.11745046048E+04  0.25500000920E-02 0. -1.
    10030    2    1    2    0    0  0.00000000000E+00  0.00000000000E+00  0.38107622305E+03  0.27300854327E+04  0.27033585374E+04 0.  0.
        1    1    3    3  502    0  0.11751500131E+04  0.64092851764E+03  0.87849330058E+00  0.13385692697E+04  0.50400001928E-02 0. -1.
       -1    1    3    3    0  502 -0.11751500131E+04 -0.64092851764E+03  0.38019772975E+03  0.13915161630E+04  0.50400001928E-02 0.  1.
</event>
<event>
 5   0  0.2030645E-06  0.2701541E+04  0.7818609E-02  0.8334505E-01
        2   -1    0    0  501    0  0.00000000000E+00  0.00000000000E+00  0.22829438779E+04  0.22829438779E+04  0.25500000920E-02 0. -1.
       -2   -1    0    0    0  501  0.00000000000E+00  0.00000000000E+00 -0.79922286380E+03  0.79922286380E+03  0.25500000920E-02 0.  1.
    10030    2    1    2    0    0  0.00000000000E+00  0.00000000000E+00  0.14837210141E+04  0.30821667417E+04  0.27015410002E+04 0.  0.
        1    1    3    3  502    0  0.10099515535E+04 -0.84312860417E+03  0.10911169249E+04  0.17092115514E+04  0.50400001928E-02 0.  1.
       -1    1    3    3    0  502 -0.10099515535E+04  0.84312860417E+03  0.39260408920E+03  0.13729551903E+04  0.50400001928E-02 0. -1.
</event>
<event>
 5   0  0.7436613E-07  0.2701209E+04  0.7818609E-02  0.8334613E-01
        1   -1    0    0  501    0  0.00000000000E+00  0.00000000000E+00  0.20527018083E+04  0.20527018083E+04  0.50400001928E-02 0.  1.
       -1   -1    0    0    0  501  0.00000000000E+00  0.00000000000E+00 -0.88864940177E+03  0.88864940178E+03  0.50400001928E-02 0. -1.
    10030    2    1    2    0    0  0.00000000000E+00  0.00000000000E+00  0.11640524065E+04  0.29413512101E+04  0.27012087916E+04 0.  0.
        2    1    3    3  502    0  0.24972500252E+03 -0.85824170991E+03 -0.52050549627E+03  0.10343439376E+04  0.25500000920E-02 0. -1.
       -2    1    3    3    0  502 -0.24972500252E+03  0.85824170991E+03  0.16845579028E+04  0.19070072725E+04  0.25500000920E-02 0.  1.
</event>
<event>
 5   0  0.7436613E-07  0.2722558E+04  0.7818609E-02  0.8327722E-01
        1   -1    0    0  501    0  0.00000000000E+00  0.00000000000E+00  0.20586893312E+04  0.20586893312E+04  0.50400001928E-02 0.  1.
       -1   -1    0    0    0  501  0.00000000000E+00  0.00000000000E+00 -0.90012662308E+03  0.90012662310E+03  0.50400001928E-02 0. -1.
    10030    2    1    2    0    0  0.00000000000E+00  0.00000000000E+00  0.11585627081E+04  0.29588159543E+04  0.27225584113E+04 0.  0.
        2    1    3    3  502    0 -0.49697569663E+03 -0.11806020320E+02 -0.79795247525E+03  0.94013423399E+03  0.25500000920E-02 0. -1.
       -2    1    3    3    0  502  0.49697569663E+03  0.11806020320E+02  0.19565151833E+04  0.20186817203E+04  0.25500000920E-02 0.  1.
</event>
<event>
 5   0  0.1932012E-06  0.2742980E+04  0.7818609E-02  0.8321193E-01
       -2   -1    0    0    0  501  0.00000000000E+00  0.00000000000E+00  0.14984939970E+04  0.14984939970E+04  0.25500000920E-02 0. -1.
        2   -1    0    0  501    0  0.00000000000E+00  0.00000000000E+00 -0.12552499532E+04  0.12552499532E+04  0.25500000920E-02 0.  1.
    10030    2    1    2    0    0  0.00000000000E+00  0.00000000000E+00  0.24324404378E+03  0.27537439502E+04  0.27429797809E+04 0.  0.
        2    1    3    3  502    0 -0.16224230251E+03  0.19905013654E+03 -0.12308994528E+04  0.12574008846E+04  0.25500000920E-02 0.  1.
       -2    1    3    3    0  502  0.16224230251E+03 -0.19905013654E+03  0.14741434966E+04  0.14963430656E+04  0.25500000920E-02 0. -1.
</event>
<event>
 5   0  0.7806808E-07  0.2692280E+04  0.7818609E-02  0.8337514E-01
        1   -1    0    0  501    0  0.00000000000E+00  0.00000000000E+00  0.12932406845E+04  0.12932406845E+04  0.50400001928E-02 0.  1.
       -1   -1    0    0    0  501  0.00000000000E+00  0.00000000000E+00 -0.14012035735E+04  0.14012035735E+04  0.50400001928E-02 0. -1.
    10030    2    1    2    0    0  0.00000000000E+00  0.00000000000E+00 -0.10796288900E+03  0.26944442580E+04  0.26922804226E+04 0.  0.
        5    1    3    3  502    0 -0.16826170033E+03  0.78547090979E+03  0.10270694939E+04  0.13039058191E+04  0.46999998093E+01 0.  1.
       -5    1    3    3    0  502  0.16826170033E+03 -0.78547090979E+03 -0.11350323829E+04  0.13905384389E+04  0.46999998093E+01 0. -1.
</event>
<event>
 5   0  0.7768032E-07  0.2689982E+04  0.7818609E-02  0.8338263E-01
        1   -1    0    0  501    0  0.00000000000E+00  0.00000000000E+00  0.18143715369E+04  0.18143715369E+04  0.50400001928E-02 0.  1.
       -1   -1    0    0    0  501  0.00000000000E+00  0.00000000000E+00 -0.99704011430E+03  0.99704011431E+03  0.50400001928E-02 0. -1.
    10030    2    1    2    0    0  0.00000000000E+00  0.00000000000E+00  0.81733142257E+03  0.28114116512E+04  0.26899823081E+04 0.  0.
        4    1    3    3  502    0 -0.13442428270E+04 -0.25888046516E+02  0.44693305414E+03  0.14168308779E+04  0.12699999809E+01 0.  1.
       -4    1    3    3    0  502  0.13442428270E+04  0.25888046516E+02  0.37039836843E+03  0.13945807733E+04  0.12699999809E+01 0. -1.
</event>
<event>
 5   0  0.7335091E-07  0.2699067E+04  0.7818609E-02  0.8335308E-01
        1   -1    0    0  501    0  0.00000000000E+00  0.00000000000E+00  0.16646710387E+04  0.16646710387E+04  0.50400001928E-02 0.  1.
       -1   -1    0    0    0  501  0.00000000000E+00  0.00000000000E+00 -0.10940541097E+04  0.10940541097E+04  0.50400001928E-02 0. -1.
    10030    2    1    2    0    0  0.00000000000E+00  0.00000000000E+00  0.57061692903E+03  0.27587251484E+04  0.26990666469E+04 0.  0.
        3    1    3    3  502    0 -0.12090924518E+04 -0.59266859752E+03  0.37718161541E+03  0.13983656906E+04  0.10100000352E+00 0.  1.
       -3    1    3    3    0  502  0.12090924518E+04  0.59266859752E+03  0.19343531361E+03  0.13603594577E+04  0.10100000352E+00 0. -1.
</event>
<event>
 5   0  0.7806808E-07  0.2700077E+04  0.7818609E-02  0.8334980E-01
       -1   -1    0    0    0  501  0.00000000000E+00  0.00000000000E+00  0.92503411365E+03  0.92503411366E+03  0.50400001928E-02 0.  1.
        1   -1    0    0  501    0  0.00000000000E+00  0.00000000000E+00 -0.19703096208E+04  0.19703096208E+04  0.50400001928E-02 0. -1.
    10030    2    1    2    0    0  0.00000000000E+00  0.00000000000E+00 -0.10452755072E+04  0.28953437345E+04  0.27000767498E+04 0.  0.
        5    1    3    3  502    0  0.84616012816E+03  0.81531949052E+03  0.19015094781E+03  0.11903412566E+04  0.46999998093E+01 0.  1.
       -5    1    3    3    0  502 -0.84616012816E+03 -0.81531949052E+03 -0.12354264550E+04  0.17050024779E+04  0.46999998093E+01 0. -1.
</event>
<event>
 5   0  0.1932012E-06  0.2696280E+04  0.7818609E-02  0.8336213E-01
        2   -1    0    0  501    0  0.00000000000E+00  0.00000000000E+00  0.14140521239E+04  0.14140521239E+04  0.25500000920E-02 0.  1.
       -2   -1    0    0    0  501  0.00000000000E+00  0.00000000000E+00 -0.12853002841E+04  0.12853002841E+04  0.25500000920E-02 0. -1.
    10030    2    1    2    0    0  0.00000000000E+00  0.00000000000E+00  0.12875183982E+03  0.26993524080E+04  0.26962801016E+04 0.  0.
        2    1    3    3  502    0  0.54314625242E+03  0.36658477220E+03  0.12438904386E+04  0.14059358698E+04  0.25500000920E-02 0.  1.
       -2    1    3    3    0  502 -0.54314625242E+03 -0.36658477220E+03 -0.11151385988E+04  0.12934165382E+04  0.25500000920E-02 0. -1.
</event>
<event>
 5   0  0.1932012E-06  0.2695989E+04  0.7818609E-02  0.8336307E-01
       -2   -1    0    0    0  501  0.00000000000E+00  0.00000000000E+00  0.95642833742E+03  0.95642833743E+03  0.25500000920E-02 0.  1.
        2   -1    0    0  501    0  0.00000000000E+00  0.00000000000E+00 -0.18998701023E+04  0.18998701023E+04  0.25500000920E-02 0. -1.
    10030    2    1    2    0    0  0.00000000000E+00  0.00000000000E+00 -0.94344176483E+03  0.28562984397E+04  0.26959893199E+04 0.  0.
        2    1    3    3  502    0  0.22449618620E+03  0.42452564256E+03 -0.18061675345E+04  0.18689199345E+04  0.25500000920E-02 0. -1.
       -2    1    3    3    0  502 -0.22449618620E+03 -0.42452564256E+03  0.86272576969E+03  0.98737850518E+03  0.25500000920E-02 0.  1.
</event>
<event>
 5   0  0.7768032E-07  0.2695581E+04  0.7818609E-02  0.8336440E-01
        1   -1    0    0  501    0  0.00000000000E+00  0.00000000000E+00  0.17154614585E+04  0.17154614585E+04  0.50400001928E-02 0.  1.
       -1   -1    0    0    0  501  0.00000000000E+00  0.00000000000E+00 -0.10589216782E+04  0.10589216783E+04  0.50400001928E-02 0. -1.
    10030    2    1    2    0    0  0.00000000000E+00  0.00000000000E+00  0.65653978022E+03  0.27743831367E+04  0.26955810703E+04 0.  0.
        4    1    3    3  502    0  0.61149178243E+03  0.12010647076E+04  0.32035870746E+03  0.13853194383E+04  0.12699999809E+01 0. -1.
       -4    1    3    3    0  502 -0.61149178243E+03 -0.12010647076E+04  0.33618107277E+03  0.13890636984E+04  0.12699999809E+01 0.  1.
</event>
<event>
 5   0  0.7566905E-07  0.2705188E+04  0.7818609E-02  0.8333324E-01
       -1   -1    0    0    0  501  0.00000000000E+00  0.00000000000E+00  0.10016689056E+04  0.10016689056E+04  0.50400001928E-02 0. -1.
        1   -1    0    0  501    0  0.00000000000E+00  0.00000000000E+00 -0.18264624022E+04  0.18264624022E+04  0.50400001928E-02 0.  1.
    10030    2    1    2    0    0  0.00000000000E+00  0.00000000000E+00 -0.82479349663E+03  0.28281313079E+04  0.27051880494E+04 0.  0.
        1    1    3    3  502    0 -0.88515102386E+03 -0.46957181323E+03  0.53747738167E+03  0.11370452756E+04  0.50400001928E-02 0. -1.
       -1    1    3    3    0  502  0.88515102386E+03  0.46957181323E+03 -0.13622708783E+04  0.16910860323E+04  0.50400001928E-02 0.  1.
</event>
<event>
 5   0  0.7566905E-07  0.2697107E+04  0.7818609E-02  0.8335944E-01
        1   -1    0    0  501    0  0.00000000000E+00  0.00000000000E+00  0.18770434846E+04  0.18770434846E+04  0.50400001928E-02 0. -1.
       -1   -1    0    0    0  501  0.00000000000E+00  0.00000000000E+00 -0.96886213049E+03  0.96886213051E+03  0.50400001928E-02 0.  1.
    10030    2    1    2    0    0  0.00000000000E+00  0.00000000000E+00  0.90818135414E+03  0.28459056151E+04  0.26971068570E+04 0.  0.
        1    1    3    3  502    0 -0.40120806183E+03 -0.10336210911E+04  0.12640706896E+04  0.16814324777E+04  0.50400001928E-02 0. -1.
       -1    1    3    3    0  502  0.40120806183E+03  0.10336210911E+04 -0.35588933542E+03  0.11644731375E+04  0.50400001928E-02 0.  1.
</event>
<event>
 5   0  0.7806808E-07  0.2697520E+04  0.7818609E-02  0.8335810E-01
        1   -1    0    0  501    0  0.00000000000E+00  0.00000000000E+00  0.98109860306E+03  0.98109860307E+03  0.50400001928E-02 0. -1.
       -1   -1    0    0    0  501  0.00000000000E+00  0.00000000000E+00 -0.18542005836E+04  0.18542005836E+04  0.50400001928E-02 0.  1.
    10030    2    1    2    0    0  0.00000000000E+00  0.00000000000E+00 -0.87310198054E+03  0.28352991867E+04  0.26975200480E+04 0.  0.
        5    1    3    3  502    0  0.56871746120E+01 -0.13487137224E+04 -0.44537399240E+03  0.14203665485E+04  0.46999998093E+01 0.  1.
       -5    1    3    3    0  502 -0.56871746120E+01  0.13487137224E+04 -0.42772798814E+03  0.14149326382E+04  0.46999998093E+01 0. -1.
</event>
<event>
 5   0  0.2030645E-06  0.2702617E+04  0.7818609E-02  0.8334156E-01
        2   -1    0    0  501    0  0.00000000000E+00  0.00000000000E+00  0.16577245528E+04  0.16577245528E+04  0.25500000920E-02 0. -1.
       -2   -1    0    0    0  501  0.00000000000E+00  0.00000000000E+00 -0.11015310632E+04  0.11015310632E+04  0.25500000920E-02 0.  1.
    10030    2    1    2    0    0  0.00000000000E+00  0.00000000000E+00  0.55619348954E+03  0.27592556160E+04  0.27026173160E+04 0.  0.
        1    1    3    3  502    0  0.23526709531E+03 -0.26926560338E+03  0.16085490405E+04  0.16478120606E+04  0.50400001928E-02 0. -1.
       -1    1    3    3    0  502 -0.23526709531E+03  0.26926560338E+03 -0.10523555510E+04  0.11114435555E+04  0.50400001928E-02 0.  1.
</event>
<event>
 5   0  0.2063087E-06  0.2697685E+04  0.7818609E-02  0.8335756E-01
       -2   -1    0    0    0  501  0.00000000000E+00  0.00000000000E+00  0.11861734434E+04  0.11861734434E+04  0.25500000920E-02 0.  1.
        2   -1    0    0  501    0  0.00000000000E+00  0.00000000000E+00 -0.15338199654E+04  0.15338199654E+04  0.25500000920E-02 0. -1.
    10030    2    1    2    0    0  0.00000000000E+00  0.00000000000E+00 -0.34764652198E+03  0.27199934088E+04  0.26976853114E+04 0.  0.
        3    1    3    3  502    0  0.60146119592E+03 -0.18248885457E+03 -0.13771405586E+04  0.15137945305E+04  0.10100000352E+00 0. -1.
       -3    1    3    3    0  502 -0.60146119592E+03  0.18248885457E+03  0.10294940366E+04  0.12061988783E+04  0.10100000352E+00 0.  1.
</event>
<event>
 5   0  0.2030645E-06  0.2698550E+04  0.7818609E-02  0.8335476E-01
       -2   -1    0    0    0  501  0.00000000000E+00  0.00000000000E+00  0.94005815251E+03  0.94005815252E+03  0.25500000920E-02 0. -1.
        2   -1    0    0  501    0  0.00000000000E+00  0.00000000000E+00 -0.19366273775E+04  0.19366273775E+04  0.25500000920E-02 0.  1.
    10030    2    1    2    0    0  0.00000000000E+00  0.00000000000E+00 -0.99656922498E+03  0.28766855300E+04  0.26985495027E+04 0.  0.
        1    1    3    3  502    0  0.31025839900E+03 -0.93032964306E+03  0.48958616225E+03  0.10961150164E+04  0.50400001928E-02 0. -1.
       -1    1    3    3    0  502 -0.31025839900E+03  0.93032964306E+03 -0.14861553872E+04  0.17805705136E+04  0.50400001928E-02 0.  1.
</event>
<event>
 5   0  0.2063087E-06  0.2746525E+04  0.7818609E-02  0.8320065E-01
        2   -1    0    0  501    0  0.00000000000E+00  0.00000000000E+00  0.21445080338E+04  0.21445080338E+04  0.25500000920E-02 0.  1.
       -2   -1    0    0    0  501  0.00000000000E+00  0.00000000000E+00 -0.87938590750E+03  0.87938590750E+03  0.25500000920E-02 0. -1.
    10030    2    1    2    0    0  0.00000000000E+00  0.00000000000E+00  0.12651221263E+04  0.30238939413E+04  0.27465251817E+04 0.  0.
        3    1    3    3  502    0 -0.38906459582E+03  0.76417208636E+03 -0.54838492809E+03  0.10178684968E+04  0.10100000352E+00 0. -1.
       -3    1    3    3    0  502  0.38906459582E+03 -0.76417208636E+03  0.18135070544E+04  0.20060254445E+04  0.10100000352E+00 0.  1.
</event>
<event>
 5   0  0.1991277E-06  0.2703139E+04  0.7818609E-02  0.8333987E-01
        2   -1    0    0  501    0  0.00000000000E+00  0.00000000000E+00  0.94071731603E+03  0.94071731603E+03  0.25500000920E-02 0.  1.
       -2   -1    0    0    0  501  0.00000000000E+00  0.00000000000E+00 -0.19418584378E+04  0.19418584378E+04  0.25500000920E-02 0. -1.
    10030    2    1    2    0    0  0.00000000000E+00  0.00000000000E+00 -0.10011411218E+04  0.28825757539E+04  0.27031388109E+04 0.  0.
        5    1    3    3  502    0  0.69541379983E+03 -0.11275940075E+04 -0.78601261630E+03  0.15404241370E+04  0.46999998093E+01 0.  1.
       -5    1    3    3    0  502 -0.69541379983E+03  0.11275940075E+04 -0.21512850551E+03  0.13421516169E+04  0.46999998093E+01 0. -1.
</event>
<event>
 5   0  0.7436613E-07  0.2698950E+04  0.7818609E-02  0.8335346E-01
       -1   -1    0    0    0  501  0.00000000000E+00  0.00000000000E+00  0.17674818134E+04  0.17674818134E+04  0.50400001928E-02 0. -1.
        1   -1    0    0  501    0  0.00000000000E+00  0.00000000000E+00 -0.10303264182E+04  0.10303264182E+04  0.50400001928E-02 0.  1.
    10030    2    1    2    0    0  0.00000000000E+00  0.00000000000E+00  0.73715539521E+03  0.27978082316E+04  0.26989503189E+04 0.  0.
        2    1    3    3  502    0  0.66393830606E+03  0.14319460548E+03 -0.84022353030E+03  0.10804139717E+04  0.25500000920E-02 0.  1.
       -2    1    3    3    0  502 -0.66393830606E+03 -0.14319460548E+03  0.15773789255E+04  0.17173942599E+04  0.25500000920E-02 0. -1.
</event>
<event>
 5   0  0.7335091E-07  0.2706755E+04  0.7818609E-02  0.8332816E-01
       -1   -1    0    0    0  501  0.00000000000E+00  0.00000000000E+00  0.64227201818E+03  0.64227201820E+03  0.50400001928E-02 0. -1.
        1   -1    0    0  501    0  0.00000000000E+00  0.00000000000E+00 -0.28517997762E+04  0.28517997762E+04  0.50400001928E-02 0.  1.
    10030    2    1    2    0    0  0.00000000000E+00  0.00000000000E+00 -0.22095277580E+04  0.34940717944E+04  0.27067553992E+04 0.  0.
        3    1    3    3  502    0 -0.26198844250E+03  0.13269062762E+04 -0.10426814734E+04  0.17077771737E+04  0.10100000352E+00 0. -1.
       -3    1    3    3    0  502  0.26198844250E+03 -0.13269062762E+04 -0.11668462846E+04  0.17862946207E+04  0.10100000352E+00 0.  1.
</event>
<event>
 5   0  0.2030645E-06  0.2698017E+04  0.7818609E-02  0.8335649E-01
       -2   -1    0    0    0  501  0.00000000000E+00  0.00000000000E+00  0.10224023072E+04  0.10224023072E+04  0.25500000920E-02 0.  1.
        2   -1    0    0  501    0  0.00000000000E+00  0.00000000000E+00 -0.17799492462E+04  0.17799492462E+04  0.25500000920E-02 0. -1.
    10030    2    1    2    0    0  0.00000000000E+00  0.00000000000E+00 -0.75754693898E+03  0.28023515534E+04  0.26980172097E+04 0.  0.
        1    1    3    3  502    0 -0.49479319860E+03 -0.96311657283E+03 -0.12145068094E+04  0.16270957662E+04  0.50400001928E-02 0. -1.
       -1    1    3    3    0  502  0.49479319860E+03  0.96311657283E+03  0.45695987038E+03  0.11752557872E+04  0.50400001928E-02 0.  1.
</event>
<event>
 5   0  0.7335091E-07  0.2696975E+04  0.7818609E-02  0.8335987E-01
        1   -1    0    0  501    0  0.00000000000E+00  0.00000000000E+00  0.14761102931E+04  0.14761102931E+04  0.50400001928E-02 0.  1.
       -1   -1    0    0    0  501  0.00000000000E+00  0.00000000000E+00 -0.12318992297E+04  0.12318992297E+04  0.50400001928E-02 0. -1.
    10030    2    1    2    0    0  0.00000000000E+00  0.00000000000E+00  0.24421106343E+03  0.27080095228E+04  0.26969754415E+04 0.  0.
        3    1    3    3  502    0 -0.43089855282E+03  0.12578140663E+04  0.34808036123E+03  0.13743834022E+04  0.10100000352E+00 0.  1.
       -3    1    3    3    0  502  0.43089855282E+03 -0.12578140663E+04 -0.10386929781E+03  0.13336261206E+04  0.10100000352E+00 0. -1.
</event>
<event>
 5   0  0.7436613E-07  0.2695475E+04  0.7818609E-02  0.8336475E-01
        1   -1    0    0  501    0  0.00000000000E+00  0.00000000000E+00  0.14548287804E+04  0.14548287804E+04  0.50400001928E-02 0. -1.
       -1   -1    0    0    0  501  0.00000000000E+00  0.00000000000E+00 -0.12485292459E+04  0.12485292459E+04  0.50400001928E-02 0.  1.
    10030    2    1    2    0    0  0.00000000000E+00  0.00000000000E+00  0.20629953449E+03  0.27033580263E+04  0.26954749341E+04 0.  0.
        2    1    3    3  502    0  0.10985022518E+04  0.70278761192E+03  0.44440751467E+03  0.13777211851E+04  0.25500000920E-02 0.  1.
       -2    1    3    3    0  502 -0.10985022518E+04 -0.70278761192E+03 -0.23810798018E+03  0.13256368413E+04  0.25500000920E-02 0. -1.
</event>
<event>
 5   0  0.7768032E-07  0.2700028E+04  0.7818609E-02  0.8334996E-01
       -1   -1    0    0    0  501  0.00000000000E+00  0.00000000000E+00  0.65545236516E+03  0.65545236518E+03  0.50400001928E-02 0.  1.
        1   -1    0    0  501    0  0.00000000000E+00  0.00000000000E+00 -0.27805801438E+04  0.27805801438E+04  0.50400001928E-02 0. -1.
    10030    2    1    2    0    0  0.00000000000E+00  0.00000000000E+00 -0.21251277787E+04  0.34360325090E+04  0.27000280234E+04 0.  0.
        4    1    3    3  502    0  0.47866732275E+03 -0.11406908393E+04 -0.37461289753E+03  0.12925302443E+04  0.12699999809E+01 0.  1.
       -4    1    3    3    0  502 -0.47866732275E+03  0.11406908393E+04 -0.17505148811E+04  0.21435022647E+04  0.12699999809E+01 0. -1.
</event>
<event>
 5   0  0.1999104E-06  0.2701530E+04  0.7818609E-02  0.8334509E-01
       -2   -1    0    0    0  501  0.00000000000E+00  0.00000000000E+00  0.98818663497E+03  0.98818663497E+03  0.25500000920E-02 0. -1.
        2   -1    0    0  501    0  0.00000000000E+00  0.00000000000E+00 -0.18463775414E+04  0.18463775414E+04  0.25500000920E-02 0.  1.
    10030    2    1    2    0    0  0.00000000000E+00  0.00000000000E+00 -0.85819090646E+03  0.28345641764E+04  0.27015296479E+04 0.  0.
        4    1    3    3  502    0  0.57263730635E+03 -0.89825701602E+03 -0.13005272058E+04  0.16811162296E+04  0.12699999809E+01 0.  1.
       -4    1    3    3    0  502 -0.57263730635E+03  0.89825701602E+03  0.44233629931E+03  0.11534479468E+04  0.12699999809E+01 0. -1.
</event>
<event>
 5   0  0.7806808E-07  0.2704419E+04  0.7818609E-02  0.8333573E-01
       -1   -1    0    0    0  501  0.00000000000E+00  0.00000000000E+00  0.82481295428E+03  0.82481295430E+03  0.50400001928E-02 0.  1.
        1   -1    0    0  501    0  0.00000000000E+00  0.00000000000E+00 -0.22168299942E+04  0.22168299942E+04  0.50400001928E-02 0. -1.
    10030    2    1    2    0    0  0.00000000000E+00  0.00000000000E+00 -0.13920170399E+04  0.30416429485E+04  0.27044186782E+04 0.  0.
        5    1    3    3  502    0 -0.79266165915E+03 -0.50211136029E+03 -0.17910812957E+04  0.20219848223E+04  0.46999998093E+01 0. -1.
       -5    1    3    3    0  502  0.79266165915E+03  0.50211136029E+03  0.39906425577E+03  0.10196581262E+04  0.46999998093E+01 0.  1.
</event>
<event>
 5   0  0.7806808E-07  0.2702957E+04  0.7818609E-02  0.8334046E-01
       -1   -1    0    0    0  501  0.00000000000E+00  0.00000000000E+00  0.79428080942E+03  0.79428080944E+03  0.50400001928E-02 0. -1.
        1   -1    0    0  501    0  0.00000000000E+00  0.00000000000E+00 -0.22995566271E+04  0.22995566271E+04  0.50400001928E-02 0.  1.
    10030    2    1    2    0    0  0.00000000000E+00  0.00000000000E+00 -0.15052758177E+04  0.30938374366E+04  0.27029566768E+04 0.  0.
        5    1    3    3  502    0  0.39599378593E+03 -0.12896740594E+04 -0.84421655736E+03  0.15914753984E+04  0.46999998093E+01 0. -1.
       -5    1    3    3    0  502 -0.39599378593E+03  0.12896740594E+04 -0.66105926036E+03  0.15023620382E+04  0.46999998093E+01 0.  1.
</event>
<event>
 5   0  0.7806808E-07  0.2700648E+04  0.7818609E-02  0.8334795E-01
        1   -1    0    0  501    0  0.00000000000E+00  0.00000000000E+00  0.89975915579E+03  0.89975915580E+03  0.50400001928E-02 0. -1.
       -1   -1    0    0    0  501  0.00000000000E+00  0.00000000000E+00 -0.20265141316E+04  0.20265141316E+04  0.50400001928E-02 0.  1.
    10030    2    1    2    0    0  0.00000000000E+00  0.00000000000E+00 -0.11267549758E+04  0.29262732874E+04  0.27006478069E+04 0.  0.
        5    1    3    3  502    0  0.70141889140E+03 -0.94382394601E+03  0.15582252429E+03  0.11862102897E+04  0.46999998093E+01 0. -1.
       -5    1    3    3    0  502 -0.70141889140E+03  0.94382394601E+03 -0.12825775001E+04  0.17400629977E+04  0.46999998093E+01 0.  1.
</event>
<event>
 5   0  0.1991277E-06  0.2701217E+04  0.7818609E-02  0.8334610E-01
        2   -1    0    0  501    0  0.00000000000E+00  0.00000000000E+00  0.16098411514E+04  0.16098411514E+04  0.25500000920E-02 0. -1.
       -2   -1    0    0    0  501  0.00000000000E+00  0.00000000000E+00 -0.11331204669E+04  0.11331204669E+04  0.25500000920E-02 0.  1.
    10030    2    1    2    0    0  0.00000000000E+00  0.00000000000E+00  0.47672068448E+03  0.27429616183E+04  0.27012174715E+04 0.  0.
        5    1    3    3  502    0  0.47226660447E+03 -0.10557876991E+04  0.94656091608E+03  0.14945645082E+04  0.46999998093E+01 0. -1.
       -5    1    3    3    0  502 -0.47226660447E+03  0.10557876991E+04 -0.46984023160E+03  0.12483971101E+04  0.46999998093E+01 0.  1.
</event>
<event>
 5   0  0.2030645E-06  0.2660866E+04  0.7818609E-02  0.8347815E-01
       -2   -1    0    0    0  501  0.00000000000E+00  0.00000000000E+00  0.19434198258E+04  0.19434198258E+04  0.25500000920E-02 0. -1.
        2   -1    0    0  501    0  0.00000000000E+00  0.00000000000E+00 -0.91079247380E+03  0.91079247380E+03  0.25500000920E-02 0.  1.
    10030    2    1    2    0    0  0.00000000000E+00  0.00000000000E+00  0.10326273520E+04  0.28542122996E+04  0.26608661378E+04 0.  0.
        1    1    3    3  502    0 -0.16705452145E+03  0.35329085478E+03  0.18804652743E+04  0.19206434570E+04  0.50400001928E-02 0. -1.
       -1    1    3    3    0  502  0.16705452145E+03 -0.35329085478E+03 -0.84783792232E+03  0.93356884254E+03  0.50400001928E-02 0.  1.
</event>
<event>
 5   0  0.7436613E-07  0.2699956E+04  0.7818609E-02  0.8335019E-01
       -1   -1    0    0    0  501  0.00000000000E+00  0.00000000000E+00  0.20332926229E+04  0.20332926229E+04  0.50400001928E-02 0. -1.
        1   -1    0    0  501    0  0.00000000000E+00  0.00000000000E+00 -0.89630038382E+03  0.89630038383E+03  0.50400001928E-02 0.  1.
    10030    2    1    2    0    0  0.00000000000E+00  0.00000000000E+00  0.11369922391E+04  0.29295930067E+04  0.26999562651E+04 0.  0.
        2    1    3    3  502    0  0.10055122513E+03 -0.10509663108E+04 -0.34436751901E+03  0.11105087678E+04  0.25500000920E-02 0. -1.
       -2    1    3    3    0  502 -0.10055122513E+03  0.10509663108E+04  0.14813597581E+04  0.18190842389E+04  0.25500000920E-02 0.  1.
</event>
<event>
 5   0  0.7436613E-07  0.2676213E+04  0.7818609E-02  0.8342764E-01
       -1   -1    0    0    0  501  0.00000000000E+00  0.00000000000E+00  0.10786974032E+04  0.10786974032E+04  0.50400001928E-02 0. -1.
        1   -1    0    0  501    0  0.00000000000E+00  0.00000000000E+00 -0.16598994376E+04  0.16598994376E+04  0.50400001928E-02 0.  1.
    10030    2    1    2    0    0  0.00000000000E+00  0.00000000000E+00 -0.58120203440E+03  0.27385968409E+04  0.26762131552E+04 0.  0.
        2    1    3    3  502    0  0.33699888958E+03  0.12444257489E+04  0.76032013433E+02  0.12914892811E+04  0.25500000920E-02 0. -1.
       -2    1    3    3    0  502 -0.33699888958E+03 -0.12444257489E+04 -0.65723404784E+03  0.14471075598E+04  0.25500000920E-02 0.  1.
</event>
<event>
 5   0  0.2030645E-06  0.2698069E+04  0.7818609E-02  0.8335632E-01
        2   -1    0    0  501    0  0.00000000000E+00  0.00000000000E+00  0.15228406850E+04  0.15228406850E+04  0.25500000920E-02 0. -1.
       -2   -1    0    0    0  501  0.00000000000E+00  0.00000000000E+00 -0.11950653056E+04  0.11950653056E+04  0.25500000920E-02 0.  1.
    10030    2    1    2    0    0  0.00000000000E+00  0.00000000000E+00  0.32777537938E+03  0.27179059906E+04  0.26980689900E+04 0.  0.
        1    1    3    3  502    0 -0.11687183512E+04  0.16239071233E+03 -0.49484734395E+03  0.12795105399E+04  0.50400001928E-02 0.  1.
       -1    1    3    3    0  502  0.11687183512E+04 -0.16239071233E+03  0.82262272333E+03  0.14383954508E+04  0.50400001928E-02 0. -1.
</event>
<event>
 5   0  0.2030645E-06  0.2697001E+04  0.7818609E-02  0.8335979E-01
        2   -1    0    0  501    0  0.00000000000E+00  0.00000000000E+00  0.14354928089E+04  0.14354928089E+04  0.25500000920E-02 0. -1.
       -2   -1    0    0    0  501  0.00000000000E+00  0.00000000000E+00 -0.12667804427E+04  0.12667804427E+04  0.25500000920E-02 0.  1.
    10030    2    1    2    0    0  0.00000000000E+00  0.00000000000E+00  0.16871236628E+03  0.27022732516E+04  0.26970014579E+04 0.  0.
        1    1    3    3  502    0 -0.59755087329E+03 -0.89931151965E+03  0.89378796713E+03  0.14016722819E+04  0.50400001928E-02 0. -1.
       -1    1    3    3    0  502  0.59755087329E+03  0.89931151965E+03 -0.72507560086E+03  0.13006009698E+04  0.50400001928E-02 0.  1.
</event>
<event>
 5   0  0.2063087E-06  0.2699564E+04  0.7818609E-02  0.8335147E-01
       -2   -1    0    0    0  501  0.00000000000E+00  0.00000000000E+00  0.12153252898E+04  0.12153252898E+04  0.25500000920E-02 0. -1.
        2   -1    0    0  501    0  0.00000000000E+00  0.00000000000E+00 -0.14991138346E+04  0.14991138346E+04  0.25500000920E-02 0.  1.
    10030    2    1    2    0    0  0.00000000000E+00  0.00000000000E+00 -0.28378854478E+03  0.27144391244E+04  0.26995636354E+04 0.  0.
        3    1    3    3  502    0  0.72877679090E+03 -0.94542134577E+03 -0.77542468286E+03  0.14234537509E+04  0.10100000352E+00 0.  1.
       -3    1    3    3    0  502 -0.72877679090E+03  0.94542134577E+03  0.49163613808E+03  0.12909853735E+04  0.10100000352E+00 0. -1.
</event>
<event>
 5   0  0.7768032E-07  0.2705824E+04  0.7818609E-02  0.8333118E-01
        1   -1    0    0  501    0  0.00000000000E+00  0.00000000000E+00  0.87665322127E+03  0.87665322128E+03  0.50400001928E-02 0. -1.
       -1   -1    0    0    0  501  0.00000000000E+00  0.00000000000E+00 -0.20879070246E+04  0.20879070246E+04  0.50400001928E-02 0.  1.
    10030    2    1    2    0    0  0.00000000000E+00  0.00000000000E+00 -0.12112538033E+04  0.29645602459E+04  0.27058236593E+04 0.  0.
        4    1    3    3  502    0 -0.61386390229E+03  0.57834868124E+03 -0.17646339149E+04  0.19558247759E+04  0.12699999809E+01 0.  1.
       -4    1    3    3    0  502  0.61386390229E+03 -0.57834868124E+03  0.55338011155E+03  0.10087354700E+04  0.12699999809E+01 0. -1.
</event>
<event>
 5   0  0.7768032E-07  0.2693977E+04  0.7818609E-02  0.8336962E-01
        1   -1    0    0  501    0  0.00000000000E+00  0.00000000000E+00  0.19777413549E+04  0.19777413550E+04  0.50400001928E-02 0. -1.
       -1   -1    0    0    0  501  0.00000000000E+00  0.00000000000E+00 -0.91739914856E+03  0.91739914858E+03  0.50400001928E-02 0.  1.
    10030    2    1    2    0    0  0.00000000000E+00  0.00000000000E+00  0.10603422064E+04  0.28951405035E+04  0.26939771604E+04 0.  0.
        4    1    3    3  502    0 -0.32681077784E+03  0.32103792319E+03 -0.83110558444E+03  0.94900407693E+03  0.12699999809E+01 0.  1.
       -4    1    3    3    0  502  0.32681077784E+03 -0.32103792319E+03  0.18914477908E+04  0.19461364266E+04  0.12699999809E+01 0. -1.
</event>
<event>
 5   0  0.7566905E-07  0.2698443E+04  0.7818609E-02  0.8335510E-01
       -1   -1    0    0    0  501  0.00000000000E+00  0.00000000000E+00  0.13551257120E+04  0.13551257120E+04  0.50400001928E-02 0. -1.
        1   -1    0    0  501    0  0.00000000000E+00  0.00000000000E+00 -0.13433434656E+04  0.13433434656E+04  0.50400001928E-02 0.  1.
    10030    2    1    2    0    0  0.00000000000E+00  0.00000000000E+00  0.11782246425E+02  0.26984691776E+04  0.26984434553E+04 0.  0.
        1    1    3    3  502    0  0.17321890737E+03 -0.37396062964E+03 -0.12788576441E+04  0.13436250281E+04  0.50400001928E-02 0.  1.
       -1    1    3    3    0  502 -0.17321890737E+03  0.37396062964E+03  0.12906398905E+04  0.13548441495E+04  0.50400001928E-02 0. -1.
</event>
<event>
 5   0  0.1991277E-06  0.2689380E+04  0.7818609E-02  0.8338459E-01
       -2   -1    0    0    0  501  0.00000000000E+00  0.00000000000E+00  0.91564115246E+03  0.91564115247E+03  0.25500000920E-02 0. -1.
        2   -1    0    0  501    0  0.00000000000E+00  0.00000000000E+00 -0.19747822171E+04  0.19747822171E+04  0.25500000920E-02 0.  1.
    10030    2    1    2    0    0  0.00000000000E+00  0.00000000000E+00 -0.10591410647E+04  0.28904233696E+04  0.26893804976E+04 0.  0.
        5    1    3    3  502    0  0.29217171214E+03 -0.56621672433E+02  0.87979244160E+03  0.92877723564E+03  0.46999998093E+01 0. -1.
       -5    1    3    3    0  502 -0.29217171214E+03  0.56621672433E+02 -0.19389335063E+04  0.19616461340E+04  0.46999998093E+01 0.  1.
</event>
<event>
 5   0  0.7335091E-07  0.2704757E+04  0.7818609E-02  0.8333463E-01
        1   -1    0    0  501    0  0.00000000000E+00  0.00000000000E+00  0.18602877534E+04  0.18602877534E+04  0.50400001928E-02 0.  1.
       -1   -1    0    0    0  501  0.00000000000E+00  0.00000000000E+00 -0.98314220698E+03  0.98314220699E+03  0.50400001928E-02 0. -1.
    10030    2    1    2    0    0  0.00000000000E+00  0.00000000000E+00  0.87714554644E+03  0.28434299604E+04  0.27047568523E+04 0.  0.
        3    1    3    3  502    0 -0.53330466302E+03 -0.91842397583E+03 -0.44161777669E+03  0.11501924769E+04  0.10100000352E+00 0. -1.
       -3    1    3    3    0  502  0.53330466302E+03  0.91842397583E+03  0.13187633231E+04  0.16932374835E+04  0.10100000352E+00 0.  1.
</event>
<event>
 5   0  0.6561875E-07  0.2694586E+04  0.7818609E-02  0.8336764E-01
        4   -1    0    0  501    0  0.00000000000E+00  0.00000000000E+00  0.13226981376E+04  0.13226987473E+04  0.12699999809E+01 0. -1.
       -4   -1    0    0    0  501  0.00000000000E+00  0.00000000000E+00 -0.13723441319E+04  0.13723447195E+04  0.12699999809E+01 0.  1.
    10030    2    1    2    0    0  0.00000000000E+00  0.00000000000E+00 -0.49645994294E+02  0.26950434668E+04  0.26945861581E+04 0.  0.
        3    1    3    3  502    0 -0.11431697240E+03 -0.13256643047E+04  0.18674165152E+03  0.13436244540E+04  0.10100000352E+00 0. -1.
       -3    1    3    3    0  502  0.11431697240E+03  0.13256643047E+04 -0.23638764581E+03  0.13514190128E+04  0.10100000352E+00 0.  1.
</event>
<event>
 5   0  0.2030645E-06  0.2625842E+04  0.7818609E-02  0.8359476E-01
        2   -1    0    0  501    0  0.00000000000E+00  0.00000000000E+00  0.22334100294E+04  0.22334100294E+04  0.25500000920E-02 0. -1.
       -2   -1    0    0    0  501  0.00000000000E+00  0.00000000000E+00 -0.77180690785E+03  0.77180690786E+03  0.25500000920E-02 0.  1.
    10030    2    1    2    0    0  0.00000000000E+00  0.00000000000E+00  0.14616031215E+04  0.30052169372E+04  0.26258417993E+04 0.  0.
        1    1    3    3  502    0 -0.83516277262E+03  0.40951868550E+03  0.17912567271E+04  0.20183664368E+04  0.50400001928E-02 0. -1.
       -1    1    3    3    0  502  0.83516277262E+03 -0.40951868550E+03 -0.32965360562E+03  0.98685050046E+03  0.50400001928E-02 0.  1.
</event>
<event>
 5   0  0.1999104E-06  0.2700128E+04  0.7818609E-02  0.8334963E-01
       -2   -1    0    0    0  501  0.00000000000E+00  0.00000000000E+00  0.94091550056E+03  0.94091550056E+03  0.25500000920E-02 0.  1.
        2   -1    0    0  501    0  0.00000000000E+00  0.00000000000E+00 -0.19371271703E+04  0.19371271703E+04  0.25500000920E-02 0. -1.
    10030    2    1    2    0    0  0.00000000000E+00  0.00000000000E+00 -0.99621166977E+03  0.28780426709E+04  0.27001281311E+04 0.  0.
        4    1    3    3  502    0  0.12203653183E+03  0.11231422295E+04  0.28973842261E+03  0.11663152873E+04  0.12699999809E+01 0.  1.
       -4    1    3    3    0  502 -0.12203653183E+03 -0.11231422295E+04 -0.12859500924E+04  0.17117273836E+04  0.12699999809E+01 0. -1.
</event>
<event>
 5   0  0.1991277E-06  0.2700018E+04  0.7818609E-02  0.8334999E-01
        2   -1    0    0  501    0  0.00000000000E+00  0.00000000000E+00  0.86577506190E+03  0.86577506191E+03  0.25500000920E-02 0. -1.
       -2   -1    0    0    0  501  0.00000000000E+00  0.00000000000E+00 -0.21050781297E+04  0.21050781297E+04  0.25500000920E-02 0.  1.
    10030    2    1    2    0    0  0.00000000000E+00  0.00000000000E+00 -0.12393030678E+04  0.29708531916E+04  0.27000178874E+04 0.  0.
        5    1    3    3  502    0 -0.11031857346E+04  0.77675928496E+03 -0.56889036510E+03  0.14642513750E+04  0.46999998093E+01 0. -1.
       -5    1    3    3    0  502  0.11031857346E+04 -0.77675928496E+03 -0.67041270271E+03  0.15066018166E+04  0.46999998093E+01 0.  1.
</event>
<event>
 5   0  0.7768032E-07  0.2701331E+04  0.7818609E-02  0.8334573E-01
        1   -1    0    0  501    0  0.00000000000E+00  0.00000000000E+00  0.89897069254E+03  0.89897069255E+03  0.50400001928E-02 0. -1.
       -1   -1    0    0    0  501  0.00000000000E+00  0.00000000000E+00 -0.20293179858E+04  0.20293179858E+04  0.50400001928E-02 0.  1.
    10030    2    1    2    0    0  0.00000000000E+00  0.00000000000E+00 -0.11303472933E+04  0.29282886784E+04  0.27013310757E+04 0.  0.
        4    1    3    3  502    0  0.82381450124E+03 -0.98149046187E+03 -0.10280145139E+04  0.16428053180E+04  0.12699999809E+01 0.  1.
       -4    1    3    3    0  502 -0.82381450124E+03  0.98149046187E+03 -0.10233277942E+03  0.12854833604E+04  0.12699999809E+01 0. -1.
</event>
<event>
 5   0  0.2030645E-06  0.2711051E+04  0.7818609E-02  0.8331428E-01
        2   -1    0    0  501    0  0.00000000000E+00  0.00000000000E+00  0.15914190925E+04  0.15914190925E+04  0.25500000920E-02 0. -1.
       -2   -1    0    0    0  501  0.00000000000E+00  0.00000000000E+00 -0.11545977677E+04  0.11545977677E+04  0.25500000920E-02 0.  1.
    10030    2    1    2    0    0  0.00000000000E+00  0.00000000000E+00  0.43682132474E+03  0.27460168602E+04  0.27110506684E+04 0.  0.
        1    1    3    3  502    0  0.58148270275E+03  0.37641904846E+03  0.13986148667E+04  0.15607488520E+04  0.50400001928E-02 0. -1.
       -1    1    3    3    0  502 -0.58148270275E+03 -0.37641904846E+03 -0.96179354200E+03  0.11852680081E+04  0.50400001928E-02 0.  1.
</event>
<event>
 5   0  0.7566905E-07  0.2693804E+04  0.7818609E-02  0.8337018E-01
        1   -1    0    0  501    0  0.00000000000E+00  0.00000000000E+00  0.11672413797E+04  0.11672413797E+04  0.50400001928E-02 0. -1.
       -1   -1    0    0    0  501  0.00000000000E+00  0.00000000000E+00 -0.15542161017E+04  0.15542161017E+04  0.50400001928E-02 0.  1.
    10030    2    1    2    0    0  0.00000000000E+00  0.00000000000E+00 -0.38697472203E+03  0.27214574814E+04  0.26938042594E+04 0.  0.
        1    1    3    3  502    0  0.79600013579E+02  0.11443177680E+04  0.51969570053E+03  0.12593184417E+04  0.50400001928E-02 0. -1.
       -1    1    3    3    0  502 -0.79600013579E+02 -0.11443177680E+04 -0.90667042256E+03  0.14621390397E+04  0.50400001928E-02 0.  1.
</event>
<event>
 5   0  0.7436613E-07  0.2698295E+04  0.7818609E-02  0.8335558E-01
       -1   -1    0    0    0  501  0.00000000000E+00  0.00000000000E+00  0.10637097213E+04  0.10637097214E+04  0.50400001928E-02 0.  1.
        1   -1    0    0  501    0  0.00000000000E+00  0.00000000000E+00 -0.17111800917E+04  0.17111800917E+04  0.50400001928E-02 0. -1.
    10030    2    1    2    0    0  0.00000000000E+00  0.00000000000E+00 -0.64747037034E+03  0.27748898131E+04  0.26982949420E+04 0.  0.
        2    1    3    3  502    0  0.11125568964E+03  0.56797639576E+03 -0.15770272373E+04  0.16798779485E+04  0.25500000920E-02 0. -1.
       -2    1    3    3    0  502 -0.11125568964E+03 -0.56797639576E+03  0.92955686696E+03  0.10950118646E+04  0.25500000920E-02 0.  1.
</event>
<event>
 5   0  0.7436613E-07  0.2697197E+04  0.7818609E-02  0.8335915E-01
       -1   -1    0    0    0  501  0.00000000000E+00  0.00000000000E+00  0.94389068808E+03  0.94389068810E+03  0.50400001928E-02 0.  1.
        1   -1    0    0  501    0  0.00000000000E+00  0.00000000000E+00 -0.19268304627E+04  0.19268304627E+04  0.50400001928E-02 0. -1.
    10030    2    1    2    0    0  0.00000000000E+00  0.00000000000E+00 -0.98293977462E+03  0.28707211508E+04  0.26971965678E+04 0.  0.
        2    1    3    3  502    0 -0.81874668903E+03 -0.86281249306E+03 -0.11679097668E+04  0.16669747336E+04  0.25500000920E-02 0. -1.
       -2    1    3    3    0  502  0.81874668903E+03  0.86281249306E+03  0.18496999218E+03  0.12037464172E+04  0.25500000920E-02 0.  1.
</event>
<event>
 5   0  0.7566905E-07  0.2700698E+04  0.7818609E-02  0.8334778E-01
        1   -1    0    0  501    0  0.00000000000E+00  0.00000000000E+00  0.70091362944E+03  0.70091362946E+03  0.50400001928E-02 0. -1.
       -1   -1    0    0    0  501  0.00000000000E+00  0.00000000000E+00 -0.26015227080E+04  0.26015227080E+04  0.50400001928E-02 0.  1.
    10030    2    1    2    0    0  0.00000000000E+00  0.00000000000E+00 -0.19006090786E+04  0.33024363375E+04  0.27006982233E+04 0.  0.
        1    1    3    3  502    0 -0.11722384362E+04 -0.66678261075E+03 -0.10341424950E+04  0.16994683585E+04  0.50400001928E-02 0. -1.
       -1    1    3    3    0  502  0.11722384362E+04  0.66678261075E+03 -0.86646658357E+03  0.16029679790E+04  0.50400001928E-02 0.  1.
</event>
<event>
 5   0  0.7768032E-07  0.2694044E+04  0.7818609E-02  0.8336940E-01
       -1   -1    0    0    0  501  0.00000000000E+00  0.00000000000E+00  0.93318615303E+03  0.93318615305E+03  0.50400001928E-02 0. -1.
        1   -1    0    0  501    0  0.00000000000E+00  0.00000000000E+00 -0.19443794651E+04  0.19443794651E+04  0.50400001928E-02 0.  1.
    10030    2    1    2    0    0  0.00000000000E+00  0.00000000000E+00 -0.10111933121E+04  0.28775656182E+04  0.26940437956E+04 0.  0.
        4    1    3    3  502    0 -0.83802155206E+03  0.29812705583E+03  0.57490006745E+03  0.10590899695E+04  0.12699999809E+01 0. -1.
       -4    1    3    3    0  502  0.83802155206E+03 -0.29812705583E+03 -0.15860933795E+04  0.18184756486E+04  0.12699999809E+01 0.  1.
</event>
<event>
 5   0  0.1999104E-06  0.2700802E+04  0.7818609E-02  0.8334745E-01
       -2   -1    0    0    0  501  0.00000000000E+00  0.00000000000E+00  0.82350513211E+03  0.82350513211E+03  0.25500000920E-02 0. -1.
        2   -1    0    0  501    0  0.00000000000E+00  0.00000000000E+00 -0.22144160940E+04  0.22144160940E+04  0.25500000920E-02 0.  1.
    10030    2    1    2    0    0  0.00000000000E+00  0.00000000000E+00 -0.13909109619E+04  0.30379212261E+04  0.27008021165E+04 0.  0.
        4    1    3    3  502    0  0.11212439570E+04  0.58509282121E+03 -0.12278893822E+04  0.17627352519E+04  0.12699999809E+01 0.  1.
       -4    1    3    3    0  502 -0.11212439570E+04 -0.58509282121E+03 -0.16302157968E+03  0.12751859742E+04  0.12699999809E+01 0. -1.
</event>
<event>
 5   0  0.1932012E-06  0.2705646E+04  0.7818609E-02  0.8333175E-01
        2   -1    0    0  501    0  0.00000000000E+00  0.00000000000E+00  0.14534426396E+04  0.14534426396E+04  0.25500000920E-02 0.  1.
       -2   -1    0    0    0  501  0.00000000000E+00  0.00000000000E+00 -0.12591688329E+04  0.12591688329E+04  0.25500000920E-02 0. -1.
    10030    2    1    2    0    0  0.00000000000E+00  0.00000000000E+00  0.19427380672E+03  0.27126114725E+04  0.27056457064E+04 0.  0.
        2    1    3    3  502    0 -0.41113169287E+03  0.46745162050E+03 -0.11070337352E+04  0.12700645564E+04  0.25500000920E-02 0. -1.
       -2    1    3    3    0  502  0.41113169287E+03 -0.46745162050E+03  0.13013075420E+04  0.14425469161E+04  0.25500000920E-02 0.  1.
</event>
<event>
 5   0  0.7806808E-07  0.2700925E+04  0.7818609E-02  0.8334705E-01
       -1   -1    0    0    0  501  0.00000000000E+00  0.00000000000E+00  0.13664920690E+04  0.13664920690E+04  0.50400001928E-02 0.  1.
        1   -1    0    0  501    0  0.00000000000E+00  0.00000000000E+00 -0.13346208766E+04  0.13346208766E+04  0.50400001928E-02 0. -1.
    10030    2    1    2    0    0  0.00000000000E+00  0.00000000000E+00  0.31871192396E+02  0.27011129456E+04  0.27009249105E+04 0.  0.
        5    1    3    3  502    0 -0.41459745732E+03  0.25134956687E+03 -0.12445723591E+04  0.13356833844E+04  0.46999998093E+01 0. -1.
       -5    1    3    3    0  502  0.41459745732E+03 -0.25134956687E+03  0.12764435515E+04  0.13654295612E+04  0.46999998093E+01 0.  1.
</event>
<event>
 5   0  0.1932012E-06  0.2702479E+04  0.7818609E-02  0.8334201E-01
       -2   -1    0    0    0  501  0.00000000000E+00  0.00000000000E+00  0.10543406264E+04  0.10543406264E+04  0.25500000920E-02 0.  1.
        2   -1    0    0  501    0  0.00000000000E+00  0.00000000000E+00 -0.17317443161E+04  0.17317443161E+04  0.25500000920E-02 0. -1.
    10030    2    1    2    0    0  0.00000000000E+00  0.00000000000E+00 -0.67740368962E+03  0.27860849425E+04  0.27024791485E+04 0.  0.
        2    1    3    3  502    0 -0.56270601444E+03 -0.53942657866E+03 -0.14765819932E+04  0.16697046071E+04  0.25500000920E-02 0. -1.
       -2    1    3    3    0  502  0.56270601444E+03  0.53942657866E+03  0.79917830353E+03  0.11163803354E+04  0.25500000920E-02 0.  1.
</event>
<event>
 5   0  0.7806808E-07  0.2687645E+04  0.7818609E-02  0.8339025E-01
        1   -1    0    0  501    0  0.00000000000E+00  0.00000000000E+00  0.24458808242E+04  0.24458808242E+04  0.50400001928E-02 0. -1.
       -1   -1    0    0    0  501  0.00000000000E+00  0.00000000000E+00 -0.73832682654E+03  0.73832682655E+03  0.50400001928E-02 0.  1.
    10030    2    1    2    0    0  0.00000000000E+00  0.00000000000E+00  0.17075539976E+04  0.31842076507E+04  0.26876453836E+04 0.  0.
        5    1    3    3  502    0 -0.61087205604E+02 -0.13420735063E+04  0.89018577276E+03  0.16116282893E+04  0.46999998093E+01 0.  1.
       -5    1    3    3    0  502  0.61087205604E+02  0.13420735063E+04  0.81736822487E+03  0.15725793614E+04  0.46999998093E+01 0. -1.
</event>
<event>
 5   0  0.2030645E-06  0.2695549E+04  0.7818609E-02  0.8336451E-01
       -2   -1    0    0    0  501  0.00000000000E+00  0.00000000000E+00  0.77501394322E+03  0.77501394322E+03  0.25500000920E-02 0. -1.
        2   -1    0    0  501    0  0.00000000000E+00  0.00000000000E+00 -0.23438231219E+04  0.23438231219E+04  0.25500000920E-02 0.  1.
    10030    2    1    2    0    0  0.00000000000E+00  0.00000000000E+00 -0.15688091786E+04  0.31188370651E+04  0.26955486268E+04 0.  0.
        1    1    3    3  502    0 -0.63705914953E+03 -0.41915902011E+03  0.50138950400E+03  0.91265003090E+03  0.50400001928E-02 0. -1.
       -1    1    3    3    0  502  0.63705914953E+03  0.41915902011E+03 -0.20701986826E+04  0.22061870342E+04  0.50400001928E-02 0.  1.
</event>
<event>
 5   0  0.1999104E-06  0.2704584E+04  0.7818609E-02  0.8333519E-01
       -2   -1    0    0    0  501  0.00000000000E+00  0.00000000000E+00  0.15472406318E+04  0.15472406318E+04  0.25500000920E-02 0.  1.
        2   -1    0    0  501    0  0.00000000000E+00  0.00000000000E+00 -0.11819064450E+04  0.11819064450E+04  0.25500000920E-02 0. -1.
    10030    2    1    2    0    0  0.00000000000E+00  0.00000000000E+00  0.36533418682E+03  0.27291470768E+04  0.27045840159E+04 0.  0.
        4    1    3    3  502    0 -0.81298835354E+03 -0.73777380411E+03 -0.61408083666E+03  0.12579177779E+04  0.12699999809E+01 0. -1.
       -4    1    3    3    0  502  0.81298835354E+03  0.73777380411E+03  0.97941502348E+03  0.14712292990E+04  0.12699999809E+01 0.  1.
</event>
<event>
 5   0  0.7806808E-07  0.2702350E+04  0.7818609E-02  0.8334243E-01
        1   -1    0    0  501    0  0.00000000000E+00  0.00000000000E+00  0.22974605849E+04  0.22974605849E+04  0.50400001928E-02 0. -1.
       -1   -1    0    0    0  501  0.00000000000E+00  0.00000000000E+00 -0.79464886899E+03  0.79464886900E+03  0.50400001928E-02 0.  1.
    10030    2    1    2    0    0  0.00000000000E+00  0.00000000000E+00  0.15028117159E+04  0.30921094539E+04  0.27023504254E+04 0.  0.
        5    1    3    3  502    0 -0.75405387489E+03 -0.56824277416E+03 -0.35451163404E+03  0.10085621871E+04  0.46999998093E+01 0.  1.
       -5    1    3    3    0  502  0.75405387489E+03  0.56824277416E+03  0.18573233499E+04  0.20835472668E+04  0.46999998093E+01 0. -1.
</event>
<event>
 5   0  0.1999104E-06  0.2698589E+04  0.7818609E-02  0.8335463E-01
        2   -1    0    0  501    0  0.00000000000E+00  0.00000000000E+00  0.18192347966E+04  0.18192347966E+04  0.25500000920E-02 0.  1.
       -2   -1    0    0    0  501  0.00000000000E+00  0.00000000000E+00 -0.10007483765E+04  0.10007483765E+04  0.25500000920E-02 0. -1.
    10030    2    1    2    0    0  0.00000000000E+00  0.00000000000E+00  0.81848642006E+03  0.28199831732E+04  0.26985894606E+04 0.  0.
        4    1    3    3  502    0  0.58591681770E+03 -0.11737775685E+04  0.79547223010E+02  0.13142989276E+04  0.12699999809E+01 0. -1.
       -4    1    3    3    0  502 -0.58591681770E+03  0.11737775685E+04  0.73893919705E+03  0.15056842456E+04  0.12699999809E+01 0.  1.
</event>
<event>
 5   0  0.1991277E-06  0.2712790E+04  0.7818609E-02  0.8330867E-01
       -2   -1    0    0    0  501  0.00000000000E+00  0.00000000000E+00  0.13492000244E+04  0.13492000244E+04  0.25500000920E-02 0.  1.
        2   -1    0    0  501    0  0.00000000000E+00  0.00000000000E+00 -0.13636282749E+04  0.13636282749E+04  0.25500000920E-02 0. -1.
    10030    2    1    2    0    0  0.00000000000E+00  0.00000000000E+00 -0.14428250485E+02  0.27128282994E+04  0.27127899306E+04 0.  0.
        5    1    3    3  502    0  0.12797801992E+04 -0.31873442970E+03 -0.32400909958E+03  0.13580990323E+04  0.46999998093E+01 0. -1.
       -5    1    3    3    0  502 -0.12797801992E+04  0.31873442970E+03  0.30958084910E+03  0.13547292671E+04  0.46999998093E+01 0.  1.
</event>
<event>
 5   0  0.2030645E-06  0.2701911E+04  0.7818609E-02  0.8334385E-01
        2   -1    0    0  501    0  0.00000000000E+00  0.00000000000E+00  0.14091448299E+04  0.14091448299E+04  0.25500000920E-02 0. -1.
       -2   -1    0    0    0  501  0.00000000000E+00  0.00000000000E+00 -0.12951688660E+04  0.12951688660E+04  0.25500000920E-02 0.  1.
    10030    2    1    2    0    0  0.00000000000E+00  0.00000000000E+00  0.11397596390E+03  0.27043136960E+04  0.27019108138E+04 0.  0.
        1    1    3    3  502    0  0.77422486533E+03 -0.10782502031E+04 -0.19429877129E+03  0.13415661203E+04  0.50400001928E-02 0. -1.
       -1    1    3    3    0  502 -0.77422486533E+03  0.10782502031E+04  0.30827473519E+03  0.13627475757E+04  0.50400001928E-02 0.  1.
</event>
<event>
 5   0  0.7768032E-07  0.2701914E+04  0.7818609E-02  0.8334384E-01
        1   -1    0    0  501    0  0.00000000000E+00  0.00000000000E+00  0.11649928259E+04  0.11649928259E+04  0.50400001928E-02 0.  1.
       -1   -1    0    0    0  501  0.00000000000E+00  0.00000000000E+00 -0.15666055210E+04  0.15666055210E+04  0.50400001928E-02 0. -1.
    10030    2    1    2    0    0  0.00000000000E+00  0.00000000000E+00 -0.40161269511E+03  0.27315983469E+04  0.27019135389E+04 0.  0.
        4    1    3    3  502    0  0.13492252857E+04  0.60608743562E+02 -0.23278116398E+03  0.13705002644E+04  0.12699999809E+01 0. -1.
       -4    1    3    3    0  502 -0.13492252857E+04 -0.60608743562E+02 -0.16883153113E+03  0.13610980825E+04  0.12699999809E+01 0.  1.
</event>
<event>
 5   0  0.2030645E-06  0.2691984E+04  0.7818609E-02  0.8337611E-01
       -2   -1    0    0    0  501  0.00000000000E+00  0.00000000000E+00  0.10016343890E+04  0.10016343890E+04  0.25500000920E-02 0.  1.
        2   -1    0    0  501    0  0.00000000000E+00  0.00000000000E+00 -0.18087377920E+04  0.18087377920E+04  0.25500000920E-02 0. -1.
    10030    2    1    2    0    0  0.00000000000E+00  0.00000000000E+00 -0.80710340300E+03  0.28103721810E+04  0.26919836352E+04 0.  0.
        1    1    3    3  502    0  0.84921826347E+03  0.72477982756E+03 -0.11884237160E+04  0.16305914222E+04  0.50400001928E-02 0. -1.
       -1    1    3    3    0  502 -0.84921826347E+03 -0.72477982756E+03  0.38132031302E+03  0.11797807587E+04  0.50400001928E-02 0.  1.
</event>
<event>
 5   0  0.7436613E-07  0.2697940E+04  0.7818609E-02  0.8335674E-01
        1   -1    0    0  501    0  0.00000000000E+00  0.00000000000E+00  0.26376228596E+04  0.26376228596E+04  0.50400001928E-02 0. -1.
       -1   -1    0    0    0  501  0.00000000000E+00  0.00000000000E+00 -0.68990898495E+03  0.68990898497E+03  0.50400001928E-02 0.  1.
    10030    2    1    2    0    0  0.00000000000E+00  0.00000000000E+00  0.19477138747E+04  0.33275318446E+04  0.26979397397E+04 0.  0.
        2    1    3    3  502    0 -0.10497979229E+04  0.65517642516E+03  0.31152075646E+03  0.12760787627E+04  0.25500000920E-02 0.  1.
       -2    1    3    3    0  502  0.10497979229E+04 -0.65517642516E+03  0.16361931182E+04  0.20514530819E+04  0.25500000920E-02 0. -1.
</event>
<event>
 5   0  0.2063087E-06  0.2698912E+04  0.7818609E-02  0.8335358E-01
       -2   -1    0    0    0  501  0.00000000000E+00  0.00000000000E+00  0.14023203426E+04  0.14023203426E+04  0.25500000920E-02 0. -1.
        2   -1    0    0  501    0  0.00000000000E+00  0.00000000000E+00 -0.12985844171E+04  0.12985844171E+04  0.25500000920E-02 0.  1.
    10030    2    1    2    0    0  0.00000000000E+00  0.00000000000E+00  0.10373592548E+03  0.27009047597E+04  0.26989118879E+04 0.  0.
        3    1    3    3  502    0  0.19267309995E+03  0.76836869747E+02  0.13862709104E+04  0.14017039185E+04  0.10100000352E+00 0. -1.
       -3    1    3    3    0  502 -0.19267309995E+03 -0.76836869747E+02 -0.12825349849E+04  0.12992008412E+04  0.10100000352E+00 0.  1.
</event>
<event>
 5   0  0.7768032E-07  0.2705909E+04  0.7818609E-02  0.8333090E-01
       -1   -1    0    0    0  501  0.00000000000E+00  0.00000000000E+00  0.12686335952E+04  0.12686335952E+04  0.50400001928E-02 0. -1.
        1   -1    0    0  501    0  0.00000000000E+00  0.00000000000E+00 -0.14428800640E+04  0.14428800640E+04  0.50400001928E-02 0.  1.
    10030    2    1    2    0    0  0.00000000000E+00  0.00000000000E+00 -0.17424646879E+03  0.27115136592E+04  0.27059091803E+04 0.  0.
        4    1    3    3  502    0  0.30495569100E+03  0.11825147790E+04  0.49644481177E+03  0.13182557567E+04  0.12699999809E+01 0. -1.
       -4    1    3    3    0  502 -0.30495569100E+03 -0.11825147790E+04 -0.67069128057E+03  0.13932579025E+04  0.12699999809E+01 0.  1.
</event>
<event>
 5   0  0.7566905E-07  0.2701076E+04  0.7818609E-02  0.8334656E-01
        1   -1    0    0  501    0  0.00000000000E+00  0.00000000000E+00  0.15146273693E+04  0.15146273693E+04  0.50400001928E-02 0. -1.
       -1   -1    0    0    0  501  0.00000000000E+00  0.00000000000E+00 -0.12042254601E+04  0.12042254601E+04  0.50400001928E-02 0.  1.
    10030    2    1    2    0    0  0.00000000000E+00  0.00000000000E+00  0.31040190918E+03  0.27188528294E+04  0.27010759639E+04 0.  0.
        1    1    3    3  502    0  0.31252317324E+03 -0.63594385031E+03 -0.10020864481E+04  0.12273029634E+04  0.50400001928E-02 0.  1.
       -1    1    3    3    0  502 -0.31252317324E+03  0.63594385031E+03  0.13124883573E+04  0.14915498660E+04  0.50400001928E-02 0. -1.
</event>
<event>
 5   0  0.2030645E-06  0.2744898E+04  0.7818609E-02  0.8320582E-01
        2   -1    0    0  501    0  0.00000000000E+00  0.00000000000E+00  0.16840302859E+04  0.16840302859E+04  0.25500000920E-02 0. -1.
       -2   -1    0    0    0  501  0.00000000000E+00  0.00000000000E+00 -0.11185168191E+04  0.11185168191E+04  0.25500000920E-02 0.  1.
    10030    2    1    2    0    0  0.00000000000E+00  0.00000000000E+00  0.56551346680E+03  0.28025471050E+04  0.27448979570E+04 0.  0.
        1    1    3    3  502    0  0.10835772074E+04  0.24338576925E+03  0.11060670518E+04  0.15674056655E+04  0.50400001928E-02 0. -1.
       -1    1    3    3    0  502 -0.10835772074E+04 -0.24338576925E+03 -0.54055358504E+03  0.12351414395E+04  0.50400001928E-02 0.  1.
</event>
<event>
 5   0  0.1999104E-06  0.2706064E+04  0.7818609E-02  0.8333040E-01
       -2   -1    0    0    0  501  0.00000000000E+00  0.00000000000E+00  0.12387620652E+04  0.12387620652E+04  0.25500000920E-02 0.  1.
        2   -1    0    0  501    0  0.00000000000E+00  0.00000000000E+00 -0.14778422742E+04  0.14778422742E+04  0.25500000920E-02 0. -1.
    10030    2    1    2    0    0  0.00000000000E+00  0.00000000000E+00 -0.23908020905E+03  0.27166043394E+04  0.27060635230E+04 0.  0.
        4    1    3    3  502    0 -0.46617279304E+03 -0.69153866642E+03 -0.11891246815E+04  0.14524331039E+04  0.12699999809E+01 0. -1.
       -4    1    3    3    0  502  0.46617279304E+03  0.69153866642E+03  0.95004447246E+03  0.12641712355E+04  0.12699999809E+01 0.  1.
</event>
<event>
 5   0  0.7806808E-07  0.2702034E+04  0.7818609E-02  0.8334345E-01
        1   -1    0    0  501    0  0.00000000000E+00  0.00000000000E+00  0.14154723019E+04  0.14154723019E+04  0.50400001928E-02 0. -1.
       -1   -1    0    0    0  501  0.00000000000E+00  0.00000000000E+00 -0.12894969623E+04  0.12894969623E+04  0.50400001928E-02 0.  1.
    10030    2    1    2    0    0  0.00000000000E+00  0.00000000000E+00  0.12597533954E+03  0.27049692642E+04  0.27020342215E+04 0.  0.
        5    1    3    3  502    0 -0.32096619772E+03  0.13123098536E+04  0.56002159842E+02  0.13521593042E+04  0.46999998093E+01 0.  1.
       -5    1    3    3    0  502  0.32096619772E+03 -0.13123098536E+04  0.69973179702E+02  0.13528099600E+04  0.46999998093E+01 0. -1.
</event>
<event>
 5   0  0.2030645E-06  0.2710799E+04  0.7818609E-02  0.8331510E-01
        2   -1    0    0  501    0  0.00000000000E+00  0.00000000000E+00  0.26263764512E+04  0.26263764512E+04  0.25500000920E-02 0.  1.
       -2   -1    0    0    0  501  0.00000000000E+00  0.00000000000E+00 -0.69948377913E+03  0.69948377913E+03  0.25500000920E-02 0. -1.
    10030    2    1    2    0    0  0.00000000000E+00  0.00000000000E+00  0.19268926720E+04  0.33258602303E+04  0.27107989416E+04 0.  0.
        1    1    3    3  502    0  0.23487193762E+03  0.58334094277E+03  0.24365643661E+04  0.25164056495E+04  0.50400001928E-02 0.  1.
       -1    1    3    3    0  502 -0.23487193762E+03 -0.58334094277E+03 -0.50967169408E+03  0.80945458079E+03  0.50400001928E-02 0. -1.
</event>
<event>
 5   0  0.2063087E-06  0.2698361E+04  0.7818609E-02  0.8335537E-01
       -2   -1    0    0    0  501  0.00000000000E+00  0.00000000000E+00  0.11482346495E+04  0.11482346495E+04  0.25500000920E-02 0. -1.
        2   -1    0    0  501    0  0.00000000000E+00  0.00000000000E+00 -0.15852932751E+04  0.15852932751E+04  0.25500000920E-02 0.  1.
    10030    2    1    2    0    0  0.00000000000E+00  0.00000000000E+00 -0.43705862558E+03  0.27335279247E+04  0.26983614793E+04 0.  0.
        3    1    3    3  502    0 -0.27029260727E+03 -0.11588636996E+04  0.42557576257E+03  0.12637792164E+04  0.10100000352E+00 0. -1.
       -3    1    3    3    0  502  0.27029260727E+03  0.11588636996E+04 -0.86263438815E+03  0.14697487083E+04  0.10100000352E+00 0.  1.
</event>
<event>
 5   0  0.7566905E-07  0.2701509E+04  0.7818609E-02  0.8334515E-01
        1   -1    0    0  501    0  0.00000000000E+00  0.00000000000E+00  0.69615665508E+03  0.69615665510E+03  0.50400001928E-02 0. -1.
       -1   -1    0    0    0  501  0.00000000000E+00  0.00000000000E+00 -0.26208732456E+04  0.26208732457E+04  0.50400001928E-02 0.  1.
    10030    2    1    2    0    0  0.00000000000E+00  0.00000000000E+00 -0.19247165906E+04  0.33170299008E+04  0.27015094685E+04 0.  0.
        1    1    3    3  502    0  0.27600003394E+02 -0.12691139397E+04 -0.15291996364E+04  0.19874263458E+04  0.50400001928E-02 0.  1.
       -1    1    3    3    0  502 -0.27600003394E+02  0.12691139397E+04 -0.39551695416E+03  0.13296035549E+04  0.50400001928E-02 0. -1.
</event>
<event>
 5   0  0.7566905E-07  0.2702257E+04  0.7818609E-02  0.8334273E-01
        1   -1    0    0  501    0  0.00000000000E+00  0.00000000000E+00  0.12080031808E+04  0.12080031808E+04  0.50400001928E-02 0. -1.
       -1   -1    0    0    0  501  0.00000000000E+00  0.00000000000E+00 -0.15112115365E+04  0.15112115365E+04  0.50400001928E-02 0.  1.
    10030    2    1    2    0    0  0.00000000000E+00  0.00000000000E+00 -0.30320835569E+03  0.27192147174E+04  0.27022570885E+04 0.  0.
        1    1    3    3  502    0 -0.72436711886E+03  0.77805040220E+03  0.68758252851E+03  0.12660331294E+04  0.50400001928E-02 0. -1.
       -1    1    3    3    0  502  0.72436711886E+03 -0.77805040220E+03 -0.99079088421E+03  0.14531815879E+04  0.50400001928E-02 0.  1.
</event>
<event>
 5   0  0.7335091E-07  0.2700040E+04  0.7818609E-02  0.8334992E-01
       -1   -1    0    0    0  501  0.00000000000E+00  0.00000000000E+00  0.80302212979E+03  0.80302212980E+03  0.50400001928E-02 0. -1.
        1   -1    0    0  501    0  0.00000000000E+00  0.00000000000E+00 -0.22696188471E+04  0.22696188471E+04  0.50400001928E-02 0.  1.
    10030    2    1    2    0    0  0.00000000000E+00  0.00000000000E+00 -0.14665967173E+04  0.30726409769E+04  0.27000401185E+04 0.  0.
        3    1    3    3  502    0 -0.43045267165E+03 -0.75513682137E+03  0.44222302098E+03  0.97523450104E+03  0.10100000352E+00 0. -1.
       -3    1    3    3    0  502  0.43045267165E+03  0.75513682137E+03 -0.19088197382E+04  0.20974064758E+04  0.10100000352E+00 0.  1.
</event>
<event>
 5   0  0.7806808E-07  0.2688586E+04  0.7818609E-02  0.8338718E-01
        1   -1    0    0  501    0  0.00000000000E+00  0.00000000000E+00  0.13351383321E+04  0.13351383321E+04  0.50400001928E-02 0. -1.
       -1   -1    0    0    0  501  0.00000000000E+00  0.00000000000E+00 -0.13535100324E+04  0.13535100324E+04  0.50400001928E-02 0.  1.
    10030    2    1    2    0    0  0.00000000000E+00  0.00000000000E+00 -0.18371700240E+02  0.26886483645E+04  0.26885855963E+04 0.  0.
        5    1    3    3  502    0 -0.11118429716E+04 -0.68314454348E+03  0.31365256563E+03  0.13421182074E+04  0.46999998093E+01 0. -1.
       -5    1    3    3    0  502  0.11118429716E+04  0.68314454348E+03 -0.33202426587E+03  0.13465301571E+04  0.46999998093E+01 0.  1.
</event>
<event>
 5   0  0.7806808E-07  0.2701689E+04  0.7818609E-02  0.8334457E-01
       -1   -1    0    0    0  501  0.00000000000E+00  0.00000000000E+00  0.11779050545E+04  0.11779050545E+04  0.50400001928E-02 0.  1.
        1   -1    0    0  501    0  0.00000000000E+00  0.00000000000E+00 -0.15491745239E+04  0.15491745240E+04  0.50400001928E-02 0. -1.
    10030    2    1    2    0    0  0.00000000000E+00  0.00000000000E+00 -0.37126946947E+03  0.27270795784E+04  0.27016887327E+04 0.  0.
        5    1    3    3  502    0 -0.11806198825E+04 -0.24499931347E+03 -0.80034945108E+03  0.14472281452E+04  0.46999998093E+01 0. -1.
       -5    1    3    3    0  502  0.11806198825E+04  0.24499931347E+03  0.42907998161E+03  0.12798514332E+04  0.46999998093E+01 0.  1.
</event>
<event>
 5   0  0.1999104E-06  0.2693473E+04  0.7818609E-02  0.8337126E-01
        2   -1    0    0  501    0  0.00000000000E+00  0.00000000000E+00  0.17456534564E+04  0.17456534564E+04  0.25500000920E-02 0.  1.
       -2   -1    0    0    0  501  0.00000000000E+00  0.00000000000E+00 -0.10389799338E+04  0.10389799338E+04  0.25500000920E-02 0. -1.
    10030    2    1    2    0    0  0.00000000000E+00  0.00000000000E+00  0.70667352259E+03  0.27846333903E+04  0.26934727863E+04 0.  0.
        4    1    3    3  502    0 -0.75544707032E+03  0.63323284907E+03 -0.59533261147E+03  0.11515670403E+04  0.12699999809E+01 0. -1.
       -4    1    3    3    0  502  0.75544707032E+03 -0.63323284907E+03  0.13020061341E+04  0.16330663499E+04  0.12699999809E+01 0.  1.
</event>
<event>
 5   0  0.2030645E-06  0.2701616E+04  0.7818609E-02  0.8334481E-01
        2   -1    0    0  501    0  0.00000000000E+00  0.00000000000E+00  0.12657560117E+04  0.12657560117E+04  0.25500000920E-02 0.  1.
       -2   -1    0    0    0  501  0.00000000000E+00  0.00000000000E+00 -0.14415750329E+04  0.14415750329E+04  0.25500000920E-02 0. -1.
    10030    2    1    2    0    0  0.00000000000E+00  0.00000000000E+00 -0.17581902115E+03  0.27073310446E+04  0.27016160084E+04 0.  0.
        1    1    3    3  502    0 -0.70177168495E+03 -0.40546701312E+03 -0.11708412879E+04  0.14239930891E+04  0.50400001928E-02 0. -1.
       -1    1    3    3    0  502  0.70177168495E+03  0.40546701312E+03  0.99502226672E+03  0.12833379554E+04  0.50400001928E-02 0.  1.
</event>
<event>
 5   0  0.7436613E-07  0.2705518E+04  0.7818609E-02  0.8333217E-01
        1   -1    0    0  501    0  0.00000000000E+00  0.00000000000E+00  0.15853663260E+04  0.15853663260E+04  0.50400001928E-02 0.  1.
       -1   -1    0    0    0  501  0.00000000000E+00  0.00000000000E+00 -0.11542805269E+04  0.11542805269E+04  0.50400001928E-02 0. -1.
    10030    2    1    2    0    0  0.00000000000E+00  0.00000000000E+00  0.43108579906E+03  0.27396468529E+04  0.27055184184E+04 0.  0.
        2    1    3    3  502    0  0.48000559773E+03  0.29775086539E+03 -0.10291478197E+04  0.11739702665E+04  0.25500000920E-02 0. -1.
       -2    1    3    3    0  502 -0.48000559773E+03 -0.29775086539E+03  0.14602336188E+04  0.15656765864E+04  0.25500000920E-02 0.  1.
</event>
<event>
 5   0  0.1991277E-06  0.2699595E+04  0.7818609E-02  0.8335136E-01
        2   -1    0    0  501    0  0.00000000000E+00  0.00000000000E+00  0.24354173235E+04  0.24354173235E+04  0.25500000920E-02 0.  1.
       -2   -1    0    0    0  501  0.00000000000E+00  0.00000000000E+00 -0.74810705325E+03  0.74810705325E+03  0.25500000920E-02 0. -1.
    10030    2    1    2    0    0  0.00000000000E+00  0.00000000000E+00  0.16873102703E+04  0.31835243768E+04  0.26995946935E+04 0.  0.
        5    1    3    3  502    0  0.12441321809E+04 -0.33320872502E+03  0.13198161476E+04  0.18441338594E+04  0.46999998093E+01 0.  1.
       -5    1    3    3    0  502 -0.12441321809E+04  0.33320872502E+03  0.36749412266E+03  0.13393905174E+04  0.46999998093E+01 0. -1.
</event>
<event>
 5   0  0.7436613E-07  0.2697913E+04  0.7818609E-02  0.8335683E-01
        1   -1    0    0  501    0  0.00000000000E+00  0.00000000000E+00  0.18181021127E+04  0.18181021127E+04  0.50400001928E-02 0.  1.
       -1   -1    0    0    0  501  0.00000000000E+00  0.00000000000E+00 -0.10008697136E+04  0.10008697136E+04  0.50400001928E-02 0. -1.
    10030    2    1    2    0    0  0.00000000000E+00  0.00000000000E+00  0.81723239905E+03  0.28189718263E+04  0.26979127791E+04 0.  0.
        2    1    3    3  502    0 -0.56828643787E+03  0.91332795896E+03  0.12591221804E+04  0.16560513583E+04  0.25500000920E-02 0.  1.
       -2    1    3    3    0  502  0.56828643787E+03 -0.91332795896E+03 -0.44188978138E+03  0.11629204680E+04  0.25500000920E-02 0. -1.
</event>
<event>
 5   0  0.1932012E-06  0.2736400E+04  0.7818609E-02  0.8323290E-01
       -2   -1    0    0    0  501  0.00000000000E+00  0.00000000000E+00  0.13438522216E+04  0.13438522216E+04  0.25500000920E-02 0.  1.
        2   -1    0    0  501    0  0.00000000000E+00  0.00000000000E+00 -0.13929884303E+04  0.13929884303E+04  0.25500000920E-02 0. -1.
    10030    2    1    2    0    0  0.00000000000E+00  0.00000000000E+00 -0.49136208773E+02  0.27368406519E+04  0.27363995298E+04 0.  0.
        2    1    3    3  502    0  0.34455778207E+03 -0.89124284491E+03  0.95484290186E+03  0.13508363487E+04  0.25500000920E-02 0.  1.
       -2    1    3    3    0  502 -0.34455778207E+03  0.89124284491E+03 -0.10039791106E+04  0.13860043032E+04  0.25500000920E-02 0. -1.
</event>
<event>
 5   0  0.2063087E-06  0.2695072E+04  0.7818609E-02  0.8336606E-01
        2   -1    0    0  501    0  0.00000000000E+00  0.00000000000E+00  0.25488802412E+04  0.25488802412E+04  0.25500000920E-02 0.  1.
       -2   -1    0    0    0  501  0.00000000000E+00  0.00000000000E+00 -0.71241197318E+03  0.71241197318E+03  0.25500000920E-02 0. -1.
    10030    2    1    2    0    0  0.00000000000E+00  0.00000000000E+00  0.18364682681E+04  0.32612922144E+04  0.26950716518E+04 0.  0.
        3    1    3    3  502    0 -0.72892748024E+03  0.28352134468E+02 -0.45281646197E+03  0.85859296143E+03  0.10100000352E+00 0. -1.
       -3    1    3    3    0  502  0.72892748024E+03 -0.28352134468E+02  0.22892847300E+04  0.24026992530E+04  0.10100000352E+00 0.  1.
</event>
<event>
 5   0  0.2030645E-06  0.2700077E+04  0.7818609E-02  0.8334980E-01
       -2   -1    0    0    0  501  0.00000000000E+00  0.00000000000E+00  0.18233567961E+04  0.18233567961E+04  0.25500000920E-02 0.  1.
        2   -1    0    0  501    0  0.00000000000E+00  0.00000000000E+00 -0.99958736285E+03  0.99958736285E+03  0.25500000920E-02 0. -1.
    10030    2    1    2    0    0  0.00000000000E+00  0.00000000000E+00  0.82376943324E+03  0.28229441589E+04  0.27000773406E+04 0.  0.
        1    1    3    3  502    0 -0.35640817117E+03 -0.62755203970E+03 -0.78097916239E+03  0.10633798941E+04  0.50400001928E-02 0. -1.
       -1    1    3    3    0  502  0.35640817117E+03  0.62755203970E+03  0.16047485956E+04  0.17595642649E+04  0.50400001928E-02 0.  1.
</event>
<event>
 5   0  0.1999104E-06  0.2697821E+04  0.7818609E-02  0.8335712E-01
        2   -1    0    0  501    0  0.00000000000E+00  0.00000000000E+00  0.15401810305E+04  0.15401810305E+04  0.25500000920E-02 0.  1.
       -2   -1    0    0    0  501  0.00000000000E+00  0.00000000000E+00 -0.11813934695E+04  0.11813934696E+04  0.25500000920E-02 0. -1.
    10030    2    1    2    0    0  0.00000000000E+00  0.00000000000E+00  0.35878756097E+03  0.27215745001E+04  0.26978212034E+04 0.  0.
        4    1    3    3  502    0  0.94696606077E+03 -0.85742695835E+03  0.61637330089E+03  0.14183946447E+04  0.12699999809E+01 0.  1.
       -4    1    3    3    0  502 -0.94696606077E+03  0.85742695835E+03 -0.25758573992E+03  0.13031798554E+04  0.12699999809E+01 0. -1.
</event>
<event>
 5   0  0.7806808E-07  0.2691481E+04  0.7818609E-02  0.8337774E-01
       -1   -1    0    0    0  501  0.00000000000E+00  0.00000000000E+00  0.11114525904E+04  0.11114525904E+04  0.50400001928E-02 0.  1.
        1   -1    0    0  501    0  0.00000000000E+00  0.00000000000E+00 -0.16294150714E+04  0.16294150714E+04  0.50400001928E-02 0. -1.
    10030    2    1    2    0    0  0.00000000000E+00  0.00000000000E+00 -0.51796248099E+03  0.27408676618E+04  0.26914810807E+04 0.  0.
        5    1    3    3  502    0  0.59616100950E+03 -0.11993984459E+04 -0.39187846969E+03  0.13955484249E+04  0.46999998093E+01 0. -1.
       -5    1    3    3    0  502 -0.59616100950E+03  0.11993984459E+04 -0.12608401130E+03  0.13453192369E+04  0.46999998093E+01 0.  1.
</event>
<event>
 5   0  0.7768032E-07  0.2708861E+04  0.7818609E-02  0.8332136E-01
       -1   -1    0    0    0  501  0.00000000000E+00  0.00000000000E+00  0.11100308477E+04  0.11100308477E+04  0.50400001928E-02 0. -1.
        1   -1    0    0  501    0  0.00000000000E+00  0.00000000000E+00 -0.16526406428E+04  0.16526406428E+04  0.50400001928E-02 0.  1.
    10030    2    1    2    0    0  0.00000000000E+00  0.00000000000E+00 -0.54260979514E+03  0.27626714905E+04  0.27088610844E+04 0.  0.
        4    1    3    3  502    0 -0.62485990109E+03  0.58413325873E+03  0.79970779119E+03  0.11709806677E+04  0.12699999809E+01 0. -1.
       -4    1    3    3    0  502  0.62485990109E+03 -0.58413325873E+03 -0.13423175863E+04  0.15916908228E+04  0.12699999809E+01 0.  1.
</event>
<event>
 5   0  0.6561875E-07  0.2698775E+04  0.7818609E-02  0.8335403E-01
        3   -1    0    0  501    0  0.00000000000E+00  0.00000000000E+00  0.10377086311E+04  0.10377086360E+04  0.10100000352E+00 0. -1.
       -3   -1    0    0    0  501  0.00000000000E+00  0.00000000000E+00 -0.17546801807E+04  0.17546801836E+04  0.10100000352E+00 0.  1.
    10030    2    1    2    0    0  0.00000000000E+00  0.00000000000E+00 -0.71697154955E+03  0.27923888196E+04  0.26987751142E+04 0.  0.
        2    1    3    3  502    0 -0.60489477135E+03  0.96966580941E+03  0.38382393969E+03  0.12055995533E+04  0.25500000920E-02 0. -1.
       -2    1    3    3    0  502  0.60489477135E+03 -0.96966580941E+03 -0.11007954892E+04  0.15867892662E+04  0.25500000920E-02 0.  1.
</event>
<event>
 5   0  0.2063087E-06  0.2712464E+04  0.7818609E-02  0.8330972E-01
        2   -1    0    0  501    0  0.00000000000E+00  0.00000000000E+00  0.21343092301E+04  0.21343092301E+04  0.25500000920E-02 0.  1.
       -2   -1    0    0    0  501  0.00000000000E+00  0.00000000000E+00 -0.86180845534E+03  0.86180845534E+03  0.25500000920E-02 0. -1.
    10030    2    1    2    0    0  0.00000000000E+00  0.00000000000E+00  0.12725007748E+04  0.29961176854E+04  0.27124643709E+04 0.  0.
        3    1    3    3  502    0 -0.11520662388E+04 -0.68691113098E+03  0.41461268907E+03  0.14039256436E+04  0.10100000352E+00 0. -1.
       -3    1    3    3    0  502  0.11520662388E+04  0.68691113098E+03  0.85788808569E+03  0.15921920419E+04  0.10100000352E+00 0.  1.
</event>
<event>
 5   0  0.1932012E-06  0.2700285E+04  0.7818609E-02  0.8334913E-01
       -2   -1    0    0    0  501  0.00000000000E+00  0.00000000000E+00  0.67364809405E+03  0.67364809406E+03  0.25500000920E-02 0.  1.
        2   -1    0    0  501    0  0.00000000000E+00  0.00000000000E+00 -0.27059893379E+04  0.27059893379E+04  0.25500000920E-02 0. -1.
    10030    2    1    2    0    0  0.00000000000E+00  0.00000000000E+00 -0.20323412438E+04  0.33796374319E+04  0.27002848442E+04 0.  0.
        2    1    3    3  502    0  0.57341267696E+03  0.52437909268E+03  0.36574589174E+03  0.85880474397E+03  0.25500000920E-02 0.  1.
       -2    1    3    3    0  502 -0.57341267696E+03 -0.52437909268E+03 -0.23980871356E+04  0.25208326880E+04  0.25500000920E-02 0. -1.
</event>
<event>
 5   0  0.1991277E-06  0.2697615E+04  0.7818609E-02  0.8335779E-01
        2   -1    0    0  501    0  0.00000000000E+00  0.00000000000E+00  0.19036451490E+04  0.19036451490E+04  0.25500000920E-02 0.  1.
       -2   -1    0    0    0  501  0.00000000000E+00  0.00000000000E+00 -0.95568324312E+03  0.95568324312E+03  0.25500000920E-02 0. -1.
    10030    2    1    2    0    0  0.00000000000E+00  0.00000000000E+00  0.94796190590E+03  0.28593283921E+04  0.26976150724E+04 0.  0.
        5    1    3    3  502    0  0.18318144568E+03 -0.12886825270E+04  0.99230805342E+02  0.13054221310E+04  0.46999998093E+01 0.  1.
       -5    1    3    3    0  502 -0.18318144568E+03  0.12886825270E+04  0.84873110056E+03  0.15539062611E+04  0.46999998093E+01 0. -1.
</event>
<event>
 5   0  0.7768032E-07  0.2705309E+04  0.7818609E-02  0.8333285E-01
       -1   -1    0    0    0  501  0.00000000000E+00  0.00000000000E+00  0.16253234628E+04  0.16253234629E+04  0.50400001928E-02 0.  1.
        1   -1    0    0  501    0  0.00000000000E+00  0.00000000000E+00 -0.11257289174E+04  0.11257289174E+04  0.50400001928E-02 0. -1.
    10030    2    1    2    0    0  0.00000000000E+00  0.00000000000E+00  0.49959454541E+03  0.27510523803E+04  0.27053085756E+04 0.  0.
        4    1    3    3  502    0  0.90518221404E+03 -0.49444604803E+03  0.11397176494E+04  0.15371368411E+04  0.12699999809E+01 0.  1.
       -4    1    3    3    0  502 -0.90518221404E+03  0.49444604803E+03 -0.64012310403E+03  0.12139155392E+04  0.12699999809E+01 0. -1.
</event>
<event>
 5   0  0.7566905E-07  0.2696644E+04  0.7818609E-02  0.8336095E-01
       -1   -1    0    0    0  501  0.00000000000E+00  0.00000000000E+00  0.94402366563E+03  0.94402366564E+03  0.50400001928E-02 0. -1.
        1   -1    0    0  501    0  0.00000000000E+00  0.00000000000E+00 -0.19257699433E+04  0.19257699433E+04  0.50400001928E-02 0.  1.
    10030    2    1    2    0    0  0.00000000000E+00  0.00000000000E+00 -0.98174627769E+03  0.28697936090E+04  0.26966441375E+04 0.  0.
        1    1    3    3  502    0  0.14404935434E+03 -0.12972671665E+04 -0.85069561794E+03  0.15579908062E+04  0.50400001928E-02 0.  1.
       -1    1    3    3    0  502 -0.14404935434E+03  0.12972671665E+04 -0.13105065975E+03  0.13118028028E+04  0.50400001928E-02 0. -1.
</event>
<event>
 5   0  0.1932012E-06  0.2695648E+04  0.7818609E-02  0.8336419E-01
       -2   -1    0    0    0  501  0.00000000000E+00  0.00000000000E+00  0.12176621709E+04  0.12176621709E+04  0.25500000920E-02 0.  1.
        2   -1    0    0  501    0  0.00000000000E+00  0.00000000000E+00 -0.14918991250E+04  0.14918991250E+04  0.25500000920E-02 0. -1.
    10030    2    1    2    0    0  0.00000000000E+00  0.00000000000E+00 -0.27423695409E+03  0.27095612959E+04  0.26956476975E+04 0.  0.
        2    1    3    3  502    0  0.51175873972E+03 -0.69980904043E+03 -0.11744331826E+04  0.14597681327E+04  0.25500000920E-02 0. -1.
       -2    1    3    3    0  502 -0.51175873972E+03  0.69980904043E+03  0.90019622856E+03  0.12497931632E+04  0.25500000920E-02 0.  1.
</event>
<event>
 5   0  0.7768032E-07  0.2715687E+04  0.7818609E-02  0.8329933E-01
       -1   -1    0    0    0  501  0.00000000000E+00  0.00000000000E+00  0.12222226213E+04  0.12222226213E+04  0.50400001928E-02 0.  1.
        1   -1    0    0  501    0  0.00000000000E+00  0.00000000000E+00 -0.15085127618E+04  0.15085127618E+04  0.50400001928E-02 0. -1.
    10030    2    1    2    0    0  0.00000000000E+00  0.00000000000E+00 -0.28629014048E+03  0.27307353831E+04  0.27156865961E+04 0.  0.
        4    1    3    3  502    0 -0.11110538743E+04  0.53286737541E+03  0.43040897221E+03  0.13052363187E+04  0.12699999809E+01 0.  1.
       -4    1    3    3    0  502  0.11110538743E+04 -0.53286737541E+03 -0.71669911269E+03  0.14254990644E+04  0.12699999809E+01 0. -1.
</event>
<event>
 5   0  0.1999104E-06  0.2702174E+04  0.7818609E-02  0.8334300E-01
        2   -1    0    0  501    0  0.00000000000E+00  0.00000000000E+00  0.16456033630E+04  0.16456033630E+04  0.25500000920E-02 0. -1.
       -2   -1    0    0    0  501  0.00000000000E+00  0.00000000000E+00 -0.11092805919E+04  0.11092805919E+04  0.25500000920E-02 0.  1.
    10030    2    1    2    0    0  0.00000000000E+00  0.00000000000E+00  0.53632277109E+03  0.27548839548E+04  0.27021738452E+04 0.  0.
        4    1    3    3  502    0 -0.95377235149E+03 -0.41652619716E+03  0.11465113942E+04  0.15484397829E+04  0.12699999809E+01 0. -1.
       -4    1    3    3    0  502  0.95377235149E+03  0.41652619716E+03 -0.61018862308E+03  0.12064441719E+04  0.12699999809E+01 0.  1.
</event>
<event>
 5   0  0.7806808E-07  0.2692901E+04  0.7818609E-02  0.8337312E-01
       -1   -1    0    0    0  501  0.00000000000E+00  0.00000000000E+00  0.13152394003E+04  0.13152394003E+04  0.50400001928E-02 0. -1.
        1   -1    0    0  501    0  0.00000000000E+00  0.00000000000E+00 -0.13784022687E+04  0.13784022687E+04  0.50400001928E-02 0.  1.
    10030    2    1    2    0    0  0.00000000000E+00  0.00000000000E+00 -0.63162868396E+02  0.26936416690E+04  0.26929010181E+04 0.  0.
        5    1    3    3  502    0  0.61410966943E+03 -0.11311214886E+04 -0.42708919175E+03  0.13560950467E+04  0.46999998093E+01 0.  1.
       -5    1    3    3    0  502 -0.61410966943E+03  0.11311214886E+04  0.36392632335E+03  0.13375466223E+04  0.46999998093E+01 0. -1.
</event>
<event>
 5   0  0.1991277E-06  0.2701752E+04  0.7818609E-02  0.8334437E-01
        2   -1    0    0  501    0  0.00000000000E+00  0.00000000000E+00  0.17257585286E+04  0.17257585286E+04  0.25500000920E-02 0.  1.
       -2   -1    0    0    0  501  0.00000000000E+00  0.00000000000E+00 -0.10574284154E+04  0.10574284154E+04  0.25500000920E-02 0. -1.
    10030    2    1    2    0    0  0.00000000000E+00  0.00000000000E+00  0.66833011322E+03  0.27831869440E+04  0.27017521028E+04 0.  0.
        5    1    3    3  502    0 -0.28649264311E+03  0.70374730430E+03 -0.81641847052E+03  0.11153024307E+04  0.46999998093E+01 0. -1.
       -5    1    3    3    0  502  0.28649264311E+03 -0.70374730430E+03  0.14847485837E+04  0.16678845133E+04  0.46999998093E+01 0.  1.
</event>
<event>
 5   0  0.2030645E-06  0.2702297E+04  0.7818609E-02  0.8334260E-01
       -2   -1    0    0    0  501  0.00000000000E+00  0.00000000000E+00  0.10902116203E+04  0.10902116203E+04  0.25500000920E-02 0.  1.
        2   -1    0    0  501    0  0.00000000000E+00  0.00000000000E+00 -0.16745387793E+04  0.16745387793E+04  0.25500000920E-02 0. -1.
    10030    2    1    2    0    0  0.00000000000E+00  0.00000000000E+00 -0.58432715908E+03  0.27647503996E+04  0.27022965313E+04 0.  0.
        1    1    3    3  502    0  0.19731124604E+03 -0.13120350341E+04 -0.30851278090E+02  0.13271471131E+04  0.50400001928E-02 0.  1.
       -1    1    3    3    0  502 -0.19731124604E+03  0.13120350341E+04 -0.55347588099E+03  0.14376032865E+04  0.50400001928E-02 0. -1.
</event>
<event>
 5   0  0.7335091E-07  0.2699867E+04  0.7818609E-02  0.8335048E-01
       -1   -1    0    0    0  501  0.00000000000E+00  0.00000000000E+00  0.14109730173E+04  0.14109730173E+04  0.50400001928E-02 0. -1.
        1   -1    0    0  501    0  0.00000000000E+00  0.00000000000E+00 -0.12915342031E+04  0.12915342032E+04  0.50400001928E-02 0.  1.
    10030    2    1    2    0    0  0.00000000000E+00  0.00000000000E+00  0.11943881413E+03  0.27025072204E+04  0.26998665978E+04 0.  0.
        3    1    3    3  502    0  0.11199812466E+03 -0.77065292066E+03 -0.10440241957E+04  0.13024730460E+04  0.10100000352E+00 0.  1.
       -3    1    3    3    0  502 -0.11199812466E+03  0.77065292066E+03  0.11634630099E+04  0.14000341744E+04  0.10100000352E+00 0. -1.
</event>
<event>
 5   0  0.7768032E-07  0.2701014E+04  0.7818609E-02  0.8334676E-01
        1   -1    0    0  501    0  0.00000000000E+00  0.00000000000E+00  0.10842869831E+04  0.10842869831E+04  0.50400001928E-02 0.  1.
       -1   -1    0    0    0  501  0.00000000000E+00  0.00000000000E+00 -0.16820907648E+04  0.16820907648E+04  0.50400001928E-02 0. -1.
    10030    2    1    2    0    0  0.00000000000E+00  0.00000000000E+00 -0.59780378167E+03  0.27663777479E+04  0.27010139731E+04 0.  0.
        4    1    3    3  502    0 -0.69001201535E+03  0.89328649050E+03 -0.10583238273E+04  0.15472970858E+04  0.12699999809E+01 0. -1.
       -4    1    3    3    0  502  0.69001201535E+03 -0.89328649050E+03  0.46052004559E+03  0.12190806621E+04  0.12699999809E+01 0.  1.
</event>
<event>
 5   0  0.7768032E-07  0.2699281E+04  0.7818609E-02  0.8335238E-01
       -1   -1    0    0    0  501  0.00000000000E+00  0.00000000000E+00  0.91911933987E+03  0.91911933989E+03  0.50400001928E-02 0.  1.
        1   -1    0    0  501    0  0.00000000000E+00  0.00000000000E+00 -0.19818204478E+04  0.19818204478E+04  0.50400001928E-02 0. -1.
    10030    2    1    2    0    0  0.00000000000E+00  0.00000000000E+00 -0.10627011080E+04  0.29009397877E+04  0.26992810167E+04 0.  0.
        4    1    3    3  502    0 -0.52318115232E+03  0.62107795998E+03  0.62717881158E+03  0.10260658971E+04  0.12699999809E+01 0.  1.
       -4    1    3    3    0  502  0.52318115232E+03 -0.62107795998E+03 -0.16898799195E+04  0.18748738907E+04  0.12699999809E+01 0. -1.
</event>
<event>
 5   0  0.7768032E-07  0.2698493E+04  0.7818609E-02  0.8335494E-01
        1   -1    0    0  501    0  0.00000000000E+00  0.00000000000E+00  0.14769360933E+04  0.14769360933E+04  0.50400001928E-02 0. -1.
       -1   -1    0    0    0  501  0.00000000000E+00  0.00000000000E+00 -0.12325961820E+04  0.12325961820E+04  0.50400001928E-02 0.  1.
    10030    2    1    2    0    0  0.00000000000E+00  0.00000000000E+00  0.24433991137E+03  0.27095322753E+04  0.26984927568E+04 0.  0.
        4    1    3    3  502    0  0.12369493458E+04 -0.44993547794E+03 -0.17565527874E+03  0.13279088856E+04  0.12699999809E+01 0.  1.
       -4    1    3    3    0  502 -0.12369493458E+04  0.44993547794E+03  0.41999519011E+03  0.13816233897E+04  0.12699999809E+01 0. -1.
</event>
<event>
 5   0  0.7335091E-07  0.2691709E+04  0.7818609E-02  0.8337700E-01
        1   -1    0    0  501    0  0.00000000000E+00  0.00000000000E+00  0.14236456977E+04  0.14236456977E+04  0.50400001928E-02 0.  1.
       -1   -1    0    0    0  501  0.00000000000E+00  0.00000000000E+00 -0.12723138346E+04  0.12723138346E+04  0.50400001928E-02 0. -1.
    10030    2    1    2    0    0  0.00000000000E+00  0.00000000000E+00  0.15133186308E+03  0.26959595324E+04  0.26917088378E+04 0.  0.
        3    1    3    3  502    0  0.32044632312E+03  0.81878248381E+03 -0.94488059390E+03  0.12906935921E+04  0.10100000352E+00 0. -1.
       -3    1    3    3    0  502 -0.32044632312E+03 -0.81878248381E+03  0.10962124570E+04  0.14052659403E+04  0.10100000352E+00 0.  1.
</event>
<event>
 5   0  0.1991277E-06  0.2701294E+04  0.7818609E-02  0.8334585E-01
       -2   -1    0    0    0  501  0.00000000000E+00  0.00000000000E+00  0.20511539613E+04  0.20511539613E+04  0.25500000920E-02 0.  1.
        2   -1    0    0  501    0  0.00000000000E+00  0.00000000000E+00 -0.88937637931E+03  0.88937637931E+03  0.25500000920E-02 0. -1.
    10030    2    1    2    0    0  0.00000000000E+00  0.00000000000E+00  0.11617775820E+04  0.29405303406E+04  0.27012944182E+04 0.  0.
        5    1    3    3  502    0 -0.16245164221E+03 -0.12781241116E+03  0.20338250599E+04  0.20443074653E+04  0.46999998093E+01 0.  1.
       -5    1    3    3    0  502  0.16245164221E+03  0.12781241116E+03 -0.87204747790E+03  0.89622287530E+03  0.46999998093E+01 0. -1.
</event>
<event>
 5   0  0.1932012E-06  0.2697815E+04  0.7818609E-02  0.8335714E-01
       -2   -1    0    0    0  501  0.00000000000E+00  0.00000000000E+00  0.91937848497E+03  0.91937848497E+03  0.25500000920E-02 0.  1.
        2   -1    0    0  501    0  0.00000000000E+00  0.00000000000E+00 -0.19791106319E+04  0.19791106319E+04  0.25500000920E-02 0. -1.
    10030    2    1    2    0    0  0.00000000000E+00  0.00000000000E+00 -0.10597321469E+04  0.28984891169E+04  0.26978152156E+04 0.  0.
        2    1    3    3  502    0  0.10162937709E+04  0.51774298194E+03 -0.13036021728E+04  0.17321343623E+04  0.25500000920E-02 0. -1.
       -2    1    3    3    0  502 -0.10162937709E+04 -0.51774298194E+03  0.24387002585E+03  0.11663547546E+04  0.25500000920E-02 0.  1.
</event>
<event>
 5   0  0.7436613E-07  0.2699107E+04  0.7818609E-02  0.8335295E-01
       -1   -1    0    0    0  501  0.00000000000E+00  0.00000000000E+00  0.15903840489E+04  0.15903840489E+04  0.50400001928E-02 0. -1.
        1   -1    0    0  501    0  0.00000000000E+00  0.00000000000E+00 -0.11451919957E+04  0.11451919957E+04  0.50400001928E-02 0.  1.
    10030    2    1    2    0    0  0.00000000000E+00  0.00000000000E+00  0.44519205322E+03  0.27355760447E+04  0.26991073213E+04 0.  0.
        2    1    3    3  502    0 -0.11039630611E+04  0.12937740704E+03  0.99832770191E+03  0.14940318451E+04  0.25500000920E-02 0. -1.
       -2    1    3    3    0  502  0.11039630611E+04 -0.12937740704E+03 -0.55313564868E+03  0.12415441996E+04  0.25500000920E-02 0.  1.
</event>
<event>
 5   0  0.7566905E-07  0.2698589E+04  0.7818609E-02  0.8335463E-01
       -1   -1    0    0    0  501  0.00000000000E+00  0.00000000000E+00  0.15679299407E+04  0.15679299407E+04  0.50400001928E-02 0.  1.
        1   -1    0    0  501    0  0.00000000000E+00  0.00000000000E+00 -0.11611463206E+04  0.11611463206E+04  0.50400001928E-02 0. -1.
    10030    2    1    2    0    0  0.00000000000E+00  0.00000000000E+00  0.40678362017E+03  0.27290762613E+04  0.26985893216E+04 0.  0.
        1    1    3    3  502    0  0.10526230968E+04  0.58187471059E+02 -0.64825922976E+03  0.12375949235E+04  0.50400001928E-02 0. -1.
       -1    1    3    3    0  502 -0.10526230968E+04 -0.58187471059E+02  0.10550428499E+04  0.14914813378E+04  0.50400001928E-02 0.  1.
</event>
<event>
 5   0  0.7335091E-07  0.2698115E+04  0.7818609E-02  0.8335617E-01
        1   -1    0    0  501    0  0.00000000000E+00  0.00000000000E+00  0.12723723501E+04  0.12723723501E+04  0.50400001928E-02 0. -1.
       -1   -1    0    0    0  501  0.00000000000E+00  0.00000000000E+00 -0.14303640165E+04  0.14303640165E+04  0.50400001928E-02 0.  1.
    10030    2    1    2    0    0  0.00000000000E+00  0.00000000000E+00 -0.15799166639E+03  0.27027363666E+04  0.26981146197E+04 0.  0.
        3    1    3    3  502    0  0.63283845092E+02 -0.12866420390E+04  0.32231872317E+03  0.13279088640E+04  0.10100000352E+00 0. -1.
       -3    1    3    3    0  502 -0.63283845092E+02  0.12866420390E+04 -0.48031038956E+03  0.13748275027E+04  0.10100000352E+00 0.  1.
</event>
<event>
 5   0  0.7566905E-07  0.2702771E+04  0.7818609E-02  0.8334106E-01
       -1   -1    0    0    0  501  0.00000000000E+00  0.00000000000E+00  0.13648088382E+04  0.13648088382E+04  0.50400001928E-02 0.  1.
        1   -1    0    0  501    0  0.00000000000E+00  0.00000000000E+00 -0.13380940379E+04  0.13380940379E+04  0.50400001928E-02 0. -1.
    10030    2    1    2    0    0  0.00000000000E+00  0.00000000000E+00  0.26714800303E+02  0.27029028760E+04  0.27027708517E+04 0.  0.
        1    1    3    3  502    0  0.80115023548E+03 -0.92830041372E+03 -0.55470134185E+03  0.13458368908E+04  0.50400001928E-02 0. -1.
       -1    1    3    3    0  502 -0.80115023548E+03  0.92830041372E+03  0.58141614216E+03  0.13570659852E+04  0.50400001928E-02 0.  1.
</event>
<event>
 5   0  0.7768032E-07  0.2719487E+04  0.7818609E-02  0.8328710E-01
       -1   -1    0    0    0  501  0.00000000000E+00  0.00000000000E+00  0.11012625491E+04  0.11012625491E+04  0.50400001928E-02 0.  1.
        1   -1    0    0  501    0  0.00000000000E+00  0.00000000000E+00 -0.16788931976E+04  0.16788931976E+04  0.50400001928E-02 0. -1.
    10030    2    1    2    0    0  0.00000000000E+00  0.00000000000E+00 -0.57763064853E+03  0.27801557468E+04  0.27194868652E+04 0.  0.
        4    1    3    3  502    0  0.49739298386E+03 -0.12115336960E+04 -0.66260440256E+03  0.14677397195E+04  0.12699999809E+01 0. -1.
       -4    1    3    3    0  502 -0.49739298386E+03  0.12115336960E+04  0.84973754036E+02  0.13124160273E+04  0.12699999809E+01 0.  1.
</event>
<event>
 5   0  0.7768032E-07  0.2699573E+04  0.7818609E-02  0.8335144E-01
       -1   -1    0    0    0  501  0.00000000000E+00  0.00000000000E+00  0.26031399432E+04  0.26031399432E+04  0.50400001928E-02 0. -1.
        1   -1    0    0  501    0  0.00000000000E+00  0.00000000000E+00 -0.69989458080E+03  0.69989458082E+03  0.50400001928E-02 0.  1.
    10030    2    1    2    0    0  0.00000000000E+00  0.00000000000E+00  0.19032453624E+04  0.33030345241E+04  0.26995729584E+04 0.  0.
        4    1    3    3  502    0 -0.24801882523E+03  0.12727679048E+04  0.14101978450E+04  0.19157533902E+04  0.12699999809E+01 0.  1.
       -4    1    3    3    0  502  0.24801882523E+03 -0.12727679048E+04  0.49304751746E+03  0.13872811339E+04  0.12699999809E+01 0. -1.
</event>
<event>
 5   0  0.7335091E-07  0.2714386E+04  0.7818609E-02  0.8330352E-01
        1   -1    0    0  501    0  0.00000000000E+00  0.00000000000E+00  0.24983809558E+04  0.24983809558E+04  0.50400001928E-02 0. -1.
       -1   -1    0    0    0  501  0.00000000000E+00  0.00000000000E+00 -0.73726686520E+03  0.73726686521E+03  0.50400001928E-02 0.  1.
    10030    2    1    2    0    0  0.00000000000E+00  0.00000000000E+00  0.17611140906E+04  0.32356478210E+04  0.27143864835E+04 0.  0.
        3    1    3    3  502    0 -0.41749734750E+03  0.10286196477E+04 -0.50156391468E+02  0.11112506867E+04  0.10100000352E+00 0.  1.
       -3    1    3    3    0  502  0.41749734750E+03 -0.10286196477E+04  0.18112704821E+04  0.21243971343E+04  0.10100000352E+00 0. -1.
</event>
<event>
 5   0  0.1932012E-06  0.2700888E+04  0.7818609E-02  0.8334717E-01
        2   -1    0    0  501    0  0.00000000000E+00  0.00000000000E+00  0.11609178133E+04  0.11609178133E+04  0.25500000920E-02 0. -1.
       -2   -1    0    0    0  501  0.00000000000E+00  0.00000000000E+00 -0.15709114391E+04  0.15709114391E+04  0.25500000920E-02 0.  1.
    10030    2    1    2    0    0  0.00000000000E+00  0.00000000000E+00 -0.40999362580E+03  0.27318292523E+04  0.27008880559E+04 0.  0.
        2    1    3    3  502    0 -0.27936615242E+03 -0.10192447215E+04  0.64534461802E+03  0.12382951689E+04  0.25500000920E-02 0. -1.
       -2    1    3    3    0  502  0.27936615242E+03  0.10192447215E+04 -0.10553382438E+04  0.14935340834E+04  0.25500000920E-02 0.  1.
</event>
<event>
 5   0  0.6561875E-07  0.2699401E+04  0.7818609E-02  0.8335199E-01
        3   -1    0    0  501    0  0.00000000000E+00  0.00000000000E+00  0.18516358610E+04  0.18516358637E+04  0.10100000352E+00 0.  1.
       -3   -1    0    0    0  501  0.00000000000E+00  0.00000000000E+00 -0.98382796628E+03  0.98382797146E+03  0.10100000352E+00 0. -1.
    10030    2    1    2    0    0  0.00000000000E+00  0.00000000000E+00  0.86780789469E+03  0.28354638352E+04  0.26994007888E+04 0.  0.
        2    1    3    3  502    0 -0.10171588353E+04 -0.49959308384E+03 -0.33618385258E+03  0.11820426931E+04  0.25500000920E-02 0. -1.
       -2    1    3    3    0  502  0.10171588353E+04  0.49959308384E+03  0.12039917473E+04  0.16534211421E+04  0.25500000920E-02 0.  1.
</event>
<event>
 5   0  0.2030645E-06  0.2698931E+04  0.7818609E-02  0.8335352E-01
        2   -1    0    0  501    0  0.00000000000E+00  0.00000000000E+00  0.19942818042E+04  0.19942818042E+04  0.25500000920E-02 0.  1.
       -2   -1    0    0    0  501  0.00000000000E+00  0.00000000000E+00 -0.91313923212E+03  0.91313923212E+03  0.25500000920E-02 0. -1.
    10030    2    1    2    0    0  0.00000000000E+00  0.00000000000E+00  0.10811425721E+04  0.29074210363E+04  0.26989308663E+04 0.  0.
        1    1    3    3  502    0 -0.10814816672E+04  0.68621116773E+02 -0.32575776182E+03  0.11315606804E+04  0.50400001928E-02 0. -1.
       -1    1    3    3    0  502  0.10814816672E+04 -0.68621116773E+02  0.14069003339E+04  0.17758603559E+04  0.50400001928E-02 0.  1.
</event>
<event>
 5   0  0.7335091E-07  0.2679294E+04  0.7818609E-02  0.8341755E-01
        1   -1    0    0  501    0  0.00000000000E+00  0.00000000000E+00  0.16365072235E+04  0.16365072235E+04  0.50400001928E-02 0.  1.
       -1   -1    0    0    0  501  0.00000000000E+00  0.00000000000E+00 -0.10966366951E+04  0.10966366952E+04  0.50400001928E-02 0. -1.
    10030    2    1    2    0    0  0.00000000000E+00  0.00000000000E+00  0.53987052838E+03  0.27331439187E+04  0.26792938422E+04 0.  0.
        3    1    3    3  502    0 -0.21380080948E+03  0.53084721646E+03  0.15055371762E+04  0.16106370642E+04  0.10100000352E+00 0.  1.
       -3    1    3    3    0  502  0.21380080948E+03 -0.53084721646E+03 -0.96566664786E+03  0.11225068545E+04  0.10100000352E+00 0. -1.
</event>
<event>
 5   0  0.2030645E-06  0.2702714E+04  0.7818609E-02  0.8334125E-01
        2   -1    0    0  501    0  0.00000000000E+00  0.00000000000E+00  0.17314789643E+04  0.17314789643E+04  0.25500000920E-02 0.  1.
       -2   -1    0    0    0  501  0.00000000000E+00  0.00000000000E+00 -0.10546851532E+04  0.10546851532E+04  0.25500000920E-02 0. -1.
    10030    2    1    2    0    0  0.00000000000E+00  0.00000000000E+00  0.67679381107E+03  0.27861641175E+04  0.27027135673E+04 0.  0.
        1    1    3    3  502    0  0.24561596746E+03  0.35694253350E+02 -0.10309874587E+04  0.10604416171E+04  0.50400001928E-02 0. -1.
       -1    1    3    3    0  502 -0.24561596746E+03 -0.35694253350E+02  0.17077812698E+04  0.17257225004E+04  0.50400001928E-02 0.  1.
</event>
<event>
 5   0  0.7566905E-07  0.2703561E+04  0.7818609E-02  0.8333851E-01
       -1   -1    0    0    0  501  0.00000000000E+00  0.00000000000E+00  0.19489531370E+04  0.19489531370E+04  0.50400001928E-02 0.  1.
        1   -1    0    0  501    0  0.00000000000E+00  0.00000000000E+00 -0.93758542706E+03  0.93758542708E+03  0.50400001928E-02 0. -1.
    10030    2    1    2    0    0  0.00000000000E+00  0.00000000000E+00  0.10113677099E+04  0.28865385641E+04  0.27035606591E+04 0.  0.
        1    1    3    3  502    0  0.10627595205E+04  0.69006926168E+03  0.30153755473E+01  0.12671473777E+04  0.50400001928E-02 0. -1.
       -1    1    3    3    0  502 -0.10627595205E+04 -0.69006926168E+03  0.10083523344E+04  0.16193911864E+04  0.50400001928E-02 0.  1.
</event>
<event>
 5   0  0.1991277E-06  0.2700206E+04  0.7818609E-02  0.8334938E-01
        2   -1    0    0  501    0  0.00000000000E+00  0.00000000000E+00  0.20598258680E+04  0.20598258680E+04  0.25500000920E-02 0. -1.
       -2   -1    0    0    0  501  0.00000000000E+00  0.00000000000E+00 -0.88491829384E+03  0.88491829385E+03  0.25500000920E-02 0.  1.
    10030    2    1    2    0    0  0.00000000000E+00  0.00000000000E+00  0.11749075742E+04  0.29447441619E+04  0.27002056164E+04 0.  0.
        5    1    3    3  502    0 -0.11800098772E+03 -0.13233195419E+04  0.32558998325E+03  0.13678924557E+04  0.46999998093E+01 0.  1.
       -5    1    3    3    0  502  0.11800098772E+03  0.13233195419E+04  0.84931759091E+03  0.15768517062E+04  0.46999998093E+01 0. -1.
</event>
<event>
 5   0  0.7436613E-07  0.2714663E+04  0.7818609E-02  0.8330263E-01
        1   -1    0    0  501    0  0.00000000000E+00  0.00000000000E+00  0.19724549565E+04  0.19724549565E+04  0.50400001928E-02 0. -1.
       -1   -1    0    0    0  501  0.00000000000E+00  0.00000000000E+00 -0.93403822913E+03  0.93403822915E+03  0.50400001928E-02 0.  1.
    10030    2    1    2    0    0  0.00000000000E+00  0.00000000000E+00  0.10384167274E+04  0.29064931857E+04  0.27146626565E+04 0.  0.
        2    1    3    3  502    0 -0.93479389371E+03 -0.44120181917E+03  0.14610583591E+04  0.17897458473E+04  0.25500000920E-02 0. -1.
       -2    1    3    3    0  502  0.93479389371E+03  0.44120181917E+03 -0.42264163175E+03  0.11167473384E+04  0.25500000920E-02 0.  1.
</event>
<event>
 5   0  0.2063087E-06  0.2691482E+04  0.7818609E-02  0.8337774E-01
       -2   -1    0    0    0  501  0.00000000000E+00  0.00000000000E+00  0.92600366638E+03  0.92600366638E+03  0.25500000920E-02 0.  1.
        2   -1    0    0  501    0  0.00000000000E+00  0.00000000000E+00 -0.19557356957E+04  0.19557356957E+04  0.25500000920E-02 0. -1.
    10030    2    1    2    0    0  0.00000000000E+00  0.00000000000E+00 -0.10297320293E+04  0.28817393621E+04  0.26914816921E+04 0.  0.
        3    1    3    3  502    0  0.84693257873E+03  0.55445605349E+03 -0.14642851665E+04  0.17801256605E+04  0.10100000352E+00 0. -1.
       -3    1    3    3    0  502 -0.84693257873E+03 -0.55445605349E+03  0.43455313722E+03  0.11016137015E+04  0.10100000352E+00 0.  1.
</event>
<event>
 5   0  0.1932012E-06  0.2696520E+04  0.7818609E-02  0.8336135E-01
       -2   -1    0    0    0  501  0.00000000000E+00  0.00000000000E+00  0.10710604600E+04  0.10710604600E+04  0.25500000920E-02 0.  1.
        2   -1    0    0  501    0  0.00000000000E+00  0.00000000000E+00 -0.16972009730E+04  0.16972009730E+04  0.25500000920E-02 0. -1.
    10030    2    1    2    0    0  0.00000000000E+00  0.00000000000E+00 -0.62614051296E+03  0.27682614330E+04  0.26965198719E+04 0.  0.
        2    1    3    3  502    0  0.13197321314E+04  0.24831130405E+03 -0.43649131829E+03  0.14120467674E+04  0.25500000920E-02 0. -1.
       -2    1    3    3    0  502 -0.13197321314E+04 -0.24831130405E+03 -0.18964919467E+03  0.13562146656E+04  0.25500000920E-02 0.  1.
</event>
<event>
 5   0  0.7436613E-07  0.2655102E+04  0.7818609E-02  0.8349721E-01
        1   -1    0    0  501    0  0.00000000000E+00  0.00000000000E+00  0.17300572831E+04  0.17300572831E+04  0.50400001928E-02 0.  1.
       -1   -1    0    0    0  501  0.00000000000E+00  0.00000000000E+00 -0.10186900493E+04  0.10186900493E+04  0.50400001928E-02 0. -1.
    10030    2    1    2    0    0  0.00000000000E+00  0.00000000000E+00  0.71136723383E+03  0.27487473324E+04  0.26551023626E+04 0.  0.
        2    1    3    3  502    0 -0.85375634518E+03 -0.76525687246E+03 -0.33715415381E+03  0.11950694127E+04  0.25500000920E-02 0. -1.
       -2    1    3    3    0  502  0.85375634518E+03  0.76525687246E+03  0.10485213876E+04  0.15536779197E+04  0.25500000920E-02 0.  1.
</event>
<event>
 5   0  0.6561875E-07  0.2699972E+04  0.7818609E-02  0.8335014E-01
       -4   -1    0    0    0  501  0.00000000000E+00  0.00000000000E+00  0.20594613606E+04  0.20594617521E+04  0.12699999809E+01 0. -1.
        4   -1    0    0  501    0  0.00000000000E+00  0.00000000000E+00 -0.88492093388E+03  0.88492184521E+03  0.12699999809E+01 0.  1.
    10030    2    1    2    0    0  0.00000000000E+00  0.00000000000E+00  0.11745404267E+04  0.29443835973E+04  0.26999721396E+04 0.  0.
        5    1    3    3  502    0 -0.11213576734E+04  0.60795607672E+03  0.10523076725E+03  0.12799020382E+04  0.46999998093E+01 0. -1.
       -5    1    3    3    0  502  0.11213576734E+04 -0.60795607672E+03  0.10693096594E+04  0.16644815591E+04  0.46999998093E+01 0.  1.
</event>
<event>
 5   0  0.1991277E-06  0.2701119E+04  0.7818609E-02  0.8334642E-01
        2   -1    0    0  501    0  0.00000000000E+00  0.00000000000E+00  0.16931329072E+04  0.16931329072E+04  0.25500000920E-02 0.  1.
       -2   -1    0    0    0  501  0.00000000000E+00  0.00000000000E+00 -0.10772995625E+04  0.10772995625E+04  0.25500000920E-02 0. -1.
    10030    2    1    2    0    0  0.00000000000E+00  0.00000000000E+00  0.61583334473E+03  0.27704324697E+04  0.27011192792E+04 0.  0.
        5    1    3    3  502    0 -0.13320380722E+04  0.19867593967E+03  0.20437217599E+03  0.13621995563E+04  0.46999998093E+01 0. -1.
       -5    1    3    3    0  502  0.13320380722E+04 -0.19867593967E+03  0.41146116874E+03  0.14082329134E+04  0.46999998093E+01 0.  1.
</event>
<event>
 5   0  0.2063087E-06  0.2702178E+04  0.7818609E-02  0.8334299E-01
        2   -1    0    0  501    0  0.00000000000E+00  0.00000000000E+00  0.17590897308E+04  0.17590897308E+04  0.25500000920E-02 0.  1.
       -2   -1    0    0    0  501  0.00000000000E+00  0.00000000000E+00 -0.10377194260E+04  0.10377194260E+04  0.25500000920E-02 0. -1.
    10030    2    1    2    0    0  0.00000000000E+00  0.00000000000E+00  0.72137030480E+03  0.27968091568E+04  0.27021780739E+04 0.  0.
        3    1    3    3  502    0  0.30575803934E+03 -0.73620451099E+03 -0.76836806507E+03  0.11071921939E+04  0.10100000352E+00 0. -1.
       -3    1    3    3    0  502 -0.30575803934E+03  0.73620451099E+03  0.14897383699E+04  0.16896169629E+04  0.10100000352E+00 0.  1.
</event>
<event>
 5   0  0.2030645E-06  0.2698523E+04  0.7818609E-02  0.8335485E-01
        2   -1    0    0  501    0  0.00000000000E+00  0.00000000000E+00  0.14120148043E+04  0.14120148043E+04  0.25500000920E-02 0. -1.
       -2   -1    0    0    0  501  0.00000000000E+00  0.00000000000E+00 -0.12892966519E+04  0.12892966519E+04  0.25500000920E-02 0.  1.
    10030    2    1    2    0    0  0.00000000000E+00  0.00000000000E+00  0.12271815242E+03  0.27013114562E+04  0.26985225288E+04 0.  0.
        1    1    3    3  502    0 -0.44839079535E+03 -0.21847489347E+03  0.13163374844E+04  0.14076682696E+04  0.50400001928E-02 0. -1.
       -1    1    3    3    0  502  0.44839079535E+03  0.21847489347E+03 -0.11936193320E+04  0.12936431866E+04  0.50400001928E-02 0.  1.
</event>
<event>
 5   0  0.7806808E-07  0.2699033E+04  0.7818609E-02  0.8335319E-01
       -1   -1    0    0    0  501  0.00000000000E+00  0.00000000000E+00  0.12816434949E+04  0.12816434949E+04  0.50400001928E-02 0. -1.
        1   -1    0    0  501    0  0.00000000000E+00  0.00000000000E+00 -0.14209839771E+04  0.14209839771E+04  0.50400001928E-02 0.  1.
    10030    2    1    2    0    0  0.00000000000E+00  0.00000000000E+00 -0.13934048221E+03  0.27026274721E+04  0.26990330644E+04 0.  0.
        5    1    3    3  502    0  0.22723952329E+03  0.64167522599E+03 -0.12364635949E+04  0.14114705835E+04  0.46999998093E+01 0.  1.
       -5    1    3    3    0  502 -0.22723952329E+03 -0.64167522599E+03  0.10971231127E+04  0.12911568886E+04  0.46999998093E+01 0. -1.
</event>
<event>
 5   0  0.7566905E-07  0.2707548E+04  0.7818609E-02  0.8332560E-01
       -1   -1    0    0    0  501  0.00000000000E+00  0.00000000000E+00  0.12537646149E+04  0.12537646149E+04  0.50400001928E-02 0. -1.
        1   -1    0    0  501    0  0.00000000000E+00  0.00000000000E+00 -0.14617607718E+04  0.14617607718E+04  0.50400001928E-02 0.  1.
    10030    2    1    2    0    0  0.00000000000E+00  0.00000000000E+00 -0.20799615689E+03  0.27155253867E+04  0.27075479174E+04 0.  0.
        1    1    3    3  502    0 -0.59476041076E+03 -0.58773554704E+03  0.96381294479E+03  0.12759735154E+04  0.50400001928E-02 0. -1.
       -1    1    3    3    0  502  0.59476041076E+03  0.58773554704E+03 -0.11718091017E+04  0.14395518713E+04  0.50400001928E-02 0.  1.
</event>
<event>
 5   0  0.1932012E-06  0.2700007E+04  0.7818609E-02  0.8335003E-01
        2   -1    0    0  501    0  0.00000000000E+00  0.00000000000E+00  0.12377675541E+04  0.12377675541E+04  0.25500000920E-02 0. -1.
       -2   -1    0    0    0  501  0.00000000000E+00  0.00000000000E+00 -0.14724161509E+04  0.14724161509E+04  0.25500000920E-02 0.  1.
    10030    2    1    2    0    0  0.00000000000E+00  0.00000000000E+00 -0.23464859677E+03  0.27101837050E+04  0.27000066205E+04 0.  0.
        2    1    3    3  502    0  0.10057453323E+04 -0.42520955977E+03 -0.91415659882E+03  0.14240818552E+04  0.25500000920E-02 0.  1.
       -2    1    3    3    0  502 -0.10057453323E+04  0.42520955977E+03  0.67950800205E+03  0.12861018498E+04  0.25500000920E-02 0. -1.
</event>
<event>
 5   0  0.7436613E-07  0.2696458E+04  0.7818609E-02  0.8336155E-01
        1   -1    0    0  501    0  0.00000000000E+00  0.00000000000E+00  0.18210544558E+04  0.18210544558E+04  0.50400001928E-02 0.  1.
       -1   -1    0    0    0  501  0.00000000000E+00  0.00000000000E+00 -0.99816937099E+03  0.99816937100E+03  0.50400001928E-02 0. -1.
    10030    2    1    2    0    0  0.00000000000E+00  0.00000000000E+00  0.82288508479E+03  0.28192238268E+04  0.26964575136E+04 0.  0.
        2    1    3    3  502    0  0.31692948199E+03 -0.90031141265E+03 -0.58412694535E+03  0.11190215479E+04  0.25500000920E-02 0. -1.
       -2    1    3    3    0  502 -0.31692948199E+03  0.90031141265E+03  0.14070120301E+04  0.17002022789E+04  0.25500000920E-02 0.  1.
</event>
<event>
 5   0  0.2063087E-06  0.2699125E+04  0.7818609E-02  0.8335289E-01
        2   -1    0    0  501    0  0.00000000000E+00  0.00000000000E+00  0.14406502541E+04  0.14406502541E+04  0.25500000920E-02 0.  1.
       -2   -1    0    0    0  501  0.00000000000E+00  0.00000000000E+00 -0.12642340705E+04  0.12642340705E+04  0.25500000920E-02 0. -1.
    10030    2    1    2    0    0  0.00000000000E+00  0.00000000000E+00  0.17641618361E+03  0.27048843246E+04  0.26991251433E+04 0.  0.
        3    1    3    3  502    0  0.58790026144E+03  0.78569570214E+03  0.10166700694E+04  0.14129976978E+04  0.10100000352E+00 0.  1.
       -3    1    3    3    0  502 -0.58790026144E+03 -0.78569570214E+03 -0.84025388575E+03  0.12918866268E+04  0.10100000352E+00 0. -1.
</event>
<event>
 5   0  0.1991277E-06  0.2697864E+04  0.7818609E-02  0.8335698E-01
       -2   -1    0    0    0  501  0.00000000000E+00  0.00000000000E+00  0.77663723493E+03  0.77663723493E+03  0.25500000920E-02 0. -1.
        2   -1    0    0  501    0  0.00000000000E+00  0.00000000000E+00 -0.23429447055E+04  0.23429447055E+04  0.25500000920E-02 0.  1.
    10030    2    1    2    0    0  0.00000000000E+00  0.00000000000E+00 -0.15663074706E+04  0.31195819405E+04  0.26978644130E+04 0.  0.
        5    1    3    3  502    0  0.36078103268E+03 -0.73239743225E+03 -0.20247946842E+04  0.21832051107E+04  0.46999998093E+01 0.  1.
       -5    1    3    3    0  502 -0.36078103268E+03  0.73239743225E+03  0.45848721358E+03  0.93637682976E+03  0.46999998093E+01 0. -1.
</event>
<event>
 5   0  0.7806808E-07  0.2695858E+04  0.7818609E-02  0.8336350E-01
        1   -1    0    0  501    0  0.00000000000E+00  0.00000000000E+00  0.20669241784E+04  0.20669241784E+04  0.50400001928E-02 0. -1.
       -1   -1    0    0    0  501  0.00000000000E+00  0.00000000000E+00 -0.87904180555E+03  0.87904180556E+03  0.50400001928E-02 0.  1.
    10030    2    1    2    0    0  0.00000000000E+00  0.00000000000E+00  0.11878823728E+04  0.29459659839E+04  0.26958581281E+04 0.  0.
        5    1    3    3  502    0 -0.63294663300E+03 -0.11606819812E+04  0.30671269938E+03  0.13571657495E+04  0.46999998093E+01 0. -1.
       -5    1    3    3    0  502  0.63294663300E+03  0.11606819812E+04  0.88116967344E+03  0.15888002345E+04  0.46999998093E+01 0.  1.
</event>
<event>
 5   0  0.7806808E-07  0.2705368E+04  0.7818609E-02  0.8333265E-01
       -1   -1    0    0    0  501  0.00000000000E+00  0.00000000000E+00  0.11758902247E+04  0.11758902247E+04  0.50400001928E-02 0.  1.
        1   -1    0    0  501    0  0.00000000000E+00  0.00000000000E+00 -0.15560585228E+04  0.15560585228E+04  0.50400001928E-02 0. -1.
    10030    2    1    2    0    0  0.00000000000E+00  0.00000000000E+00 -0.38016829807E+03  0.27319487475E+04  0.27053680016E+04 0.  0.
        5    1    3    3  502    0 -0.58505687322E+03  0.11714977974E+04  0.15241378291E+03  0.13183135763E+04  0.46999998093E+01 0.  1.
       -5    1    3    3    0  502  0.58505687322E+03 -0.11714977974E+04 -0.53258208098E+03  0.14136351712E+04  0.46999998093E+01 0. -1.
</event>
<event>
 5   0  0.2030645E-06  0.2688020E+04  0.7818609E-02  0.8338902E-01
        2   -1    0    0  501    0  0.00000000000E+00  0.00000000000E+00  0.14478156662E+04  0.14478156662E+04  0.25500000920E-02 0.  1.
       -2   -1    0    0    0  501  0.00000000000E+00  0.00000000000E+00 -0.12476474331E+04  0.12476474331E+04  0.25500000920E-02 0. -1.
    10030    2    1    2    0    0  0.00000000000E+00  0.00000000000E+00  0.20016823310E+03  0.26954630994E+04  0.26880204609E+04 0.  0.
        1    1    3    3  502    0  0.75019254781E+03  0.71572109032E+03 -0.75745500229E+03  0.12840496947E+04  0.50400001928E-02 0.  1.
       -1    1    3    3    0  502 -0.75019254781E+03 -0.71572109032E+03  0.95762323539E+03  0.14114134047E+04  0.50400001928E-02 0. -1.
</event>
<event>
 5   0  0.1999104E-06  0.2682175E+04  0.7818609E-02  0.8340812E-01
       -2   -1    0    0    0  501  0.00000000000E+00  0.00000000000E+00  0.74696803768E+03  0.74696803768E+03  0.25500000920E-02 0. -1.
        2   -1    0    0  501    0  0.00000000000E+00  0.00000000000E+00 -0.24077541608E+04  0.24077541608E+04  0.25500000920E-02 0.  1.
    10030    2    1    2    0    0  0.00000000000E+00  0.00000000000E+00 -0.16607861231E+04  0.31547221985E+04  0.26821747898E+04 0.  0.
        4    1    3    3  502    0  0.94120879076E+02  0.66424934551E+02  0.74113698106E+03  0.75003776532E+03  0.12699999809E+01 0. -1.
       -4    1    3    3    0  502 -0.94120879076E+02 -0.66424934551E+02 -0.24019231042E+04  0.24046844332E+04  0.12699999809E+01 0.  1.
</event>
<event>
 5   0  0.7436613E-07  0.2697504E+04  0.7818609E-02  0.8335815E-01
        1   -1    0    0  501    0  0.00000000000E+00  0.00000000000E+00  0.15799233947E+04  0.15799233947E+04  0.50400001928E-02 0.  1.
       -1   -1    0    0    0  501  0.00000000000E+00  0.00000000000E+00 -0.11514052453E+04  0.11514052453E+04  0.50400001928E-02 0. -1.
    10030    2    1    2    0    0  0.00000000000E+00  0.00000000000E+00  0.42851814948E+03  0.27313286400E+04  0.26975040937E+04 0.  0.
        2    1    3    3  502    0 -0.10627567295E+04  0.16103011488E+03  0.10391831075E+04  0.14950866512E+04  0.25500000920E-02 0.  1.
       -2    1    3    3    0  502  0.10627567295E+04 -0.16103011488E+03 -0.61066495797E+03  0.12362419888E+04  0.25500000920E-02 0. -1.
</event>
<event>
 5   0  0.7768032E-07  0.2678057E+04  0.7818609E-02  0.8342160E-01
       -1   -1    0    0    0  501  0.00000000000E+00  0.00000000000E+00  0.79777312744E+03  0.79777312746E+03  0.50400001928E-02 0. -1.
        1   -1    0    0  501    0  0.00000000000E+00  0.00000000000E+00 -0.22475025742E+04  0.22475025742E+04  0.50400001928E-02 0.  1.
    10030    2    1    2    0    0  0.00000000000E+00  0.00000000000E+00 -0.14497294468E+04  0.30452757017E+04  0.26780568759E+04 0.  0.
        4    1    3    3  502    0  0.62152175923E+03  0.72334786587E+03  0.34395321770E+03  0.10138179625E+04  0.12699999809E+01 0. -1.
       -4    1    3    3    0  502 -0.62152175923E+03 -0.72334786587E+03 -0.17936826645E+04  0.20314577391E+04  0.12699999809E+01 0.  1.
</event>
<event>
 5   0  0.1991277E-06  0.2694270E+04  0.7818609E-02  0.8336866E-01
        2   -1    0    0  501    0  0.00000000000E+00  0.00000000000E+00  0.21063052558E+04  0.21063052558E+04  0.25500000920E-02 0.  1.
       -2   -1    0    0    0  501  0.00000000000E+00  0.00000000000E+00 -0.86159064309E+03  0.86159064309E+03  0.25500000920E-02 0. -1.
    10030    2    1    2    0    0  0.00000000000E+00  0.00000000000E+00  0.12447146127E+04  0.29678958989E+04  0.26942701423E+04 0.  0.
        5    1    3    3  502    0  0.81586144291E+03  0.10702140511E+04  0.55478587310E+03  0.14556089668E+04  0.46999998093E+01 0. -1.
       -5    1    3    3    0  502 -0.81586144291E+03 -0.10702140511E+04  0.68992873962E+03  0.15122869321E+04  0.46999998093E+01 0.  1.
</event>
<event>
 5   0  0.7566905E-07  0.2702497E+04  0.7818609E-02  0.8334195E-01
       -1   -1    0    0    0  501  0.00000000000E+00  0.00000000000E+00  0.17786649711E+04  0.17786649711E+04  0.50400001928E-02 0. -1.
        1   -1    0    0  501    0  0.00000000000E+00  0.00000000000E+00 -0.10265408096E+04  0.10265408096E+04  0.50400001928E-02 0.  1.
    10030    2    1    2    0    0  0.00000000000E+00  0.00000000000E+00  0.75212416157E+03  0.28052057807E+04  0.27024967563E+04 0.  0.
        1    1    3    3  502    0  0.87406483314E+03  0.94599715622E+02 -0.68906166064E+03  0.11170248032E+04  0.50400001928E-02 0.  1.
       -1    1    3    3    0  502 -0.87406483314E+03 -0.94599715622E+02  0.14411858222E+04  0.16881809775E+04  0.50400001928E-02 0. -1.
</event>
<event>
 5   0  0.1991277E-06  0.2701840E+04  0.7818609E-02  0.8334408E-01
        2   -1    0    0  501    0  0.00000000000E+00  0.00000000000E+00  0.83335450469E+03  0.83335450470E+03  0.25500000920E-02 0. -1.
       -2   -1    0    0    0  501  0.00000000000E+00  0.00000000000E+00 -0.21899263635E+04  0.21899263635E+04  0.25500000920E-02 0.  1.
    10030    2    1    2    0    0  0.00000000000E+00  0.00000000000E+00 -0.13565718588E+04  0.30232808682E+04  0.27018401137E+04 0.  0.
        5    1    3    3  502    0 -0.43536637897E+03  0.70215075757E+03  0.51770691842E+03  0.97498826336E+03  0.46999998093E+01 0. -1.
       -5    1    3    3    0  502  0.43536637897E+03 -0.70215075757E+03 -0.18742787773E+04  0.20482926049E+04  0.46999998093E+01 0.  1.
</event>
<event>
 5   0  0.7436613E-07  0.2687148E+04  0.7818609E-02  0.8339187E-01
       -1   -1    0    0    0  501  0.00000000000E+00  0.00000000000E+00  0.70987736610E+03  0.70987736611E+03  0.50400001928E-02 0.  1.
        1   -1    0    0  501    0  0.00000000000E+00  0.00000000000E+00 -0.25429622895E+04  0.25429622895E+04  0.50400001928E-02 0. -1.
    10030    2    1    2    0    0  0.00000000000E+00  0.00000000000E+00 -0.18330849234E+04  0.32528396556E+04  0.26871482074E+04 0.  0.
        2    1    3    3  502    0  0.79345526368E+03 -0.27077797885E+02  0.39556398136E+03  0.88700356592E+03  0.25500000920E-02 0.  1.
       -2    1    3    3    0  502 -0.79345526368E+03  0.27077797885E+02 -0.22286489047E+04  0.23658360897E+04  0.25500000920E-02 0. -1.
</event>
<event>
 5   0  0.2030645E-06  0.2698983E+04  0.7818609E-02  0.8335335E-01
       -2   -1    0    0    0  501  0.00000000000E+00  0.00000000000E+00  0.11013824029E+04  0.11013824029E+04  0.25500000920E-02 0. -1.
        2   -1    0    0  501    0  0.00000000000E+00  0.00000000000E+00 -0.16534920415E+04  0.16534920415E+04  0.25500000920E-02 0.  1.
    10030    2    1    2    0    0  0.00000000000E+00  0.00000000000E+00 -0.55210963865E+03  0.27548744444E+04  0.26989827994E+04 0.  0.
        1    1    3    3  502    0  0.59667329781E+02  0.10425293563E+04 -0.11485661300E+04  0.15522988771E+04  0.50400001928E-02 0.  1.
       -1    1    3    3    0  502 -0.59667329781E+02 -0.10425293563E+04  0.59645649136E+03  0.12025755673E+04  0.50400001928E-02 0. -1.
</event>
<event>
 5   0  0.1932012E-06  0.2702043E+04  0.7818609E-02  0.8334342E-01
        2   -1    0    0  501    0  0.00000000000E+00  0.00000000000E+00  0.10377602834E+04  0.10377602834E+04  0.25500000920E-02 0. -1.
       -2   -1    0    0    0  501  0.00000000000E+00  0.00000000000E+00 -0.17588452370E+04  0.17588452370E+04  0.25500000920E-02 0.  1.
    10030    2    1    2    0    0  0.00000000000E+00  0.00000000000E+00 -0.72108495360E+03  0.27966055205E+04  0.27020434724E+04 0.  0.
        2    1    3    3  502    0 -0.84919947824E+03 -0.60012179812E+03 -0.12532674849E+04  0.16284855895E+04  0.25500000920E-02 0.  1.
       -2    1    3    3    0  502  0.84919947824E+03  0.60012179812E+03  0.53218253134E+03  0.11681199310E+04  0.25500000920E-02 0. -1.
</event>
<event>
 5   0  0.6561875E-07  0.2706058E+04  0.7818609E-02  0.8333042E-01
        3   -1    0    0  501    0  0.00000000000E+00  0.00000000000E+00  0.14288245511E+04  0.14288245546E+04  0.10100000352E+00 0.  1.
       -3   -1    0    0    0  501  0.00000000000E+00  0.00000000000E+00 -0.12812544816E+04  0.12812544856E+04  0.10100000352E+00 0. -1.
    10030    2    1    2    0    0  0.00000000000E+00  0.00000000000E+00  0.14757006944E+03  0.27100790402E+04  0.27060582919E+04 0.  0.
        5    1    3    3  502    0 -0.32090282077E+03  0.10283221371E+04 -0.74611371019E+03  0.13103941379E+04  0.46999998093E+01 0. -1.
       -5    1    3    3    0  502  0.32090282077E+03 -0.10283221371E+04  0.89368377963E+03  0.13996849024E+04  0.46999998093E+01 0.  1.
</event>
<event>
 5   0  0.7768032E-07  0.2699229E+04  0.7818609E-02  0.8335255E-01
       -1   -1    0    0    0  501  0.00000000000E+00  0.00000000000E+00  0.12577695060E+04  0.12577695060E+04  0.50400001928E-02 0. -1.
        1   -1    0    0  501    0  0.00000000000E+00  0.00000000000E+00 -0.14481666780E+04  0.14481666780E+04  0.50400001928E-02 0.  1.
    10030    2    1    2    0    0  0.00000000000E+00  0.00000000000E+00 -0.19039717199E+03  0.27059361841E+04  0.26992294362E+04 0.  0.
        4    1    3    3  502    0 -0.43973570986E+03  0.11565335692E+03 -0.13690703150E+04  0.14426012386E+04  0.12699999809E+01 0.  1.
       -4    1    3    3    0  502  0.43973570986E+03 -0.11565335692E+03  0.11786731430E+04  0.12633349454E+04  0.12699999809E+01 0. -1.
</event>
<event>
 5   0  0.1999104E-06  0.2698581E+04  0.7818609E-02  0.8335465E-01
        2   -1    0    0  501    0  0.00000000000E+00  0.00000000000E+00  0.16169993306E+04  0.16169993306E+04  0.25500000920E-02 0. -1.
       -2   -1    0    0    0  501  0.00000000000E+00  0.00000000000E+00 -0.11259034729E+04  0.11259034729E+04  0.25500000920E-02 0.  1.
    10030    2    1    2    0    0  0.00000000000E+00  0.00000000000E+00  0.49109585771E+03  0.27429028035E+04  0.26985812287E+04 0.  0.
        4    1    3    3  502    0  0.41259607875E+02  0.28271621702E+03  0.15858997606E+04  0.16114311894E+04  0.12699999809E+01 0. -1.
       -4    1    3    3    0  502 -0.41259607875E+02 -0.28271621702E+03 -0.10948039029E+04  0.11314716140E+04  0.12699999809E+01 0.  1.
</event>
<event>
 5   0  0.1991277E-06  0.2705537E+04  0.7818609E-02  0.8333211E-01
        2   -1    0    0  501    0  0.00000000000E+00  0.00000000000E+00  0.24059114349E+04  0.24059114349E+04  0.25500000920E-02 0. -1.
       -2   -1    0    0    0  501  0.00000000000E+00  0.00000000000E+00 -0.76061938391E+03  0.76061938391E+03  0.25500000920E-02 0.  1.
    10030    2    1    2    0    0  0.00000000000E+00  0.00000000000E+00  0.16452920510E+04  0.31665308188E+04  0.27055371913E+04 0.  0.
        5    1    3    3  502    0  0.42413854826E+03  0.10021742701E+04  0.17631276506E+04  0.20719285649E+04  0.46999998093E+01 0. -1.
       -5    1    3    3    0  502 -0.42413854826E+03 -0.10021742701E+04 -0.11783559957E+03  0.10946022539E+04  0.46999998093E+01 0.  1.
</event>
<event>
 5   0  0.7566905E-07  0.2686863E+04  0.7818609E-02  0.8339280E-01
        1   -1    0    0  501    0  0.00000000000E+00  0.00000000000E+00  0.18937099596E+04  0.18937099596E+04  0.50400001928E-02 0. -1.
       -1   -1    0    0    0  501  0.00000000000E+00  0.00000000000E+00 -0.95305424701E+03  0.95305424703E+03  0.50400001928E-02 0.  1.
    10030    2    1    2    0    0  0.00000000000E+00  0.00000000000E+00  0.94065571262E+03  0.28467642067E+04  0.26868630927E+04 0.  0.
        1    1    3    3  502    0  0.77847348118E+03  0.10923410617E+04  0.54946117355E+03  0.14495301091E+04  0.50400001928E-02 0. -1.
       -1    1    3    3    0  502 -0.77847348118E+03 -0.10923410617E+04  0.39119453907E+03  0.13972340976E+04  0.50400001928E-02 0.  1.
</event>
<event>
 5   0  0.1999104E-06  0.2702297E+04  0.7818609E-02  0.8334260E-01
        2   -1    0    0  501    0  0.00000000000E+00  0.00000000000E+00  0.18985857790E+04  0.18985857790E+04  0.25500000920E-02 0. -1.
       -2   -1    0    0    0  501  0.00000000000E+00  0.00000000000E+00 -0.96155888052E+03  0.96155888052E+03  0.25500000920E-02 0.  1.
    10030    2    1    2    0    0  0.00000000000E+00  0.00000000000E+00  0.93702689849E+03  0.28601446595E+04  0.27022968129E+04 0.  0.
        4    1    3    3  502    0 -0.23269352685E+03 -0.12461586360E+04  0.96330603313E+03  0.15921739070E+04  0.12699999809E+01 0. -1.
       -4    1    3    3    0  502  0.23269352685E+03  0.12461586360E+04 -0.26279134633E+02  0.12679707526E+04  0.12699999809E+01 0.  1.
</event>
<event>
 5   0  0.7335091E-07  0.2693079E+04  0.7818609E-02  0.8337254E-01
       -1   -1    0    0    0  501  0.00000000000E+00  0.00000000000E+00  0.10677172257E+04  0.10677172257E+04  0.50400001928E-02 0. -1.
        1   -1    0    0  501    0  0.00000000000E+00  0.00000000000E+00 -0.16981731205E+04  0.16981731205E+04  0.50400001928E-02 0.  1.
    10030    2    1    2    0    0  0.00000000000E+00  0.00000000000E+00 -0.63045589485E+03  0.27658903462E+04  0.26930790504E+04 0.  0.
        3    1    3    3  502    0  0.92860168730E+03 -0.58948997733E+02  0.68442868592E+03  0.11550838560E+04  0.10100000352E+00 0. -1.
       -3    1    3    3    0  502 -0.92860168730E+03  0.58948997733E+02 -0.13148845808E+04  0.16108064902E+04  0.10100000352E+00 0.  1.
</event>
<event>
 5   0  0.7436613E-07  0.2696887E+04  0.7818609E-02  0.8336016E-01
       -1   -1    0    0    0  501  0.00000000000E+00  0.00000000000E+00  0.93805818078E+03  0.93805818079E+03  0.50400001928E-02 0. -1.
        1   -1    0    0  501    0  0.00000000000E+00  0.00000000000E+00 -0.19383655089E+04  0.19383655089E+04  0.50400001928E-02 0.  1.
    10030    2    1    2    0    0  0.00000000000E+00  0.00000000000E+00 -0.10003073281E+04  0.28764236897E+04  0.26968868148E+04 0.  0.
        2    1    3    3  502    0 -0.19141090479E+03  0.90916886778E+03 -0.15424915536E+04  0.18006960759E+04  0.25500000920E-02 0.  1.
       -2    1    3    3    0  502  0.19141090479E+03 -0.90916886778E+03  0.54218422555E+03  0.10757276138E+04  0.25500000920E-02 0. -1.
</event>
<event>
 5   0  0.7436613E-07  0.2699421E+04  0.7818609E-02  0.8335193E-01
        1   -1    0    0  501    0  0.00000000000E+00  0.00000000000E+00  0.13907135127E+04  0.13907135127E+04  0.50400001928E-02 0. -1.
       -1   -1    0    0    0  501  0.00000000000E+00  0.00000000000E+00 -0.13099164386E+04  0.13099164386E+04  0.50400001928E-02 0.  1.
    10030    2    1    2    0    0  0.00000000000E+00  0.00000000000E+00  0.80797074036E+02  0.27006299513E+04  0.26994210429E+04 0.  0.
        2    1    3    3  502    0 -0.12326707043E+03  0.12272996285E+04  0.58860318803E+03  0.13667160867E+04  0.25500000920E-02 0.  1.
       -2    1    3    3    0  502  0.12326707043E+03 -0.12272996285E+04 -0.50780611399E+03  0.13339138646E+04  0.25500000920E-02 0. -1.
</event>
<event>
 5   0  0.7566905E-07  0.2697388E+04  0.7818609E-02  0.8335853E-01
       -1   -1    0    0    0  501  0.00000000000E+00  0.00000000000E+00  0.10455553220E+04  0.10455553221E+04  0.50400001928E-02 0. -1.
        1   -1    0    0  501    0  0.00000000000E+00  0.00000000000E+00 -0.17397214439E+04  0.17397214439E+04  0.50400001928E-02 0.  1.
    10030    2    1    2    0    0  0.00000000000E+00  0.00000000000E+00 -0.69416612183E+03  0.27852767659E+04  0.26973876359E+04 0.  0.
        1    1    3    3  502    0  0.91230543016E+03  0.71194611949E+03  0.36816728314E+03  0.12143786985E+04  0.50400001928E-02 0. -1.
       -1    1    3    3    0  502 -0.91230543016E+03 -0.71194611949E+03 -0.10623334050E+04  0.15708980674E+04  0.50400001928E-02 0.  1.
</event>
<event>
 5   0  0.7806808E-07  0.2701041E+04  0.7818609E-02  0.8334667E-01
        1   -1    0    0  501    0  0.00000000000E+00  0.00000000000E+00  0.13797738098E+04  0.13797738098E+04  0.50400001928E-02 0. -1.
       -1   -1    0    0    0  501  0.00000000000E+00  0.00000000000E+00 -0.13218877564E+04  0.13218877564E+04  0.50400001928E-02 0.  1.
    10030    2    1    2    0    0  0.00000000000E+00  0.00000000000E+00  0.57886053427E+02  0.27016615662E+04  0.27010413590E+04 0.  0.
        5    1    3    3  502    0 -0.38546878858E+02 -0.16061040693E+03  0.13696247972E+04  0.13795563561E+04  0.46999998093E+01 0. -1.
       -5    1    3    3    0  502  0.38546878858E+02  0.16061040693E+03 -0.13117387437E+04  0.13221052101E+04  0.46999998093E+01 0.  1.
</event>
<event>
 5   0  0.7436613E-07  0.2701999E+04  0.7818609E-02  0.8334357E-01
       -1   -1    0    0    0  501  0.00000000000E+00  0.00000000000E+00  0.11823103651E+04  0.11823103651E+04  0.50400001928E-02 0. -1.
        1   -1    0    0  501    0  0.00000000000E+00  0.00000000000E+00 -0.15437571927E+04  0.15437571927E+04  0.50400001928E-02 0.  1.
    10030    2    1    2    0    0  0.00000000000E+00  0.00000000000E+00 -0.36144682760E+03  0.27260675579E+04  0.27019993562E+04 0.  0.
        2    1    3    3  502    0  0.15039732431E+03 -0.82690986480E+03 -0.12478790615E+04  0.15045269794E+04  0.25500000920E-02 0.  1.
       -2    1    3    3    0  502 -0.15039732431E+03  0.82690986480E+03  0.88643223387E+03  0.12215405785E+04  0.25500000920E-02 0. -1.
</event>
<event>
 5   0  0.1999104E-06  0.2693337E+04  0.7818609E-02  0.8337170E-01
       -2   -1    0    0    0  501  0.00000000000E+00  0.00000000000E+00  0.70838240414E+03  0.70838240415E+03  0.25500000920E-02 0. -1.
        2   -1    0    0  501    0  0.00000000000E+00  0.00000000000E+00 -0.25600801523E+04  0.25600801523E+04  0.25500000920E-02 0.  1.
    10030    2    1    2    0    0  0.00000000000E+00  0.00000000000E+00 -0.18516977482E+04  0.32684625565E+04  0.26933367655E+04 0.  0.
        4    1    3    3  502    0 -0.30123746254E+03  0.11323277668E+04 -0.17313702000E+04  0.20905871335E+04  0.12699999809E+01 0.  1.
       -4    1    3    3    0  502  0.30123746254E+03 -0.11323277668E+04 -0.12032754817E+03  0.11778754230E+04  0.12699999809E+01 0. -1.
</event>
<event>
 5   0  0.1999104E-06  0.2701112E+04  0.7818609E-02  0.8334644E-01
       -2   -1    0    0    0  501  0.00000000000E+00  0.00000000000E+00  0.10721033280E+04  0.10721033280E+04  0.25500000920E-02 0.  1.
        2   -1    0    0  501    0  0.00000000000E+00  0.00000000000E+00 -0.17013295463E+04  0.17013295463E+04  0.25500000920E-02 0. -1.
    10030    2    1    2    0    0  0.00000000000E+00  0.00000000000E+00 -0.62922621823E+03  0.27734328743E+04  0.27011116738E+04 0.  0.
        4    1    3    3  502    0 -0.36231548483E+03  0.63462814742E+03 -0.14807931594E+04  0.16512950644E+04  0.12699999809E+01 0. -1.
       -4    1    3    3    0  502  0.36231548483E+03 -0.63462814742E+03  0.85156694117E+03  0.11221378098E+04  0.12699999809E+01 0.  1.
</event>
<event>
 5   0  0.2030645E-06  0.2702682E+04  0.7818609E-02  0.8334135E-01
       -2   -1    0    0    0  501  0.00000000000E+00  0.00000000000E+00  0.22791391880E+04  0.22791391880E+04  0.25500000920E-02 0.  1.
        2   -1    0    0  501    0  0.00000000000E+00  0.00000000000E+00 -0.80123321133E+03  0.80123321134E+03  0.25500000920E-02 0. -1.
    10030    2    1    2    0    0  0.00000000000E+00  0.00000000000E+00  0.14779059766E+04  0.30803723993E+04  0.27026816392E+04 0.  0.
        1    1    3    3  502    0 -0.12903303452E+04  0.31896029805E+03  0.10168127055E+04  0.16734981774E+04  0.50400001928E-02 0. -1.
       -1    1    3    3    0  502  0.12903303452E+04 -0.31896029805E+03  0.46109327109E+03  0.14068742219E+04  0.50400001928E-02 0.  1.
</event>
<event>
 5   0  0.7768032E-07  0.2702259E+04  0.7818609E-02  0.8334272E-01
        1   -1    0    0  501    0  0.00000000000E+00  0.00000000000E+00  0.15919071214E+04  0.15919071214E+04  0.50400001928E-02 0.  1.
       -1   -1    0    0    0  501  0.00000000000E+00  0.00000000000E+00 -0.11467697656E+04  0.11467697657E+04  0.50400001928E-02 0. -1.
    10030    2    1    2    0    0  0.00000000000E+00  0.00000000000E+00  0.44513735575E+03  0.27386768871E+04  0.27022590228E+04 0.  0.
        4    1    3    3  502    0  0.37829239886E+03 -0.68044716113E+03  0.13417315730E+04  0.15512442442E+04  0.12699999809E+01 0.  1.
       -4    1    3    3    0  502 -0.37829239886E+03  0.68044716113E+03 -0.89659421725E+03  0.11874326429E+04  0.12699999809E+01 0. -1.
</event>
<event>
 5   0  0.7768032E-07  0.2696695E+04  0.7818609E-02  0.8336078E-01
       -1   -1    0    0    0  501  0.00000000000E+00  0.00000000000E+00  0.11985286410E+04  0.11985286410E+04  0.50400001928E-02 0.  1.
        1   -1    0    0  501    0  0.00000000000E+00  0.00000000000E+00 -0.15168943322E+04  0.15168943322E+04  0.50400001928E-02 0. -1.
    10030    2    1    2    0    0  0.00000000000E+00  0.00000000000E+00 -0.31836569121E+03  0.27154229732E+04  0.26966952386E+04 0.  0.
        4    1    3    3  502    0 -0.25824794844E+03 -0.52675607499E+03  0.10632810809E+04  0.12143855382E+04  0.12699999809E+01 0.  1.
       -4    1    3    3    0  502  0.25824794844E+03  0.52675607499E+03 -0.13816467721E+04  0.15010374350E+04  0.12699999809E+01 0. -1.
</event>
<event>
 5   0  0.1991277E-06  0.2693827E+04  0.7818609E-02  0.8337011E-01
       -2   -1    0    0    0  501  0.00000000000E+00  0.00000000000E+00  0.13312503095E+04  0.13312503095E+04  0.25500000920E-02 0. -1.
        2   -1    0    0  501    0  0.00000000000E+00  0.00000000000E+00 -0.13627606655E+04  0.13627606655E+04  0.25500000920E-02 0.  1.
    10030    2    1    2    0    0  0.00000000000E+00  0.00000000000E+00 -0.31510356018E+02  0.26940109751E+04  0.26938266892E+04 0.  0.
        5    1    3    3  502    0 -0.39517817732E+03 -0.45233514680E+03  0.11898896497E+04  0.13329037270E+04  0.46999998093E+01 0. -1.
       -5    1    3    3    0  502  0.39517817732E+03  0.45233514680E+03 -0.12214000057E+04  0.13611072481E+04  0.46999998093E+01 0.  1.
</event>
<event>
 5   0  0.7806808E-07  0.2700140E+04  0.7818609E-02  0.8334959E-01
        1   -1    0    0  501    0  0.00000000000E+00  0.00000000000E+00  0.15390428201E+04  0.15390428201E+04  0.50400001928E-02 0. -1.
       -1   -1    0    0    0  501  0.00000000000E+00  0.00000000000E+00 -0.11843007128E+04  0.11843007128E+04  0.50400001928E-02 0.  1.
    10030    2    1    2    0    0  0.00000000000E+00  0.00000000000E+00  0.35474210730E+03  0.27233435330E+04  0.27001403734E+04 0.  0.
        5    1    3    3  502    0  0.13330638317E+04  0.17010791799E+03  0.30759890974E+03  0.13786352173E+04  0.46999998093E+01 0. -1.
       -5    1    3    3    0  502 -0.13330638317E+04 -0.17010791799E+03  0.47143197557E+02  0.13447083157E+04  0.46999998093E+01 0.  1.
</event>
<event>
 5   0  0.6561875E-07  0.2690100E+04  0.7818609E-02  0.8338224E-01
       -3   -1    0    0    0  501  0.00000000000E+00  0.00000000000E+00  0.15258849208E+04  0.15258849242E+04  0.10100000352E+00 0. -1.
        3   -1    0    0  501    0  0.00000000000E+00  0.00000000000E+00 -0.11856463720E+04  0.11856463763E+04  0.10100000352E+00 0.  1.
    10030    2    1    2    0    0  0.00000000000E+00  0.00000000000E+00  0.34023854885E+03  0.27115313005E+04  0.26901003184E+04 0.  0.
        2    1    3    3  502    0  0.54987478556E+03  0.60152727445E+03 -0.90843447888E+03  0.12204304749E+04  0.25500000920E-02 0.  1.
       -2    1    3    3    0  502 -0.54987478556E+03 -0.60152727445E+03  0.12486730277E+04  0.14911008255E+04  0.25500000920E-02 0. -1.
</event>
<event>
 5   0  0.1932012E-06  0.2697669E+04  0.7818609E-02  0.8335762E-01
       -2   -1    0    0    0  501  0.00000000000E+00  0.00000000000E+00  0.82386323979E+03  0.82386323980E+03  0.25500000920E-02 0.  1.
        2   -1    0    0  501    0  0.00000000000E+00  0.00000000000E+00 -0.22083203803E+04  0.22083203803E+04  0.25500000920E-02 0. -1.
    10030    2    1    2    0    0  0.00000000000E+00  0.00000000000E+00 -0.13844571405E+04  0.30321836201E+04  0.26976686105E+04 0.  0.
        2    1    3    3  502    0  0.93197383893E+03 -0.17728274634E+03 -0.17699517863E+04  0.20081667596E+04  0.25500000920E-02 0. -1.
       -2    1    3    3    0  502 -0.93197383893E+03  0.17728274634E+03  0.38549464580E+03  0.10240168605E+04  0.25500000920E-02 0.  1.
</event>
<event>
 5   0  0.7335091E-07  0.2699834E+04  0.7818609E-02  0.8335059E-01
       -1   -1    0    0    0  501  0.00000000000E+00  0.00000000000E+00  0.93162067398E+03  0.93162067400E+03  0.50400001928E-02 0.  1.
        1   -1    0    0  501    0  0.00000000000E+00  0.00000000000E+00 -0.19560281162E+04  0.19560281162E+04  0.50400001928E-02 0. -1.
    10030    2    1    2    0    0  0.00000000000E+00  0.00000000000E+00 -0.10244074422E+04  0.28876487902E+04  0.26998342408E+04 0.  0.
        3    1    3    3  502    0  0.12502585096E+04 -0.10996553936E+03  0.19400814606E+02  0.12552351025E+04  0.10100000352E+00 0.  1.
       -3    1    3    3    0  502 -0.12502585096E+04  0.10996553936E+03 -0.10438082568E+04  0.16324136877E+04  0.10100000352E+00 0. -1.
</event>
<event>
 5   0  0.2063087E-06  0.2712263E+04  0.7818609E-02  0.8331037E-01
       -2   -1    0    0    0  501  0.00000000000E+00  0.00000000000E+00  0.13945846862E+04  0.13945846862E+04  0.25500000920E-02 0. -1.
        2   -1    0    0  501    0  0.00000000000E+00  0.00000000000E+00 -0.13187386027E+04  0.13187386027E+04  0.25500000920E-02 0.  1.
    10030    2    1    2    0    0  0.00000000000E+00  0.00000000000E+00  0.75846083503E+02  0.27133232889E+04  0.27122630112E+04 0.  0.
        3    1    3    3  502    0  0.10689576955E+04  0.80799344274E+03  0.24673578664E+03  0.13624986300E+04  0.10100000352E+00 0. -1.
       -3    1    3    3    0  502 -0.10689576955E+04 -0.80799344274E+03 -0.17088970314E+03  0.13508246589E+04  0.10100000352E+00 0.  1.
</event>
<event>
 5   0  0.1999104E-06  0.2701022E+04  0.7818609E-02  0.8334674E-01
        2   -1    0    0  501    0  0.00000000000E+00  0.00000000000E+00  0.20377955579E+04  0.20377955579E+04  0.25500000920E-02 0. -1.
       -2   -1    0    0    0  501  0.00000000000E+00  0.00000000000E+00 -0.89502585336E+03  0.89502585336E+03  0.25500000920E-02 0.  1.
    10030    2    1    2    0    0  0.00000000000E+00  0.00000000000E+00  0.11427697045E+04  0.29328214112E+04  0.27010218127E+04 0.  0.
        4    1    3    3  502    0 -0.75712467351E+03 -0.10199398093E+04  0.10693997306E+04  0.16604614968E+04  0.12699999809E+01 0. -1.
       -4    1    3    3    0  502  0.75712467351E+03  0.10199398093E+04  0.73369973915E+02  0.12723599144E+04  0.12699999809E+01 0.  1.
</event>
<event>
 5   0  0.1999104E-06  0.2701656E+04  0.7818609E-02  0.8334468E-01
        2   -1    0    0  501    0  0.00000000000E+00  0.00000000000E+00  0.13321276089E+04  0.13321276089E+04  0.25500000920E-02 0.  1.
       -2   -1    0    0    0  501  0.00000000000E+00  0.00000000000E+00 -0.13697906319E+04  0.13697906319E+04  0.25500000920E-02 0. -1.
    10030    2    1    2    0    0  0.00000000000E+00  0.00000000000E+00 -0.37663022937E+02  0.27019182408E+04  0.27016557287E+04 0.  0.
        4    1    3    3  502    0  0.32099140507E+02 -0.21460912171E+03 -0.13522453072E+04  0.13695460612E+04  0.12699999809E+01 0. -1.
       -4    1    3    3    0  502 -0.32099140507E+02  0.21460912171E+03  0.13145822843E+04  0.13323721796E+04  0.12699999809E+01 0.  1.
</event>
<event>
 5   0  0.7436613E-07  0.2698562E+04  0.7818609E-02  0.8335472E-01
        1   -1    0    0  501    0  0.00000000000E+00  0.00000000000E+00  0.18535888115E+04  0.18535888115E+04  0.50400001928E-02 0.  1.
       -1   -1    0    0    0  501  0.00000000000E+00  0.00000000000E+00 -0.98218067256E+03  0.98218067257E+03  0.50400001928E-02 0. -1.
    10030    2    1    2    0    0  0.00000000000E+00  0.00000000000E+00  0.87140813896E+03  0.28357694841E+04  0.26985619174E+04 0.  0.
        2    1    3    3  502    0  0.60000817676E+03  0.18207124180E+03 -0.81978022940E+03  0.10320849644E+04  0.25500000920E-02 0. -1.
       -2    1    3    3    0  502 -0.60000817676E+03 -0.18207124180E+03  0.16911883684E+04  0.18036845197E+04  0.25500000920E-02 0.  1.
</event>
<event>
 5   0  0.2030645E-06  0.2718498E+04  0.7818609E-02  0.8329028E-01
       -2   -1    0    0    0  501  0.00000000000E+00  0.00000000000E+00  0.12372121518E+04  0.12372121518E+04  0.25500000920E-02 0.  1.
        2   -1    0    0  501    0  0.00000000000E+00  0.00000000000E+00 -0.14933230801E+04  0.14933230801E+04  0.25500000920E-02 0. -1.
    10030    2    1    2    0    0  0.00000000000E+00  0.00000000000E+00 -0.25611092823E+03  0.27305352319E+04  0.27184977184E+04 0.  0.
        1    1    3    3  502    0 -0.12547190181E+04 -0.12852796689E+03  0.38086175874E+03  0.13175336549E+04  0.50400001928E-02 0.  1.
       -1    1    3    3    0  502  0.12547190181E+04  0.12852796689E+03 -0.63697268697E+03  0.14130015770E+04  0.50400001928E-02 0. -1.
</event>
<event>
 5   0  0.7566905E-07  0.2654714E+04  0.7818609E-02  0.8349850E-01
        1   -1    0    0  501    0  0.00000000000E+00  0.00000000000E+00  0.15530059070E+04  0.15530059070E+04  0.50400001928E-02 0.  1.
       -1   -1    0    0    0  501  0.00000000000E+00  0.00000000000E+00 -0.11344947640E+04  0.11344947640E+04  0.50400001928E-02 0. -1.
    10030    2    1    2    0    0  0.00000000000E+00  0.00000000000E+00  0.41851114307E+03  0.26875006710E+04  0.26547143500E+04 0.  0.
        1    1    3    3  502    0  0.65665667028E+03 -0.56325390752E+03 -0.80986695871E+03  0.11850474412E+04  0.50400001928E-02 0. -1.
       -1    1    3    3    0  502 -0.65665667028E+03  0.56325390752E+03  0.12283781018E+04  0.15024532299E+04  0.50400001928E-02 0.  1.
</event>
<event>
 5   0  0.7806808E-07  0.2697803E+04  0.7818609E-02  0.8335718E-01
        1   -1    0    0  501    0  0.00000000000E+00  0.00000000000E+00  0.13699563619E+04  0.13699563620E+04  0.50400001928E-02 0.  1.
       -1   -1    0    0    0  501  0.00000000000E+00  0.00000000000E+00 -0.13281701876E+04  0.13281701876E+04  0.50400001928E-02 0. -1.
    10030    2    1    2    0    0  0.00000000000E+00  0.00000000000E+00  0.41786174324E+02  0.26981265496E+04  0.26978029567E+04 0.  0.
        5    1    3    3  502    0  0.73343076526E+03  0.91676791185E+03  0.68514819408E+03  0.13593506647E+04  0.46999998093E+01 0.  1.
       -5    1    3    3    0  502 -0.73343076526E+03 -0.91676791185E+03 -0.64336201975E+03  0.13387758849E+04  0.46999998093E+01 0. -1.
</event>
<event>
 5   0  0.2030645E-06  0.2701332E+04  0.7818609E-02  0.8334573E-01
        2   -1    0    0  501    0  0.00000000000E+00  0.00000000000E+00  0.18613153059E+04  0.18613153059E+04  0.25500000920E-02 0.  1.
       -2   -1    0    0    0  501  0.00000000000E+00  0.00000000000E+00 -0.98011288448E+03  0.98011288449E+03  0.25500000920E-02 0. -1.
    10030    2    1    2    0    0  0.00000000000E+00  0.00000000000E+00  0.88120242144E+03  0.28414281904E+04  0.27013323479E+04 0.  0.
        1    1    3    3  502    0 -0.28252049855E+02  0.12394825869E+04  0.10042890606E+04  0.15955286831E+04  0.50400001928E-02 0.  1.
       -1    1    3    3    0  502  0.28252049855E+02 -0.12394825869E+04 -0.12308663913E+03  0.12458995073E+04  0.50400001928E-02 0. -1.
</event>
<event>
 5   0  0.7806808E-07  0.2698537E+04  0.7818609E-02  0.8335480E-01
       -1   -1    0    0    0  501  0.00000000000E+00  0.00000000000E+00  0.85418201212E+03  0.85418201213E+03  0.50400001928E-02 0. -1.
        1   -1    0    0  501    0  0.00000000000E+00  0.00000000000E+00 -0.21313089811E+04  0.21313089811E+04  0.50400001928E-02 0.  1.
    10030    2    1    2    0    0  0.00000000000E+00  0.00000000000E+00 -0.12771269689E+04  0.29854909932E+04  0.26985372289E+04 0.  0.
        5    1    3    3  502    0 -0.68370462205E+03 -0.80553097076E+03  0.28981825225E+03  0.10956043375E+04  0.46999998093E+01 0. -1.
       -5    1    3    3    0  502  0.68370462205E+03  0.80553097076E+03 -0.15669452212E+04  0.18898866557E+04  0.46999998093E+01 0.  1.
</event>
<event>
 5   0  0.7335091E-07  0.2697433E+04  0.7818609E-02  0.8335838E-01
       -1   -1    0    0    0  501  0.00000000000E+00  0.00000000000E+00  0.13917087775E+04  0.13917087775E+04  0.50400001928E-02 0.  1.
        1   -1    0    0  501    0  0.00000000000E+00  0.00000000000E+00 -0.13070524562E+04  0.13070524562E+04  0.50400001928E-02 0. -1.
    10030    2    1    2    0    0  0.00000000000E+00  0.00000000000E+00  0.84656321366E+02  0.26987612337E+04  0.26974331324E+04 0.  0.
        3    1    3    3  502    0  0.31807954675E+03 -0.14505371069E+02 -0.12689091082E+04  0.13082489590E+04  0.10100000352E+00 0. -1.
       -3    1    3    3    0  502 -0.31807954675E+03  0.14505371069E+02  0.13535654295E+04  0.13905122747E+04  0.10100000352E+00 0.  1.
</event>
<event>
 5   0  0.7768032E-07  0.2699420E+04  0.7818609E-02  0.8335193E-01
       -1   -1    0    0    0  501  0.00000000000E+00  0.00000000000E+00  0.11046665904E+04  0.11046665904E+04  0.50400001928E-02 0. -1.
        1   -1    0    0  501    0  0.00000000000E+00  0.00000000000E+00 -0.16491105362E+04  0.16491105362E+04  0.50400001928E-02 0.  1.
    10030    2    1    2    0    0  0.00000000000E+00  0.00000000000E+00 -0.54444394580E+03  0.27537771266E+04  0.26994201697E+04 0.  0.
        4    1    3    3  502    0 -0.80598158550E+01 -0.11987215729E+04  0.36052368701E+03  0.12517896435E+04  0.12699999809E+01 0. -1.
       -4    1    3    3    0  502  0.80598158550E+01  0.11987215729E+04 -0.90496763281E+03  0.15019874830E+04  0.12699999809E+01 0.  1.
</event>
<event>
 5   0  0.1991277E-06  0.2698401E+04  0.7818609E-02  0.8335524E-01
        2   -1    0    0  501    0  0.00000000000E+00  0.00000000000E+00  0.15446292345E+04  0.15446292345E+04  0.25500000920E-02 0. -1.
       -2   -1    0    0    0  501  0.00000000000E+00  0.00000000000E+00 -0.11784981197E+04  0.11784981197E+04  0.25500000920E-02 0.  1.
    10030    2    1    2    0    0  0.00000000000E+00  0.00000000000E+00  0.36613111482E+03  0.27231273542E+04  0.26984014887E+04 0.  0.
        5    1    3    3  502    0 -0.63101079497E+03 -0.11653828876E+04  0.43842304286E+03  0.13958971139E+04  0.46999998093E+01 0. -1.
       -5    1    3    3    0  502  0.63101079497E+03  0.11653828876E+04 -0.72291928044E+02  0.13272302403E+04  0.46999998093E+01 0.  1.
</event>
<event>
 5   0  0.2030645E-06  0.2705050E+04  0.7818609E-02  0.8333368E-01
        2   -1    0    0  501    0  0.00000000000E+00  0.00000000000E+00  0.87849292658E+03  0.87849292658E+03  0.25500000920E-02 0. -1.
       -2   -1    0    0    0  501  0.00000000000E+00  0.00000000000E+00 -0.20823437252E+04  0.20823437252E+04  0.25500000920E-02 0.  1.
    10030    2    1    2    0    0  0.00000000000E+00  0.00000000000E+00 -0.12038507986E+04  0.29608366518E+04  0.27050502645E+04 0.  0.
        1    1    3    3  502    0  0.23567956783E+03 -0.32428359395E+02 -0.20592628767E+04  0.20729592501E+04  0.50400001928E-02 0.  1.
       -1    1    3    3    0  502 -0.23567956783E+03  0.32428359395E+02  0.85541207805E+03  0.88787740172E+03  0.50400001928E-02 0. -1.
</event>
<event>
 5   0  0.7436613E-07  0.2699613E+04  0.7818609E-02  0.8335131E-01
        1   -1    0    0  501    0  0.00000000000E+00  0.00000000000E+00  0.18347937273E+04  0.18347937273E+04  0.50400001928E-02 0. -1.
       -1   -1    0    0    0  501  0.00000000000E+00  0.00000000000E+00 -0.99301485577E+03  0.99301485578E+03  0.50400001928E-02 0.  1.
    10030    2    1    2    0    0  0.00000000000E+00  0.00000000000E+00  0.84177887151E+03  0.28278085831E+04  0.26996128822E+04 0.  0.
        2    1    3    3  502    0  0.16750195828E+02  0.51512076632E+03  0.17276673818E+04  0.18029044775E+04  0.25500000920E-02 0. -1.
       -2    1    3    3    0  502 -0.16750195828E+02 -0.51512076632E+03 -0.88588851027E+03  0.10249041056E+04  0.25500000920E-02 0.  1.
</event>
<event>
 5   0  0.7806808E-07  0.2697315E+04  0.7818609E-02  0.8335877E-01
        1   -1    0    0  501    0  0.00000000000E+00  0.00000000000E+00  0.20751640388E+04  0.20751640388E+04  0.50400001928E-02 0.  1.
       -1   -1    0    0    0  501  0.00000000000E+00  0.00000000000E+00 -0.87649771293E+03  0.87649771294E+03  0.50400001928E-02 0. -1.
    10030    2    1    2    0    0  0.00000000000E+00  0.00000000000E+00  0.11986663258E+04  0.29516617517E+04  0.26973146157E+04 0.  0.
        5    1    3    3  502    0  0.20436655481E+03  0.38421391870E+03 -0.79754315957E+03  0.90856106313E+03  0.46999998093E+01 0. -1.
       -5    1    3    3    0  502 -0.20436655481E+03 -0.38421391870E+03  0.19962094854E+04  0.20431006886E+04  0.46999998093E+01 0.  1.
</event>
<event>
 5   0  0.2063087E-06  0.2699594E+04  0.7818609E-02  0.8335137E-01
       -2   -1    0    0    0  501  0.00000000000E+00  0.00000000000E+00  0.12448850231E+04  0.12448850231E+04  0.25500000920E-02 0.  1.
        2   -1    0    0  501    0  0.00000000000E+00  0.00000000000E+00 -0.14635507811E+04  0.14635507811E+04  0.25500000920E-02 0. -1.
    10030    2    1    2    0    0  0.00000000000E+00  0.00000000000E+00 -0.21866575797E+03  0.27084358042E+04  0.26995943754E+04 0.  0.
        3    1    3    3  502    0 -0.81619277866E+03 -0.33125793104E+03 -0.11354483772E+04  0.14370614101E+04  0.10100000352E+00 0. -1.
       -3    1    3    3    0  502  0.81619277866E+03  0.33125793104E+03  0.91678261924E+03  0.12713743941E+04  0.10100000352E+00 0.  1.
</event>
<event>
 5   0  0.2030645E-06  0.2699106E+04  0.7818609E-02  0.8335295E-01
        2   -1    0    0  501    0  0.00000000000E+00  0.00000000000E+00  0.79391728491E+03  0.79391728491E+03  0.25500000920E-02 0. -1.
       -2   -1    0    0    0  501  0.00000000000E+00  0.00000000000E+00 -0.22940598777E+04  0.22940598777E+04  0.25500000920E-02 0.  1.
    10030    2    1    2    0    0  0.00000000000E+00  0.00000000000E+00 -0.15001425928E+04  0.30879771626E+04  0.26991063629E+04 0.  0.
        1    1    3    3  502    0  0.12713210160E+04 -0.15196374678E+03 -0.26206820601E+03  0.13069161605E+04  0.50400001928E-02 0. -1.
       -1    1    3    3    0  502 -0.12713210160E+04  0.15196374678E+03 -0.12380743868E+04  0.17810610021E+04  0.50400001928E-02 0.  1.
</event>
<event>
 5   0  0.6561875E-07  0.2700408E+04  0.7818609E-02  0.8334873E-01
       -3   -1    0    0    0  501  0.00000000000E+00  0.00000000000E+00  0.13044558740E+04  0.13044558779E+04  0.10100000352E+00 0.  1.
        3   -1    0    0  501    0  0.00000000000E+00  0.00000000000E+00 -0.13975565250E+04  0.13975565287E+04  0.10100000352E+00 0. -1.
    10030    2    1    2    0    0  0.00000000000E+00  0.00000000000E+00 -0.93100651062E+02  0.27020124066E+04  0.27004079903E+04 0.  0.
        1    1    3    3  502    0 -0.11509313183E+03 -0.59799648039E+03  0.11592401798E+04  0.13094594358E+04  0.50400001928E-02 0.  1.
       -1    1    3    3    0  502  0.11509313183E+03  0.59799648039E+03 -0.12523408309E+04  0.13925529707E+04  0.50400001928E-02 0. -1.
</event>
<event>
 5   0  0.7436613E-07  0.2703911E+04  0.7818609E-02  0.8333737E-01
       -1   -1    0    0    0  501  0.00000000000E+00  0.00000000000E+00  0.69938050565E+03  0.69938050567E+03  0.50400001928E-02 0.  1.
        1   -1    0    0  501    0  0.00000000000E+00  0.00000000000E+00 -0.26134319606E+04  0.26134319606E+04  0.50400001928E-02 0. -1.
    10030    2    1    2    0    0  0.00000000000E+00  0.00000000000E+00 -0.19140514549E+04  0.33128124663E+04  0.27039107723E+04 0.  0.
        2    1    3    3  502    0  0.94914053184E+03  0.10849997986E+03 -0.21290836232E+04  0.23335888819E+04  0.25500000920E-02 0. -1.
       -2    1    3    3    0  502 -0.94914053184E+03 -0.10849997986E+03  0.21503216832E+03  0.97922358439E+03  0.25500000920E-02 0.  1.
</event>
<event>
 5   0  0.7806808E-07  0.2700102E+04  0.7818609E-02  0.8334972E-01
        1   -1    0    0  501    0  0.00000000000E+00  0.00000000000E+00  0.15004730408E+04  0.15004730408E+04  0.50400001928E-02 0. -1.
       -1   -1    0    0    0  501  0.00000000000E+00  0.00000000000E+00 -0.12147088679E+04  0.12147088679E+04  0.50400001928E-02 0.  1.
    10030    2    1    2    0    0  0.00000000000E+00  0.00000000000E+00  0.28576417291E+03  0.27151819088E+04  0.27001021527E+04 0.  0.
        5    1    3    3  502    0 -0.10467120418E+04  0.83941562912E+03 -0.75902499823E+01  0.13417542244E+04  0.46999998093E+01 0.  1.
       -5    1    3    3    0  502  0.10467120418E+04 -0.83941562912E+03  0.29335442289E+03  0.13734276844E+04  0.46999998093E+01 0. -1.
</event>
<event>
 5   0  0.7436613E-07  0.2683505E+04  0.7818609E-02  0.8340377E-01
        1   -1    0    0  501    0  0.00000000000E+00  0.00000000000E+00  0.14499395443E+04  0.14499395443E+04  0.50400001928E-02 0.  1.
       -1   -1    0    0    0  501  0.00000000000E+00  0.00000000000E+00 -0.12416380842E+04  0.12416380842E+04  0.50400001928E-02 0. -1.
    10030    2    1    2    0    0  0.00000000000E+00  0.00000000000E+00  0.20830146006E+03  0.26915776285E+04  0.26835052882E+04 0.  0.
        2    1    3    3  502    0  0.61256910054E+03 -0.89725952745E+03 -0.68560885209E+03  0.12846692417E+04  0.25500000920E-02 0. -1.
       -2    1    3    3    0  502 -0.61256910054E+03  0.89725952745E+03  0.89391031215E+03  0.14069083868E+04  0.25500000920E-02 0.  1.
</event>
<event>
 5   0  0.7806808E-07  0.2693879E+04  0.7818609E-02  0.8336994E-01
        1   -1    0    0  501    0  0.00000000000E+00  0.00000000000E+00  0.22906666968E+04  0.22906666968E+04  0.50400001928E-02 0.  1.
       -1   -1    0    0    0  501  0.00000000000E+00  0.00000000000E+00 -0.79201647125E+03  0.79201647127E+03  0.50400001928E-02 0. -1.
    10030    2    1    2    0    0  0.00000000000E+00  0.00000000000E+00  0.14986502256E+04  0.30826831681E+04  0.26938788050E+04 0.  0.
        5    1    3    3  502    0 -0.21743935770E+01  0.80660231392E+03 -0.48507191365E+03  0.94123794665E+03  0.46999998093E+01 0. -1.
       -5    1    3    3    0  502  0.21743935770E+01 -0.80660231392E+03  0.19837221392E+04  0.21414452214E+04  0.46999998093E+01 0.  1.
</event>
<event>
 5   0  0.7436613E-07  0.2700057E+04  0.7818609E-02  0.8334986E-01
        1   -1    0    0  501    0  0.00000000000E+00  0.00000000000E+00  0.17753258224E+04  0.17753258224E+04  0.50400001928E-02 0.  1.
       -1   -1    0    0    0  501  0.00000000000E+00  0.00000000000E+00 -0.10266155630E+04  0.10266155630E+04  0.50400001928E-02 0. -1.
    10030    2    1    2    0    0  0.00000000000E+00  0.00000000000E+00  0.74871025940E+03  0.28019413853E+04  0.27000571243E+04 0.  0.
        2    1    3    3  502    0  0.54578066403E+02 -0.32646636546E+03  0.17325655715E+04  0.17638998023E+04  0.25500000920E-02 0.  1.
       -2    1    3    3    0  502 -0.54578066403E+02  0.32646636546E+03 -0.98385531205E+03  0.10380415831E+04  0.25500000920E-02 0. -1.
</event>
<event>
 5   0  0.2063087E-06  0.2702574E+04  0.7818609E-02  0.8334170E-01
       -2   -1    0    0    0  501  0.00000000000E+00  0.00000000000E+00  0.16883372075E+04  0.16883372075E+04  0.25500000920E-02 0. -1.
        2   -1    0    0  501    0  0.00000000000E+00  0.00000000000E+00 -0.10815238141E+04  0.10815238141E+04  0.25500000920E-02 0.  1.
    10030    2    1    2    0    0  0.00000000000E+00  0.00000000000E+00  0.60681339332E+03  0.27698610216E+04  0.27025742515E+04 0.  0.
        3    1    3    3  502    0 -0.65320623813E+03  0.20122553410E+03 -0.89129421961E+03  0.11231987808E+04  0.10100000352E+00 0.  1.
       -3    1    3    3    0  502  0.65320623813E+03 -0.20122553410E+03  0.14981076129E+04  0.16466622408E+04  0.10100000352E+00 0. -1.
</event>
<event>
 5   0  0.1932012E-06  0.2708679E+04  0.7818609E-02  0.8332194E-01
       -2   -1    0    0    0  501  0.00000000000E+00  0.00000000000E+00  0.13040453913E+04  0.13040453913E+04  0.25500000920E-02 0.  1.
        2   -1    0    0  501    0  0.00000000000E+00  0.00000000000E+00 -0.14065733124E+04  0.14065733124E+04  0.25500000920E-02 0. -1.
    10030    2    1    2    0    0  0.00000000000E+00  0.00000000000E+00 -0.10252792116E+03  0.27106187037E+04  0.27086789736E+04 0.  0.
        2    1    3    3  502    0 -0.24715667105E+03 -0.99545674738E+03  0.83379852588E+03  0.13218322653E+04  0.25500000920E-02 0.  1.
       -2    1    3    3    0  502  0.24715667105E+03  0.99545674738E+03 -0.93632644704E+03  0.13887864384E+04  0.25500000920E-02 0. -1.
</event>
<event>
 5   0  0.2030645E-06  0.2699696E+04  0.7818609E-02  0.8335104E-01
        2   -1    0    0  501    0  0.00000000000E+00  0.00000000000E+00  0.15566607520E+04  0.15566607520E+04  0.25500000920E-02 0. -1.
       -2   -1    0    0    0  501  0.00000000000E+00  0.00000000000E+00 -0.11705115537E+04  0.11705115537E+04  0.25500000920E-02 0.  1.
    10030    2    1    2    0    0  0.00000000000E+00  0.00000000000E+00  0.38614919830E+03  0.27271723057E+04  0.26996958313E+04 0.  0.
        1    1    3    3  502    0 -0.96011501177E+03 -0.89880186628E+03 -0.11403229754E+03  0.13201018883E+04  0.50400001928E-02 0.  1.
       -1    1    3    3    0  502  0.96011501177E+03  0.89880186628E+03  0.50018149584E+03  0.14070704174E+04  0.50400001928E-02 0. -1.
</event>
<event>
 5   0  0.7436613E-07  0.2701558E+04  0.7818609E-02  0.8334500E-01
        1   -1    0    0  501    0  0.00000000000E+00  0.00000000000E+00  0.12447407781E+04  0.12447407781E+04  0.50400001928E-02 0.  1.
       -1   -1    0    0    0  501  0.00000000000E+00  0.00000000000E+00 -0.14658506015E+04  0.14658506015E+04  0.50400001928E-02 0. -1.
    10030    2    1    2    0    0  0.00000000000E+00  0.00000000000E+00 -0.22110982343E+03  0.27105913796E+04  0.27015580825E+04 0.  0.
        2    1    3    3  502    0 -0.54996572532E+02  0.84601563069E+03 -0.11656589660E+04  0.14413632073E+04  0.25500000920E-02 0. -1.
       -2    1    3    3    0  502  0.54996572532E+02 -0.84601563069E+03  0.94454914261E+03  0.12692281722E+04  0.25500000920E-02 0.  1.
</event>
<event>
 5   0  0.1999104E-06  0.2661899E+04  0.7818609E-02  0.8347474E-01
       -2   -1    0    0    0  501  0.00000000000E+00  0.00000000000E+00  0.10084057978E+04  0.10084057978E+04  0.25500000920E-02 0. -1.
        2   -1    0    0  501    0  0.00000000000E+00  0.00000000000E+00 -0.17566603984E+04  0.17566603984E+04  0.25500000920E-02 0.  1.
    10030    2    1    2    0    0  0.00000000000E+00  0.00000000000E+00 -0.74825460059E+03  0.27650661961E+04  0.26618989691E+04 0.  0.
        4    1    3    3  502    0  0.36022675060E+03  0.93210087724E+03  0.53906333019E+03  0.11354145692E+04  0.12699999809E+01 0. -1.
       -4    1    3    3    0  502 -0.36022675060E+03 -0.93210087724E+03 -0.12873179308E+04  0.16296516269E+04  0.12699999809E+01 0.  1.
</event>
<event>
 5   0  0.7566905E-07  0.2699154E+04  0.7818609E-02  0.8335279E-01
       -1   -1    0    0    0  501  0.00000000000E+00  0.00000000000E+00  0.19335072241E+04  0.19335072241E+04  0.50400001928E-02 0. -1.
        1   -1    0    0  501    0  0.00000000000E+00  0.00000000000E+00 -0.94199735465E+03  0.94199735466E+03  0.50400001928E-02 0.  1.
    10030    2    1    2    0    0  0.00000000000E+00  0.00000000000E+00  0.99150986941E+03  0.28755045787E+04  0.26991544530E+04 0.  0.
        1    1    3    3  502    0 -0.11385983068E+04  0.67480176481E+02  0.12642738449E+04  0.17027472019E+04  0.50400001928E-02 0. -1.
       -1    1    3    3    0  502  0.11385983068E+04 -0.67480176481E+02 -0.27276397553E+03  0.11727573768E+04  0.50400001928E-02 0.  1.
</event>
<event>
 5   0  0.7768032E-07  0.2695261E+04  0.7818609E-02  0.8336544E-01
        1   -1    0    0  501    0  0.00000000000E+00  0.00000000000E+00  0.17718992693E+04  0.17718992693E+04  0.50400001928E-02 0.  1.
       -1   -1    0    0    0  501  0.00000000000E+00  0.00000000000E+00 -0.10249500874E+04  0.10249500874E+04  0.50400001928E-02 0. -1.
    10030    2    1    2    0    0  0.00000000000E+00  0.00000000000E+00  0.74694918186E+03  0.27968493567E+04  0.26952612570E+04 0.  0.
        4    1    3    3  502    0 -0.81201423375E+03  0.72223562340E+03  0.12004536063E+04  0.16192843744E+04  0.12699999809E+01 0.  1.
       -4    1    3    3    0  502  0.81201423375E+03 -0.72223562340E+03 -0.45350442444E+03  0.11775649822E+04  0.12699999809E+01 0. -1.
</event>
<event>
 5   0  0.2063087E-06  0.2699982E+04  0.7818609E-02  0.8335011E-01
        2   -1    0    0  501    0  0.00000000000E+00  0.00000000000E+00  0.18183897081E+04  0.18183897081E+04  0.25500000920E-02 0. -1.
       -2   -1    0    0    0  501  0.00000000000E+00  0.00000000000E+00 -0.10022466680E+04  0.10022466680E+04  0.25500000920E-02 0.  1.
    10030    2    1    2    0    0  0.00000000000E+00  0.00000000000E+00  0.81614304011E+03  0.28206363760E+04  0.26999815007E+04 0.  0.
        3    1    3    3  502    0  0.11929496926E+04 -0.62552085249E+03  0.31422562702E+03  0.13831641482E+04  0.10100000352E+00 0.  1.
       -3    1    3    3    0  502 -0.11929496926E+04  0.62552085249E+03  0.50191741309E+03  0.14374722278E+04  0.10100000352E+00 0. -1.
</event>
<event>
 5   0  0.7806808E-07  0.2697444E+04  0.7818609E-02  0.8335835E-01
        1   -1    0    0  501    0  0.00000000000E+00  0.00000000000E+00  0.17902694856E+04  0.17902694856E+04  0.50400001928E-02 0.  1.
       -1   -1    0    0    0  501  0.00000000000E+00  0.00000000000E+00 -0.10160763141E+04  0.10160763141E+04  0.50400001928E-02 0. -1.
    10030    2    1    2    0    0  0.00000000000E+00  0.00000000000E+00  0.77419317144E+03  0.28063457997E+04  0.26974435454E+04 0.  0.
        5    1    3    3  502    0  0.19668454586E+03  0.74463431414E+02 -0.99890386958E+03  0.10208137165E+04  0.46999998093E+01 0. -1.
       -5    1    3    3    0  502 -0.19668454586E+03 -0.74463431414E+02  0.17730970410E+04  0.17855320832E+04  0.46999998093E+01 0.  1.
</event>
<event>
 5   0  0.2063087E-06  0.2697427E+04  0.7818609E-02  0.8335840E-01
        2   -1    0    0  501    0  0.00000000000E+00  0.00000000000E+00  0.13618708861E+04  0.13618708861E+04  0.25500000920E-02 0.  1.
       -2   -1    0    0    0  501  0.00000000000E+00  0.00000000000E+00 -0.13356827697E+04  0.13356827697E+04  0.25500000920E-02 0. -1.
    10030    2    1    2    0    0  0.00000000000E+00  0.00000000000E+00  0.26188116394E+02  0.26975536557E+04  0.26974265343E+04 0.  0.
        3    1    3    3  502    0  0.69745666939E+03  0.10665212578E+04 -0.42864393940E+03  0.13444883919E+04  0.10100000352E+00 0. -1.
       -3    1    3    3    0  502 -0.69745666939E+03 -0.10665212578E+04  0.45483205580E+03  0.13530652638E+04  0.10100000352E+00 0.  1.
</event>
<event>
 5   0  0.7566905E-07  0.2689891E+04  0.7818609E-02  0.8338293E-01
        1   -1    0    0  501    0  0.00000000000E+00  0.00000000000E+00  0.22758131302E+04  0.22758131302E+04  0.50400001928E-02 0. -1.
       -1   -1    0    0    0  501  0.00000000000E+00  0.00000000000E+00 -0.79482711362E+03  0.79482711363E+03  0.50400001928E-02 0.  1.
    10030    2    1    2    0    0  0.00000000000E+00  0.00000000000E+00  0.14809860166E+04  0.30706402439E+04  0.26898906903E+04 0.  0.
        1    1    3    3  502    0 -0.80967827799E+03  0.23744576705E+03 -0.45509486422E+03  0.95868177285E+03  0.50400001928E-02 0.  1.
       -1    1    3    3    0  502  0.80967827799E+03 -0.23744576705E+03  0.19360808808E+04  0.21119584710E+04  0.50400001928E-02 0. -1.
</event>
<event>
 5   0  0.7806808E-07  0.2698757E+04  0.7818609E-02  0.8335409E-01
        1   -1    0    0  501    0  0.00000000000E+00  0.00000000000E+00  0.20603983885E+04  0.20603983885E+04  0.50400001928E-02 0. -1.
       -1   -1    0    0    0  501  0.00000000000E+00  0.00000000000E+00 -0.88372315353E+03  0.88372315355E+03  0.50400001928E-02 0.  1.
    10030    2    1    2    0    0  0.00000000000E+00  0.00000000000E+00  0.11766752350E+04  0.29441215421E+04  0.26987565740E+04 0.  0.
        5    1    3    3  502    0  0.12241058362E+04 -0.29202567000E+03  0.11195211381E+04  0.16843585600E+04  0.46999998093E+01 0. -1.
       -5    1    3    3    0  502 -0.12241058362E+04  0.29202567000E+03  0.57154096845E+02  0.12597629820E+04  0.46999998093E+01 0.  1.
</event>
<event>
 5   0  0.1991277E-06  0.2706297E+04  0.7818609E-02  0.8332965E-01
        2   -1    0    0  501    0  0.00000000000E+00  0.00000000000E+00  0.16700424476E+04  0.16700424476E+04  0.25500000920E-02 0.  1.
       -2   -1    0    0    0  501  0.00000000000E+00  0.00000000000E+00 -0.10963861081E+04  0.10963861081E+04  0.25500000920E-02 0. -1.
    10030    2    1    2    0    0  0.00000000000E+00  0.00000000000E+00  0.57365633950E+03  0.27664285556E+04  0.27062973520E+04 0.  0.
        5    1    3    3  502    0 -0.18068037485E+03  0.12789722767E+04  0.69899133873E+03  0.14686818798E+04  0.46999998093E+01 0.  1.
       -5    1    3    3    0  502  0.18068037485E+03 -0.12789722767E+04 -0.12533499924E+03  0.12977466758E+04  0.46999998093E+01 0. -1.
</event>
<event>
 5   0  0.7566905E-07  0.2701694E+04  0.7818609E-02  0.8334455E-01
       -1   -1    0    0    0  501  0.00000000000E+00  0.00000000000E+00  0.76505840444E+03  0.76505840446E+03  0.50400001928E-02 0.  1.
        1   -1    0    0  501    0  0.00000000000E+00  0.00000000000E+00 -0.23851618909E+04  0.23851618909E+04  0.50400001928E-02 0. -1.
    10030    2    1    2    0    0  0.00000000000E+00  0.00000000000E+00 -0.16201034864E+04  0.31502202953E+04  0.27016943947E+04 0.  0.
        1    1    3    3  502    0  0.80322725359E+03  0.64866018100E+02  0.45409867544E+03  0.92497958262E+03  0.50400001928E-02 0.  1.
       -1    1    3    3    0  502 -0.80322725359E+03 -0.64866018100E+02 -0.20742021619E+04  0.22252407127E+04  0.50400001928E-02 0. -1.
</event>
<event>
 5   0  0.1991277E-06  0.2706041E+04  0.7818609E-02  0.8333048E-01
       -2   -1    0    0    0  501  0.00000000000E+00  0.00000000000E+00  0.95848140002E+03  0.95848140002E+03  0.25500000920E-02 0.  1.
        2   -1    0    0  501    0  0.00000000000E+00  0.00000000000E+00 -0.19099633536E+04  0.19099633536E+04  0.25500000920E-02 0. -1.
    10030    2    1    2    0    0  0.00000000000E+00  0.00000000000E+00 -0.95148195356E+03  0.28684447536E+04  0.27060409081E+04 0.  0.
        5    1    3    3  502    0 -0.24440673990E+03  0.10095281304E+04  0.44333602824E+03  0.11293585013E+04  0.46999998093E+01 0.  1.
       -5    1    3    3    0  502  0.24440673990E+03 -0.10095281304E+04 -0.13948179818E+04  0.17390862523E+04  0.46999998093E+01 0. -1.
</event>
<event>
 5   0  0.7436613E-07  0.2707918E+04  0.7818609E-02  0.8332440E-01
       -1   -1    0    0    0  501  0.00000000000E+00  0.00000000000E+00  0.10556276330E+04  0.10556276330E+04  0.50400001928E-02 0.  1.
        1   -1    0    0  501    0  0.00000000000E+00  0.00000000000E+00 -0.17366021591E+04  0.17366021591E+04  0.50400001928E-02 0. -1.
    10030    2    1    2    0    0  0.00000000000E+00  0.00000000000E+00 -0.68097452612E+03  0.27922297920E+04  0.27079181868E+04 0.  0.
        2    1    3    3  502    0 -0.68537550323E+03  0.10574493798E+04 -0.85115061872E+03  0.15206564855E+04  0.25500000920E-02 0. -1.
       -2    1    3    3    0  502  0.68537550323E+03 -0.10574493798E+04  0.17017609259E+03  0.12715733065E+04  0.25500000920E-02 0.  1.
</event>
<event>
 5   0  0.7335091E-07  0.2699224E+04  0.7818609E-02  0.8335257E-01
       -1   -1    0    0    0  501  0.00000000000E+00  0.00000000000E+00  0.19518898593E+04  0.19518898593E+04  0.50400001928E-02 0.  1.
        1   -1    0    0  501    0  0.00000000000E+00  0.00000000000E+00 -0.93317393051E+03  0.93317393053E+03  0.50400001928E-02 0. -1.
    10030    2    1    2    0    0  0.00000000000E+00  0.00000000000E+00  0.10187159287E+04  0.28850637898E+04  0.26992241344E+04 0.  0.
        3    1    3    3  502    0 -0.29486087253E+03  0.12414644269E+04  0.39458138862E+02  0.12766102821E+04  0.10100000352E+00 0. -1.
       -3    1    3    3    0  502  0.29486087253E+03 -0.12414644269E+04  0.97925778989E+03  0.16084535077E+04  0.10100000352E+00 0.  1.
</event>
<event>
 5   0  0.7806808E-07  0.2701153E+04  0.7818609E-02  0.8334631E-01
       -1   -1    0    0    0  501  0.00000000000E+00  0.00000000000E+00  0.28125609879E+04  0.28125609879E+04  0.50400001928E-02 0.  1.
        1   -1    0    0  501    0  0.00000000000E+00  0.00000000000E+00 -0.64853969573E+03  0.64853969575E+03  0.50400001928E-02 0. -1.
    10030    2    1    2    0    0  0.00000000000E+00  0.00000000000E+00  0.21640212921E+04  0.34611006836E+04  0.27011534183E+04 0.  0.
        5    1    3    3  502    0 -0.65049991987E+03 -0.24481426256E+03 -0.40177602757E+03  0.80282640417E+03  0.46999998093E+01 0. -1.
       -5    1    3    3    0  502  0.65049991987E+03  0.24481426256E+03  0.25657973197E+04  0.26582742794E+04  0.46999998093E+01 0.  1.
</event>
<event>
 5   0  0.1932012E-06  0.2699992E+04  0.7818609E-02  0.8335007E-01
        2   -1    0    0  501    0  0.00000000000E+00  0.00000000000E+00  0.16550079310E+04  0.16550079310E+04  0.25500000920E-02 0. -1.
       -2   -1    0    0    0  501  0.00000000000E+00  0.00000000000E+00 -0.11011970250E+04  0.11011970250E+04  0.25500000920E-02 0.  1.
    10030    2    1    2    0    0  0.00000000000E+00  0.00000000000E+00  0.55381090601E+03  0.27562049560E+04  0.26999924519E+04 0.  0.
        2    1    3    3  502    0 -0.10965718373E+04 -0.48596538534E+03 -0.35555600505E+03  0.12510204726E+04  0.25500000920E-02 0.  1.
       -2    1    3    3    0  502  0.10965718373E+04  0.48596538534E+03  0.90936691106E+03  0.15051844834E+04  0.25500000920E-02 0. -1.
</event>
<event>
 5   0  0.2030645E-06  0.2714367E+04  0.7818609E-02  0.8330359E-01
       -2   -1    0    0    0  501  0.00000000000E+00  0.00000000000E+00  0.12133128182E+04  0.12133128182E+04  0.25500000920E-02 0.  1.
        2   -1    0    0  501    0  0.00000000000E+00  0.00000000000E+00 -0.15181134759E+04  0.15181134759E+04  0.25500000920E-02 0. -1.
    10030    2    1    2    0    0  0.00000000000E+00  0.00000000000E+00 -0.30480065773E+03  0.27314262941E+04  0.27143666221E+04 0.  0.
        1    1    3    3  502    0 -0.82779505876E+03  0.45760470557E+03  0.82701005814E+03  0.12564204560E+04  0.50400001928E-02 0.  1.
       -1    1    3    3    0  502  0.82779505876E+03 -0.45760470557E+03 -0.11318107159E+04  0.14750058381E+04  0.50400001928E-02 0. -1.
</event>
<event>
 5   0  0.7566905E-07  0.2702398E+04  0.7818609E-02  0.8334227E-01
       -1   -1    0    0    0  501  0.00000000000E+00  0.00000000000E+00  0.12197756924E+04  0.12197756924E+04  0.50400001928E-02 0. -1.
        1   -1    0    0  501    0  0.00000000000E+00  0.00000000000E+00 -0.14967818490E+04  0.14967818490E+04  0.50400001928E-02 0.  1.
    10030    2    1    2    0    0  0.00000000000E+00  0.00000000000E+00 -0.27700615654E+03  0.27165575414E+04  0.27023975401E+04 0.  0.
        1    1    3    3  502    0  0.65291242665E+02  0.63185543226E+03 -0.13373263973E+04  0.14805222479E+04  0.50400001928E-02 0.  1.
       -1    1    3    3    0  502 -0.65291242665E+02 -0.63185543226E+03  0.10603202408E+04  0.12360352935E+04  0.50400001928E-02 0. -1.
</event>
<event>
 5   0  0.7335091E-07  0.2701731E+04  0.7818609E-02  0.8334443E-01
       -1   -1    0    0    0  501  0.00000000000E+00  0.00000000000E+00  0.79254044828E+03  0.79254044830E+03  0.50400001928E-02 0.  1.
        1   -1    0    0  501    0  0.00000000000E+00  0.00000000000E+00 -0.23025169128E+04  0.23025169128E+04  0.50400001928E-02 0. -1.
    10030    2    1    2    0    0  0.00000000000E+00  0.00000000000E+00 -0.15099764645E+04  0.30950573611E+04  0.27017311386E+04 0.  0.
        3    1    3    3  502    0  0.56976592061E+03  0.98907048062E+03  0.72646282587E+02  0.11437530820E+04  0.10100000352E+00 0. -1.
       -3    1    3    3    0  502 -0.56976592061E+03 -0.98907048062E+03 -0.15826227471E+04  0.19513042791E+04  0.10100000352E+00 0.  1.
</event>
<event>
 5   0  0.7335091E-07  0.2705680E+04  0.7818609E-02  0.8333164E-01
       -1   -1    0    0    0  501  0.00000000000E+00  0.00000000000E+00  0.12903539293E+04  0.12903539293E+04  0.50400001928E-02 0. -1.
        1   -1    0    0  501    0  0.00000000000E+00  0.00000000000E+00 -0.14183516657E+04  0.14183516657E+04  0.50400001928E-02 0.  1.
    10030    2    1    2    0    0  0.00000000000E+00  0.00000000000E+00 -0.12799773637E+03  0.27087055951E+04  0.27056796891E+04 0.  0.
        3    1    3    3  502    0  0.37655647552E+03  0.15988916958E+03 -0.13549433368E+04  0.14153553554E+04  0.10100000352E+00 0.  1.
       -3    1    3    3    0  502 -0.37655647552E+03 -0.15988916958E+03  0.12269456004E+04  0.12933502397E+04  0.10100000352E+00 0. -1.
</event>
<event>
 5   0  0.7768032E-07  0.2705709E+04  0.7818609E-02  0.8333155E-01
       -1   -1    0    0    0  501  0.00000000000E+00  0.00000000000E+00  0.15566722969E+04  0.15566722969E+04  0.50400001928E-02 0.  1.
        1   -1    0    0  501    0  0.00000000000E+00  0.00000000000E+00 -0.11757233372E+04  0.11757233373E+04  0.50400001928E-02 0. -1.
    10030    2    1    2    0    0  0.00000000000E+00  0.00000000000E+00  0.38094895966E+03  0.27323956342E+04  0.27057094803E+04 0.  0.
        4    1    3    3  502    0  0.49314686053E+02 -0.12997537306E+04  0.56619591978E+03  0.14185806748E+04  0.12699999809E+01 0.  1.
       -4    1    3    3    0  502 -0.49314686053E+02  0.12997537306E+04 -0.18524696011E+03  0.13138149594E+04  0.12699999809E+01 0. -1.
</event>
<event>
 5   0  0.2030645E-06  0.2711517E+04  0.7818609E-02  0.8331278E-01
       -2   -1    0    0    0  501  0.00000000000E+00  0.00000000000E+00  0.74420601606E+03  0.74420601607E+03  0.25500000920E-02 0.  1.
        2   -1    0    0  501    0  0.00000000000E+00  0.00000000000E+00 -0.24698546849E+04  0.24698546849E+04  0.25500000920E-02 0. -1.
    10030    2    1    2    0    0  0.00000000000E+00  0.00000000000E+00 -0.17256486689E+04  0.32140607010E+04  0.27115167087E+04 0.  0.
        1    1    3    3  502    0 -0.91705899467E+03  0.52673479475E+03 -0.18683603213E+04  0.21469087158E+04  0.50400001928E-02 0. -1.
       -1    1    3    3    0  502  0.91705899467E+03 -0.52673479475E+03  0.14271165246E+03  0.10671519852E+04  0.50400001928E-02 0.  1.
</event>
<event>
 5   0  0.2063087E-06  0.2697097E+04  0.7818609E-02  0.8335947E-01
        2   -1    0    0  501    0  0.00000000000E+00  0.00000000000E+00  0.16952136298E+04  0.16952136298E+04  0.25500000920E-02 0. -1.
       -2   -1    0    0    0  501  0.00000000000E+00  0.00000000000E+00 -0.10727752378E+04  0.10727752378E+04  0.25500000920E-02 0.  1.
    10030    2    1    2    0    0  0.00000000000E+00  0.00000000000E+00  0.62243839204E+03  0.27679888676E+04  0.26970971098E+04 0.  0.
        3    1    3    3  502    0  0.80650086822E+03  0.40784244976E+03  0.13384289949E+04  0.16149833742E+04  0.10100000352E+00 0. -1.
       -3    1    3    3    0  502 -0.80650086822E+03 -0.40784244976E+03 -0.71599060289E+03  0.11530054934E+04  0.10100000352E+00 0.  1.
</event>
<event>
 5   0  0.7335091E-07  0.2711161E+04  0.7818609E-02  0.8331393E-01
        1   -1    0    0  501    0  0.00000000000E+00  0.00000000000E+00  0.15677840192E+04  0.15677840192E+04  0.50400001928E-02 0.  1.
       -1   -1    0    0    0  501  0.00000000000E+00  0.00000000000E+00 -0.11720990358E+04  0.11720990358E+04  0.50400001928E-02 0. -1.
    10030    2    1    2    0    0  0.00000000000E+00  0.00000000000E+00  0.39568498341E+03  0.27398830550E+04  0.27111607383E+04 0.  0.
        3    1    3    3  502    0  0.21540869932E+03 -0.12758996950E+04  0.60619903175E+03  0.14289150485E+04  0.10100000352E+00 0.  1.
       -3    1    3    3    0  502 -0.21540869932E+03  0.12758996950E+04 -0.21051404834E+03  0.13109680065E+04  0.10100000352E+00 0. -1.
</event>
<event>
 5   0  0.1999104E-06  0.2697853E+04  0.7818609E-02  0.8335702E-01
        2   -1    0    0  501    0  0.00000000000E+00  0.00000000000E+00  0.13309666563E+04  0.13309666563E+04  0.25500000920E-02 0.  1.
       -2   -1    0    0    0  501  0.00000000000E+00  0.00000000000E+00 -0.13671291857E+04  0.13671291857E+04  0.25500000920E-02 0. -1.
    10030    2    1    2    0    0  0.00000000000E+00  0.00000000000E+00 -0.36162529357E+02  0.26980958419E+04  0.26978534882E+04 0.  0.
        4    1    3    3  502    0 -0.97530962376E+03 -0.86115773728E+03  0.33801284683E+03  0.13442751981E+04  0.12699999809E+01 0. -1.
       -4    1    3    3    0  502  0.97530962376E+03  0.86115773728E+03 -0.37417537619E+03  0.13538206439E+04  0.12699999809E+01 0.  1.
</event>
<event>
 5   0  0.7335091E-07  0.2702052E+04  0.7818609E-02  0.8334340E-01
        1   -1    0    0  501    0  0.00000000000E+00  0.00000000000E+00  0.18712850345E+04  0.18712850345E+04  0.50400001928E-02 0.  1.
       -1   -1    0    0    0  501  0.00000000000E+00  0.00000000000E+00 -0.97541032245E+03  0.97541032247E+03  0.50400001928E-02 0. -1.
    10030    2    1    2    0    0  0.00000000000E+00  0.00000000000E+00  0.89587471208E+03  0.28466953570E+04  0.27020516198E+04 0.  0.
        3    1    3    3  502    0  0.59484515955E+01 -0.11904286281E+04  0.11209738973E+04  0.16351569317E+04  0.10100000352E+00 0.  1.
       -3    1    3    3    0  502 -0.59484515955E+01  0.11904286281E+04 -0.22509918521E+03  0.12115384253E+04  0.10100000352E+00 0. -1.
</event>
<event>
 5   0  0.7335091E-07  0.2688258E+04  0.7818609E-02  0.8338825E-01
       -1   -1    0    0    0  501  0.00000000000E+00  0.00000000000E+00  0.12411312475E+04  0.12411312475E+04  0.50400001928E-02 0.  1.
        1   -1    0    0  501    0  0.00000000000E+00  0.00000000000E+00 -0.14556744167E+04  0.14556744167E+04  0.50400001928E-02 0. -1.
    10030    2    1    2    0    0  0.00000000000E+00  0.00000000000E+00 -0.21454316922E+03  0.26968056642E+04  0.26882581757E+04 0.  0.
        3    1    3    3  502    0  0.94165327634E+03 -0.47057944686E+02  0.85377111364E+03  0.12719475098E+04  0.10100000352E+00 0.  1.
       -3    1    3    3    0  502 -0.94165327634E+03  0.47057944686E+02 -0.10683142829E+04  0.14248581544E+04  0.10100000352E+00 0. -1.
</event>
<event>
 5   0  0.1991277E-06  0.2696645E+04  0.7818609E-02  0.8336094E-01
        2   -1    0    0  501    0  0.00000000000E+00  0.00000000000E+00  0.14508252058E+04  0.14508252058E+04  0.25500000920E-02 0.  1.
       -2   -1    0    0    0  501  0.00000000000E+00  0.00000000000E+00 -0.12530621772E+04  0.12530621772E+04  0.25500000920E-02 0. -1.
    10030    2    1    2    0    0  0.00000000000E+00  0.00000000000E+00  0.19776302863E+03  0.27038873830E+04  0.26966454651E+04 0.  0.
        5    1    3    3  502    0  0.13186673390E+04  0.12086254819E+03  0.35345465140E+03  0.13705632372E+04  0.46999998093E+01 0.  1.
       -5    1    3    3    0  502 -0.13186673390E+04 -0.12086254819E+03 -0.15569162277E+03  0.13333241458E+04  0.46999998093E+01 0. -1.
</event>
<event>
 5   0  0.7768032E-07  0.2737582E+04  0.7818609E-02  0.8322913E-01
        1   -1    0    0  501    0  0.00000000000E+00  0.00000000000E+00  0.15035687621E+04  0.15035687621E+04  0.50400001928E-02 0. -1.
       -1   -1    0    0    0  501  0.00000000000E+00  0.00000000000E+00 -0.12460945446E+04  0.12460945446E+04  0.50400001928E-02 0.  1.
    10030    2    1    2    0    0  0.00000000000E+00  0.00000000000E+00  0.25747421746E+03  0.27496633067E+04  0.27375820221E+04 0.  0.
        4    1    3    3  502    0 -0.68276913786E+02  0.24759318162E+03 -0.12216749866E+04  0.12483811542E+04  0.12699999809E+01 0.  1.
       -4    1    3    3    0  502  0.68276913786E+02 -0.24759318162E+03  0.14791492040E+04  0.15012821524E+04  0.12699999809E+01 0. -1.
</event>
<event>
 5   0  0.7335091E-07  0.2699128E+04  0.7818609E-02  0.8335288E-01
        1   -1    0    0  501    0  0.00000000000E+00  0.00000000000E+00  0.15445617535E+04  0.15445617535E+04  0.50400001928E-02 0. -1.
       -1   -1    0    0    0  501  0.00000000000E+00  0.00000000000E+00 -0.11791847367E+04  0.11791847367E+04  0.50400001928E-02 0.  1.
    10030    2    1    2    0    0  0.00000000000E+00  0.00000000000E+00  0.36537701684E+03  0.27237464903E+04  0.26991284850E+04 0.  0.
        3    1    3    3  502    0 -0.92866506097E+03  0.65701155580E+03  0.91542457765E+03  0.14601661369E+04  0.10100000352E+00 0. -1.
       -3    1    3    3    0  502  0.92866506097E+03 -0.65701155580E+03 -0.55004756081E+03  0.12635803533E+04  0.10100000352E+00 0.  1.
</event>
<event>
 5   0  0.1932012E-06  0.2700746E+04  0.7818609E-02  0.8334763E-01
       -2   -1    0    0    0  501  0.00000000000E+00  0.00000000000E+00  0.10857943795E+04  0.10857943795E+04  0.25500000920E-02 0. -1.
        2   -1    0    0  501    0  0.00000000000E+00  0.00000000000E+00 -0.16794216534E+04  0.16794216534E+04  0.25500000920E-02 0.  1.
    10030    2    1    2    0    0  0.00000000000E+00  0.00000000000E+00 -0.59362727390E+03  0.27652160328E+04  0.27007455208E+04 0.  0.
        2    1    3    3  502    0  0.56152403635E+03  0.12182126728E+04 -0.45594325230E+03  0.14167694268E+04  0.25500000920E-02 0.  1.
       -2    1    3    3    0  502 -0.56152403635E+03 -0.12182126728E+04 -0.13768402160E+03  0.13484466060E+04  0.25500000920E-02 0. -1.
</event>
<event>
 5   0  0.7566905E-07  0.2706668E+04  0.7818609E-02  0.8332845E-01
       -1   -1    0    0    0  501  0.00000000000E+00  0.00000000000E+00  0.80698151368E+03  0.80698151369E+03  0.50400001928E-02 0. -1.
        1   -1    0    0  501    0  0.00000000000E+00  0.00000000000E+00 -0.22695846755E+04  0.22695846755E+04  0.50400001928E-02 0.  1.
    10030    2    1    2    0    0  0.00000000000E+00  0.00000000000E+00 -0.14626031618E+04  0.30765661892E+04  0.27066679714E+04 0.  0.
        1    1    3    3  502    0 -0.10709741343E+04 -0.82369481284E+03 -0.81974333746E+03  0.15803284090E+04  0.50400001928E-02 0. -1.
       -1    1    3    3    0  502  0.10709741343E+04  0.82369481284E+03 -0.64285982432E+03  0.14962377801E+04  0.50400001928E-02 0.  1.
</event>
<event>
 5   0  0.2030645E-06  0.2697508E+04  0.7818609E-02  0.8335814E-01
        2   -1    0    0  501    0  0.00000000000E+00  0.00000000000E+00  0.18828783295E+04  0.18828783295E+04  0.25500000920E-02 0.  1.
       -2   -1    0    0    0  501  0.00000000000E+00  0.00000000000E+00 -0.96614725961E+03  0.96614725961E+03  0.25500000920E-02 0. -1.
    10030    2    1    2    0    0  0.00000000000E+00  0.00000000000E+00  0.91673106986E+03  0.28490255891E+04  0.26975082860E+04 0.  0.
        1    1    3    3  502    0  0.25322639346E+03 -0.12555502327E+03 -0.93451727000E+03  0.97632484255E+03  0.50400001928E-02 0. -1.
       -1    1    3    3    0  502 -0.25322639346E+03  0.12555502327E+03  0.18512483399E+04  0.18727007465E+04  0.50400001928E-02 0.  1.
</event>
<event>
 5   0  0.7436613E-07  0.2703541E+04  0.7818609E-02  0.8333857E-01
        1   -1    0    0  501    0  0.00000000000E+00  0.00000000000E+00  0.17015001823E+04  0.17015001823E+04  0.50400001928E-02 0. -1.
       -1   -1    0    0    0  501  0.00000000000E+00  0.00000000000E+00 -0.10739252830E+04  0.10739252830E+04  0.50400001928E-02 0.  1.
    10030    2    1    2    0    0  0.00000000000E+00  0.00000000000E+00  0.62757489923E+03  0.27754254653E+04  0.27035414292E+04 0.  0.
        2    1    3    3  502    0  0.75112425195E+03  0.75053913406E+03  0.11725628757E+04  0.15818976993E+04  0.25500000920E-02 0. -1.
       -2    1    3    3    0  502 -0.75112425195E+03 -0.75053913406E+03 -0.54498797648E+03  0.11935277660E+04  0.25500000920E-02 0.  1.
</event>
<event>
 5   0  0.7768032E-07  0.2714619E+04  0.7818609E-02  0.8330277E-01
       -1   -1    0    0    0  501  0.00000000000E+00  0.00000000000E+00  0.82170102098E+03  0.82170102099E+03  0.50400001928E-02 0.  1.
        1   -1    0    0  501    0  0.00000000000E+00  0.00000000000E+00 -0.22420438072E+04  0.22420438072E+04  0.50400001928E-02 0. -1.
    10030    2    1    2    0    0  0.00000000000E+00  0.00000000000E+00 -0.14203427862E+04  0.30637448282E+04  0.27146194470E+04 0.  0.
        4    1    3    3  502    0  0.47924953230E+03 -0.11621801736E+04 -0.12878002210E+04  0.17996593823E+04  0.12699999809E+01 0. -1.
       -4    1    3    3    0  502 -0.47924953230E+03  0.11621801736E+04 -0.13254256516E+03  0.12640854459E+04  0.12699999809E+01 0.  1.
</event>
<event>
 5   0  0.2063087E-06  0.2703408E+04  0.7818609E-02  0.8333900E-01
       -2   -1    0    0    0  501  0.00000000000E+00  0.00000000000E+00  0.10776657207E+04  0.10776657207E+04  0.25500000920E-02 0. -1.
        2   -1    0    0  501    0  0.00000000000E+00  0.00000000000E+00 -0.16954276900E+04  0.16954276900E+04  0.25500000920E-02 0.  1.
    10030    2    1    2    0    0  0.00000000000E+00  0.00000000000E+00 -0.61776196924E+03  0.27730934107E+04  0.27034084437E+04 0.  0.
        3    1    3    3  502    0  0.10041398239E+04  0.56326328311E+03  0.41757027059E+03  0.12247151723E+04  0.10100000352E+00 0. -1.
       -3    1    3    3    0  502 -0.10041398239E+04 -0.56326328311E+03 -0.10353322398E+04  0.15483782384E+04  0.10100000352E+00 0.  1.
</event>
<event>
 5   0  0.7335091E-07  0.2702920E+04  0.7818609E-02  0.8334058E-01
       -1   -1    0    0    0  501  0.00000000000E+00  0.00000000000E+00  0.12009095830E+04  0.12009095830E+04  0.50400001928E-02 0.  1.
        1   -1    0    0  501    0  0.00000000000E+00  0.00000000000E+00 -0.15208836191E+04  0.15208836191E+04  0.50400001928E-02 0. -1.
    10030    2    1    2    0    0  0.00000000000E+00  0.00000000000E+00 -0.31997403605E+03  0.27217932021E+04  0.27029196901E+04 0.  0.
        3    1    3    3  502    0  0.16089319454E+03 -0.11122583561E+03  0.11865810626E+04  0.12025940440E+04  0.10100000352E+00 0.  1.
       -3    1    3    3    0  502 -0.16089319454E+03  0.11122583561E+03 -0.15065550986E+04  0.15191991581E+04  0.10100000352E+00 0. -1.
</event>
<event>
 5   0  0.1932012E-06  0.2699578E+04  0.7818609E-02  0.8335142E-01
       -2   -1    0    0    0  501  0.00000000000E+00  0.00000000000E+00  0.11139896681E+04  0.11139896681E+04  0.25500000920E-02 0. -1.
        2   -1    0    0  501    0  0.00000000000E+00  0.00000000000E+00 -0.16354996956E+04  0.16354996956E+04  0.25500000920E-02 0.  1.
    10030    2    1    2    0    0  0.00000000000E+00  0.00000000000E+00 -0.52151002749E+03  0.27494893637E+04  0.26995775692E+04 0.  0.
        2    1    3    3  502    0 -0.86289306059E+03 -0.13608906200E+03  0.78726203158E+03  0.11759618077E+04  0.25500000920E-02 0. -1.
       -2    1    3    3    0  502  0.86289306059E+03  0.13608906200E+03 -0.13087720591E+04  0.15735275560E+04  0.25500000920E-02 0.  1.
</event>
<event>
 5   0  0.2063087E-06  0.2701279E+04  0.7818609E-02  0.8334590E-01
       -2   -1    0    0    0  501  0.00000000000E+00  0.00000000000E+00  0.96187672326E+03  0.96187672326E+03  0.25500000920E-02 0. -1.
        2   -1    0    0  501    0  0.00000000000E+00  0.00000000000E+00 -0.18965295634E+04  0.18965295634E+04  0.25500000920E-02 0.  1.
    10030    2    1    2    0    0  0.00000000000E+00  0.00000000000E+00 -0.93465284018E+03  0.28584062867E+04  0.27012794317E+04 0.  0.
        3    1    3    3  502    0 -0.29327582881E+03 -0.61605123236E+03 -0.17007603260E+04  0.18325161743E+04  0.10100000352E+00 0.  1.
       -3    1    3    3    0  502  0.29327582881E+03  0.61605123236E+03  0.76610748579E+03  0.10258901124E+04  0.10100000352E+00 0. -1.
</event>
<event>
 5   0  0.1932012E-06  0.2699856E+04  0.7818609E-02  0.8335052E-01
       -2   -1    0    0    0  501  0.00000000000E+00  0.00000000000E+00  0.98547575738E+03  0.98547575738E+03  0.25500000920E-02 0.  1.
        2   -1    0    0  501    0  0.00000000000E+00  0.00000000000E+00 -0.18491629787E+04  0.18491629787E+04  0.25500000920E-02 0. -1.
    10030    2    1    2    0    0  0.00000000000E+00  0.00000000000E+00 -0.86368722136E+03  0.28346387361E+04  0.26998557643E+04 0.  0.
        2    1    3    3  502    0  0.80233051604E+03  0.34298717536E+03  0.64959205579E+03  0.10878162981E+04  0.25500000920E-02 0.  1.
       -2    1    3    3    0  502 -0.80233051604E+03 -0.34298717536E+03 -0.15132792771E+04  0.17468224380E+04  0.25500000920E-02 0. -1.
</event>
<event>
 5   0  0.1932012E-06  0.2693127E+04  0.7818609E-02  0.8337238E-01
       -2   -1    0    0    0  501  0.00000000000E+00  0.00000000000E+00  0.13360118108E+04  0.13360118108E+04  0.25500000920E-02 0.  1.
        2   -1    0    0  501    0  0.00000000000E+00  0.00000000000E+00 -0.13571987061E+04  0.13571987061E+04  0.25500000920E-02 0. -1.
    10030    2    1    2    0    0  0.00000000000E+00  0.00000000000E+00 -0.21186895291E+02  0.26932105169E+04  0.26931271793E+04 0.  0.
        2    1    3    3  502    0  0.12234178155E+04 -0.56153481211E+03  0.23481122011E+02  0.13463372013E+04  0.25500000920E-02 0. -1.
       -2    1    3    3    0  502 -0.12234178155E+04  0.56153481211E+03 -0.44668017302E+02  0.13468733156E+04  0.25500000920E-02 0.  1.
</event>
<event>
 5   0  0.7806808E-07  0.2698458E+04  0.7818609E-02  0.8335505E-01
       -1   -1    0    0    0  501  0.00000000000E+00  0.00000000000E+00  0.89493685541E+03  0.89493685542E+03  0.50400001928E-02 0. -1.
        1   -1    0    0  501    0  0.00000000000E+00  0.00000000000E+00 -0.20341314403E+04  0.20341314403E+04  0.50400001928E-02 0.  1.
    10030    2    1    2    0    0  0.00000000000E+00  0.00000000000E+00 -0.11391945849E+04  0.29290682957E+04  0.26984582225E+04 0.  0.
        5    1    3    3  502    0  0.32154762203E+03 -0.17284535766E+03 -0.19794959849E+04  0.20128822208E+04  0.46999998093E+01 0.  1.
       -5    1    3    3    0  502 -0.32154762203E+03  0.17284535766E+03  0.84030140000E+03  0.91618607485E+03  0.46999998093E+01 0. -1.
</event>
<event>
 5   0  0.7566905E-07  0.2667958E+04  0.7818609E-02  0.8345477E-01
        1   -1    0    0  501    0  0.00000000000E+00  0.00000000000E+00  0.11333708401E+04  0.11333708401E+04  0.50400001928E-02 0.  1.
       -1   -1    0    0    0  501  0.00000000000E+00  0.00000000000E+00 -0.15700950443E+04  0.15700950443E+04  0.50400001928E-02 0. -1.
    10030    2    1    2    0    0  0.00000000000E+00  0.00000000000E+00 -0.43672420421E+03  0.27034658845E+04  0.26679579753E+04 0.  0.
        1    1    3    3  502    0 -0.55469010675E+01  0.61216158635E+02  0.11319350962E+04  0.11336027736E+04  0.50400001928E-02 0.  1.
       -1    1    3    3    0  502  0.55469010675E+01 -0.61216158635E+02 -0.15686593004E+04  0.15698631109E+04  0.50400001928E-02 0. -1.
</event>
<event>
 5   0  0.1932012E-06  0.2698607E+04  0.7818609E-02  0.8335457E-01
       -2   -1    0    0    0  501  0.00000000000E+00  0.00000000000E+00  0.12146090993E+04  0.12146090993E+04  0.25500000920E-02 0.  1.
        2   -1    0    0  501    0  0.00000000000E+00  0.00000000000E+00 -0.14989350381E+04  0.14989350381E+04  0.25500000920E-02 0. -1.
    10030    2    1    2    0    0  0.00000000000E+00  0.00000000000E+00 -0.28432593881E+03  0.27135441374E+04  0.26986071493E+04 0.  0.
        2    1    3    3  502    0  0.26563196179E+03 -0.44969574648E+03  0.11088429050E+04  0.12256913117E+04  0.25500000920E-02 0.  1.
       -2    1    3    3    0  502 -0.26563196179E+03  0.44969574648E+03 -0.13931688438E+04  0.14878528257E+04  0.25500000920E-02 0. -1.
</event>
<event>
 5   0  0.1932012E-06  0.2698676E+04  0.7818609E-02  0.8335435E-01
        2   -1    0    0  501    0  0.00000000000E+00  0.00000000000E+00  0.12390798880E+04  0.12390798880E+04  0.25500000920E-02 0.  1.
       -2   -1    0    0    0  501  0.00000000000E+00  0.00000000000E+00 -0.14694071660E+04  0.14694071660E+04  0.25500000920E-02 0. -1.
    10030    2    1    2    0    0  0.00000000000E+00  0.00000000000E+00 -0.23032727793E+03  0.27084870540E+04  0.26986758728E+04 0.  0.
        2    1    3    3  502    0  0.47326569727E+03 -0.67265010400E+03  0.95843290979E+03  0.12629458520E+04  0.25500000920E-02 0.  1.
       -2    1    3    3    0  502 -0.47326569727E+03  0.67265010400E+03 -0.11887601877E+04  0.14455412019E+04  0.25500000920E-02 0. -1.
</event>
<event>
 5   0  0.2063087E-06  0.2698105E+04  0.7818609E-02  0.8335620E-01
        2   -1    0    0  501    0  0.00000000000E+00  0.00000000000E+00  0.24145664194E+04  0.24145664194E+04  0.25500000920E-02 0. -1.
       -2   -1    0    0    0  501  0.00000000000E+00  0.00000000000E+00 -0.75373473560E+03  0.75373473561E+03  0.25500000920E-02 0.  1.
    10030    2    1    2    0    0  0.00000000000E+00  0.00000000000E+00  0.16608316838E+04  0.31683011550E+04  0.26981049511E+04 0.  0.
        3    1    3    3  502    0 -0.11508675789E+04 -0.11279573282E+03  0.16462780983E+04  0.20118276886E+04  0.10100000352E+00 0. -1.
       -3    1    3    3    0  502  0.11508675789E+04  0.11279573282E+03  0.14553585544E+02  0.11564734664E+04  0.10100000352E+00 0.  1.
</event>
<event>
 5   0  0.7436613E-07  0.2700547E+04  0.7818609E-02  0.8334827E-01
        1   -1    0    0  501    0  0.00000000000E+00  0.00000000000E+00  0.14083946400E+04  0.14083946400E+04  0.50400001928E-02 0.  1.
       -1   -1    0    0    0  501  0.00000000000E+00  0.00000000000E+00 -0.12945509617E+04  0.12945509617E+04  0.50400001928E-02 0. -1.
    10030    2    1    2    0    0  0.00000000000E+00  0.00000000000E+00  0.11384367830E+03  0.27029456017E+04  0.27005470821E+04 0.  0.
        2    1    3    3  502    0 -0.39665780342E+02  0.47143416611E+03  0.13227249144E+04  0.14047863703E+04  0.25500000920E-02 0.  1.
       -2    1    3    3    0  502  0.39665780342E+02 -0.47143416611E+03 -0.12088812361E+04  0.12981592314E+04  0.25500000920E-02 0. -1.
</event>
<event>
 5   0  0.7566905E-07  0.2696982E+04  0.7818609E-02  0.8335985E-01
        1   -1    0    0  501    0  0.00000000000E+00  0.00000000000E+00  0.20949397288E+04  0.20949397288E+04  0.50400001928E-02 0.  1.
       -1   -1    0    0    0  501  0.00000000000E+00  0.00000000000E+00 -0.86800991865E+03  0.86800991867E+03  0.50400001928E-02 0. -1.
    10030    2    1    2    0    0  0.00000000000E+00  0.00000000000E+00  0.12269298101E+04  0.29629496475E+04  0.26969823608E+04 0.  0.
        1    1    3    3  502    0 -0.65442366442E+03 -0.71369345411E+03 -0.41759705653E+03  0.10545216833E+04  0.50400001928E-02 0. -1.
       -1    1    3    3    0  502  0.65442366442E+03  0.71369345411E+03  0.16445268667E+04  0.19084279641E+04  0.50400001928E-02 0.  1.
</event>
<event>
 5   0  0.1932012E-06  0.2693192E+04  0.7818609E-02  0.8337217E-01
       -2   -1    0    0    0  501  0.00000000000E+00  0.00000000000E+00  0.18357021078E+04  0.18357021078E+04  0.25500000920E-02 0. -1.
        2   -1    0    0  501    0  0.00000000000E+00  0.00000000000E+00 -0.98780766693E+03  0.98780766693E+03  0.25500000920E-02 0.  1.
    10030    2    1    2    0    0  0.00000000000E+00  0.00000000000E+00  0.84789444091E+03  0.28235097748E+04  0.26931918731E+04 0.  0.
        2    1    3    3  502    0 -0.31938301743E+03 -0.11851891704E+04  0.10044945504E+04  0.15860921106E+04  0.25500000920E-02 0. -1.
       -2    1    3    3    0  502  0.31938301743E+03  0.11851891704E+04 -0.15660010952E+03  0.12374176642E+04  0.25500000920E-02 0.  1.
</event>
<event>
 5   0  0.1991277E-06  0.2680097E+04  0.7818609E-02  0.8341492E-01
       -2   -1    0    0    0  501  0.00000000000E+00  0.00000000000E+00  0.97099836862E+03  0.97099836863E+03  0.25500000920E-02 0.  1.
        2   -1    0    0  501    0  0.00000000000E+00  0.00000000000E+00 -0.18493648050E+04  0.18493648050E+04  0.25500000920E-02 0. -1.
    10030    2    1    2    0    0  0.00000000000E+00  0.00000000000E+00 -0.87836643634E+03  0.28203631736E+04  0.26800971688E+04 0.  0.
        5    1    3    3  502    0  0.71935557975E+03 -0.53040016326E+03 -0.14898929685E+04  0.17374118484E+04  0.46999998093E+01 0. -1.
       -5    1    3    3    0  502 -0.71935557975E+03  0.53040016326E+03  0.61152653214E+03  0.10829513252E+04  0.46999998093E+01 0.  1.
</event>
<event>
 5   0  0.7436613E-07  0.2687894E+04  0.7818609E-02  0.8338944E-01
       -1   -1    0    0    0  501  0.00000000000E+00  0.00000000000E+00  0.14983239928E+04  0.14983239928E+04  0.50400001928E-02 0. -1.
        1   -1    0    0  501    0  0.00000000000E+00  0.00000000000E+00 -0.12054755080E+04  0.12054755080E+04  0.50400001928E-02 0.  1.
    10030    2    1    2    0    0  0.00000000000E+00  0.00000000000E+00  0.29284848482E+03  0.27037995008E+04  0.26878935071E+04 0.  0.
        2    1    3    3  502    0  0.11210748441E+04 -0.67906537559E+03  0.44525846267E+03  0.13842664805E+04  0.25500000920E-02 0. -1.
       -2    1    3    3    0  502 -0.11210748441E+04  0.67906537559E+03 -0.15240997786E+03  0.13195330203E+04  0.25500000920E-02 0.  1.
</event>
<event>
 5   0  0.7806808E-07  0.2703345E+04  0.7818609E-02  0.8333920E-01
        1   -1    0    0  501    0  0.00000000000E+00  0.00000000000E+00  0.17142785140E+04  0.17142785140E+04  0.50400001928E-02 0. -1.
       -1   -1    0    0    0  501  0.00000000000E+00  0.00000000000E+00 -0.10657656613E+04  0.10657656613E+04  0.50400001928E-02 0.  1.
    10030    2    1    2    0    0  0.00000000000E+00  0.00000000000E+00  0.64851285268E+03  0.27800441753E+04  0.27033454638E+04 0.  0.
        5    1    3    3  502    0  0.11749991327E+03 -0.13357784659E+04  0.49903953125E+03  0.14307944937E+04  0.46999998093E+01 0. -1.
       -5    1    3    3    0  502 -0.11749991327E+03  0.13357784659E+04  0.14947332143E+03  0.13492496816E+04  0.46999998093E+01 0.  1.
</event>
<event>
 5   0  0.1999104E-06  0.2698856E+04  0.7818609E-02  0.8335376E-01
        2   -1    0    0  501    0  0.00000000000E+00  0.00000000000E+00  0.99336611173E+03  0.99336611173E+03  0.25500000920E-02 0.  1.
       -2   -1    0    0    0  501  0.00000000000E+00  0.00000000000E+00 -0.18331169276E+04  0.18331169276E+04  0.25500000920E-02 0. -1.
    10030    2    1    2    0    0  0.00000000000E+00  0.00000000000E+00 -0.83975081583E+03  0.28264830393E+04  0.26988562279E+04 0.  0.
        4    1    3    3  502    0  0.45335142166E+03  0.29266132228E+03 -0.17152059959E+04  0.17980854769E+04  0.12699999809E+01 0. -1.
       -4    1    3    3    0  502 -0.45335142166E+03 -0.29266132228E+03  0.87545518006E+03  0.10283975624E+04  0.12699999809E+01 0.  1.
</event>
<event>
 5   0  0.7335091E-07  0.2709205E+04  0.7818609E-02  0.8332024E-01
        1   -1    0    0  501    0  0.00000000000E+00  0.00000000000E+00  0.12514562197E+04  0.12514562197E+04  0.50400001928E-02 0. -1.
       -1   -1    0    0    0  501  0.00000000000E+00  0.00000000000E+00 -0.14662504552E+04  0.14662504552E+04  0.50400001928E-02 0.  1.
    10030    2    1    2    0    0  0.00000000000E+00  0.00000000000E+00 -0.21479423556E+03  0.27177066749E+04  0.27092052353E+04 0.  0.
        3    1    3    3  502    0 -0.11311746635E+04  0.21136933142E+03  0.60948877799E+03  0.13021941846E+04  0.10100000352E+00 0. -1.
       -3    1    3    3    0  502  0.11311746635E+04 -0.21136933142E+03 -0.82428301355E+03  0.14155124903E+04  0.10100000352E+00 0.  1.
</event>
<event>
 5   0  0.7436613E-07  0.2703880E+04  0.7818609E-02  0.8333747E-01
       -1   -1    0    0    0  501  0.00000000000E+00  0.00000000000E+00  0.65740566398E+03  0.65740566400E+03  0.50400001928E-02 0. -1.
        1   -1    0    0  501    0  0.00000000000E+00  0.00000000000E+00 -0.27802343639E+04  0.27802343639E+04  0.50400001928E-02 0.  1.
    10030    2    1    2    0    0  0.00000000000E+00  0.00000000000E+00 -0.21228287000E+04  0.34376400280E+04  0.27038800403E+04 0.  0.
        2    1    3    3  502    0 -0.90462915363E+03 -0.59170148802E+03 -0.20937169623E+04  0.23562926972E+04  0.25500000920E-02 0. -1.
       -2    1    3    3    0  502  0.90462915363E+03  0.59170148802E+03 -0.29111737664E+02  0.10813473308E+04  0.25500000920E-02 0.  1.
</event>
<event>
 5   0  0.1932012E-06  0.2694828E+04  0.7818609E-02  0.8336685E-01
        2   -1    0    0  501    0  0.00000000000E+00  0.00000000000E+00  0.95813935952E+03  0.95813935953E+03  0.25500000920E-02 0. -1.
       -2   -1    0    0    0  501  0.00000000000E+00  0.00000000000E+00 -0.18948444200E+04  0.18948444200E+04  0.25500000920E-02 0.  1.
    10030    2    1    2    0    0  0.00000000000E+00  0.00000000000E+00 -0.93670506052E+03  0.28529837796E+04  0.26948283946E+04 0.  0.
        2    1    3    3  502    0  0.11430632385E+04  0.65561783852E+03 -0.76609951658E+03  0.15242495815E+04  0.25500000920E-02 0.  1.
       -2    1    3    3    0  502 -0.11430632385E+04 -0.65561783852E+03 -0.17060554394E+03  0.13287341981E+04  0.25500000920E-02 0. -1.
</event>
<event>
 5   0  0.1991277E-06  0.2706798E+04  0.7818609E-02  0.8332803E-01
        2   -1    0    0  501    0  0.00000000000E+00  0.00000000000E+00  0.22871017502E+04  0.22871017502E+04  0.25500000920E-02 0.  1.
       -2   -1    0    0    0  501  0.00000000000E+00  0.00000000000E+00 -0.80087771681E+03  0.80087771682E+03  0.25500000920E-02 0. -1.
    10030    2    1    2    0    0  0.00000000000E+00  0.00000000000E+00  0.14862240334E+04  0.30879794671E+04  0.27067979813E+04 0.  0.
        5    1    3    3  502    0  0.28057852965E+03 -0.16694476182E+03 -0.75526863716E+03  0.82282906431E+03  0.46999998093E+01 0. -1.
       -5    1    3    3    0  502 -0.28057852965E+03  0.16694476182E+03  0.22414926706E+04  0.22651504027E+04  0.46999998093E+01 0.  1.
</event>
<event>
 5   0  0.7768032E-07  0.2626962E+04  0.7818609E-02  0.8359100E-01
       -1   -1    0    0    0  501  0.00000000000E+00  0.00000000000E+00  0.13739622609E+04  0.13739622610E+04  0.50400001928E-02 0.  1.
        1   -1    0    0  501    0  0.00000000000E+00  0.00000000000E+00 -0.12556619358E+04  0.12556619358E+04  0.50400001928E-02 0. -1.
    10030    2    1    2    0    0  0.00000000000E+00  0.00000000000E+00  0.11830032511E+03  0.26296241968E+04  0.26269618287E+04 0.  0.
        4    1    3    3  502    0 -0.51155012404E+03  0.76340864159E+03  0.99858636090E+03  0.13570750224E+04  0.12699999809E+01 0.  1.
       -4    1    3    3    0  502  0.51155012404E+03 -0.76340864159E+03 -0.88028603579E+03  0.12725491744E+04  0.12699999809E+01 0. -1.
</event>
<event>
 5   0  0.1991277E-06  0.2705648E+04  0.7818609E-02  0.8333175E-01
        2   -1    0    0  501    0  0.00000000000E+00  0.00000000000E+00  0.11391579817E+04  0.11391579817E+04  0.25500000920E-02 0. -1.
       -2   -1    0    0    0  501  0.00000000000E+00  0.00000000000E+00 -0.16065663208E+04  0.16065663208E+04  0.25500000920E-02 0.  1.
    10030    2    1    2    0    0  0.00000000000E+00  0.00000000000E+00 -0.46740833908E+03  0.27457243026E+04  0.27056480536E+04 0.  0.
        5    1    3    3  502    0  0.10691931725E+04  0.29130150365E+03  0.55372732150E+03  0.12388166300E+04  0.46999998093E+01 0. -1.
       -5    1    3    3    0  502 -0.10691931725E+04 -0.29130150365E+03 -0.10211356606E+04  0.15069076725E+04  0.46999998093E+01 0.  1.
</event>
<event>
 5   0  0.7335091E-07  0.2696715E+04  0.7818609E-02  0.8336072E-01
        1   -1    0    0  501    0  0.00000000000E+00  0.00000000000E+00  0.20208068552E+04  0.20208068552E+04  0.50400001928E-02 0. -1.
       -1   -1    0    0    0  501  0.00000000000E+00  0.00000000000E+00 -0.89967445459E+03  0.89967445460E+03  0.50400001928E-02 0.  1.
    10030    2    1    2    0    0  0.00000000000E+00  0.00000000000E+00  0.11211324006E+04  0.29204813098E+04  0.26967152651E+04 0.  0.
        3    1    3    3  502    0  0.11044539848E+04  0.31834032998E+03 -0.20284376290E+03  0.11671781238E+04  0.10100000352E+00 0.  1.
       -3    1    3    3    0  502 -0.11044539848E+04 -0.31834032998E+03  0.13239761635E+04  0.17533031860E+04  0.10100000352E+00 0. -1.
</event>
<event>
 5   0  0.1932012E-06  0.2700611E+04  0.7818609E-02  0.8334807E-01
       -2   -1    0    0    0  501  0.00000000000E+00  0.00000000000E+00  0.84336060237E+03  0.84336060238E+03  0.25500000920E-02 0.  1.
        2   -1    0    0  501    0  0.00000000000E+00  0.00000000000E+00 -0.21619752221E+04  0.21619752221E+04  0.25500000920E-02 0. -1.
    10030    2    1    2    0    0  0.00000000000E+00  0.00000000000E+00 -0.13186146197E+04  0.30053358245E+04  0.27006108388E+04 0.  0.
        2    1    3    3  502    0 -0.12968355281E+04 -0.34700710022E+03 -0.82106480790E+03  0.15736402808E+04  0.25500000920E-02 0. -1.
       -2    1    3    3    0  502  0.12968355281E+04  0.34700710022E+03 -0.49754981181E+03  0.14316955437E+04  0.25500000920E-02 0.  1.
</event>
<event>
 5   0  0.2063087E-06  0.2701359E+04  0.7818609E-02  0.8334564E-01
        2   -1    0    0  501    0  0.00000000000E+00  0.00000000000E+00  0.71139899949E+03  0.71139899949E+03  0.25500000920E-02 0.  1.
       -2   -1    0    0    0  501  0.00000000000E+00  0.00000000000E+00 -0.25644332825E+04  0.25644332825E+04  0.25500000920E-02 0. -1.
    10030    2    1    2    0    0  0.00000000000E+00  0.00000000000E+00 -0.18530342830E+04  0.32758322820E+04  0.27013591182E+04 0.  0.
        3    1    3    3  502    0  0.36450122787E+03 -0.99331779878E+02 -0.24990568803E+04  0.25274519281E+04  0.10100000352E+00 0. -1.
       -3    1    3    3    0  502 -0.36450122787E+03  0.99331779878E+02  0.64602259732E+03  0.74838035387E+03  0.10100000352E+00 0.  1.
</event>
<event>
 5   0  0.2030645E-06  0.2695957E+04  0.7818609E-02  0.8336318E-01
       -2   -1    0    0    0  501  0.00000000000E+00  0.00000000000E+00  0.10155218789E+04  0.10155218789E+04  0.25500000920E-02 0. -1.
        2   -1    0    0  501    0  0.00000000000E+00  0.00000000000E+00 -0.17892736414E+04  0.17892736414E+04  0.25500000920E-02 0.  1.
    10030    2    1    2    0    0  0.00000000000E+00  0.00000000000E+00 -0.77375176242E+03  0.28047955203E+04  0.26959573663E+04 0.  0.
        1    1    3    3  502    0 -0.13070091392E+04 -0.27621832878E+03 -0.57436524714E+03  0.14541199717E+04  0.50400001928E-02 0.  1.
       -1    1    3    3    0  502  0.13070091392E+04  0.27621832878E+03 -0.19938651527E+03  0.13506755486E+04  0.50400001928E-02 0. -1.
</event>
<event>
 5   0  0.7566905E-07  0.2700253E+04  0.7818609E-02  0.8334923E-01
        1   -1    0    0  501    0  0.00000000000E+00  0.00000000000E+00  0.13554140961E+04  0.13554140961E+04  0.50400001928E-02 0.  1.
       -1   -1    0    0    0  501  0.00000000000E+00  0.00000000000E+00 -0.13448596811E+04  0.13448596811E+04  0.50400001928E-02 0. -1.
    10030    2    1    2    0    0  0.00000000000E+00  0.00000000000E+00  0.10554415049E+02  0.27002737772E+04  0.27002531504E+04 0.  0.
        1    1    3    3  502    0 -0.66628664721E+03 -0.11455899978E+04 -0.25265388058E+03  0.13491287272E+04  0.50400001928E-02 0. -1.
       -1    1    3    3    0  502  0.66628664721E+03  0.11455899978E+04  0.26320829562E+03  0.13511450500E+04  0.50400001928E-02 0.  1.
</event>
<event>
 5   0  0.2063087E-06  0.2698642E+04  0.7818609E-02  0.8335446E-01
       -2   -1    0    0    0  501  0.00000000000E+00  0.00000000000E+00  0.70889100465E+03  0.70889100465E+03  0.25500000920E-02 0.  1.
        2   -1    0    0  501    0  0.00000000000E+00  0.00000000000E+00 -0.25683314466E+04  0.25683314466E+04  0.25500000920E-02 0. -1.
    10030    2    1    2    0    0  0.00000000000E+00  0.00000000000E+00 -0.18594404419E+04  0.32772224513E+04  0.26986419247E+04 0.  0.
        3    1    3    3  502    0  0.61457879174E+03  0.61223504910E+03  0.32536249683E+03  0.92649857591E+03  0.10100000352E+00 0.  1.
       -3    1    3    3    0  502 -0.61457879174E+03 -0.61223504910E+03 -0.21848029388E+04  0.23507238753E+04  0.10100000352E+00 0. -1.
</event>
<event>
 5   0  0.7768032E-07  0.2704211E+04  0.7818609E-02  0.8333640E-01
       -1   -1    0    0    0  501  0.00000000000E+00  0.00000000000E+00  0.67953626580E+03  0.67953626582E+03  0.50400001928E-02 0. -1.
        1   -1    0    0  501    0  0.00000000000E+00  0.00000000000E+00 -0.26903478885E+04  0.26903478885E+04  0.50400001928E-02 0.  1.
    10030    2    1    2    0    0  0.00000000000E+00  0.00000000000E+00 -0.20108116227E+04  0.33698841543E+04  0.27042107595E+04 0.  0.
        4    1    3    3  502    0  0.54830045052E+03 -0.86202624133E+03 -0.21091314818E+04  0.23435357571E+04  0.12699999809E+01 0.  1.
       -4    1    3    3    0  502 -0.54830045052E+03  0.86202624133E+03  0.98319859065E+02  0.10263483972E+04  0.12699999809E+01 0. -1.
</event>
<event>
 5   0  0.1991277E-06  0.2699543E+04  0.7818609E-02  0.8335153E-01
        2   -1    0    0  501    0  0.00000000000E+00  0.00000000000E+00  0.24706465578E+04  0.24706465578E+04  0.25500000920E-02 0. -1.
       -2   -1    0    0    0  501  0.00000000000E+00  0.00000000000E+00 -0.73741158607E+03  0.73741158607E+03  0.25500000920E-02 0.  1.
    10030    2    1    2    0    0  0.00000000000E+00  0.00000000000E+00  0.17332349717E+04  0.32080581438E+04  0.26995432182E+04 0.  0.
        5    1    3    3  502    0 -0.31977865674E+03 -0.99132762146E+03 -0.15349511059E+03  0.10528873070E+04  0.46999998093E+01 0.  1.
       -5    1    3    3    0  502  0.31977865674E+03  0.99132762146E+03  0.18867300823E+04  0.21551708368E+04  0.46999998093E+01 0. -1.
</event>
<event>
 5   0  0.7768032E-07  0.2698662E+04  0.7818609E-02  0.8335439E-01
       -1   -1    0    0    0  501  0.00000000000E+00  0.00000000000E+00  0.13493607909E+04  0.13493607909E+04  0.50400001928E-02 0. -1.
        1   -1    0    0  501    0  0.00000000000E+00  0.00000000000E+00 -0.13493015142E+04  0.13493015142E+04  0.50400001928E-02 0.  1.
    10030    2    1    2    0    0  0.00000000000E+00  0.00000000000E+00  0.59276647443E-01  0.26986623051E+04  0.26986623045E+04 0.  0.
        4    1    3    3  502    0  0.35267025423E+03 -0.24621655290E+03  0.12789721887E+04  0.13493592448E+04  0.12699999809E+01 0. -1.
       -4    1    3    3    0  502 -0.35267025423E+03  0.24621655290E+03 -0.12789129120E+04  0.13493030603E+04  0.12699999809E+01 0.  1.
</event>
<event>
 5   0  0.7335091E-07  0.2701287E+04  0.7818609E-02  0.8334588E-01
       -1   -1    0    0    0  501  0.00000000000E+00  0.00000000000E+00  0.78617683591E+03  0.78617683593E+03  0.50400001928E-02 0. -1.
        1   -1    0    0  501    0  0.00000000000E+00  0.00000000000E+00 -0.23203905007E+04  0.23203905007E+04  0.50400001928E-02 0.  1.
    10030    2    1    2    0    0  0.00000000000E+00  0.00000000000E+00 -0.15342136648E+04  0.31065673366E+04  0.27012865542E+04 0.  0.
        3    1    3    3  502    0 -0.12501364472E+04  0.47846934511E+03 -0.55989918302E+03  0.14509518105E+04  0.10100000352E+00 0.  1.
       -3    1    3    3    0  502  0.12501364472E+04 -0.47846934511E+03 -0.97431448178E+03  0.16556155262E+04  0.10100000352E+00 0. -1.
</event>
<event>
 5   0  0.2030645E-06  0.2712815E+04  0.7818609E-02  0.8330859E-01
        2   -1    0    0  501    0  0.00000000000E+00  0.00000000000E+00  0.13054441413E+04  0.13054441413E+04  0.25500000920E-02 0. -1.
       -2   -1    0    0    0  501  0.00000000000E+00  0.00000000000E+00 -0.14093602536E+04  0.14093602536E+04  0.25500000920E-02 0.  1.
    10030    2    1    2    0    0  0.00000000000E+00  0.00000000000E+00 -0.10391611232E+03  0.27148043949E+04  0.27128148378E+04 0.  0.
        1    1    3    3  502    0  0.33878207054E+03  0.10576687925E+04 -0.83124895876E+03  0.13872315587E+04  0.50400001928E-02 0.  1.
       -1    1    3    3    0  502 -0.33878207054E+03 -0.10576687925E+04  0.72733284644E+03  0.13275728362E+04  0.50400001928E-02 0. -1.
</event>
<event>
 5   0  0.1999104E-06  0.2700918E+04  0.7818609E-02  0.8334707E-01
        2   -1    0    0  501    0  0.00000000000E+00  0.00000000000E+00  0.29438990746E+04  0.29438990746E+04  0.25500000920E-02 0. -1.
       -2   -1    0    0    0  501  0.00000000000E+00  0.00000000000E+00 -0.61949786160E+03  0.61949786161E+03  0.25500000920E-02 0.  1.
    10030    2    1    2    0    0  0.00000000000E+00  0.00000000000E+00  0.23244012129E+04  0.35633969362E+04  0.27009177562E+04 0.  0.
        4    1    3    3  502    0 -0.10879666899E+04  0.75325706239E+03  0.80654474644E+03  0.15497044109E+04  0.12699999809E+01 0.  1.
       -4    1    3    3    0  502  0.10879666899E+04 -0.75325706239E+03  0.15178564665E+04  0.20136925252E+04  0.12699999809E+01 0. -1.
</event>
<event>
 5   0  0.2063087E-06  0.2697441E+04  0.7818609E-02  0.8335836E-01
       -2   -1    0    0    0  501  0.00000000000E+00  0.00000000000E+00  0.16166030275E+04  0.16166030275E+04  0.25500000920E-02 0. -1.
        2   -1    0    0  501    0  0.00000000000E+00  0.00000000000E+00 -0.11252276757E+04  0.11252276757E+04  0.25500000920E-02 0.  1.
    10030    2    1    2    0    0  0.00000000000E+00  0.00000000000E+00  0.49137535175E+03  0.27418307032E+04  0.26974406145E+04 0.  0.
        3    1    3    3  502    0 -0.13393688166E+04  0.14666436487E+03  0.30690497157E+03  0.13818863682E+04  0.10100000352E+00 0. -1.
       -3    1    3    3    0  502  0.13393688166E+04 -0.14666436487E+03  0.18447038019E+03  0.13599443350E+04  0.10100000352E+00 0.  1.
</event>
<event>
 5   0  0.7768032E-07  0.2697844E+04  0.7818609E-02  0.8335705E-01
       -1   -1    0    0    0  501  0.00000000000E+00  0.00000000000E+00  0.15261496576E+04  0.15261496576E+04  0.50400001928E-02 0. -1.
        1   -1    0    0  501    0  0.00000000000E+00  0.00000000000E+00 -0.11922755937E+04  0.11922755937E+04  0.50400001928E-02 0.  1.
    10030    2    1    2    0    0  0.00000000000E+00  0.00000000000E+00  0.33387406386E+03  0.27184252513E+04  0.26978443166E+04 0.  0.
        4    1    3    3  502    0  0.59675600037E+02 -0.78965250118E+03  0.12672735838E+04  0.14943547768E+04  0.12699999809E+01 0. -1.
       -4    1    3    3    0  502 -0.59675600037E+02  0.78965250118E+03 -0.93339951993E+03  0.12240704745E+04  0.12699999809E+01 0.  1.
</event>
<event>
 5   0  0.7436613E-07  0.2702039E+04  0.7818609E-02  0.8334344E-01
       -1   -1    0    0    0  501  0.00000000000E+00  0.00000000000E+00  0.66706755039E+03  0.66706755040E+03  0.50400001928E-02 0.  1.
        1   -1    0    0  501    0  0.00000000000E+00  0.00000000000E+00 -0.27362343471E+04  0.27362343471E+04  0.50400001928E-02 0. -1.
    10030    2    1    2    0    0  0.00000000000E+00  0.00000000000E+00 -0.20691667967E+04  0.34033018975E+04  0.27020385957E+04 0.  0.
        2    1    3    3  502    0  0.83243522561E+03  0.28676690437E+03 -0.23252615127E+04  0.24863677854E+04  0.25500000920E-02 0. -1.
       -2    1    3    3    0  502 -0.83243522561E+03 -0.28676690437E+03  0.25609471595E+03  0.91693411205E+03  0.25500000920E-02 0.  1.
</event>
<event>
 5   0  0.1991277E-06  0.2699205E+04  0.7818609E-02  0.8335263E-01
       -2   -1    0    0    0  501  0.00000000000E+00  0.00000000000E+00  0.18164922959E+04  0.18164922959E+04  0.25500000920E-02 0. -1.
        2   -1    0    0  501    0  0.00000000000E+00  0.00000000000E+00 -0.10027168086E+04  0.10027168086E+04  0.25500000920E-02 0.  1.
    10030    2    1    2    0    0  0.00000000000E+00  0.00000000000E+00  0.81377548729E+03  0.28192091046E+04  0.26992053334E+04 0.  0.
        5    1    3    3  502    0  0.75834994794E+03  0.46027321725E+03 -0.65541437338E+03  0.11029669845E+04  0.46999998093E+01 0.  1.
       -5    1    3    3    0  502 -0.75834994794E+03 -0.46027321725E+03  0.14691898607E+04  0.17162421201E+04  0.46999998093E+01 0. -1.
</event>
<event>
 5   0  0.7566905E-07  0.2698287E+04  0.7818609E-02  0.8335561E-01
       -1   -1    0    0    0  501  0.00000000000E+00  0.00000000000E+00  0.17531112775E+04  0.17531112775E+04  0.50400001928E-02 0. -1.
        1   -1    0    0  501    0  0.00000000000E+00  0.00000000000E+00 -0.10382618833E+04  0.10382618833E+04  0.50400001928E-02 0.  1.
    10030    2    1    2    0    0  0.00000000000E+00  0.00000000000E+00  0.71484939421E+03  0.27913731609E+04  0.26982873210E+04 0.  0.
        1    1    3    3  502    0 -0.22608534786E+03 -0.54070381831E+02 -0.10173880524E+04  0.10436075124E+04  0.50400001928E-02 0.  1.
       -1    1    3    3    0  502  0.22608534786E+03  0.54070381831E+02  0.17322374466E+04  0.17477656485E+04  0.50400001928E-02 0. -1.
</event>
<event>
 5   0  0.2063087E-06  0.2699635E+04  0.7818609E-02  0.8335123E-01
        2   -1    0    0  501    0  0.00000000000E+00  0.00000000000E+00  0.12910795758E+04  0.12910795758E+04  0.25500000920E-02 0. -1.
       -2   -1    0    0    0  501  0.00000000000E+00  0.00000000000E+00 -0.14112276940E+04  0.14112276940E+04  0.25500000920E-02 0.  1.
    10030    2    1    2    0    0  0.00000000000E+00  0.00000000000E+00 -0.12014811819E+03  0.27023072698E+04  0.26996349772E+04 0.  0.
        3    1    3    3  502    0  0.29650587138E+03  0.25499370213E+03 -0.13532777120E+04  0.14086511619E+04  0.10100000352E+00 0.  1.
       -3    1    3    3    0  502 -0.29650587138E+03 -0.25499370213E+03  0.12331295939E+04  0.12936561078E+04  0.10100000352E+00 0. -1.
</event>
<event>
 5   0  0.7436613E-07  0.2697331E+04  0.7818609E-02  0.8335872E-01
       -1   -1    0    0    0  501  0.00000000000E+00  0.00000000000E+00  0.82550627565E+03  0.82550627567E+03  0.50400001928E-02 0.  1.
        1   -1    0    0  501    0  0.00000000000E+00  0.00000000000E+00 -0.22033729615E+04  0.22033729615E+04  0.50400001928E-02 0. -1.
    10030    2    1    2    0    0  0.00000000000E+00  0.00000000000E+00 -0.13778666859E+04  0.30288792372E+04  0.26973306860E+04 0.  0.
        2    1    3    3  502    0  0.38780703822E+03  0.30547244734E+03  0.72040187909E+03  0.87331929006E+03  0.25500000920E-02 0.  1.
       -2    1    3    3    0  502 -0.38780703822E+03 -0.30547244734E+03 -0.20982685650E+04  0.21555599471E+04  0.25500000920E-02 0. -1.
</event>
<event>
 5   0  0.7768032E-07  0.2693115E+04  0.7818609E-02  0.8337242E-01
        1   -1    0    0  501    0  0.00000000000E+00  0.00000000000E+00  0.18847453662E+04  0.18847453662E+04  0.50400001928E-02 0. -1.
       -1   -1    0    0    0  501  0.00000000000E+00  0.00000000000E+00 -0.96204866772E+03  0.96204866773E+03  0.50400001928E-02 0.  1.
    10030    2    1    2    0    0  0.00000000000E+00  0.00000000000E+00  0.92269669845E+03  0.28467940339E+04  0.26931147533E+04 0.  0.
        4    1    3    3  502    0  0.10740400900E+03  0.43964788255E+03 -0.87924410963E+03  0.98888710124E+03  0.12699999809E+01 0.  1.
       -4    1    3    3    0  502 -0.10740400900E+03 -0.43964788255E+03  0.18019408081E+04  0.18579069327E+04  0.12699999809E+01 0. -1.
</event>
<event>
 5   0  0.6561875E-07  0.2736815E+04  0.7818609E-02  0.8323158E-01
        3   -1    0    0  501    0  0.00000000000E+00  0.00000000000E+00  0.18472759500E+04  0.18472759527E+04  0.10100000352E+00 0. -1.
       -3   -1    0    0    0  501  0.00000000000E+00  0.00000000000E+00 -0.10136761650E+04  0.10136761700E+04  0.10100000352E+00 0.  1.
    10030    2    1    2    0    0  0.00000000000E+00  0.00000000000E+00  0.83359978497E+03  0.28609521228E+04  0.27368153842E+04 0.  0.
        1    1    3    3  502    0 -0.56458632354E+03  0.10618017492E+04 -0.26577887495E+03  0.12315920922E+04  0.50400001928E-02 0.  1.
       -1    1    3    3    0  502  0.56458632354E+03 -0.10618017492E+04  0.10993786599E+04  0.16293600306E+04  0.50400001928E-02 0. -1.
</event>
<event>
 5   0  0.1999104E-06  0.2698101E+04  0.7818609E-02  0.8335622E-01
        2   -1    0    0  501    0  0.00000000000E+00  0.00000000000E+00  0.14341048732E+04  0.14341048732E+04  0.25500000920E-02 0.  1.
       -2   -1    0    0    0  501  0.00000000000E+00  0.00000000000E+00 -0.12690401678E+04  0.12690401678E+04  0.25500000920E-02 0. -1.
    10030    2    1    2    0    0  0.00000000000E+00  0.00000000000E+00  0.16506470540E+03  0.27031450410E+04  0.26981005829E+04 0.  0.
        4    1    3    3  502    0 -0.57180633272E+03  0.27409954281E+03 -0.11104256010E+04  0.12787257993E+04  0.12699999809E+01 0. -1.
       -4    1    3    3    0  502  0.57180633272E+03 -0.27409954281E+03  0.12754903064E+04  0.14244192417E+04  0.12699999809E+01 0.  1.
</event>
<event>
 5   0  0.7806808E-07  0.2733922E+04  0.7818609E-02  0.8324082E-01
       -1   -1    0    0    0  501  0.00000000000E+00  0.00000000000E+00  0.94212795832E+03  0.94212795833E+03  0.50400001928E-02 0. -1.
        1   -1    0    0  501    0  0.00000000000E+00  0.00000000000E+00 -0.19833640938E+04  0.19833640938E+04  0.50400001928E-02 0.  1.
    10030    2    1    2    0    0  0.00000000000E+00  0.00000000000E+00 -0.10412361355E+04  0.29254920522E+04  0.27339222844E+04 0.  0.
        5    1    3    3  502    0  0.99226521599E+03  0.84118584845E+03 -0.71217654768E+02  0.13027961985E+04  0.46999998093E+01 0. -1.
       -5    1    3    3    0  502 -0.99226521599E+03 -0.84118584845E+03 -0.97001848074E+03  0.16226958537E+04  0.46999998093E+01 0.  1.
</event>
<event>
 5   0  0.1932012E-06  0.2696036E+04  0.7818609E-02  0.8336292E-01
        2   -1    0    0  501    0  0.00000000000E+00  0.00000000000E+00  0.12458752708E+04  0.12458752708E+04  0.25500000920E-02 0.  1.
       -2   -1    0    0    0  501  0.00000000000E+00  0.00000000000E+00 -0.14585350567E+04  0.14585350567E+04  0.25500000920E-02 0. -1.
    10030    2    1    2    0    0  0.00000000000E+00  0.00000000000E+00 -0.21265978586E+03  0.27044103275E+04  0.26960361709E+04 0.  0.
        2    1    3    3  502    0 -0.36286792124E+03  0.12166511373E+04  0.34811109356E+03  0.13164704522E+04  0.25500000920E-02 0.  1.
       -2    1    3    3    0  502  0.36286792124E+03 -0.12166511373E+04 -0.56077087942E+03  0.13879398753E+04  0.25500000920E-02 0. -1.
</event>
<event>
 5   0  0.7768032E-07  0.2687260E+04  0.7818609E-02  0.8339150E-01
        1   -1    0    0  501    0  0.00000000000E+00  0.00000000000E+00  0.15164281499E+04  0.15164281500E+04  0.50400001928E-02 0. -1.
       -1   -1    0    0    0  501  0.00000000000E+00  0.00000000000E+00 -0.11905225250E+04  0.11905225250E+04  0.50400001928E-02 0.  1.
    10030    2    1    2    0    0  0.00000000000E+00  0.00000000000E+00  0.32590562494E+03  0.27069506750E+04  0.26872602182E+04 0.  0.
        4    1    3    3  502    0  0.77503900162E+03  0.49937253382E+03 -0.82159404059E+03  0.12349399831E+04  0.12699999809E+01 0.  1.
       -4    1    3    3    0  502 -0.77503900162E+03 -0.49937253382E+03  0.11474996655E+04  0.14720106918E+04  0.12699999809E+01 0. -1.
</event>
<event>
 5   0  0.7566905E-07  0.2700561E+04  0.7818609E-02  0.8334823E-01
        1   -1    0    0  501    0  0.00000000000E+00  0.00000000000E+00  0.10999914902E+04  0.10999914902E+04  0.50400001928E-02 0. -1.
       -1   -1    0    0    0  501  0.00000000000E+00  0.00000000000E+00 -0.16575196489E+04  0.16575196489E+04  0.50400001928E-02 0.  1.
    10030    2    1    2    0    0  0.00000000000E+00  0.00000000000E+00 -0.55752815869E+03  0.27575111391E+04  0.27005610593E+04 0.  0.
        1    1    3    3  502    0 -0.35810694065E+03 -0.11347905504E+04  0.37286891124E+03  0.12470049716E+04  0.50400001928E-02 0.  1.
       -1    1    3    3    0  502  0.35810694065E+03  0.11347905504E+04 -0.93039706994E+03  0.15105061675E+04  0.50400001928E-02 0. -1.
</event>
<event>
 5   0  0.1932012E-06  0.2701629E+04  0.7818609E-02  0.8334477E-01
       -2   -1    0    0    0  501  0.00000000000E+00  0.00000000000E+00  0.11308207024E+04  0.11308207024E+04  0.25500000920E-02 0. -1.
        2   -1    0    0  501    0  0.00000000000E+00  0.00000000000E+00 -0.16136064563E+04  0.16136064563E+04  0.25500000920E-02 0.  1.
    10030    2    1    2    0    0  0.00000000000E+00  0.00000000000E+00 -0.48278575391E+03  0.27444271587E+04  0.27016288318E+04 0.  0.
        2    1    3    3  502    0 -0.65801365178E+03  0.95179057276E+03  0.46665119442E+03  0.12476580451E+04  0.25500000920E-02 0. -1.
       -2    1    3    3    0  502  0.65801365178E+03 -0.95179057276E+03 -0.94943694833E+03  0.14967691135E+04  0.25500000920E-02 0.  1.
</event>
<event>
 5   0  0.2030645E-06  0.2701766E+04  0.7818609E-02  0.8334432E-01
        2   -1    0    0  501    0  0.00000000000E+00  0.00000000000E+00  0.12150676590E+04  0.12150676590E+04  0.25500000920E-02 0.  1.
       -2   -1    0    0    0  501  0.00000000000E+00  0.00000000000E+00 -0.15018795565E+04  0.15018795565E+04  0.25500000920E-02 0. -1.
    10030    2    1    2    0    0  0.00000000000E+00  0.00000000000E+00 -0.28681189753E+03  0.27169472155E+04  0.27017662939E+04 0.  0.
        1    1    3    3  502    0 -0.12220180974E+04  0.51929637870E+03  0.10676550919E+03  0.13320645004E+04  0.50400001928E-02 0.  1.
       -1    1    3    3    0  502  0.12220180974E+04 -0.51929637870E+03 -0.39357740672E+03  0.13848827150E+04  0.50400001928E-02 0. -1.
</event>
<event>
 5   0  0.7436613E-07  0.2700012E+04  0.7818609E-02  0.8335001E-01
        1   -1    0    0  501    0  0.00000000000E+00  0.00000000000E+00  0.14902144025E+04  0.14902144025E+04  0.50400001928E-02 0.  1.
       -1   -1    0    0    0  501  0.00000000000E+00  0.00000000000E+00 -0.12229892989E+04  0.12229892989E+04  0.50400001928E-02 0. -1.
    10030    2    1    2    0    0  0.00000000000E+00  0.00000000000E+00  0.26722510355E+03  0.27132037014E+04  0.27000120498E+04 0.  0.
        2    1    3    3  502    0  0.79344635049E+03  0.10880835948E+04  0.22912030678E+03  0.13660084683E+04  0.25500000920E-02 0.  1.
       -2    1    3    3    0  502 -0.79344635049E+03 -0.10880835948E+04  0.38104796775E+02  0.13471952331E+04  0.25500000920E-02 0. -1.
</event>
<event>
 5   0  0.7566905E-07  0.2698970E+04  0.7818609E-02  0.8335339E-01
       -1   -1    0    0    0  501  0.00000000000E+00  0.00000000000E+00  0.11285312275E+04  0.11285312275E+04  0.50400001928E-02 0.  1.
        1   -1    0    0  501    0  0.00000000000E+00  0.00000000000E+00 -0.16136986284E+04  0.16136986284E+04  0.50400001928E-02 0. -1.
    10030    2    1    2    0    0  0.00000000000E+00  0.00000000000E+00 -0.48516740085E+03  0.27422298559E+04  0.26989696508E+04 0.  0.
        1    1    3    3  502    0  0.13270758018E+04 -0.38630795507E+02 -0.48830040367E+03  0.14145882108E+04  0.50400001928E-02 0. -1.
       -1    1    3    3    0  502 -0.13270758018E+04  0.38630795507E+02  0.31330028259E+01  0.13276416451E+04  0.50400001928E-02 0.  1.
</event>
<event>
 5   0  0.7566905E-07  0.2696805E+04  0.7818609E-02  0.8336042E-01
       -1   -1    0    0    0  501  0.00000000000E+00  0.00000000000E+00  0.14957093313E+04  0.14957093313E+04  0.50400001928E-02 0. -1.
        1   -1    0    0  501    0  0.00000000000E+00  0.00000000000E+00 -0.12156037051E+04  0.12156037051E+04  0.50400001928E-02 0.  1.
    10030    2    1    2    0    0  0.00000000000E+00  0.00000000000E+00  0.28010562615E+03  0.27113130364E+04  0.26968053729E+04 0.  0.
        1    1    3    3  502    0  0.53202590670E+02  0.19327708442E+03 -0.12005382925E+04  0.12171601122E+04  0.50400001928E-02 0.  1.
       -1    1    3    3    0  502 -0.53202590670E+02 -0.19327708442E+03  0.14806439186E+04  0.14941529242E+04  0.50400001928E-02 0. -1.
</event>
<event>
 5   0  0.1999104E-06  0.2700280E+04  0.7818609E-02  0.8334914E-01
       -2   -1    0    0    0  501  0.00000000000E+00  0.00000000000E+00  0.82158396900E+03  0.82158396901E+03  0.25500000920E-02 0.  1.
        2   -1    0    0  501    0  0.00000000000E+00  0.00000000000E+00 -0.22187363787E+04  0.22187363787E+04  0.25500000920E-02 0. -1.
    10030    2    1    2    0    0  0.00000000000E+00  0.00000000000E+00 -0.13971524097E+04  0.30403203477E+04  0.27002801634E+04 0.  0.
        4    1    3    3  502    0 -0.95868639526E+03  0.73799107772E+03 -0.23802352635E+02  0.12100737995E+04  0.12699999809E+01 0.  1.
       -4    1    3    3    0  502  0.95868639526E+03 -0.73799107772E+03 -0.13733500571E+04  0.18302465483E+04  0.12699999809E+01 0. -1.
</event>
<event>
 5   0  0.7335091E-07  0.2706704E+04  0.7818609E-02  0.8332833E-01
        1   -1    0    0  501    0  0.00000000000E+00  0.00000000000E+00  0.18392372567E+04  0.18392372567E+04  0.50400001928E-02 0. -1.
       -1   -1    0    0    0  501  0.00000000000E+00  0.00000000000E+00 -0.99582676586E+03  0.99582676587E+03  0.50400001928E-02 0.  1.
    10030    2    1    2    0    0  0.00000000000E+00  0.00000000000E+00  0.84341049080E+03  0.28350640225E+04  0.27067040392E+04 0.  0.
        3    1    3    3  502    0 -0.71722845493E+03  0.51467852483E+03  0.14961442880E+04  0.17371696466E+04  0.10100000352E+00 0. -1.
       -3    1    3    3    0  502  0.71722845493E+03 -0.51467852483E+03 -0.65273379719E+03  0.10978943759E+04  0.10100000352E+00 0.  1.
</event>
<event>
 5   0  0.7566905E-07  0.2702202E+04  0.7818609E-02  0.8334291E-01
       -1   -1    0    0    0  501  0.00000000000E+00  0.00000000000E+00  0.14216183717E+04  0.14216183717E+04  0.50400001928E-02 0. -1.
        1   -1    0    0  501    0  0.00000000000E+00  0.00000000000E+00 -0.12840815414E+04  0.12840815414E+04  0.50400001928E-02 0.  1.
    10030    2    1    2    0    0  0.00000000000E+00  0.00000000000E+00  0.13753683030E+03  0.27056999130E+04  0.27022019983E+04 0.  0.
        1    1    3    3  502    0  0.16212007098E+03 -0.13413064960E+04  0.59382039428E+02  0.13523728259E+04  0.50400001928E-02 0. -1.
       -1    1    3    3    0  502 -0.16212007098E+03  0.13413064960E+04  0.78154790872E+02  0.13533270872E+04  0.50400001928E-02 0.  1.
</event>
<event>
 5   0  0.7566905E-07  0.2702041E+04  0.7818609E-02  0.8334343E-01
       -1   -1    0    0    0  501  0.00000000000E+00  0.00000000000E+00  0.97773086317E+03  0.97773086318E+03  0.50400001928E-02 0.  1.
        1   -1    0    0  501    0  0.00000000000E+00  0.00000000000E+00 -0.18668291244E+04  0.18668291244E+04  0.50400001928E-02 0. -1.
    10030    2    1    2    0    0  0.00000000000E+00  0.00000000000E+00 -0.88909826127E+03  0.28445599876E+04  0.27020410443E+04 0.  0.
        1    1    3    3  502    0 -0.10194729464E+02 -0.33602666353E+03  0.93299428993E+03  0.99171376727E+03  0.50400001928E-02 0.  1.
       -1    1    3    3    0  502  0.10194729464E+02  0.33602666353E+03 -0.18220925512E+04  0.18528462204E+04  0.50400001928E-02 0. -1.
</event>
<event>
 5   0  0.1999104E-06  0.2696699E+04  0.7818609E-02  0.8336077E-01
        2   -1    0    0  501    0  0.00000000000E+00  0.00000000000E+00  0.11230119009E+04  0.11230119009E+04  0.25500000920E-02 0.  1.
       -2   -1    0    0    0  501  0.00000000000E+00  0.00000000000E+00 -0.16189021108E+04  0.16189021108E+04  0.25500000920E-02 0. -1.
    10030    2    1    2    0    0  0.00000000000E+00  0.00000000000E+00 -0.49589020994E+03  0.27419140116E+04  0.26966989723E+04 0.  0.
        4    1    3    3  502    0 -0.62125376309E+02 -0.11670918845E+04 -0.93158881500E+03  0.14945977259E+04  0.12699999809E+01 0.  1.
       -4    1    3    3    0  502  0.62125376309E+02  0.11670918845E+04  0.43569860506E+03  0.12473162857E+04  0.12699999809E+01 0. -1.
</event>
<event>
 5   0  0.2063087E-06  0.2699370E+04  0.7818609E-02  0.8335209E-01
        2   -1    0    0  501    0  0.00000000000E+00  0.00000000000E+00  0.99520624298E+03  0.99520624298E+03  0.25500000920E-02 0. -1.
       -2   -1    0    0    0  501  0.00000000000E+00  0.00000000000E+00 -0.18304241254E+04  0.18304241254E+04  0.25500000920E-02 0.  1.
    10030    2    1    2    0    0  0.00000000000E+00  0.00000000000E+00 -0.83521788237E+03  0.28256303683E+04  0.26993699390E+04 0.  0.
        3    1    3    3  502    0  0.65075195235E+01 -0.45128436947E+02 -0.18296177167E+04  0.18301857619E+04  0.10100000352E+00 0.  1.
       -3    1    3    3    0  502 -0.65075195235E+01  0.45128436947E+02  0.99439983436E+03  0.99544460640E+03  0.10100000352E+00 0. -1.
</event>
<event>
 5   0  0.1991277E-06  0.2700139E+04  0.7818609E-02  0.8334960E-01
        2   -1    0    0  501    0  0.00000000000E+00  0.00000000000E+00  0.17840658268E+04  0.17840658268E+04  0.25500000920E-02 0. -1.
       -2   -1    0    0    0  501  0.00000000000E+00  0.00000000000E+00 -0.10216483322E+04  0.10216483322E+04  0.25500000920E-02 0.  1.
    10030    2    1    2    0    0  0.00000000000E+00  0.00000000000E+00  0.76241749458E+03  0.28057141590E+04  0.27001391642E+04 0.  0.
        5    1    3    3  502    0  0.33137047260E+03 -0.56066700921E+03  0.16100346545E+04  0.17367750470E+04  0.46999998093E+01 0. -1.
       -5    1    3    3    0  502 -0.33137047260E+03  0.56066700921E+03 -0.84761715990E+03  0.10689391120E+04  0.46999998093E+01 0.  1.
</event>
<event>
 5   0  0.2063087E-06  0.2698220E+04  0.7818609E-02  0.8335583E-01
       -2   -1    0    0    0  501  0.00000000000E+00  0.00000000000E+00  0.15239689842E+04  0.15239689842E+04  0.25500000920E-02 0. -1.
        2   -1    0    0  501    0  0.00000000000E+00  0.00000000000E+00 -0.11943139210E+04  0.11943139210E+04  0.25500000920E-02 0.  1.
    10030    2    1    2    0    0  0.00000000000E+00  0.00000000000E+00  0.32965506318E+03  0.27182829053E+04  0.26982196894E+04 0.  0.
        3    1    3    3  502    0  0.27809576075E+03  0.58972220885E+03  0.13547058631E+04  0.15034418916E+04  0.10100000352E+00 0. -1.
       -3    1    3    3    0  502 -0.27809576075E+03 -0.58972220885E+03 -0.10250507999E+04  0.12148410136E+04  0.10100000352E+00 0.  1.
</event>
<event>
 5   0  0.7806808E-07  0.2705583E+04  0.7818609E-02  0.8333196E-01
       -1   -1    0    0    0  501  0.00000000000E+00  0.00000000000E+00  0.10230832705E+04  0.10230832705E+04  0.50400001928E-02 0. -1.
        1   -1    0    0  501    0  0.00000000000E+00  0.00000000000E+00 -0.17887550373E+04  0.17887550373E+04  0.50400001928E-02 0.  1.
    10030    2    1    2    0    0  0.00000000000E+00  0.00000000000E+00 -0.76567176679E+03  0.28118383078E+04  0.27055833779E+04 0.  0.
        5    1    3    3  502    0  0.58133851415E+03  0.59618477496E+03  0.72516334512E+03  0.11042077345E+04  0.46999998093E+01 0. -1.
       -5    1    3    3    0  502 -0.58133851415E+03 -0.59618477496E+03 -0.14908351119E+04  0.17076305733E+04  0.46999998093E+01 0.  1.
</event>
<event>
 5   0  0.1991277E-06  0.2783385E+04  0.7818609E-02  0.8308445E-01
       -2   -1    0    0    0  501  0.00000000000E+00  0.00000000000E+00  0.10565874623E+04  0.10565874623E+04  0.25500000920E-02 0. -1.
        2   -1    0    0  501    0  0.00000000000E+00  0.00000000000E+00 -0.18330792641E+04  0.18330792641E+04  0.25500000920E-02 0.  1.
    10030    2    1    2    0    0  0.00000000000E+00  0.00000000000E+00 -0.77649180178E+03  0.28896667264E+04  0.27833853976E+04 0.  0.
        5    1    3    3  502    0 -0.41069809086E+03 -0.20912477039E+03 -0.17515443792E+04  0.18111697583E+04  0.46999998093E+01 0.  1.
       -5    1    3    3    0  502  0.41069809086E+03  0.20912477039E+03  0.97505257737E+03  0.10784969680E+04  0.46999998093E+01 0. -1.
</event>
<event>
 5   0  0.1932012E-06  0.2702749E+04  0.7818609E-02  0.8334113E-01
        2   -1    0    0  501    0  0.00000000000E+00  0.00000000000E+00  0.12592534410E+04  0.12592534410E+04  0.25500000920E-02 0.  1.
       -2   -1    0    0    0  501  0.00000000000E+00  0.00000000000E+00 -0.14502350306E+04  0.14502350306E+04  0.25500000920E-02 0. -1.
    10030    2    1    2    0    0  0.00000000000E+00  0.00000000000E+00 -0.19098158958E+03  0.27094884715E+04  0.27027493058E+04 0.  0.
        2    1    3    3  502    0 -0.51228374882E+03  0.81584152206E+02 -0.13464495195E+04  0.14429195826E+04  0.25500000920E-02 0. -1.
       -2    1    3    3    0  502  0.51228374882E+03 -0.81584152206E+02  0.11554679300E+04  0.12665688889E+04  0.25500000920E-02 0.  1.
</event>
<event>
 5   0  0.1991277E-06  0.2709815E+04  0.7818609E-02  0.8331828E-01
       -2   -1    0    0    0  501  0.00000000000E+00  0.00000000000E+00  0.11908287923E+04  0.11908287923E+04  0.25500000920E-02 0.  1.
        2   -1    0    0  501    0  0.00000000000E+00  0.00000000000E+00 -0.15415933344E+04  0.15415933344E+04  0.25500000920E-02 0. -1.
    10030    2    1    2    0    0  0.00000000000E+00  0.00000000000E+00 -0.35076454206E+03  0.27324221267E+04  0.27098145535E+04 0.  0.
        5    1    3    3  502    0 -0.30046791033E+02  0.39487669223E+03 -0.14819242937E+04  0.15339335429E+04  0.46999998093E+01 0. -1.
       -5    1    3    3    0  502  0.30046791033E+02 -0.39487669223E+03  0.11311597516E+04  0.11984885838E+04  0.46999998093E+01 0.  1.
</event>
<event>
 5   0  0.7566905E-07  0.2696447E+04  0.7818609E-02  0.8336159E-01
       -1   -1    0    0    0  501  0.00000000000E+00  0.00000000000E+00  0.17615283356E+04  0.17615283356E+04  0.50400001928E-02 0. -1.
        1   -1    0    0  501    0  0.00000000000E+00  0.00000000000E+00 -0.10318921000E+04  0.10318921001E+04  0.50400001928E-02 0.  1.
    10030    2    1    2    0    0  0.00000000000E+00  0.00000000000E+00  0.72963623554E+03  0.27934204356E+04  0.26964474210E+04 0.  0.
        1    1    3    3  502    0  0.22524270935E+03  0.84107439950E+03  0.14311895707E+04  0.16752444630E+04  0.50400001928E-02 0. -1.
       -1    1    3    3    0  502 -0.22524270935E+03 -0.84107439950E+03 -0.70155333516E+03  0.11181759726E+04  0.50400001928E-02 0.  1.
</event>
<event>
 5   0  0.1932012E-06  0.2701386E+04  0.7818609E-02  0.8334555E-01
        2   -1    0    0  501    0  0.00000000000E+00  0.00000000000E+00  0.17675734154E+04  0.17675734154E+04  0.25500000920E-02 0. -1.
       -2   -1    0    0    0  501  0.00000000000E+00  0.00000000000E+00 -0.10321337567E+04  0.10321337567E+04  0.25500000920E-02 0.  1.
    10030    2    1    2    0    0  0.00000000000E+00  0.00000000000E+00  0.73543965874E+03  0.27997071721E+04  0.27013864510E+04 0.  0.
        2    1    3    3  502    0  0.70756956609E+03  0.97736358992E+03  0.99683712104E+03  0.15651129428E+04  0.25500000920E-02 0. -1.
       -2    1    3    3    0  502 -0.70756956609E+03 -0.97736358992E+03 -0.26139746230E+03  0.12345942293E+04  0.25500000920E-02 0.  1.
</event>
<event>
 5   0  0.7806808E-07  0.2701737E+04  0.7818609E-02  0.8334442E-01
       -1   -1    0    0    0  501  0.00000000000E+00  0.00000000000E+00  0.14191908750E+04  0.14191908750E+04  0.50400001928E-02 0.  1.
        1   -1    0    0  501    0  0.00000000000E+00  0.00000000000E+00 -0.12858349281E+04  0.12858349281E+04  0.50400001928E-02 0. -1.
    10030    2    1    2    0    0  0.00000000000E+00  0.00000000000E+00  0.13335594694E+03  0.27050258031E+04  0.27017366243E+04 0.  0.
        5    1    3    3  502    0 -0.11873162404E+04  0.25349176902E+03 -0.52636498859E+03  0.13232762837E+04  0.46999998093E+01 0. -1.
       -5    1    3    3    0  502  0.11873162404E+04 -0.25349176902E+03  0.65972093553E+03  0.13817495195E+04  0.46999998093E+01 0.  1.
</event>
<event>
 5   0  0.7335091E-07  0.2697467E+04  0.7818609E-02  0.8335827E-01
       -1   -1    0    0    0  501  0.00000000000E+00  0.00000000000E+00  0.71475257513E+03  0.71475257514E+03  0.50400001928E-02 0. -1.
        1   -1    0    0  501    0  0.00000000000E+00  0.00000000000E+00 -0.25450516023E+04  0.25450516023E+04  0.50400001928E-02 0.  1.
    10030    2    1    2    0    0  0.00000000000E+00  0.00000000000E+00 -0.18302990272E+04  0.32598041774E+04  0.26974670983E+04 0.  0.
        3    1    3    3  502    0  0.49084240559E+03  0.61831360564E+03  0.40636718586E+03  0.88790330667E+03  0.10100000352E+00 0. -1.
       -3    1    3    3    0  502 -0.49084240559E+03 -0.61831360564E+03 -0.22366662130E+04  0.23719008708E+04  0.10100000352E+00 0.  1.
</event>
<event>
 5   0  0.1999104E-06  0.2746341E+04  0.7818609E-02  0.8320123E-01
        2   -1    0    0  501    0  0.00000000000E+00  0.00000000000E+00  0.21919202063E+04  0.21919202063E+04  0.25500000920E-02 0.  1.
       -2   -1    0    0    0  501  0.00000000000E+00  0.00000000000E+00 -0.86024932954E+03  0.86024932954E+03  0.25500000920E-02 0. -1.
    10030    2    1    2    0    0  0.00000000000E+00  0.00000000000E+00  0.13316708768E+04  0.30521695359E+04  0.27463414849E+04 0.  0.
        4    1    3    3  502    0  0.76103815386E+03  0.11162862983E+04  0.39287962076E+03  0.14069933123E+04  0.12699999809E+01 0. -1.
       -4    1    3    3    0  502 -0.76103815386E+03 -0.11162862983E+04  0.93879125601E+03  0.16451762236E+04  0.12699999809E+01 0.  1.
</event>
<event>
 5   0  0.7806808E-07  0.2708081E+04  0.7818609E-02  0.8332388E-01
       -1   -1    0    0    0  501  0.00000000000E+00  0.00000000000E+00  0.87126422513E+03  0.87126422514E+03  0.50400001928E-02 0.  1.
        1   -1    0    0  501    0  0.00000000000E+00  0.00000000000E+00 -0.21043273594E+04  0.21043273594E+04  0.50400001928E-02 0. -1.
    10030    2    1    2    0    0  0.00000000000E+00  0.00000000000E+00 -0.12330631343E+04  0.29755915846E+04  0.27080806090E+04 0.  0.
        5    1    3    3  502    0 -0.29184558536E+03  0.12224479174E+04 -0.11701372948E+04  0.17172059093E+04  0.46999998093E+01 0. -1.
       -5    1    3    3    0  502  0.29184558536E+03 -0.12224479174E+04 -0.62925839542E+02  0.12583856753E+04  0.46999998093E+01 0.  1.
</event>
<event>
 5   0  0.7566905E-07  0.2764524E+04  0.7818609E-02  0.8314368E-01
        1   -1    0    0  501    0  0.00000000000E+00  0.00000000000E+00  0.14351608678E+04  0.14351608678E+04  0.50400001928E-02 0. -1.
       -1   -1    0    0    0  501  0.00000000000E+00  0.00000000000E+00 -0.13313124977E+04  0.13313124977E+04  0.50400001928E-02 0.  1.
    10030    2    1    2    0    0  0.00000000000E+00  0.00000000000E+00  0.10384837012E+03  0.27664733655E+04  0.27645235391E+04 0.  0.
        1    1    3    3  502    0  0.66366917273E+03 -0.15011392688E+03  0.12559588318E+04  0.14284339499E+04  0.50400001928E-02 0. -1.
       -1    1    3    3    0  502 -0.66366917273E+03  0.15011392688E+03 -0.11521104617E+04  0.13380394157E+04  0.50400001928E-02 0.  1.
</event>
<event>
 5   0  0.7806808E-07  0.2706824E+04  0.7818609E-02  0.8332794E-01
        1   -1    0    0  501    0  0.00000000000E+00  0.00000000000E+00  0.20103357177E+04  0.20103357177E+04  0.50400001928E-02 0.  1.
       -1   -1    0    0    0  501  0.00000000000E+00  0.00000000000E+00 -0.91115319127E+03  0.91115319129E+03  0.50400001928E-02 0. -1.
    10030    2    1    2    0    0  0.00000000000E+00  0.00000000000E+00  0.10991825265E+04  0.29214889090E+04  0.27068238249E+04 0.  0.
        5    1    3    3  502    0 -0.61277315926E+03  0.37213094844E+03 -0.68936894220E+03  0.99459741401E+03  0.46999998093E+01 0. -1.
       -5    1    3    3    0  502  0.61277315926E+03 -0.37213094844E+03  0.17885514687E+04  0.19268914950E+04  0.46999998093E+01 0.  1.
</event>
<event>
 5   0  0.1991277E-06  0.2697572E+04  0.7818609E-02  0.8335793E-01
       -2   -1    0    0    0  501  0.00000000000E+00  0.00000000000E+00  0.12348391263E+04  0.12348391263E+04  0.25500000920E-02 0.  1.
        2   -1    0    0  501    0  0.00000000000E+00  0.00000000000E+00 -0.14732473276E+04  0.14732473276E+04  0.25500000920E-02 0. -1.
    10030    2    1    2    0    0  0.00000000000E+00  0.00000000000E+00 -0.23840820128E+03  0.27080864538E+04  0.26975718287E+04 0.  0.
        5    1    3    3  502    0  0.58476015668E+02  0.41830184726E+03  0.11667280518E+04  0.12408353302E+04  0.46999998093E+01 0.  1.
       -5    1    3    3    0  502 -0.58476015668E+02 -0.41830184726E+03 -0.14051362531E+04  0.14672511236E+04  0.46999998093E+01 0. -1.
</event>
<event>
 5   0  0.7566905E-07  0.2700836E+04  0.7818609E-02  0.8334734E-01
        1   -1    0    0  501    0  0.00000000000E+00  0.00000000000E+00  0.17644098997E+04  0.17644098997E+04  0.50400001928E-02 0.  1.
       -1   -1    0    0    0  501  0.00000000000E+00  0.00000000000E+00 -0.10335631858E+04  0.10335631858E+04  0.50400001928E-02 0. -1.
    10030    2    1    2    0    0  0.00000000000E+00  0.00000000000E+00  0.73084671384E+03  0.27979730855E+04  0.27008362535E+04 0.  0.
        1    1    3    3  502    0 -0.29090072959E+03  0.10612431031E+04 -0.44552585576E+03  0.11871619293E+04  0.50400001928E-02 0. -1.
       -1    1    3    3    0  502  0.29090072959E+03 -0.10612431031E+04  0.11763725696E+04  0.16108111562E+04  0.50400001928E-02 0.  1.
</event>
<event>
 5   0  0.6561875E-07  0.2698685E+04  0.7818609E-02  0.8335432E-01
        3   -1    0    0  501    0  0.00000000000E+00  0.00000000000E+00  0.13920106167E+04  0.13920106204E+04  0.10100000352E+00 0.  1.
       -3   -1    0    0    0  501  0.00000000000E+00  0.00000000000E+00 -0.13079826352E+04  0.13079826391E+04  0.10100000352E+00 0. -1.
    10030    2    1    2    0    0  0.00000000000E+00  0.00000000000E+00  0.84027981539E+02  0.26999932594E+04  0.26986854021E+04 0.  0.
        4    1    3    3  502    0  0.83053000961E+03 -0.88570159018E+03 -0.54689399349E+03  0.13316688991E+04  0.12699999809E+01 0. -1.
       -4    1    3    3    0  502 -0.83053000961E+03  0.88570159018E+03  0.63092197503E+03  0.13683243604E+04  0.12699999809E+01 0.  1.
</event>
<event>
 5   0  0.1991277E-06  0.2700199E+04  0.7818609E-02  0.8334940E-01
       -2   -1    0    0    0  501  0.00000000000E+00  0.00000000000E+00  0.13481909815E+04  0.13481909815E+04  0.25500000920E-02 0.  1.
        2   -1    0    0  501    0  0.00000000000E+00  0.00000000000E+00 -0.13520112052E+04  0.13520112052E+04  0.25500000920E-02 0. -1.
    10030    2    1    2    0    0  0.00000000000E+00  0.00000000000E+00 -0.38202237514E+01  0.27002021867E+04  0.27001994843E+04 0.  0.
        5    1    3    3  502    0 -0.37699311335E+03  0.97542437395E+03 -0.85582589604E+03  0.13513092063E+04  0.46999998093E+01 0. -1.
       -5    1    3    3    0  502  0.37699311335E+03 -0.97542437395E+03  0.85200567229E+03  0.13488929803E+04  0.46999998093E+01 0.  1.
</event>
<event>
 5   0  0.7806808E-07  0.2725318E+04  0.7818609E-02  0.8326837E-01
        1   -1    0    0  501    0  0.00000000000E+00  0.00000000000E+00  0.18989030174E+04  0.18989030174E+04  0.50400001928E-02 0.  1.
       -1   -1    0    0    0  501  0.00000000000E+00  0.00000000000E+00 -0.97784854247E+03  0.97784854248E+03  0.50400001928E-02 0. -1.
    10030    2    1    2    0    0  0.00000000000E+00  0.00000000000E+00  0.92105447494E+03  0.28767515599E+04  0.27253179982E+04 0.  0.
        5    1    3    3  502    0 -0.12536667183E+03 -0.58139820919E+03  0.17546508323E+04  0.18527175482E+04  0.46999998093E+01 0.  1.
       -5    1    3    3    0  502  0.12536667183E+03  0.58139820919E+03 -0.83359635738E+03  0.10240340117E+04  0.46999998093E+01 0. -1.
</event>
<event>
 5   0  0.1999104E-06  0.2695668E+04  0.7818609E-02  0.8336412E-01
       -2   -1    0    0    0  501  0.00000000000E+00  0.00000000000E+00  0.16767380668E+04  0.16767380668E+04  0.25500000920E-02 0. -1.
        2   -1    0    0  501    0  0.00000000000E+00  0.00000000000E+00 -0.10834468312E+04  0.10834468312E+04  0.25500000920E-02 0.  1.
    10030    2    1    2    0    0  0.00000000000E+00  0.00000000000E+00  0.59329123559E+03  0.27601848979E+04  0.26956680398E+04 0.  0.
        4    1    3    3  502    0  0.12542577814E+04 -0.30469799441E+03 -0.10078239040E+03  0.12946668116E+04  0.12699999809E+01 0.  1.
       -4    1    3    3    0  502 -0.12542577814E+04  0.30469799441E+03  0.69407362598E+03  0.14655180863E+04  0.12699999809E+01 0. -1.
</event>
<event>
 5   0  0.7768032E-07  0.2702970E+04  0.7818609E-02  0.8334042E-01
        1   -1    0    0  501    0  0.00000000000E+00  0.00000000000E+00  0.19518692520E+04  0.19518692520E+04  0.50400001928E-02 0. -1.
       -1   -1    0    0    0  501  0.00000000000E+00  0.00000000000E+00 -0.93577597263E+03  0.93577597264E+03  0.50400001928E-02 0.  1.
    10030    2    1    2    0    0  0.00000000000E+00  0.00000000000E+00  0.10160932793E+04  0.28876452246E+04  0.27029704754E+04 0.  0.
        4    1    3    3  502    0 -0.44529753919E+03  0.54985916631E+03  0.17381849501E+04  0.18766788577E+04  0.12699999809E+01 0. -1.
       -4    1    3    3    0  502  0.44529753919E+03 -0.54985916631E+03 -0.72209167077E+03  0.10109663669E+04  0.12699999809E+01 0.  1.
</event>
<event>
 5   0  0.7436613E-07  0.2696291E+04  0.7818609E-02  0.8336209E-01
       -1   -1    0    0    0  501  0.00000000000E+00  0.00000000000E+00  0.82840828973E+03  0.82840828974E+03  0.50400001928E-02 0.  1.
        1   -1    0    0  501    0  0.00000000000E+00  0.00000000000E+00 -0.21939623816E+04  0.21939623816E+04  0.50400001928E-02 0. -1.
    10030    2    1    2    0    0  0.00000000000E+00  0.00000000000E+00 -0.13655540918E+04  0.30223706713E+04  0.26962912486E+04 0.  0.
        2    1    3    3  502    0  0.36998863315E+02  0.13074770537E+04 -0.10488128823E+04  0.16765660214E+04  0.25500000920E-02 0. -1.
       -2    1    3    3    0  502 -0.36998863315E+02 -0.13074770537E+04 -0.31674120950E+03  0.13458046499E+04  0.25500000920E-02 0.  1.
</event>
<event>
 5   0  0.7335091E-07  0.2708959E+04  0.7818609E-02  0.8332104E-01
       -1   -1    0    0    0  501  0.00000000000E+00  0.00000000000E+00  0.12137549518E+04  0.12137549518E+04  0.50400001928E-02 0.  1.
        1   -1    0    0  501    0  0.00000000000E+00  0.00000000000E+00 -0.15115203745E+04  0.15115203746E+04  0.50400001928E-02 0. -1.
    10030    2    1    2    0    0  0.00000000000E+00  0.00000000000E+00 -0.29776542271E+03  0.27252753264E+04  0.27089594603E+04 0.  0.
        3    1    3    3  502    0  0.17073053259E+03  0.24277893427E+03  0.11806384596E+04  0.12173732822E+04  0.10100000352E+00 0.  1.
       -3    1    3    3    0  502 -0.17073053259E+03 -0.24277893427E+03 -0.14784038823E+04  0.15079020442E+04  0.10100000352E+00 0. -1.
</event>
<event>
 5   0  0.2063087E-06  0.2699085E+04  0.7818609E-02  0.8335302E-01
       -2   -1    0    0    0  501  0.00000000000E+00  0.00000000000E+00  0.11232518737E+04  0.11232518737E+04  0.25500000920E-02 0. -1.
        2   -1    0    0  501    0  0.00000000000E+00  0.00000000000E+00 -0.16214218087E+04  0.16214218087E+04  0.25500000920E-02 0.  1.
    10030    2    1    2    0    0  0.00000000000E+00  0.00000000000E+00 -0.49816993500E+03  0.27446736824E+04  0.26990850929E+04 0.  0.
        3    1    3    3  502    0 -0.12441148107E+04 -0.33748361330E+03  0.15709652149E+03  0.12986131752E+04  0.10100000352E+00 0. -1.
       -3    1    3    3    0  502  0.12441148107E+04  0.33748361330E+03 -0.65526645649E+03  0.14460605072E+04  0.10100000352E+00 0.  1.
</event>
<event>
 5   0  0.7436613E-07  0.2714440E+04  0.7818609E-02  0.8330335E-01
        1   -1    0    0  501    0  0.00000000000E+00  0.00000000000E+00  0.98273045215E+03  0.98273045216E+03  0.50400001928E-02 0. -1.
       -1   -1    0    0    0  501  0.00000000000E+00  0.00000000000E+00 -0.18744166634E+04  0.18744166634E+04  0.50400001928E-02 0.  1.
    10030    2    1    2    0    0  0.00000000000E+00  0.00000000000E+00 -0.89168621125E+03  0.28571471156E+04  0.27144401524E+04 0.  0.
        2    1    3    3  502    0 -0.12813419390E+04  0.34217874024E+03 -0.74931091100E+03  0.15232827368E+04  0.25500000920E-02 0. -1.
       -2    1    3    3    0  502  0.12813419390E+04 -0.34217874024E+03 -0.14237530025E+03  0.13338643788E+04  0.25500000920E-02 0.  1.
</event>
<event>
 5   0  0.7768032E-07  0.2694224E+04  0.7818609E-02  0.8336882E-01
       -1   -1    0    0    0  501  0.00000000000E+00  0.00000000000E+00  0.13815335194E+04  0.13815335194E+04  0.50400001928E-02 0. -1.
        1   -1    0    0  501    0  0.00000000000E+00  0.00000000000E+00 -0.13135478354E+04  0.13135478354E+04  0.50400001928E-02 0.  1.
    10030    2    1    2    0    0  0.00000000000E+00  0.00000000000E+00  0.67985684030E+02  0.26950813548E+04  0.26942237205E+04 0.  0.
        4    1    3    3  502    0  0.94778924201E+03  0.83027106181E+03 -0.44266095698E+03  0.13355166862E+04  0.12699999809E+01 0.  1.
       -4    1    3    3    0  502 -0.94778924201E+03 -0.83027106181E+03  0.51064664101E+03  0.13595646686E+04  0.12699999809E+01 0. -1.
</event>
<event>
 5   0  0.1991277E-06  0.2698865E+04  0.7818609E-02  0.8335373E-01
        2   -1    0    0  501    0  0.00000000000E+00  0.00000000000E+00  0.22342080799E+04  0.22342080799E+04  0.25500000920E-02 0. -1.
       -2   -1    0    0    0  501  0.00000000000E+00  0.00000000000E+00 -0.81503948862E+03  0.81503948862E+03  0.25500000920E-02 0.  1.
    10030    2    1    2    0    0  0.00000000000E+00  0.00000000000E+00  0.14191685913E+04  0.30492475686E+04  0.26988648065E+04 0.  0.
        5    1    3    3  502    0  0.60010382250E+03 -0.54833402263E+03 -0.50735468067E+03  0.95824091968E+03  0.46999998093E+01 0.  1.
       -5    1    3    3    0  502 -0.60010382250E+03  0.54833402263E+03  0.19265232720E+04  0.20910066489E+04  0.46999998093E+01 0. -1.
</event>
<event>
 5   0  0.1999104E-06  0.2695529E+04  0.7818609E-02  0.8336457E-01
        2   -1    0    0  501    0  0.00000000000E+00  0.00000000000E+00  0.60068138892E+03  0.60068138892E+03  0.25500000920E-02 0. -1.
       -2   -1    0    0    0  501  0.00000000000E+00  0.00000000000E+00 -0.30240132953E+04  0.30240132953E+04  0.25500000920E-02 0.  1.
    10030    2    1    2    0    0  0.00000000000E+00  0.00000000000E+00 -0.24233319064E+04  0.36246946842E+04  0.26955285243E+04 0.  0.
        4    1    3    3  502    0  0.11208537017E+04 -0.67755209498E+03 -0.16391832969E+04  0.20981690484E+04  0.12699999809E+01 0.  1.
       -4    1    3    3    0  502 -0.11208537017E+04  0.67755209498E+03 -0.78414860947E+03  0.15265256358E+04  0.12699999809E+01 0. -1.
</event>
<event>
 5   0  0.7436613E-07  0.2704392E+04  0.7818609E-02  0.8333581E-01
       -1   -1    0    0    0  501  0.00000000000E+00  0.00000000000E+00  0.16130751958E+04  0.16130751958E+04  0.50400001928E-02 0.  1.
        1   -1    0    0  501    0  0.00000000000E+00  0.00000000000E+00 -0.11335085647E+04  0.11335085647E+04  0.50400001928E-02 0. -1.
    10030    2    1    2    0    0  0.00000000000E+00  0.00000000000E+00  0.47956663111E+03  0.27465837605E+04  0.27043923902E+04 0.  0.
        2    1    3    3  502    0  0.51812496933E+03 -0.36300425708E+03  0.14535047501E+04  0.15852134345E+04  0.25500000920E-02 0.  1.
       -2    1    3    3    0  502 -0.51812496933E+03  0.36300425708E+03 -0.97393811899E+03  0.11613703260E+04  0.25500000920E-02 0. -1.
</event>
<event>
 5   0  0.7335091E-07  0.2703151E+04  0.7818609E-02  0.8333983E-01
        1   -1    0    0  501    0  0.00000000000E+00  0.00000000000E+00  0.13098134757E+04  0.13098134757E+04  0.50400001928E-02 0.  1.
       -1   -1    0    0    0  501  0.00000000000E+00  0.00000000000E+00 -0.13946685613E+04  0.13946685613E+04  0.50400001928E-02 0. -1.
    10030    2    1    2    0    0  0.00000000000E+00  0.00000000000E+00 -0.84855085602E+02  0.27044820371E+04  0.27031505143E+04 0.  0.
        3    1    3    3  502    0 -0.11558942679E+04 -0.32860507078E+03  0.57649079793E+03  0.13328220067E+04  0.10100000352E+00 0. -1.
       -3    1    3    3    0  502  0.11558942679E+04  0.32860507078E+03 -0.66134588353E+03  0.13716600304E+04  0.10100000352E+00 0.  1.
</event>
<event>
 5   0  0.7335091E-07  0.2688377E+04  0.7818609E-02  0.8338786E-01
       -1   -1    0    0    0  501  0.00000000000E+00  0.00000000000E+00  0.15738818643E+04  0.15738818643E+04  0.50400001928E-02 0.  1.
        1   -1    0    0  501    0  0.00000000000E+00  0.00000000000E+00 -0.11480168934E+04  0.11480168934E+04  0.50400001928E-02 0. -1.
    10030    2    1    2    0    0  0.00000000000E+00  0.00000000000E+00  0.42586497092E+03  0.27218987578E+04  0.26883771823E+04 0.  0.
        3    1    3    3  502    0  0.42537772200E+03  0.83325309343E+03 -0.76428955001E+03  0.12080544071E+04  0.10100000352E+00 0. -1.
       -3    1    3    3    0  502 -0.42537772200E+03 -0.83325309343E+03  0.11901545209E+04  0.15138443506E+04  0.10100000352E+00 0.  1.
</event>
<event>
 5   0  0.1932012E-06  0.2698259E+04  0.7818609E-02  0.8335570E-01
       -2   -1    0    0    0  501  0.00000000000E+00  0.00000000000E+00  0.24503995297E+04  0.24503995297E+04  0.25500000920E-02 0. -1.
        2   -1    0    0  501    0  0.00000000000E+00  0.00000000000E+00 -0.74279730451E+03  0.74279730451E+03  0.25500000920E-02 0.  1.
    10030    2    1    2    0    0  0.00000000000E+00  0.00000000000E+00  0.17076022252E+04  0.31931968342E+04  0.26982588205E+04 0.  0.
        2    1    3    3  502    0 -0.12270141664E+04 -0.39770047107E+03  0.38575434795E+03  0.13463045147E+04  0.25500000920E-02 0.  1.
       -2    1    3    3    0  502  0.12270141664E+04  0.39770047107E+03  0.13218478772E+04  0.18468923195E+04  0.25500000920E-02 0. -1.
</event>
<event>
 5   0  0.7566905E-07  0.2689494E+04  0.7818609E-02  0.8338422E-01
       -1   -1    0    0    0  501  0.00000000000E+00  0.00000000000E+00  0.11068623021E+04  0.11068623021E+04  0.50400001928E-02 0. -1.
        1   -1    0    0  501    0  0.00000000000E+00  0.00000000000E+00 -0.16337576379E+04  0.16337576379E+04  0.50400001928E-02 0.  1.
    10030    2    1    2    0    0  0.00000000000E+00  0.00000000000E+00 -0.52689533574E+03  0.27406199400E+04  0.26894941831E+04 0.  0.
        1    1    3    3  502    0 -0.69293109096E+03 -0.85322561596E+03 -0.10528987413E+04  0.15220851513E+04  0.50400001928E-02 0.  1.
       -1    1    3    3    0  502  0.69293109096E+03  0.85322561596E+03  0.52600340553E+03  0.12185347887E+04  0.50400001928E-02 0. -1.
</event>
<event>
 5   0  0.1991277E-06  0.2685979E+04  0.7818609E-02  0.8339569E-01
       -2   -1    0    0    0  501  0.00000000000E+00  0.00000000000E+00  0.10762302036E+04  0.10762302036E+04  0.25500000920E-02 0.  1.
        2   -1    0    0  501    0  0.00000000000E+00  0.00000000000E+00 -0.16758692640E+04  0.16758692641E+04  0.25500000920E-02 0. -1.
    10030    2    1    2    0    0  0.00000000000E+00  0.00000000000E+00 -0.59963906050E+03  0.27520994676E+04  0.26859792398E+04 0.  0.
        5    1    3    3  502    0 -0.10023992035E+03 -0.12605499049E+04  0.16360291013E+03  0.12750772944E+04  0.46999998093E+01 0.  1.
       -5    1    3    3    0  502  0.10023992035E+03  0.12605499049E+04 -0.76324197062E+03  0.14770221732E+04  0.46999998093E+01 0. -1.
</event>
<event>
 5   0  0.7335091E-07  0.2677259E+04  0.7818609E-02  0.8342422E-01
        1   -1    0    0  501    0  0.00000000000E+00  0.00000000000E+00  0.27055844790E+04  0.27055844790E+04  0.50400001928E-02 0.  1.
       -1   -1    0    0    0  501  0.00000000000E+00  0.00000000000E+00 -0.66230741179E+03  0.66230741181E+03  0.50400001928E-02 0. -1.
    10030    2    1    2    0    0  0.00000000000E+00  0.00000000000E+00  0.20432770672E+04  0.33678918908E+04  0.26772587874E+04 0.  0.
        3    1    3    3  502    0  0.51904347766E+03 -0.89816871458E+03  0.20859489928E+04  0.23296558507E+04  0.10100000352E+00 0.  1.
       -3    1    3    3    0  502 -0.51904347766E+03  0.89816871458E+03 -0.42671925675E+02  0.10382360401E+04  0.10100000352E+00 0. -1.
</event>
<event>
 5   0  0.1932012E-06  0.2700637E+04  0.7818609E-02  0.8334798E-01
       -2   -1    0    0    0  501  0.00000000000E+00  0.00000000000E+00  0.25026918643E+04  0.25026918643E+04  0.25500000920E-02 0.  1.
        2   -1    0    0  501    0  0.00000000000E+00  0.00000000000E+00 -0.72855970549E+03  0.72855970549E+03  0.25500000920E-02 0. -1.
    10030    2    1    2    0    0  0.00000000000E+00  0.00000000000E+00  0.17741321588E+04  0.32312515698E+04  0.27006372934E+04 0.  0.
        2    1    3    3  502    0 -0.45305048976E+02 -0.13209458117E+04  0.12178007995E+04  0.17972170632E+04  0.25500000920E-02 0.  1.
       -2    1    3    3    0  502  0.45305048976E+02  0.13209458117E+04  0.55633135928E+03  0.14340345066E+04  0.25500000920E-02 0. -1.
</event>
<event>
 5   0  0.1991277E-06  0.2699374E+04  0.7818609E-02  0.8335208E-01
        2   -1    0    0  501    0  0.00000000000E+00  0.00000000000E+00  0.12665911592E+04  0.12665911592E+04  0.25500000920E-02 0.  1.
       -2   -1    0    0    0  501  0.00000000000E+00  0.00000000000E+00 -0.14382342247E+04  0.14382342247E+04  0.25500000920E-02 0. -1.
    10030    2    1    2    0    0  0.00000000000E+00  0.00000000000E+00 -0.17164306550E+03  0.27048253839E+04  0.26993738191E+04 0.  0.
        5    1    3    3  502    0  0.36565901534E+03  0.94162076040E+03  0.81112675018E+03  0.12954940628E+04  0.46999998093E+01 0.  1.
       -5    1    3    3    0  502 -0.36565901534E+03 -0.94162076040E+03 -0.98276981568E+03  0.14093313211E+04  0.46999998093E+01 0. -1.
</event>
<event>
 5   0  0.7566905E-07  0.2705013E+04  0.7818609E-02  0.8333380E-01
       -1   -1    0    0    0  501  0.00000000000E+00  0.00000000000E+00  0.79351563135E+03  0.79351563136E+03  0.50400001928E-02 0. -1.
        1   -1    0    0  501    0  0.00000000000E+00  0.00000000000E+00 -0.23052778080E+04  0.23052778080E+04  0.50400001928E-02 0.  1.
    10030    2    1    2    0    0  0.00000000000E+00  0.00000000000E+00 -0.15117621766E+04  0.30987934393E+04  0.27050131055E+04 0.  0.
        1    1    3    3  502    0  0.45056220483E+03 -0.62855255000E+03 -0.20269985426E+04  0.21695178497E+04  0.50400001928E-02 0.  1.
       -1    1    3    3    0  502 -0.45056220483E+03  0.62855255000E+03  0.51523636601E+03  0.92927558959E+03  0.50400001928E-02 0. -1.
</event>
<event>
 5   0  0.7768032E-07  0.2701966E+04  0.7818609E-02  0.8334367E-01
       -1   -1    0    0    0  501  0.00000000000E+00  0.00000000000E+00  0.10663197849E+04  0.10663197849E+04  0.50400001928E-02 0.  1.
        1   -1    0    0  501    0  0.00000000000E+00  0.00000000000E+00 -0.17116393929E+04  0.17116393929E+04  0.50400001928E-02 0. -1.
    10030    2    1    2    0    0  0.00000000000E+00  0.00000000000E+00 -0.64531960800E+03  0.27779591778E+04  0.27019659134E+04 0.  0.
        4    1    3    3  502    0  0.88563941576E+03 -0.30635958932E+03 -0.13231370511E+04  0.16213903421E+04  0.12699999809E+01 0. -1.
       -4    1    3    3    0  502 -0.88563941576E+03  0.30635958932E+03  0.67781744306E+03  0.11565688357E+04  0.12699999809E+01 0.  1.
</event>
<event>
 5   0  0.2063087E-06  0.2704840E+04  0.7818609E-02  0.8333436E-01
       -2   -1    0    0    0  501  0.00000000000E+00  0.00000000000E+00  0.13817140204E+04  0.13817140204E+04  0.25500000920E-02 0. -1.
        2   -1    0    0  501    0  0.00000000000E+00  0.00000000000E+00 -0.13237472891E+04  0.13237472891E+04  0.25500000920E-02 0.  1.
    10030    2    1    2    0    0  0.00000000000E+00  0.00000000000E+00  0.57966731279E+02  0.27054613094E+04  0.27048402457E+04 0.  0.
        3    1    3    3  502    0  0.34020621578E+03  0.10111349232E+02 -0.12802089432E+04  0.13246801339E+04  0.10100000352E+00 0.  1.
       -3    1    3    3    0  502 -0.34020621578E+03 -0.10111349232E+02  0.13381756745E+04  0.13807811755E+04  0.10100000352E+00 0. -1.
</event>
<event>
 5   0  0.7806808E-07  0.2704699E+04  0.7818609E-02  0.8333482E-01
        1   -1    0    0  501    0  0.00000000000E+00  0.00000000000E+00  0.17925007861E+04  0.17925007861E+04  0.50400001928E-02 0. -1.
       -1   -1    0    0    0  501  0.00000000000E+00  0.00000000000E+00 -0.10202782497E+04  0.10202782497E+04  0.50400001928E-02 0.  1.
    10030    2    1    2    0    0  0.00000000000E+00  0.00000000000E+00  0.77222253638E+03  0.28127790358E+04  0.27046992917E+04 0.  0.
        5    1    3    3  502    0 -0.49845087032E+03  0.21354481901E+03 -0.90225301999E+03  0.10526809877E+04  0.46999998093E+01 0.  1.
       -5    1    3    3    0  502  0.49845087032E+03 -0.21354481901E+03  0.16744755564E+04  0.17600980480E+04  0.46999998093E+01 0. -1.
</event>
<event>
 5   0  0.2030645E-06  0.2700304E+04  0.7818609E-02  0.8334906E-01
       -2   -1    0    0    0  501  0.00000000000E+00  0.00000000000E+00  0.15373083442E+04  0.15373083442E+04  0.25500000920E-02 0.  1.
        2   -1    0    0  501    0  0.00000000000E+00  0.00000000000E+00 -0.11857802279E+04  0.11857802279E+04  0.25500000920E-02 0. -1.
    10030    2    1    2    0    0  0.00000000000E+00  0.00000000000E+00  0.35152811625E+03  0.27230885721E+04  0.27003035672E+04 0.  0.
        1    1    3    3  502    0 -0.52424370751E+03  0.40309002052E+03  0.13628102380E+04  0.15147820881E+04  0.50400001928E-02 0.  1.
       -1    1    3    3    0  502  0.52424370751E+03 -0.40309002052E+03 -0.10112821217E+04  0.12083064840E+04  0.50400001928E-02 0. -1.
</event>
<event>
 5   0  0.7566905E-07  0.2686936E+04  0.7818609E-02  0.8339256E-01
       -1   -1    0    0    0  501  0.00000000000E+00  0.00000000000E+00  0.10289417504E+04  0.10289417504E+04  0.50400001928E-02 0. -1.
        1   -1    0    0  501    0  0.00000000000E+00  0.00000000000E+00 -0.17541387341E+04  0.17541387341E+04  0.50400001928E-02 0.  1.
    10030    2    1    2    0    0  0.00000000000E+00  0.00000000000E+00 -0.72519698371E+03  0.27830804845E+04  0.26869362326E+04 0.  0.
        1    1    3    3  502    0  0.13958054480E+03  0.15863777374E+03  0.10116224366E+04  0.10334547044E+04  0.50400001928E-02 0. -1.
       -1    1    3    3    0  502 -0.13958054480E+03 -0.15863777374E+03 -0.17368194203E+04  0.17496257801E+04  0.50400001928E-02 0.  1.
</event>
<event>
 5   0  0.1932012E-06  0.2733696E+04  0.7818609E-02  0.8324154E-01
       -2   -1    0    0    0  501  0.00000000000E+00  0.00000000000E+00  0.89208821095E+03  0.89208821096E+03  0.25500000920E-02 0. -1.
        2   -1    0    0  501    0  0.00000000000E+00  0.00000000000E+00 -0.20942693107E+04  0.20942693107E+04  0.25500000920E-02 0.  1.
    10030    2    1    2    0    0  0.00000000000E+00  0.00000000000E+00 -0.12021810997E+04  0.29863575216E+04  0.27336956397E+04 0.  0.
        2    1    3    3  502    0 -0.10365787665E+04 -0.35297281324E+03 -0.14947366969E+04  0.18529228638E+04  0.25500000920E-02 0.  1.
       -2    1    3    3    0  502  0.10365787665E+04  0.35297281324E+03  0.29255559718E+03  0.11334346578E+04  0.25500000920E-02 0. -1.
</event>
<event>
 5   0  0.7335091E-07  0.2698583E+04  0.7818609E-02  0.8335465E-01
        1   -1    0    0  501    0  0.00000000000E+00  0.00000000000E+00  0.15339545792E+04  0.15339545792E+04  0.50400001928E-02 0. -1.
       -1   -1    0    0    0  501  0.00000000000E+00  0.00000000000E+00 -0.11868584086E+04  0.11868584086E+04  0.50400001928E-02 0.  1.
    10030    2    1    2    0    0  0.00000000000E+00  0.00000000000E+00  0.34709617063E+03  0.27208129879E+04  0.26985825100E+04 0.  0.
        3    1    3    3  502    0  0.19057112524E+03 -0.80292164609E+03 -0.90276002145E+03  0.12231010547E+04  0.10100000352E+00 0.  1.
       -3    1    3    3    0  502 -0.19057112524E+03  0.80292164609E+03  0.12498561921E+04  0.14977119331E+04  0.10100000352E+00 0. -1.
</event>
<event>
 5   0  0.1999104E-06  0.2697550E+04  0.7818609E-02  0.8335800E-01
        2   -1    0    0  501    0  0.00000000000E+00  0.00000000000E+00  0.10156923742E+04  0.10156923742E+04  0.25500000920E-02 0.  1.
       -2   -1    0    0    0  501  0.00000000000E+00  0.00000000000E+00 -0.17910881419E+04  0.17910881419E+04  0.25500000920E-02 0. -1.
    10030    2    1    2    0    0  0.00000000000E+00  0.00000000000E+00 -0.77539576770E+03  0.28067805161E+04  0.26975504201E+04 0.  0.
        4    1    3    3  502    0  0.12186549299E+04 -0.54686352905E+03 -0.19300234290E+03  0.13496040437E+04  0.12699999809E+01 0.  1.
       -4    1    3    3    0  502 -0.12186549299E+04  0.54686352905E+03 -0.58239342480E+03  0.14571764724E+04  0.12699999809E+01 0. -1.
</event>
<event>
 5   0  0.2030645E-06  0.2697238E+04  0.7818609E-02  0.8335902E-01
        2   -1    0    0  501    0  0.00000000000E+00  0.00000000000E+00  0.10050491687E+04  0.10050491687E+04  0.25500000920E-02 0. -1.
       -2   -1    0    0    0  501  0.00000000000E+00  0.00000000000E+00 -0.18096363595E+04  0.18096363595E+04  0.25500000920E-02 0.  1.
    10030    2    1    2    0    0  0.00000000000E+00  0.00000000000E+00 -0.80458719079E+03  0.28146855281E+04  0.26972382310E+04 0.  0.
        1    1    3    3  502    0  0.12951558393E+04 -0.34937448679E+03 -0.25738624189E+03  0.13659205166E+04  0.50400001928E-02 0. -1.
       -1    1    3    3    0  502 -0.12951558393E+04  0.34937448679E+03 -0.54720094890E+03  0.14487650115E+04  0.50400001928E-02 0.  1.
</event>
<event>
 5   0  0.7335091E-07  0.2701961E+04  0.7818609E-02  0.8334369E-01
        1   -1    0    0  501    0  0.00000000000E+00  0.00000000000E+00  0.17570922302E+04  0.17570922302E+04  0.50400001928E-02 0.  1.
       -1   -1    0    0    0  501  0.00000000000E+00  0.00000000000E+00 -0.10387321329E+04  0.10387321329E+04  0.50400001928E-02 0. -1.
    10030    2    1    2    0    0  0.00000000000E+00  0.00000000000E+00  0.71836009729E+03  0.27958243631E+04  0.27019608879E+04 0.  0.
        3    1    3    3  502    0 -0.80761505712E+03 -0.88274770342E+03  0.10084015339E+04  0.15647233788E+04  0.10100000352E+00 0.  1.
       -3    1    3    3    0  502  0.80761505712E+03  0.88274770342E+03 -0.29004143662E+03  0.12311009843E+04  0.10100000352E+00 0. -1.
</event>
<event>
 5   0  0.7806808E-07  0.2705406E+04  0.7818609E-02  0.8333253E-01
        1   -1    0    0  501    0  0.00000000000E+00  0.00000000000E+00  0.20250262561E+04  0.20250262562E+04  0.50400001928E-02 0.  1.
       -1   -1    0    0    0  501  0.00000000000E+00  0.00000000000E+00 -0.90359613408E+03  0.90359613409E+03  0.50400001928E-02 0. -1.
    10030    2    1    2    0    0  0.00000000000E+00  0.00000000000E+00  0.11214301221E+04  0.29286223902E+04  0.27054063625E+04 0.  0.
        5    1    3    3  502    0 -0.52839063032E+03  0.10610904184E+04  0.12661530558E+04  0.17344380026E+04  0.46999998093E+01 0.  1.
       -5    1    3    3    0  502  0.52839063032E+03 -0.10610904184E+04 -0.14472293369E+03  0.11941843877E+04  0.46999998093E+01 0. -1.
</event>
<event>
 5   0  0.7335091E-07  0.2693733E+04  0.7818609E-02  0.8337041E-01
        1   -1    0    0  501    0  0.00000000000E+00  0.00000000000E+00  0.13432543603E+04  0.13432543603E+04  0.50400001928E-02 0. -1.
       -1   -1    0    0    0  501  0.00000000000E+00  0.00000000000E+00 -0.13504879702E+04  0.13504879702E+04  0.50400001928E-02 0.  1.
    10030    2    1    2    0    0  0.00000000000E+00  0.00000000000E+00 -0.72336099082E+01  0.26937423305E+04  0.26937326181E+04 0.  0.
        3    1    3    3  502    0 -0.12841351723E+04 -0.39449205086E+03 -0.10068272682E+03  0.13471318201E+04  0.10100000352E+00 0.  1.
       -3    1    3    3    0  502  0.12841351723E+04  0.39449205086E+03  0.93449116914E+02  0.13466105104E+04  0.10100000352E+00 0. -1.
</event>
<event>
 5   0  0.6561875E-07  0.2701773E+04  0.7818609E-02  0.8334430E-01
        3   -1    0    0  501    0  0.00000000000E+00  0.00000000000E+00  0.14776646786E+04  0.14776646821E+04  0.10100000352E+00 0. -1.
       -3   -1    0    0    0  501  0.00000000000E+00  0.00000000000E+00 -0.12349851763E+04  0.12349851804E+04  0.10100000352E+00 0.  1.
    10030    2    1    2    0    0  0.00000000000E+00  0.00000000000E+00  0.24267950232E+03  0.27126498625E+04  0.27017727394E+04 0.  0.
        2    1    3    3  502    0  0.95894764909E+03  0.14419083943E+03  0.10656165975E+04  0.14408019728E+04  0.25500000920E-02 0.  1.
       -2    1    3    3    0  502 -0.95894764909E+03 -0.14419083943E+03 -0.82293709519E+03  0.12718478897E+04  0.25500000920E-02 0. -1.
</event>
<event>
 5   0  0.1932012E-06  0.2658743E+04  0.7818609E-02  0.8348517E-01
        2   -1    0    0  501    0  0.00000000000E+00  0.00000000000E+00  0.11474529793E+04  0.11474529793E+04  0.25500000920E-02 0.  1.
       -2   -1    0    0    0  501  0.00000000000E+00  0.00000000000E+00 -0.15401320847E+04  0.15401320847E+04  0.25500000920E-02 0. -1.
    10030    2    1    2    0    0  0.00000000000E+00  0.00000000000E+00 -0.39267910531E+03  0.26875850640E+04  0.26587434243E+04 0.  0.
        2    1    3    3  502    0  0.71147687393E+03 -0.23096945479E+03  0.91452792368E+03  0.11814853170E+04  0.25500000920E-02 0.  1.
       -2    1    3    3    0  502 -0.71147687393E+03  0.23096945479E+03 -0.13072070290E+04  0.15060997470E+04  0.25500000920E-02 0. -1.
</event>
<event>
 5   0  0.7335091E-07  0.2699726E+04  0.7818609E-02  0.8335094E-01
       -1   -1    0    0    0  501  0.00000000000E+00  0.00000000000E+00  0.12436722644E+04  0.12436722644E+04  0.50400001928E-02 0.  1.
        1   -1    0    0  501    0  0.00000000000E+00  0.00000000000E+00 -0.14651212496E+04  0.14651212496E+04  0.50400001928E-02 0. -1.
    10030    2    1    2    0    0  0.00000000000E+00  0.00000000000E+00 -0.22144898523E+03  0.27087935140E+04  0.26997264025E+04 0.  0.
        3    1    3    3  502    0 -0.90090171778E+02 -0.41982611840E+03 -0.13947727203E+04  0.14593701245E+04  0.10100000352E+00 0. -1.
       -3    1    3    3    0  502  0.90090171778E+02  0.41982611840E+03  0.11733237351E+04  0.12494233895E+04  0.10100000352E+00 0.  1.
</event>
<event>
 5   0  0.2030645E-06  0.2694891E+04  0.7818609E-02  0.8336664E-01
       -2   -1    0    0    0  501  0.00000000000E+00  0.00000000000E+00  0.12831122290E+04  0.12831122290E+04  0.25500000920E-02 0.  1.
        2   -1    0    0  501    0  0.00000000000E+00  0.00000000000E+00 -0.14150046044E+04  0.14150046044E+04  0.25500000920E-02 0. -1.
    10030    2    1    2    0    0  0.00000000000E+00  0.00000000000E+00 -0.13189237533E+03  0.26981168334E+04  0.26948912498E+04 0.  0.
        1    1    3    3  502    0 -0.39285764134E+03 -0.12855791892E+04 -0.15857034434E+03  0.13535861747E+04  0.50400001928E-02 0. -1.
       -1    1    3    3    0  502  0.39285764134E+03  0.12855791892E+04  0.26677969015E+02  0.13445306587E+04  0.50400001928E-02 0.  1.
</event>
<event>
 5   0  0.1999104E-06  0.2700615E+04  0.7818609E-02  0.8334806E-01
       -2   -1    0    0    0  501  0.00000000000E+00  0.00000000000E+00  0.11494276128E+04  0.11494276128E+04  0.25500000920E-02 0.  1.
        2   -1    0    0  501    0  0.00000000000E+00  0.00000000000E+00 -0.15862936987E+04  0.15862936987E+04  0.25500000920E-02 0. -1.
    10030    2    1    2    0    0  0.00000000000E+00  0.00000000000E+00 -0.43686608589E+03  0.27357213115E+04  0.27006145814E+04 0.  0.
        4    1    3    3  502    0  0.12890189352E+04 -0.30857832453E+02 -0.62465235489E+03  0.14327296320E+04  0.12699999809E+01 0. -1.
       -4    1    3    3    0  502 -0.12890189352E+04  0.30857832453E+02  0.18778626901E+03  0.13029916795E+04  0.12699999809E+01 0.  1.
</event>
<event>
 5   0  0.7806808E-07  0.2687477E+04  0.7818609E-02  0.8339080E-01
        1   -1    0    0  501    0  0.00000000000E+00  0.00000000000E+00  0.19884978379E+04  0.19884978379E+04  0.50400001928E-02 0. -1.
       -1   -1    0    0    0  501  0.00000000000E+00  0.00000000000E+00 -0.90803894672E+03  0.90803894673E+03  0.50400001928E-02 0.  1.
    10030    2    1    2    0    0  0.00000000000E+00  0.00000000000E+00  0.10804588912E+04  0.28965367847E+04  0.26874772426E+04 0.  0.
        5    1    3    3  502    0  0.56233959901E+03  0.11914541649E+04  0.82502425945E+03  0.15545018399E+04  0.46999998093E+01 0. -1.
       -5    1    3    3    0  502 -0.56233959901E+03 -0.11914541649E+04  0.25543463176E+03  0.13420349447E+04  0.46999998093E+01 0.  1.
</event>
<event>
 5   0  0.2063087E-06  0.2698048E+04  0.7818609E-02  0.8335639E-01
        2   -1    0    0  501    0  0.00000000000E+00  0.00000000000E+00  0.20502670994E+04  0.20502670994E+04  0.25500000920E-02 0. -1.
       -2   -1    0    0    0  501  0.00000000000E+00  0.00000000000E+00 -0.88762351401E+03  0.88762351401E+03  0.25500000920E-02 0.  1.
    10030    2    1    2    0    0  0.00000000000E+00  0.00000000000E+00  0.11626435854E+04  0.29378906134E+04  0.26980476552E+04 0.  0.
        3    1    3    3  502    0  0.54750541144E+03 -0.24164657367E+03 -0.73516534292E+03  0.94795745356E+03  0.10100000352E+00 0.  1.
       -3    1    3    3    0  502 -0.54750541144E+03  0.24164657367E+03  0.18978089283E+04  0.19899331599E+04  0.10100000352E+00 0. -1.
</event>
<event>
 5   0  0.2063087E-06  0.2712889E+04  0.7818609E-02  0.8330835E-01
       -2   -1    0    0    0  501  0.00000000000E+00  0.00000000000E+00  0.14479678023E+04  0.14479678023E+04  0.25500000920E-02 0. -1.
        2   -1    0    0  501    0  0.00000000000E+00  0.00000000000E+00 -0.12707060927E+04  0.12707060927E+04  0.25500000920E-02 0.  1.
    10030    2    1    2    0    0  0.00000000000E+00  0.00000000000E+00  0.17726170966E+03  0.27186738950E+04  0.27128888724E+04 0.  0.
        3    1    3    3  502    0 -0.23551205251E+03  0.11661373797E+04  0.74163312331E+03  0.14019136974E+04  0.10100000352E+00 0. -1.
       -3    1    3    3    0  502  0.23551205251E+03 -0.11661373797E+04 -0.56437141365E+03  0.13167601976E+04  0.10100000352E+00 0.  1.
</event>
<event>
 5   0  0.7436613E-07  0.2698920E+04  0.7818609E-02  0.8335355E-01
        1   -1    0    0  501    0  0.00000000000E+00  0.00000000000E+00  0.20185094715E+04  0.20185094715E+04  0.50400001928E-02 0.  1.
       -1   -1    0    0    0  501  0.00000000000E+00  0.00000000000E+00 -0.90217201706E+03  0.90217201707E+03  0.50400001928E-02 0. -1.
    10030    2    1    2    0    0  0.00000000000E+00  0.00000000000E+00  0.11163374544E+04  0.29206814886E+04  0.26989203481E+04 0.  0.
        2    1    3    3  502    0  0.56713624975E+03  0.33966040534E+03  0.18312815413E+04  0.19469475597E+04  0.25500000920E-02 0.  1.
       -2    1    3    3    0  502 -0.56713624975E+03 -0.33966040534E+03 -0.71494408691E+03  0.97373392882E+03  0.25500000920E-02 0. -1.
</event>
<event>
 5   0  0.7806808E-07  0.2712577E+04  0.7818609E-02  0.8330936E-01
        1   -1    0    0  501    0  0.00000000000E+00  0.00000000000E+00  0.15708021800E+04  0.15708021801E+04  0.50400001928E-02 0. -1.
       -1   -1    0    0    0  501  0.00000000000E+00  0.00000000000E+00 -0.11710692718E+04  0.11710692719E+04  0.50400001928E-02 0.  1.
    10030    2    1    2    0    0  0.00000000000E+00  0.00000000000E+00  0.39973290820E+03  0.27418714519E+04  0.27125767567E+04 0.  0.
        5    1    3    3  502    0 -0.11529485228E+04  0.71350875624E+03  0.16617430706E+03  0.13660238035E+04  0.46999998093E+01 0. -1.
       -5    1    3    3    0  502  0.11529485228E+04 -0.71350875624E+03  0.23355860113E+03  0.13758476484E+04  0.46999998093E+01 0.  1.
</event>
<event>
 5   0  0.7566905E-07  0.2705040E+04  0.7818609E-02  0.8333372E-01
        1   -1    0    0  501    0  0.00000000000E+00  0.00000000000E+00  0.17758636888E+04  0.17758636888E+04  0.50400001928E-02 0. -1.
       -1   -1    0    0    0  501  0.00000000000E+00  0.00000000000E+00 -0.10300957813E+04  0.10300957813E+04  0.50400001928E-02 0.  1.
    10030    2    1    2    0    0  0.00000000000E+00  0.00000000000E+00  0.74576790747E+03  0.28059594701E+04  0.27050395146E+04 0.  0.
        1    1    3    3  502    0  0.51327194906E+03 -0.95128688551E+03 -0.47041301452E+03  0.11788482669E+04  0.50400001928E-02 0.  1.
       -1    1    3    3    0  502 -0.51327194906E+03  0.95128688551E+03  0.12161809220E+04  0.16271112031E+04  0.50400001928E-02 0. -1.
</event>
<event>
 5   0  0.1991277E-06  0.2700081E+04  0.7818609E-02  0.8334979E-01
        2   -1    0    0  501    0  0.00000000000E+00  0.00000000000E+00  0.19281540629E+04  0.19281540629E+04  0.25500000920E-02 0. -1.
       -2   -1    0    0    0  501  0.00000000000E+00  0.00000000000E+00 -0.94526159099E+03  0.94526159099E+03  0.25500000920E-02 0.  1.
    10030    2    1    2    0    0  0.00000000000E+00  0.00000000000E+00  0.98289247188E+03  0.28734156539E+04  0.27000814633E+04 0.  0.
        5    1    3    3  502    0  0.27731269028E+03  0.12444791290E+04  0.19157509429E+02  0.12751547870E+04  0.46999998093E+01 0.  1.
       -5    1    3    3    0  502 -0.27731269028E+03 -0.12444791290E+04  0.96373496245E+03  0.15982608669E+04  0.46999998093E+01 0. -1.
</event>
<event>
 5   0  0.2063087E-06  0.2701243E+04  0.7818609E-02  0.8334602E-01
       -2   -1    0    0    0  501  0.00000000000E+00  0.00000000000E+00  0.18302388393E+04  0.18302388393E+04  0.25500000920E-02 0. -1.
        2   -1    0    0  501    0  0.00000000000E+00  0.00000000000E+00 -0.99668904832E+03  0.99668904832E+03  0.25500000920E-02 0.  1.
    10030    2    1    2    0    0  0.00000000000E+00  0.00000000000E+00  0.83354979103E+03  0.28269278877E+04  0.27012434226E+04 0.  0.
        3    1    3    3  502    0  0.52949497093E+03  0.84267220676E+03 -0.53879068704E+03  0.11317052562E+04  0.10100000352E+00 0. -1.
       -3    1    3    3    0  502 -0.52949497093E+03 -0.84267220676E+03  0.13723404781E+04  0.16952226315E+04  0.10100000352E+00 0.  1.
</event>
<event>
 5   0  0.1999104E-06  0.2704552E+04  0.7818609E-02  0.8333530E-01
       -2   -1    0    0    0  501  0.00000000000E+00  0.00000000000E+00  0.78623701592E+03  0.78623701592E+03  0.25500000920E-02 0.  1.
        2   -1    0    0  501    0  0.00000000000E+00  0.00000000000E+00 -0.23258251517E+04  0.23258251517E+04  0.25500000920E-02 0. -1.
    10030    2    1    2    0    0  0.00000000000E+00  0.00000000000E+00 -0.15395881358E+04  0.31120621676E+04  0.27045515908E+04 0.  0.
        4    1    3    3  502    0  0.11946814615E+03  0.12162681235E+04 -0.14358628812E+04  0.18855462372E+04  0.12699999809E+01 0. -1.
       -4    1    3    3    0  502 -0.11946814615E+03 -0.12162681235E+04 -0.10372525457E+03  0.12265159304E+04  0.12699999809E+01 0.  1.
</event>
<event>
 5   0  0.2063087E-06  0.2702679E+04  0.7818609E-02  0.8334136E-01
       -2   -1    0    0    0  501  0.00000000000E+00  0.00000000000E+00  0.79689760578E+03  0.79689760579E+03  0.25500000920E-02 0. -1.
        2   -1    0    0  501    0  0.00000000000E+00  0.00000000000E+00 -0.22915338727E+04  0.22915338727E+04  0.25500000920E-02 0.  1.
    10030    2    1    2    0    0  0.00000000000E+00  0.00000000000E+00 -0.14946362669E+04  0.30884314785E+04  0.27026785652E+04 0.  0.
        3    1    3    3  502    0 -0.50175129238E+03  0.44421523076E+03  0.59364324556E+03  0.89526188562E+03  0.10100000352E+00 0. -1.
       -3    1    3    3    0  502  0.50175129238E+03 -0.44421523076E+03 -0.20882795124E+04  0.21931695928E+04  0.10100000352E+00 0.  1.
</event>
<event>
 5   0  0.7806808E-07  0.2702827E+04  0.7818609E-02  0.8334088E-01
        1   -1    0    0  501    0  0.00000000000E+00  0.00000000000E+00  0.12571909175E+04  0.12571909175E+04  0.50400001928E-02 0. -1.
       -1   -1    0    0    0  501  0.00000000000E+00  0.00000000000E+00 -0.14526980973E+04  0.14526980973E+04  0.50400001928E-02 0.  1.
    10030    2    1    2    0    0  0.00000000000E+00  0.00000000000E+00 -0.19550717978E+03  0.27098890149E+04  0.27028273004E+04 0.  0.
        5    1    3    3  502    0  0.13159264184E+03 -0.29592530908E+03 -0.14132060588E+04  0.14498489116E+04  0.46999998093E+01 0.  1.
       -5    1    3    3    0  502 -0.13159264184E+03  0.29592530908E+03  0.12176988790E+04  0.12600401033E+04  0.46999998093E+01 0. -1.
</event>
<event>
 5   0  0.7768032E-07  0.2720764E+04  0.7818609E-02  0.8328299E-01
        1   -1    0    0  501    0  0.00000000000E+00  0.00000000000E+00  0.12791733696E+04  0.12791733696E+04  0.50400001928E-02 0.  1.
       -1   -1    0    0    0  501  0.00000000000E+00  0.00000000000E+00 -0.14467457749E+04  0.14467457749E+04  0.50400001928E-02 0. -1.
    10030    2    1    2    0    0  0.00000000000E+00  0.00000000000E+00 -0.16757240533E+03  0.27259191445E+04  0.27207636192E+04 0.  0.
        4    1    3    3  502    0  0.13517501675E+03  0.70141592879E+03 -0.12437280126E+04  0.14342655167E+04  0.12699999809E+01 0. -1.
       -4    1    3    3    0  502 -0.13517501675E+03 -0.70141592879E+03  0.10761556072E+04  0.12916536278E+04  0.12699999809E+01 0.  1.
</event>
<event>
 5   0  0.7806808E-07  0.2695965E+04  0.7818609E-02  0.8336316E-01
        1   -1    0    0  501    0  0.00000000000E+00  0.00000000000E+00  0.19833827392E+04  0.19833827392E+04  0.50400001928E-02 0. -1.
       -1   -1    0    0    0  501  0.00000000000E+00  0.00000000000E+00 -0.91613998664E+03  0.91613998665E+03  0.50400001928E-02 0.  1.
    10030    2    1    2    0    0  0.00000000000E+00  0.00000000000E+00  0.10672427526E+04  0.28995227259E+04  0.26959645667E+04 0.  0.
        5    1    3    3  502    0 -0.73631428670E+03 -0.11190157337E+04  0.69558826953E+03  0.15093773788E+04  0.46999998093E+01 0. -1.
       -5    1    3    3    0  502  0.73631428670E+03  0.11190157337E+04  0.37165448304E+03  0.13901453470E+04  0.46999998093E+01 0.  1.
</event>
<event>
 5   0  0.7768032E-07  0.2680139E+04  0.7818609E-02  0.8341478E-01
        1   -1    0    0  501    0  0.00000000000E+00  0.00000000000E+00  0.20594928535E+04  0.20594928535E+04  0.50400001928E-02 0.  1.
       -1   -1    0    0    0  501  0.00000000000E+00  0.00000000000E+00 -0.87195551740E+03  0.87195551741E+03  0.50400001928E-02 0. -1.
    10030    2    1    2    0    0  0.00000000000E+00  0.00000000000E+00  0.11875373361E+04  0.29314483709E+04  0.26801389193E+04 0.  0.
        4    1    3    3  502    0  0.27230582636E+03  0.10696828560E+04  0.14248970217E+04  0.18024164365E+04  0.12699999809E+01 0.  1.
       -4    1    3    3    0  502 -0.27230582636E+03 -0.10696828560E+04 -0.23735968560E+03  0.11290319343E+04  0.12699999809E+01 0. -1.
</event>
<event>
 5   0  0.2063087E-06  0.2699411E+04  0.7818609E-02  0.8335196E-01
        2   -1    0    0  501    0  0.00000000000E+00  0.00000000000E+00  0.19497728865E+04  0.19497728865E+04  0.25500000920E-02 0.  1.
       -2   -1    0    0    0  501  0.00000000000E+00  0.00000000000E+00 -0.93431675864E+03  0.93431675865E+03  0.25500000920E-02 0. -1.
    10030    2    1    2    0    0  0.00000000000E+00  0.00000000000E+00  0.10154561278E+04  0.28840896451E+04  0.26994114050E+04 0.  0.
        3    1    3    3  502    0  0.23723613987E+03  0.10559511801E+03  0.19228322309E+04  0.19402873790E+04  0.10100000352E+00 0.  1.
       -3    1    3    3    0  502 -0.23723613987E+03 -0.10559511801E+03 -0.90737610301E+03  0.94380226611E+03  0.10100000352E+00 0. -1.
</event>
<event>
 5   0  0.7335091E-07  0.2698961E+04  0.7818609E-02  0.8335342E-01
        1   -1    0    0  501    0  0.00000000000E+00  0.00000000000E+00  0.24296270111E+04  0.24296270111E+04  0.50400001928E-02 0. -1.
       -1   -1    0    0    0  501  0.00000000000E+00  0.00000000000E+00 -0.74953817233E+03  0.74953817235E+03  0.50400001928E-02 0.  1.
    10030    2    1    2    0    0  0.00000000000E+00  0.00000000000E+00  0.16800888388E+04  0.31791651835E+04  0.26989614220E+04 0.  0.
        3    1    3    3  502    0 -0.10580452852E+04 -0.23786575950E+03  0.17860983150E+04  0.20895423293E+04  0.10100000352E+00 0. -1.
       -3    1    3    3    0  502  0.10580452852E+04  0.23786575950E+03 -0.10600947618E+03  0.10896228542E+04  0.10100000352E+00 0.  1.
</event>
<event>
 5   0  0.7436613E-07  0.2700677E+04  0.7818609E-02  0.8334785E-01
       -1   -1    0    0    0  501  0.00000000000E+00  0.00000000000E+00  0.75607936427E+03  0.75607936429E+03  0.50400001928E-02 0.  1.
        1   -1    0    0  501    0  0.00000000000E+00  0.00000000000E+00 -0.24116709583E+04  0.24116709583E+04  0.50400001928E-02 0. -1.
    10030    2    1    2    0    0  0.00000000000E+00  0.00000000000E+00 -0.16555915941E+04  0.31677503226E+04  0.27006774299E+04 0.  0.
        2    1    3    3  502    0 -0.35574155788E+03  0.15736225279E+03  0.68893782727E+03  0.79117018678E+03  0.25500000920E-02 0.  1.
       -2    1    3    3    0  502  0.35574155788E+03 -0.15736225279E+03 -0.23445294213E+04  0.23765801358E+04  0.25500000920E-02 0. -1.
</event>
<event>
 5   0  0.2063087E-06  0.2694191E+04  0.7818609E-02  0.8336892E-01
        2   -1    0    0  501    0  0.00000000000E+00  0.00000000000E+00  0.12119210028E+04  0.12119210028E+04  0.25500000920E-02 0.  1.
       -2   -1    0    0    0  501  0.00000000000E+00  0.00000000000E+00 -0.14973475592E+04  0.14973475592E+04  0.25500000920E-02 0. -1.
    10030    2    1    2    0    0  0.00000000000E+00  0.00000000000E+00 -0.28542655640E+03  0.27092685620E+04  0.26941914969E+04 0.  0.
        3    1    3    3  502    0 -0.11511356417E+04 -0.41624274317E+03 -0.70826224301E+03  0.14142159318E+04  0.10100000352E+00 0. -1.
       -3    1    3    3    0  502  0.11511356417E+04  0.41624274317E+03  0.42283568661E+03  0.12950526301E+04  0.10100000352E+00 0.  1.
</event>
<event>
 5   0  0.7335091E-07  0.2701610E+04  0.7818609E-02  0.8334483E-01
        1   -1    0    0  501    0  0.00000000000E+00  0.00000000000E+00  0.16891233175E+04  0.16891233175E+04  0.50400001928E-02 0. -1.
       -1   -1    0    0    0  501  0.00000000000E+00  0.00000000000E+00 -0.10802492854E+04  0.10802492854E+04  0.50400001928E-02 0.  1.
    10030    2    1    2    0    0  0.00000000000E+00  0.00000000000E+00  0.60887403211E+03  0.27693726029E+04  0.27016100804E+04 0.  0.
        3    1    3    3  502    0 -0.56957504796E+03 -0.26482657339E+03 -0.92143683982E+03  0.11151657766E+04  0.10100000352E+00 0.  1.
       -3    1    3    3    0  502  0.56957504796E+03  0.26482657339E+03  0.15303108719E+04  0.16542068263E+04  0.10100000352E+00 0. -1.
</event>
<event>
 5   0  0.1999104E-06  0.2702097E+04  0.7818609E-02  0.8334325E-01
       -2   -1    0    0    0  501  0.00000000000E+00  0.00000000000E+00  0.86925738640E+03  0.86925738641E+03  0.25500000920E-02 0. -1.
        2   -1    0    0  501    0  0.00000000000E+00  0.00000000000E+00 -0.20998758167E+04  0.20998758167E+04  0.25500000920E-02 0.  1.
    10030    2    1    2    0    0  0.00000000000E+00  0.00000000000E+00 -0.12306184303E+04  0.29691332031E+04  0.27020973810E+04 0.  0.
        4    1    3    3  502    0  0.12109234832E+04  0.46116876859E+03 -0.19499071365E+03  0.13103569386E+04  0.12699999809E+01 0. -1.
       -4    1    3    3    0  502 -0.12109234832E+04 -0.46116876859E+03 -0.10356277166E+04  0.16587762645E+04  0.12699999809E+01 0.  1.
</event>
<event>
 5   0  0.7436613E-07  0.2700382E+04  0.7818609E-02  0.8334881E-01
        1   -1    0    0  501    0  0.00000000000E+00  0.00000000000E+00  0.22007245393E+04  0.22007245393E+04  0.50400001928E-02 0. -1.
       -1   -1    0    0    0  501  0.00000000000E+00  0.00000000000E+00 -0.82837098806E+03  0.82837098807E+03  0.50400001928E-02 0.  1.
    10030    2    1    2    0    0  0.00000000000E+00  0.00000000000E+00  0.13723535512E+04  0.30290955273E+04  0.27003824626E+04 0.  0.
        2    1    3    3  502    0  0.30692605685E+02 -0.67828149457E+03 -0.62293764261E+03  0.92144404524E+03  0.25500000920E-02 0.  1.
       -2    1    3    3    0  502 -0.30692605685E+02  0.67828149457E+03  0.19952911938E+04  0.21076514821E+04  0.25500000920E-02 0. -1.
</event>
<event>
 5   0  0.7436613E-07  0.2704693E+04  0.7818609E-02  0.8333484E-01
       -1   -1    0    0    0  501  0.00000000000E+00  0.00000000000E+00  0.14337974797E+04  0.14337974797E+04  0.50400001928E-02 0.  1.
        1   -1    0    0  501    0  0.00000000000E+00  0.00000000000E+00 -0.12755226448E+04  0.12755226448E+04  0.50400001928E-02 0. -1.
    10030    2    1    2    0    0  0.00000000000E+00  0.00000000000E+00  0.15827483482E+03  0.27093201245E+04  0.27046930720E+04 0.  0.
        2    1    3    3  502    0  0.11583267276E+04  0.58568286722E+02  0.77580553219E+03  0.13953584758E+04  0.25500000920E-02 0.  1.
       -2    1    3    3    0  502 -0.11583267276E+04 -0.58568286722E+02 -0.61753069737E+03  0.13139616487E+04  0.25500000920E-02 0. -1.
</event>
<event>
 5   0  0.7768032E-07  0.2701100E+04  0.7818609E-02  0.8334648E-01
        1   -1    0    0  501    0  0.00000000000E+00  0.00000000000E+00  0.15769383298E+04  0.15769383298E+04  0.50400001928E-02 0. -1.
       -1   -1    0    0    0  501  0.00000000000E+00  0.00000000000E+00 -0.11566620217E+04  0.11566620217E+04  0.50400001928E-02 0.  1.
    10030    2    1    2    0    0  0.00000000000E+00  0.00000000000E+00  0.42027630811E+03  0.27336003515E+04  0.27010995366E+04 0.  0.
        4    1    3    3  502    0 -0.10380463831E+04 -0.66030782581E+03 -0.35373408596E+03  0.12801078606E+04  0.12699999809E+01 0.  1.
       -4    1    3    3    0  502  0.10380463831E+04  0.66030782581E+03  0.77401039408E+03  0.14534924909E+04  0.12699999809E+01 0. -1.
</event>
<event>
 5   0  0.7335091E-07  0.2687057E+04  0.7818609E-02  0.8339217E-01
       -1   -1    0    0    0  501  0.00000000000E+00  0.00000000000E+00  0.17221264137E+04  0.17221264137E+04  0.50400001928E-02 0.  1.
        1   -1    0    0  501    0  0.00000000000E+00  0.00000000000E+00 -0.10481624482E+04  0.10481624483E+04  0.50400001928E-02 0. -1.
    10030    2    1    2    0    0  0.00000000000E+00  0.00000000000E+00  0.67396396546E+03  0.27702888620E+04  0.26870565591E+04 0.  0.
        3    1    3    3  502    0  0.48145954933E+03  0.46631331802E+03  0.15374449210E+04  0.16771965608E+04  0.10100000352E+00 0.  1.
       -3    1    3    3    0  502 -0.48145954933E+03 -0.46631331802E+03 -0.86348095552E+03  0.10930923012E+04  0.10100000352E+00 0. -1.
</event>
<event>
 5   0  0.7806808E-07  0.2701578E+04  0.7818609E-02  0.8334493E-01
        1   -1    0    0  501    0  0.00000000000E+00  0.00000000000E+00  0.24079692341E+04  0.24079692341E+04  0.50400001928E-02 0. -1.
       -1   -1    0    0    0  501  0.00000000000E+00  0.00000000000E+00 -0.75774665068E+03  0.75774665070E+03  0.50400001928E-02 0.  1.
    10030    2    1    2    0    0  0.00000000000E+00  0.00000000000E+00  0.16502225835E+04  0.31657158848E+04  0.27015777776E+04 0.  0.
        5    1    3    3  502    0  0.56923143575E+03  0.11945582531E+04  0.11430450824E+04  0.17485902887E+04  0.46999998093E+01 0. -1.
       -5    1    3    3    0  502 -0.56923143575E+03 -0.11945582531E+04  0.50717750108E+03  0.14171255961E+04  0.46999998093E+01 0.  1.
</event>
<event>
 5   0  0.2063087E-06  0.2699752E+04  0.7818609E-02  0.8335086E-01
        2   -1    0    0  501    0  0.00000000000E+00  0.00000000000E+00  0.17599442665E+04  0.17599442665E+04  0.25500000920E-02 0.  1.
       -2   -1    0    0    0  501  0.00000000000E+00  0.00000000000E+00 -0.10353537046E+04  0.10353537046E+04  0.25500000920E-02 0. -1.
    10030    2    1    2    0    0  0.00000000000E+00  0.00000000000E+00  0.72459056193E+03  0.27952979711E+04  0.26997517043E+04 0.  0.
        3    1    3    3  502    0 -0.45237356979E+03  0.50681529763E+03  0.15700515150E+04  0.17107207144E+04  0.10100000352E+00 0.  1.
       -3    1    3    3    0  502  0.45237356979E+03 -0.50681529763E+03 -0.84546095307E+03  0.10845772568E+04  0.10100000352E+00 0. -1.
</event>
<event>
 5   0  0.7566905E-07  0.2700547E+04  0.7818609E-02  0.8334828E-01
       -1   -1    0    0    0  501  0.00000000000E+00  0.00000000000E+00  0.11566413340E+04  0.11566413340E+04  0.50400001928E-02 0.  1.
        1   -1    0    0  501    0  0.00000000000E+00  0.00000000000E+00 -0.15763208560E+04  0.15763208560E+04  0.50400001928E-02 0. -1.
    10030    2    1    2    0    0  0.00000000000E+00  0.00000000000E+00 -0.41967952195E+03  0.27329621900E+04  0.27005465059E+04 0.  0.
        1    1    3    3  502    0  0.67664137447E+03  0.10148168240E+04 -0.79605194236E+03  0.14565010920E+04  0.50400001928E-02 0. -1.
       -1    1    3    3    0  502 -0.67664137447E+03 -0.10148168240E+04  0.37637242041E+03  0.12764610980E+04  0.50400001928E-02 0.  1.
</event>
<event>
 5   0  0.2030645E-06  0.2682023E+04  0.7818609E-02  0.8340861E-01
       -2   -1    0    0    0  501  0.00000000000E+00  0.00000000000E+00  0.10244624941E+04  0.10244624941E+04  0.25500000920E-02 0.  1.
        2   -1    0    0  501    0  0.00000000000E+00  0.00000000000E+00 -0.17553717153E+04  0.17553717153E+04  0.25500000920E-02 0. -1.
    10030    2    1    2    0    0  0.00000000000E+00  0.00000000000E+00 -0.73090922123E+03  0.27798342094E+04  0.26820234790E+04 0.  0.
        1    1    3    3  502    0 -0.11686244517E+04 -0.25866003176E+03 -0.99226078604E+03  0.15547249238E+04  0.50400001928E-02 0. -1.
       -1    1    3    3    0  502  0.11686244517E+04  0.25866003176E+03  0.26135156481E+03  0.12251092856E+04  0.50400001928E-02 0.  1.
</event>
<event>
 5   0  0.7335091E-07  0.2703110E+04  0.7818609E-02  0.8333996E-01
        1   -1    0    0  501    0  0.00000000000E+00  0.00000000000E+00  0.23649531472E+04  0.23649531472E+04  0.50400001928E-02 0.  1.
       -1   -1    0    0    0  501  0.00000000000E+00  0.00000000000E+00 -0.77240488102E+03  0.77240488103E+03  0.50400001928E-02 0. -1.
    10030    2    1    2    0    0  0.00000000000E+00  0.00000000000E+00  0.15925482661E+04  0.31373580282E+04  0.27031103228E+04 0.  0.
        3    1    3    3  502    0 -0.29013283265E+03  0.50191635253E+03  0.22133121114E+04  0.22879789331E+04  0.10100000352E+00 0.  1.
       -3    1    3    3    0  502  0.29013283265E+03 -0.50191635253E+03 -0.62076384523E+03  0.84937909514E+03  0.10100000352E+00 0. -1.
</event>
<event>
 5   0  0.7436613E-07  0.2732844E+04  0.7818609E-02  0.8324426E-01
       -1   -1    0    0    0  501  0.00000000000E+00  0.00000000000E+00  0.19674196905E+04  0.19674196905E+04  0.50400001928E-02 0. -1.
        1   -1    0    0  501    0  0.00000000000E+00  0.00000000000E+00 -0.94901382951E+03  0.94901382952E+03  0.50400001928E-02 0.  1.
    10030    2    1    2    0    0  0.00000000000E+00  0.00000000000E+00  0.10184058610E+04  0.29164335200E+04  0.27328435702E+04 0.  0.
        2    1    3    3  502    0 -0.24196553976E+03 -0.73750471578E+02 -0.92380920764E+03  0.95781517351E+03  0.25500000920E-02 0.  1.
       -2    1    3    3    0  502  0.24196553976E+03  0.73750471578E+02  0.19422150686E+04  0.19586183465E+04  0.25500000920E-02 0. -1.
</event>
<event>
 5   0  0.7806808E-07  0.2698496E+04  0.7818609E-02  0.8335493E-01
       -1   -1    0    0    0  501  0.00000000000E+00  0.00000000000E+00  0.81314342537E+03  0.81314342538E+03  0.50400001928E-02 0. -1.
        1   -1    0    0  501    0  0.00000000000E+00  0.00000000000E+00 -0.22388059177E+04  0.22388059177E+04  0.50400001928E-02 0.  1.
    10030    2    1    2    0    0  0.00000000000E+00  0.00000000000E+00 -0.14256624923E+04  0.30519493431E+04  0.26984961091E+04 0.  0.
        5    1    3    3  502    0 -0.67506549440E+02 -0.53698628148E+02  0.81001245202E+03  0.81460600250E+03  0.46999998093E+01 0. -1.
       -5    1    3    3    0  502  0.67506549440E+02  0.53698628148E+02 -0.22356749443E+04  0.22373433406E+04  0.46999998093E+01 0.  1.
</event>
<event>
 5   0  0.1991277E-06  0.2699931E+04  0.7818609E-02  0.8335027E-01
        2   -1    0    0  501    0  0.00000000000E+00  0.00000000000E+00  0.22551972162E+04  0.22551972162E+04  0.25500000920E-02 0.  1.
       -2   -1    0    0    0  501  0.00000000000E+00  0.00000000000E+00 -0.80809208255E+03  0.80809208255E+03  0.25500000920E-02 0. -1.
    10030    2    1    2    0    0  0.00000000000E+00  0.00000000000E+00  0.14471051336E+04  0.30632892987E+04  0.26999311213E+04 0.  0.
        5    1    3    3  502    0 -0.12641411969E+03  0.56105879311E+02 -0.80002330074E+03  0.81190379423E+03  0.46999998093E+01 0. -1.
       -5    1    3    3    0  502  0.12641411969E+03 -0.56105879311E+02  0.22471284344E+04  0.22513855045E+04  0.46999998093E+01 0.  1.
</event>
<event>
 5   0  0.1991277E-06  0.2703526E+04  0.7818609E-02  0.8333862E-01
       -2   -1    0    0    0  501  0.00000000000E+00  0.00000000000E+00  0.88113197438E+03  0.88113197438E+03  0.25500000920E-02 0.  1.
        2   -1    0    0  501    0  0.00000000000E+00  0.00000000000E+00 -0.20737672236E+04  0.20737672236E+04  0.25500000920E-02 0. -1.
    10030    2    1    2    0    0  0.00000000000E+00  0.00000000000E+00 -0.11926352492E+04  0.29548991980E+04  0.27035255561E+04 0.  0.
        5    1    3    3  502    0  0.75202538449E+03  0.68626417284E+03 -0.15682342180E+04  0.18697276129E+04  0.46999998093E+01 0. -1.
       -5    1    3    3    0  502 -0.75202538449E+03 -0.68626417284E+03  0.37559896875E+03  0.10851715851E+04  0.46999998093E+01 0.  1.
</event>
<event>
 5   0  0.1991277E-06  0.2702538E+04  0.7818609E-02  0.8334182E-01
       -2   -1    0    0    0  501  0.00000000000E+00  0.00000000000E+00  0.67668725677E+03  0.67668725677E+03  0.25500000920E-02 0.  1.
        2   -1    0    0  501    0  0.00000000000E+00  0.00000000000E+00 -0.26983325480E+04  0.26983325480E+04  0.25500000920E-02 0. -1.
    10030    2    1    2    0    0  0.00000000000E+00  0.00000000000E+00 -0.20216452913E+04  0.33750198048E+04  0.27025375111E+04 0.  0.
        5    1    3    3  502    0 -0.49700732791E+03 -0.85246899712E+03 -0.21636696125E+04  0.23780681145E+04  0.46999998093E+01 0.  1.
       -5    1    3    3    0  502  0.49700732791E+03  0.85246899712E+03  0.14202432123E+03  0.99695169033E+03  0.46999998093E+01 0. -1.
</event>
<event>
 5   0  0.7768032E-07  0.2700759E+04  0.7818609E-02  0.8334759E-01
        1   -1    0    0  501    0  0.00000000000E+00  0.00000000000E+00  0.19577127125E+04  0.19577127125E+04  0.50400001928E-02 0. -1.
       -1   -1    0    0    0  501  0.00000000000E+00  0.00000000000E+00 -0.93145681020E+03  0.93145681021E+03  0.50400001928E-02 0.  1.
    10030    2    1    2    0    0  0.00000000000E+00  0.00000000000E+00  0.10262559023E+04  0.28891695227E+04  0.27007590330E+04 0.  0.
        4    1    3    3  502    0 -0.11599451464E+04 -0.68929322487E+03  0.45526842799E+03  0.14240326004E+04  0.12699999809E+01 0.  1.
       -4    1    3    3    0  502  0.11599451464E+04  0.68929322487E+03  0.57098747433E+03  0.14651369224E+04  0.12699999809E+01 0. -1.
</event>
<event>
 5   0  0.1932012E-06  0.2701005E+04  0.7818609E-02  0.8334679E-01
        2   -1    0    0  501    0  0.00000000000E+00  0.00000000000E+00  0.10502401769E+04  0.10502401769E+04  0.25500000920E-02 0.  1.
       -2   -1    0    0    0  501  0.00000000000E+00  0.00000000000E+00 -0.17366093498E+04  0.17366093498E+04  0.25500000920E-02 0. -1.
    10030    2    1    2    0    0  0.00000000000E+00  0.00000000000E+00 -0.68636917289E+03  0.27868495267E+04  0.27010049321E+04 0.  0.
        2    1    3    3  502    0  0.16636339596E+03  0.61812989573E+03 -0.15701364445E+04  0.16956089767E+04  0.25500000920E-02 0. -1.
       -2    1    3    3    0  502 -0.16636339596E+03 -0.61812989573E+03  0.88376727163E+03  0.10912405500E+04  0.25500000920E-02 0.  1.
</event>
<event>
 5   0  0.2063087E-06  0.2701315E+04  0.7818609E-02  0.8334579E-01
       -2   -1    0    0    0  501  0.00000000000E+00  0.00000000000E+00  0.98883401477E+03  0.98883401477E+03  0.25500000920E-02 0. -1.
        2   -1    0    0  501    0  0.00000000000E+00  0.00000000000E+00 -0.18448750411E+04  0.18448750411E+04  0.25500000920E-02 0.  1.
    10030    2    1    2    0    0  0.00000000000E+00  0.00000000000E+00 -0.85604102633E+03  0.28337090559E+04  0.27013146382E+04 0.  0.
        3    1    3    3  502    0 -0.51102159330E+03 -0.90989439016E+03 -0.13274974170E+04  0.16885793652E+04  0.10100000352E+00 0.  1.
       -3    1    3    3    0  502  0.51102159330E+03  0.90989439016E+03  0.47145639067E+03  0.11451296907E+04  0.10100000352E+00 0. -1.
</event>
<event>
 5   0  0.7335091E-07  0.2694581E+04  0.7818609E-02  0.8336765E-01
        1   -1    0    0  501    0  0.00000000000E+00  0.00000000000E+00  0.12735166844E+04  0.12735166844E+04  0.50400001928E-02 0. -1.
       -1   -1    0    0    0  501  0.00000000000E+00  0.00000000000E+00 -0.14253378117E+04  0.14253378117E+04  0.50400001928E-02 0.  1.
    10030    2    1    2    0    0  0.00000000000E+00  0.00000000000E+00 -0.15182112732E+03  0.26988544961E+04  0.26945808461E+04 0.  0.
        3    1    3    3  502    0 -0.49615509173E+03 -0.63159940829E+03  0.10075184085E+04  0.12884801284E+04  0.10100000352E+00 0. -1.
       -3    1    3    3    0  502  0.49615509173E+03  0.63159940829E+03 -0.11593395358E+04  0.14103743677E+04  0.10100000352E+00 0.  1.
</event>
<event>
 5   0  0.2063087E-06  0.2691529E+04  0.7818609E-02  0.8337759E-01
        2   -1    0    0  501    0  0.00000000000E+00  0.00000000000E+00  0.16579049104E+04  0.16579049104E+04  0.25500000920E-02 0. -1.
       -2   -1    0    0    0  501  0.00000000000E+00  0.00000000000E+00 -0.10923917455E+04  0.10923917455E+04  0.25500000920E-02 0.  1.
    10030    2    1    2    0    0  0.00000000000E+00  0.00000000000E+00  0.56551316483E+03  0.27502966559E+04  0.26915286653E+04 0.  0.
        3    1    3    3  502    0 -0.22204800927E+03 -0.10504552156E+04  0.11118416734E+04  0.15456239502E+04  0.10100000352E+00 0. -1.
       -3    1    3    3    0  502  0.22204800927E+03  0.10504552156E+04 -0.54632850860E+03  0.12046727057E+04  0.10100000352E+00 0.  1.
</event>
<event>
 5   0  0.7566905E-07  0.2695471E+04  0.7818609E-02  0.8336476E-01
        1   -1    0    0  501    0  0.00000000000E+00  0.00000000000E+00  0.14963513284E+04  0.14963513284E+04  0.50400001928E-02 0.  1.
       -1   -1    0    0    0  501  0.00000000000E+00  0.00000000000E+00 -0.12138801236E+04  0.12138801236E+04  0.50400001928E-02 0. -1.
    10030    2    1    2    0    0  0.00000000000E+00  0.00000000000E+00  0.28247120479E+03  0.27102314521E+04  0.26954711169E+04 0.  0.
        1    1    3    3  502    0  0.14589571669E+03 -0.83839070099E+02  0.14857478308E+04  0.14952461893E+04  0.50400001928E-02 0.  1.
       -1    1    3    3    0  502 -0.14589571669E+03  0.83839070099E+02 -0.12032766261E+04  0.12149852627E+04  0.50400001928E-02 0. -1.
</event>
<event>
 5   0  0.1991277E-06  0.2722403E+04  0.7818609E-02  0.8327772E-01
       -2   -1    0    0    0  501  0.00000000000E+00  0.00000000000E+00  0.95184317415E+03  0.95184317416E+03  0.25500000920E-02 0.  1.
        2   -1    0    0  501    0  0.00000000000E+00  0.00000000000E+00 -0.19466124716E+04  0.19466124716E+04  0.25500000920E-02 0. -1.
    10030    2    1    2    0    0  0.00000000000E+00  0.00000000000E+00 -0.99476929745E+03  0.28984556458E+04  0.27224031985E+04 0.  0.
        5    1    3    3  502    0  0.91133561087E+02  0.11147685256E+04 -0.13233320596E+04  0.17326984797E+04  0.46999998093E+01 0. -1.
       -5    1    3    3    0  502 -0.91133561087E+02 -0.11147685256E+04  0.32856276212E+03  0.11657571661E+04  0.46999998093E+01 0.  1.
</event>
<event>
 5   0  0.7335091E-07  0.2696394E+04  0.7818609E-02  0.8336176E-01
       -1   -1    0    0    0  501  0.00000000000E+00  0.00000000000E+00  0.94915529987E+03  0.94915529988E+03  0.50400001928E-02 0. -1.
        1   -1    0    0  501    0  0.00000000000E+00  0.00000000000E+00 -0.19150031590E+04  0.19150031590E+04  0.50400001928E-02 0.  1.
    10030    2    1    2    0    0  0.00000000000E+00  0.00000000000E+00 -0.96584785915E+03  0.28641584589E+04  0.26963941831E+04 0.  0.
        3    1    3    3  502    0 -0.17418427116E+03 -0.13231725154E+04 -0.27996044038E+03  0.13636361407E+04  0.10100000352E+00 0. -1.
       -3    1    3    3    0  502  0.17418427116E+03  0.13231725154E+04 -0.68588741877E+03  0.15005223182E+04  0.10100000352E+00 0.  1.
</event>
<event>
 5   0  0.1932012E-06  0.2707202E+04  0.7818609E-02  0.8332672E-01
       -2   -1    0    0    0  501  0.00000000000E+00  0.00000000000E+00  0.77704034694E+03  0.77704034694E+03  0.25500000920E-02 0. -1.
        2   -1    0    0  501    0  0.00000000000E+00  0.00000000000E+00 -0.23579669601E+04  0.23579669601E+04  0.25500000920E-02 0.  1.
    10030    2    1    2    0    0  0.00000000000E+00  0.00000000000E+00 -0.15809266132E+04  0.31350073070E+04  0.27072018504E+04 0.  0.
        2    1    3    3  502    0  0.10840876595E+04 -0.49598991996E+03 -0.15328498053E+04  0.19418755315E+04  0.25500000920E-02 0.  1.
       -2    1    3    3    0  502 -0.10840876595E+04  0.49598991996E+03 -0.48076807816E+02  0.11931317755E+04  0.25500000920E-02 0. -1.
</event>
<event>
 5   0  0.7806808E-07  0.2713135E+04  0.7818609E-02  0.8330756E-01
        1   -1    0    0  501    0  0.00000000000E+00  0.00000000000E+00  0.16446981958E+04  0.16446981958E+04  0.50400001928E-02 0. -1.
       -1   -1    0    0    0  501  0.00000000000E+00  0.00000000000E+00 -0.11189138663E+04  0.11189138663E+04  0.50400001928E-02 0.  1.
    10030    2    1    2    0    0  0.00000000000E+00  0.00000000000E+00  0.52578432951E+03  0.27636120622E+04  0.27131351734E+04 0.  0.
        5    1    3    3  502    0 -0.10057391307E+04  0.88506345648E+03  0.47994102906E+03  0.14231001379E+04  0.46999998093E+01 0.  1.
       -5    1    3    3    0  502  0.10057391307E+04 -0.88506345648E+03  0.45843300454E+02  0.13405119243E+04  0.46999998093E+01 0. -1.
</event>
<event>
 5   0  0.7436613E-07  0.2697869E+04  0.7818609E-02  0.8335697E-01
       -1   -1    0    0    0  501  0.00000000000E+00  0.00000000000E+00  0.11925548258E+04  0.11925548258E+04  0.50400001928E-02 0. -1.
        1   -1    0    0  501    0  0.00000000000E+00  0.00000000000E+00 -0.15258205112E+04  0.15258205112E+04  0.50400001928E-02 0.  1.
    10030    2    1    2    0    0  0.00000000000E+00  0.00000000000E+00 -0.33326568543E+03  0.27183753370E+04  0.26978692437E+04 0.  0.
        2    1    3    3  502    0  0.88988354647E+03  0.57020944885E+02  0.85322671984E+03  0.12341555615E+04  0.25500000920E-02 0. -1.
       -2    1    3    3    0  502 -0.88988354647E+03 -0.57020944885E+02 -0.11864924053E+04  0.14842197756E+04  0.25500000920E-02 0.  1.
</event>
<event>
 5   0  0.7806808E-07  0.2702424E+04  0.7818609E-02  0.8334219E-01
       -1   -1    0    0    0  501  0.00000000000E+00  0.00000000000E+00  0.11196323179E+04  0.11196323179E+04  0.50400001928E-02 0.  1.
        1   -1    0    0  501    0  0.00000000000E+00  0.00000000000E+00 -0.16306904897E+04  0.16306904897E+04  0.50400001928E-02 0. -1.
    10030    2    1    2    0    0  0.00000000000E+00  0.00000000000E+00 -0.51105817174E+03  0.27503228076E+04  0.27024239288E+04 0.  0.
        5    1    3    3  502    0 -0.53436780918E+03 -0.78922576973E+03  0.71921790871E+03  0.11940363316E+04  0.46999998093E+01 0.  1.
       -5    1    3    3    0  502  0.53436780918E+03  0.78922576973E+03 -0.12302760805E+04  0.15562864759E+04  0.46999998093E+01 0. -1.
</event>
<event>
 5   0  0.1991277E-06  0.2696738E+04  0.7818609E-02  0.8336064E-01
       -2   -1    0    0    0  501  0.00000000000E+00  0.00000000000E+00  0.16035620106E+04  0.16035620106E+04  0.25500000920E-02 0. -1.
        2   -1    0    0  501    0  0.00000000000E+00  0.00000000000E+00 -0.11337877763E+04  0.11337877763E+04  0.25500000920E-02 0.  1.
    10030    2    1    2    0    0  0.00000000000E+00  0.00000000000E+00  0.46977423435E+03  0.27373497869E+04  0.26967380341E+04 0.  0.
        5    1    3    3  502    0 -0.58971344230E+03  0.27621161624E+03 -0.96358067674E+03  0.11629981133E+04  0.46999998093E+01 0.  1.
       -5    1    3    3    0  502  0.58971344230E+03 -0.27621161624E+03  0.14333549111E+04  0.15743516736E+04  0.46999998093E+01 0. -1.
</event>
<event>
 5   0  0.7806808E-07  0.2698618E+04  0.7818609E-02  0.8335454E-01
        1   -1    0    0  501    0  0.00000000000E+00  0.00000000000E+00  0.18214511500E+04  0.18214511500E+04  0.50400001928E-02 0. -1.
       -1   -1    0    0    0  501  0.00000000000E+00  0.00000000000E+00 -0.99955181069E+03  0.99955181070E+03  0.50400001928E-02 0.  1.
    10030    2    1    2    0    0  0.00000000000E+00  0.00000000000E+00  0.82189933933E+03  0.28210029607E+04  0.26986180131E+04 0.  0.
        5    1    3    3  502    0 -0.84841006110E+03  0.65238058789E+03 -0.44802905938E+03  0.11602379891E+04  0.46999998093E+01 0.  1.
       -5    1    3    3    0  502  0.84841006110E+03 -0.65238058789E+03  0.12699283987E+04  0.16607649717E+04  0.46999998093E+01 0. -1.
</event>
<event>
 5   0  0.2030645E-06  0.2699239E+04  0.7818609E-02  0.8335252E-01
       -2   -1    0    0    0  501  0.00000000000E+00  0.00000000000E+00  0.16065671418E+04  0.16065671418E+04  0.25500000920E-02 0.  1.
        2   -1    0    0  501    0  0.00000000000E+00  0.00000000000E+00 -0.11337668319E+04  0.11337668319E+04  0.25500000920E-02 0. -1.
    10030    2    1    2    0    0  0.00000000000E+00  0.00000000000E+00  0.47280030985E+03  0.27403339737E+04  0.26992388102E+04 0.  0.
        1    1    3    3  502    0  0.78880938631E+03  0.10581080774E+04  0.52293748568E+03  0.14196043693E+04  0.50400001928E-02 0.  1.
       -1    1    3    3    0  502 -0.78880938631E+03 -0.10581080774E+04 -0.50137175832E+02  0.13207296044E+04  0.50400001928E-02 0. -1.
</event>
<event>
 5   0  0.1991277E-06  0.2704781E+04  0.7818609E-02  0.8333455E-01
        2   -1    0    0  501    0  0.00000000000E+00  0.00000000000E+00  0.13868696706E+04  0.13868696706E+04  0.25500000920E-02 0. -1.
       -2   -1    0    0    0  501  0.00000000000E+00  0.00000000000E+00 -0.13187682303E+04  0.13187682303E+04  0.25500000920E-02 0.  1.
    10030    2    1    2    0    0  0.00000000000E+00  0.00000000000E+00  0.68101440232E+02  0.27056379009E+04  0.27047807017E+04 0.  0.
        5    1    3    3  502    0  0.13079987782E+03  0.35985976356E+03 -0.12634069519E+04  0.13201616846E+04  0.46999998093E+01 0.  1.
       -5    1    3    3    0  502 -0.13079987782E+03 -0.35985976356E+03  0.13315083921E+04  0.13854762162E+04  0.46999998093E+01 0. -1.
</event>
<event>
 5   0  0.1991277E-06  0.2684430E+04  0.7818609E-02  0.8340075E-01
       -2   -1    0    0    0  501  0.00000000000E+00  0.00000000000E+00  0.94557482499E+03  0.94557482499E+03  0.25500000920E-02 0.  1.
        2   -1    0    0  501    0  0.00000000000E+00  0.00000000000E+00 -0.19052341228E+04  0.19052341228E+04  0.25500000920E-02 0. -1.
    10030    2    1    2    0    0  0.00000000000E+00  0.00000000000E+00 -0.95965929779E+03  0.28508089478E+04  0.26844302354E+04 0.  0.
        5    1    3    3  502    0  0.91464024402E+03 -0.66853139301E+03 -0.12441731132E+04  0.16827031304E+04  0.46999998093E+01 0. -1.
       -5    1    3    3    0  502 -0.91464024402E+03  0.66853139301E+03  0.28451381543E+03  0.11681058174E+04  0.46999998093E+01 0.  1.
</event>
<event>
 5   0  0.7806808E-07  0.2697615E+04  0.7818609E-02  0.8335779E-01
        1   -1    0    0  501    0  0.00000000000E+00  0.00000000000E+00  0.19829288915E+04  0.19829288915E+04  0.50400001928E-02 0. -1.
       -1   -1    0    0    0  501  0.00000000000E+00  0.00000000000E+00 -0.91747198955E+03  0.91747198956E+03  0.50400001928E-02 0.  1.
    10030    2    1    2    0    0  0.00000000000E+00  0.00000000000E+00  0.10654569020E+04  0.29004008811E+04  0.26976150320E+04 0.  0.
        5    1    3    3  502    0 -0.87350302644E+03  0.41597675394E+03  0.15431704254E+04  0.18213844319E+04  0.46999998093E+01 0. -1.
       -5    1    3    3    0  502  0.87350302644E+03 -0.41597675394E+03 -0.47771352345E+03  0.10790164491E+04  0.46999998093E+01 0.  1.
</event>
<event>
 5   0  0.7806808E-07  0.2693797E+04  0.7818609E-02  0.8337021E-01
        1   -1    0    0  501    0  0.00000000000E+00  0.00000000000E+00  0.11829565834E+04  0.11829565834E+04  0.50400001928E-02 0. -1.
       -1   -1    0    0    0  501  0.00000000000E+00  0.00000000000E+00 -0.15335602698E+04  0.15335602698E+04  0.50400001928E-02 0.  1.
    10030    2    1    2    0    0  0.00000000000E+00  0.00000000000E+00 -0.35060368633E+03  0.27165168532E+04  0.26937967386E+04 0.  0.
        5    1    3    3  502    0  0.92596634142E+03 -0.19056824177E+03 -0.11427594061E+04  0.14831220686E+04  0.46999998093E+01 0.  1.
       -5    1    3    3    0  502 -0.92596634142E+03  0.19056824177E+03  0.79215571977E+03  0.12333947846E+04  0.46999998093E+01 0. -1.
</event>
<event>
 5   0  0.1991277E-06  0.2700155E+04  0.7818609E-02  0.8334955E-01
       -2   -1    0    0    0  501  0.00000000000E+00  0.00000000000E+00  0.12252078568E+04  0.12252078568E+04  0.25500000920E-02 0. -1.
        2   -1    0    0  501    0  0.00000000000E+00  0.00000000000E+00 -0.14876731051E+04  0.14876731051E+04  0.25500000920E-02 0.  1.
    10030    2    1    2    0    0  0.00000000000E+00  0.00000000000E+00 -0.26246524835E+03  0.27128809619E+04  0.27001546450E+04 0.  0.
        5    1    3    3  502    0  0.10351730621E+02  0.13162689017E+04  0.17020763022E+03  0.13272768013E+04  0.46999998093E+01 0. -1.
       -5    1    3    3    0  502 -0.10351730621E+02 -0.13162689017E+04 -0.43267287857E+03  0.13856041606E+04  0.46999998093E+01 0.  1.
</event>
<event>
 5   0  0.7768032E-07  0.2721377E+04  0.7818609E-02  0.8328102E-01
       -1   -1    0    0    0  501  0.00000000000E+00  0.00000000000E+00  0.91465750377E+03  0.91465750378E+03  0.50400001928E-02 0. -1.
        1   -1    0    0  501    0  0.00000000000E+00  0.00000000000E+00 -0.20242250345E+04  0.20242250345E+04  0.50400001928E-02 0.  1.
    10030    2    1    2    0    0  0.00000000000E+00  0.00000000000E+00 -0.11095675307E+04  0.29388825383E+04  0.27213765760E+04 0.  0.
        4    1    3    3  502    0 -0.47412003722E+03  0.51071885114E+03  0.70731890082E+03  0.99293765915E+03  0.12699999809E+01 0. -1.
       -4    1    3    3    0  502  0.47412003722E+03 -0.51071885114E+03 -0.18168864316E+04  0.19459448791E+04  0.12699999809E+01 0.  1.
</event>
<event>
 5   0  0.2030645E-06  0.2700146E+04  0.7818609E-02  0.8334958E-01
        2   -1    0    0  501    0  0.00000000000E+00  0.00000000000E+00  0.13388221222E+04  0.13388221222E+04  0.25500000920E-02 0.  1.
       -2   -1    0    0    0  501  0.00000000000E+00  0.00000000000E+00 -0.13614185349E+04  0.13614185349E+04  0.25500000920E-02 0. -1.
    10030    2    1    2    0    0  0.00000000000E+00  0.00000000000E+00 -0.22596412758E+02  0.27002406571E+04  0.27001461087E+04 0.  0.
        1    1    3    3  502    0  0.12728294449E+03  0.13058114489E+04  0.30707242987E+03  0.13474561089E+04  0.50400001928E-02 0. -1.
       -1    1    3    3    0  502 -0.12728294449E+03 -0.13058114489E+04 -0.32966884263E+03  0.13527845482E+04  0.50400001928E-02 0.  1.
</event>
<event>
 5   0  0.7806808E-07  0.2697718E+04  0.7818609E-02  0.8335746E-01
       -1   -1    0    0    0  501  0.00000000000E+00  0.00000000000E+00  0.10385604025E+04  0.10385604026E+04  0.50400001928E-02 0.  1.
        1   -1    0    0  501    0  0.00000000000E+00  0.00000000000E+00 -0.17518677051E+04  0.17518677052E+04  0.50400001928E-02 0. -1.
    10030    2    1    2    0    0  0.00000000000E+00  0.00000000000E+00 -0.71330730261E+03  0.27904281077E+04  0.26977178719E+04 0.  0.
        5    1    3    3  502    0 -0.99691478014E+03  0.57338866938E+03  0.37239819172E+03  0.12088491007E+04  0.46999998093E+01 0.  1.
       -5    1    3    3    0  502  0.99691478014E+03 -0.57338866938E+03 -0.10857054943E+04  0.15815790070E+04  0.46999998093E+01 0. -1.
</event>
<event>
 5   0  0.7566905E-07  0.2704541E+04  0.7818609E-02  0.8333533E-01
       -1   -1    0    0    0  501  0.00000000000E+00  0.00000000000E+00  0.90468987747E+03  0.90468987749E+03  0.50400001928E-02 0.  1.
        1   -1    0    0  501    0  0.00000000000E+00  0.00000000000E+00 -0.20212837996E+04  0.20212837996E+04  0.50400001928E-02 0. -1.
    10030    2    1    2    0    0  0.00000000000E+00  0.00000000000E+00 -0.11165939221E+04  0.29259736771E+04  0.27045406213E+04 0.  0.
        1    1    3    3  502    0  0.10431824544E+04 -0.72697848527E+03 -0.10563208959E+04  0.16530399833E+04  0.50400001928E-02 0.  1.
       -1    1    3    3    0  502 -0.10431824544E+04  0.72697848527E+03 -0.60273026283E+02  0.12729336938E+04  0.50400001928E-02 0. -1.
</event>
<event>
 5   0  0.7566905E-07  0.2699265E+04  0.7818609E-02  0.8335244E-01
       -1   -1    0    0    0  501  0.00000000000E+00  0.00000000000E+00  0.23320721892E+04  0.23320721892E+04  0.50400001928E-02 0. -1.
        1   -1    0    0  501    0  0.00000000000E+00  0.00000000000E+00 -0.78106830798E+03  0.78106830800E+03  0.50400001928E-02 0.  1.
    10030    2    1    2    0    0  0.00000000000E+00  0.00000000000E+00  0.15510038812E+04  0.31131404972E+04  0.26992648473E+04 0.  0.
        1    1    3    3  502    0  0.91301032093E+03 -0.98871345229E+03  0.65808000621E+03  0.14980692345E+04  0.50400001928E-02 0. -1.
       -1    1    3    3    0  502 -0.91301032093E+03  0.98871345229E+03  0.89292387498E+03  0.16150712626E+04  0.50400001928E-02 0.  1.
</event>
<event>
 5   0  0.7768032E-07  0.2700773E+04  0.7818609E-02  0.8334754E-01
       -1   -1    0    0    0  501  0.00000000000E+00  0.00000000000E+00  0.17755191341E+04  0.17755191341E+04  0.50400001928E-02 0. -1.
        1   -1    0    0  501    0  0.00000000000E+00  0.00000000000E+00 -0.10270480649E+04  0.10270480649E+04  0.50400001928E-02 0.  1.
    10030    2    1    2    0    0  0.00000000000E+00  0.00000000000E+00  0.74847106921E+03  0.28025671991E+04  0.27007728457E+04 0.  0.
        4    1    3    3  502    0 -0.46228652998E+03  0.40264646426E+03  0.16227931662E+04  0.17347311849E+04  0.12699999809E+01 0. -1.
       -4    1    3    3    0  502  0.46228652998E+03 -0.40264646426E+03 -0.87432209696E+03  0.10678360141E+04  0.12699999809E+01 0.  1.
</event>
<event>
 5   0  0.1999104E-06  0.2698396E+04  0.7818609E-02  0.8335526E-01
       -2   -1    0    0    0  501  0.00000000000E+00  0.00000000000E+00  0.98323782933E+03  0.98323782933E+03  0.25500000920E-02 0. -1.
        2   -1    0    0  501    0  0.00000000000E+00  0.00000000000E+00 -0.18513684462E+04  0.18513684462E+04  0.25500000920E-02 0.  1.
    10030    2    1    2    0    0  0.00000000000E+00  0.00000000000E+00 -0.86813061690E+03  0.28346062756E+04  0.26983961847E+04 0.  0.
        4    1    3    3  502    0 -0.20090825215E+03  0.11898614306E+04  0.19988719400E+03  0.12231479277E+04  0.12699999809E+01 0. -1.
       -4    1    3    3    0  502  0.20090825215E+03 -0.11898614306E+04 -0.10680178109E+04  0.16114583479E+04  0.12699999809E+01 0.  1.
</event>
<event>
 5   0  0.2063087E-06  0.2701727E+04  0.7818609E-02  0.8334445E-01
       -2   -1    0    0    0  501  0.00000000000E+00  0.00000000000E+00  0.65852594581E+03  0.65852594582E+03  0.25500000920E-02 0. -1.
        2   -1    0    0  501    0  0.00000000000E+00  0.00000000000E+00 -0.27710857876E+04  0.27710857876E+04  0.25500000920E-02 0.  1.
    10030    2    1    2    0    0  0.00000000000E+00  0.00000000000E+00 -0.21125598417E+04  0.34296117334E+04  0.27017267732E+04 0.  0.
        3    1    3    3  502    0  0.59548418717E+03 -0.91794996592E+03 -0.50635573916E+02  0.10953526960E+04  0.10100000352E+00 0. -1.
       -3    1    3    3    0  502 -0.59548418717E+03  0.91794996592E+03 -0.20619242678E+04  0.23342590374E+04  0.10100000352E+00 0.  1.
</event>
<event>
 5   0  0.7566905E-07  0.2705781E+04  0.7818609E-02  0.8333132E-01
       -1   -1    0    0    0  501  0.00000000000E+00  0.00000000000E+00  0.78927417520E+03  0.78927417521E+03  0.50400001928E-02 0. -1.
        1   -1    0    0  501    0  0.00000000000E+00  0.00000000000E+00 -0.23189818440E+04  0.23189818440E+04  0.50400001928E-02 0.  1.
    10030    2    1    2    0    0  0.00000000000E+00  0.00000000000E+00 -0.15297076688E+04  0.31082560192E+04  0.27057808354E+04 0.  0.
        1    1    3    3  502    0  0.98001306255E+03  0.33572581788E+03  0.23473711612E+03  0.10621859259E+04  0.50400001928E-02 0. -1.
       -1    1    3    3    0  502 -0.98001306255E+03 -0.33572581788E+03 -0.17644447849E+04  0.20460700933E+04  0.50400001928E-02 0.  1.
</event>
<event>
 5   0  0.1991277E-06  0.2701439E+04  0.7818609E-02  0.8334538E-01
       -2   -1    0    0    0  501  0.00000000000E+00  0.00000000000E+00  0.85639703964E+03  0.85639703965E+03  0.25500000920E-02 0. -1.
        2   -1    0    0  501    0  0.00000000000E+00  0.00000000000E+00 -0.21303708900E+04  0.21303708900E+04  0.25500000920E-02 0.  1.
    10030    2    1    2    0    0  0.00000000000E+00  0.00000000000E+00 -0.12739738503E+04  0.29867679296E+04  0.27014391154E+04 0.  0.
        5    1    3    3  502    0  0.62286878622E+02  0.92104402037E+03 -0.17271424429E+04  0.19583781174E+04  0.46999998093E+01 0.  1.
       -5    1    3    3    0  502 -0.62286878622E+02 -0.92104402037E+03  0.45316859251E+03  0.10283898123E+04  0.46999998093E+01 0. -1.
</event>
<event>
 5   0  0.2063087E-06  0.2697512E+04  0.7818609E-02  0.8335813E-01
       -2   -1    0    0    0  501  0.00000000000E+00  0.00000000000E+00  0.65530125116E+03  0.65530125116E+03  0.25500000920E-02 0.  1.
        2   -1    0    0  501    0  0.00000000000E+00  0.00000000000E+00 -0.27760405141E+04  0.27760405141E+04  0.25500000920E-02 0. -1.
    10030    2    1    2    0    0  0.00000000000E+00  0.00000000000E+00 -0.21207392629E+04  0.34313417652E+04  0.26975120553E+04 0.  0.
        3    1    3    3  502    0 -0.12199348852E+04  0.30096589593E+03 -0.16839560384E+04  0.21010781861E+04  0.10100000352E+00 0. -1.
       -3    1    3    3    0  502  0.12199348852E+04 -0.30096589593E+03 -0.43678322458E+03  0.13302635792E+04  0.10100000352E+00 0.  1.
</event>
<event>
 5   0  0.1999104E-06  0.2719776E+04  0.7818609E-02  0.8328617E-01
        2   -1    0    0  501    0  0.00000000000E+00  0.00000000000E+00  0.17609015304E+04  0.17609015304E+04  0.25500000920E-02 0.  1.
       -2   -1    0    0    0  501  0.00000000000E+00  0.00000000000E+00 -0.10501980712E+04  0.10501980712E+04  0.25500000920E-02 0. -1.
    10030    2    1    2    0    0  0.00000000000E+00  0.00000000000E+00  0.71070345918E+03  0.28110996016E+04  0.27197760135E+04 0.  0.
        4    1    3    3  502    0  0.57318354864E+03  0.90575779387E+03  0.12203254208E+04  0.16242328365E+04  0.12699999809E+01 0.  1.
       -4    1    3    3    0  502 -0.57318354864E+03 -0.90575779387E+03 -0.50962196159E+03  0.11868667652E+04  0.12699999809E+01 0. -1.
</event>
<event>
 5   0  0.1932012E-06  0.2700873E+04  0.7818609E-02  0.8334722E-01
       -2   -1    0    0    0  501  0.00000000000E+00  0.00000000000E+00  0.12877825870E+04  0.12877825870E+04  0.25500000920E-02 0.  1.
        2   -1    0    0  501    0  0.00000000000E+00  0.00000000000E+00 -0.14161388030E+04  0.14161388030E+04  0.25500000920E-02 0. -1.
    10030    2    1    2    0    0  0.00000000000E+00  0.00000000000E+00 -0.12835621604E+03  0.27039213900E+04  0.27008731116E+04 0.  0.
        2    1    3    3  502    0 -0.68752419982E+03  0.89703150185E+01  0.10994197455E+04  0.12967242454E+04  0.25500000920E-02 0.  1.
       -2    1    3    3    0  502  0.68752419982E+03 -0.89703150185E+01 -0.12277759615E+04  0.14071971445E+04  0.25500000920E-02 0. -1.
</event>
<event>
 5   0  0.1932012E-06  0.2708363E+04  0.7818609E-02  0.8332296E-01
       -2   -1    0    0    0  501  0.00000000000E+00  0.00000000000E+00  0.12051083356E+04  0.12051083356E+04  0.25500000920E-02 0.  1.
        2   -1    0    0  501    0  0.00000000000E+00  0.00000000000E+00 -0.15216954318E+04  0.15216954318E+04  0.25500000920E-02 0. -1.
    10030    2    1    2    0    0  0.00000000000E+00  0.00000000000E+00 -0.31658709616E+03  0.27268037674E+04  0.27083632320E+04 0.  0.
        2    1    3    3  502    0  0.86741488457E+03 -0.49703777656E+03 -0.10779419447E+04  0.14701748092E+04  0.25500000920E-02 0. -1.
       -2    1    3    3    0  502 -0.86741488457E+03  0.49703777656E+03  0.76135484857E+03  0.12566289583E+04  0.25500000920E-02 0.  1.
</event>
<event>
 5   0  0.1932012E-06  0.2700041E+04  0.7818609E-02  0.8334992E-01
       -2   -1    0    0    0  501  0.00000000000E+00  0.00000000000E+00  0.92661699300E+03  0.92661699300E+03  0.25500000920E-02 0.  1.
        2   -1    0    0  501    0  0.00000000000E+00  0.00000000000E+00 -0.19668917252E+04  0.19668917252E+04  0.25500000920E-02 0. -1.
    10030    2    1    2    0    0  0.00000000000E+00  0.00000000000E+00 -0.10402747322E+04  0.28935087182E+04  0.27000409597E+04 0.  0.
        2    1    3    3  502    0 -0.48723451754E+02  0.13465294389E+04 -0.61005281887E+03  0.14790807775E+04  0.25500000920E-02 0.  1.
       -2    1    3    3    0  502  0.48723451754E+02 -0.13465294389E+04 -0.43022191334E+03  0.14144279407E+04  0.25500000920E-02 0. -1.
</event>
<event>
 5   0  0.2063087E-06  0.2698321E+04  0.7818609E-02  0.8335550E-01
       -2   -1    0    0    0  501  0.00000000000E+00  0.00000000000E+00  0.84055750587E+03  0.84055750587E+03  0.25500000920E-02 0.  1.
        2   -1    0    0  501    0  0.00000000000E+00  0.00000000000E+00 -0.21655087194E+04  0.21655087194E+04  0.25500000920E-02 0. -1.
    10030    2    1    2    0    0  0.00000000000E+00  0.00000000000E+00 -0.13249512135E+04  0.30060662252E+04  0.26983214101E+04 0.  0.
        3    1    3    3  502    0 -0.10314790491E+04 -0.70634976776E+03 -0.97315296474E+02  0.12539335310E+04  0.10100000352E+00 0.  1.
       -3    1    3    3    0  502  0.10314790491E+04  0.70634976776E+03 -0.12276359170E+04  0.17521326942E+04  0.10100000352E+00 0. -1.
</event>
<event>
 5   0  0.1999104E-06  0.2700028E+04  0.7818609E-02  0.8334996E-01
        2   -1    0    0  501    0  0.00000000000E+00  0.00000000000E+00  0.26797958586E+04  0.26797958586E+04  0.25500000920E-02 0. -1.
       -2   -1    0    0    0  501  0.00000000000E+00  0.00000000000E+00 -0.68010316955E+03  0.68010316955E+03  0.25500000920E-02 0.  1.
    10030    2    1    2    0    0  0.00000000000E+00  0.00000000000E+00  0.19996926891E+04  0.33598990282E+04  0.27000278941E+04 0.  0.
        4    1    3    3  502    0  0.70248789845E+03 -0.24967851075E+03 -0.40069565055E+03  0.84639661121E+03  0.12699999809E+01 0.  1.
       -4    1    3    3    0  502 -0.70248789845E+03  0.24967851075E+03  0.24003883396E+04  0.25135024170E+04  0.12699999809E+01 0. -1.
</event>
<event>
 5   0  0.2030645E-06  0.2684745E+04  0.7818609E-02  0.8339972E-01
       -2   -1    0    0    0  501  0.00000000000E+00  0.00000000000E+00  0.77165890768E+03  0.77165890768E+03  0.25500000920E-02 0. -1.
        2   -1    0    0  501    0  0.00000000000E+00  0.00000000000E+00 -0.23351812872E+04  0.23351812872E+04  0.25500000920E-02 0.  1.
    10030    2    1    2    0    0  0.00000000000E+00  0.00000000000E+00 -0.15635223795E+04  0.31068401949E+04  0.26847446369E+04 0.  0.
        1    1    3    3  502    0 -0.68444284076E+03  0.45119300426E+03 -0.20118628161E+04  0.21724707409E+04  0.50400001928E-02 0.  1.
       -1    1    3    3    0  502  0.68444284076E+03 -0.45119300426E+03  0.44834043659E+03  0.93436945395E+03  0.50400001928E-02 0. -1.
</event>
<event>
 5   0  0.7566905E-07  0.2699611E+04  0.7818609E-02  0.8335131E-01
       -1   -1    0    0    0  501  0.00000000000E+00  0.00000000000E+00  0.14170015565E+04  0.14170015565E+04  0.50400001928E-02 0. -1.
        1   -1    0    0  501    0  0.00000000000E+00  0.00000000000E+00 -0.12857957511E+04  0.12857957511E+04  0.50400001928E-02 0.  1.
    10030    2    1    2    0    0  0.00000000000E+00  0.00000000000E+00  0.13120580539E+03  0.27027973076E+04  0.26996107724E+04 0.  0.
        1    1    3    3  502    0 -0.12888951162E+04 -0.37726746512E+03 -0.70178785958E+02  0.13448072066E+04  0.50400001928E-02 0.  1.
       -1    1    3    3    0  502  0.12888951162E+04  0.37726746512E+03  0.20138459135E+03  0.13579901010E+04  0.50400001928E-02 0. -1.
</event>
<event>
 5   0  0.7335091E-07  0.2693243E+04  0.7818609E-02  0.8337201E-01
        1   -1    0    0  501    0  0.00000000000E+00  0.00000000000E+00  0.14373529237E+04  0.14373529237E+04  0.50400001928E-02 0.  1.
       -1   -1    0    0    0  501  0.00000000000E+00  0.00000000000E+00 -0.12616174173E+04  0.12616174173E+04  0.50400001928E-02 0. -1.
    10030    2    1    2    0    0  0.00000000000E+00  0.00000000000E+00  0.17573550636E+03  0.26989703410E+04  0.26932430142E+04 0.  0.
        3    1    3    3  502    0 -0.83628188284E+02  0.10159503660E+04  0.96964838551E+03  0.14068997199E+04  0.10100000352E+00 0.  1.
       -3    1    3    3    0  502  0.83628188284E+02 -0.10159503660E+04 -0.79391287915E+03  0.12920706211E+04  0.10100000352E+00 0. -1.
</event>
<event>
 5   0  0.7566905E-07  0.2698644E+04  0.7818609E-02  0.8335445E-01
       -1   -1    0    0    0  501  0.00000000000E+00  0.00000000000E+00  0.94127684287E+03  0.94127684288E+03  0.50400001928E-02 0.  1.
        1   -1    0    0  501    0  0.00000000000E+00  0.00000000000E+00 -0.19342556931E+04  0.19342556931E+04  0.50400001928E-02 0. -1.
    10030    2    1    2    0    0  0.00000000000E+00  0.00000000000E+00 -0.99297885020E+03  0.28755325360E+04  0.26986441722E+04 0.  0.
        1    1    3    3  502    0  0.42022239265E+03  0.10902977814E+04  0.22252514701E+03  0.11894761672E+04  0.50400001928E-02 0. -1.
       -1    1    3    3    0  502 -0.42022239265E+03 -0.10902977814E+04 -0.12155039972E+04  0.16860563687E+04  0.50400001928E-02 0.  1.
</event>
<event>
 5   0  0.1999104E-06  0.2706788E+04  0.7818609E-02  0.8332806E-01
       -2   -1    0    0    0  501  0.00000000000E+00  0.00000000000E+00  0.11698799653E+04  0.11698799653E+04  0.25500000920E-02 0. -1.
        2   -1    0    0  501    0  0.00000000000E+00  0.00000000000E+00 -0.15656945310E+04  0.15656945310E+04  0.25500000920E-02 0.  1.
    10030    2    1    2    0    0  0.00000000000E+00  0.00000000000E+00 -0.39581456576E+03  0.27355744963E+04  0.27067875156E+04 0.  0.
        4    1    3    3  502    0  0.10529069542E+04  0.48294635358E+03 -0.90522394188E+03  0.14701300053E+04  0.12699999809E+01 0.  1.
       -4    1    3    3    0  502 -0.10529069542E+04 -0.48294635358E+03  0.50940937612E+03  0.12654444910E+04  0.12699999809E+01 0. -1.
</event>
<event>
 5   0  0.1932012E-06  0.2706978E+04  0.7818609E-02  0.8332744E-01
       -2   -1    0    0    0  501  0.00000000000E+00  0.00000000000E+00  0.17317292425E+04  0.17317292425E+04  0.25500000920E-02 0.  1.
        2   -1    0    0  501    0  0.00000000000E+00  0.00000000000E+00 -0.10578634300E+04  0.10578634300E+04  0.25500000920E-02 0. -1.
    10030    2    1    2    0    0  0.00000000000E+00  0.00000000000E+00  0.67386581248E+03  0.27895926725E+04  0.27069784161E+04 0.  0.
        2    1    3    3  502    0  0.70818036835E+03  0.57238736948E+03 -0.69502075677E+03  0.11455132418E+04  0.25500000920E-02 0. -1.
       -2    1    3    3    0  502 -0.70818036835E+03 -0.57238736948E+03  0.13688865692E+04  0.16440794307E+04  0.25500000920E-02 0.  1.
</event>
<event>
 5   0  0.1932012E-06  0.2690450E+04  0.7818609E-02  0.8338110E-01
       -2   -1    0    0    0  501  0.00000000000E+00  0.00000000000E+00  0.18839626373E+04  0.18839626373E+04  0.25500000920E-02 0. -1.
        2   -1    0    0  501    0  0.00000000000E+00  0.00000000000E+00 -0.96054488603E+03  0.96054488604E+03  0.25500000920E-02 0.  1.
    10030    2    1    2    0    0  0.00000000000E+00  0.00000000000E+00  0.92341775122E+03  0.28445075233E+04  0.26904502796E+04 0.  0.
        2    1    3    3  502    0 -0.67789531782E+03  0.97181587761E+03 -0.21167785709E+03  0.12036509781E+04  0.25500000920E-02 0.  1.
       -2    1    3    3    0  502  0.67789531782E+03 -0.97181587761E+03  0.11350956083E+04  0.16408565452E+04  0.25500000920E-02 0. -1.
</event>
<event>
 5   0  0.2030645E-06  0.2714868E+04  0.7818609E-02  0.8330197E-01
       -2   -1    0    0    0  501  0.00000000000E+00  0.00000000000E+00  0.86802857448E+03  0.86802857448E+03  0.25500000920E-02 0. -1.
        2   -1    0    0  501    0  0.00000000000E+00  0.00000000000E+00 -0.21227728887E+04  0.21227728887E+04  0.25500000920E-02 0.  1.
    10030    2    1    2    0    0  0.00000000000E+00  0.00000000000E+00 -0.12547443142E+04  0.29908014632E+04  0.27148683390E+04 0.  0.
        1    1    3    3  502    0  0.98219647712E+03  0.71115465829E+03 -0.12994404040E+04  0.17773565290E+04  0.50400001928E-02 0.  1.
       -1    1    3    3    0  502 -0.98219647712E+03 -0.71115465829E+03  0.44696089823E+02  0.12134449341E+04  0.50400001928E-02 0. -1.
</event>
<event>
 5   0  0.1991277E-06  0.2700066E+04  0.7818609E-02  0.8334984E-01
       -2   -1    0    0    0  501  0.00000000000E+00  0.00000000000E+00  0.10428612346E+04  0.10428612346E+04  0.25500000920E-02 0.  1.
        2   -1    0    0  501    0  0.00000000000E+00  0.00000000000E+00 -0.17476807191E+04  0.17476807191E+04  0.25500000920E-02 0. -1.
    10030    2    1    2    0    0  0.00000000000E+00  0.00000000000E+00 -0.70481948456E+03  0.27905419537E+04  0.27000655343E+04 0.  0.
        5    1    3    3  502    0  0.88488684438E+03  0.19055696765E+03  0.68276684445E+03  0.11338118623E+04  0.46999998093E+01 0.  1.
       -5    1    3    3    0  502 -0.88488684438E+03 -0.19055696765E+03 -0.13875863290E+04  0.16567300914E+04  0.46999998093E+01 0. -1.
</event>
<event>
 5   0  0.7436613E-07  0.2700809E+04  0.7818609E-02  0.8334742E-01
       -1   -1    0    0    0  501  0.00000000000E+00  0.00000000000E+00  0.89854075299E+03  0.89854075300E+03  0.50400001928E-02 0. -1.
        1   -1    0    0  501    0  0.00000000000E+00  0.00000000000E+00 -0.20295046711E+04  0.20295046711E+04  0.50400001928E-02 0.  1.
    10030    2    1    2    0    0  0.00000000000E+00  0.00000000000E+00 -0.11309639181E+04  0.29280454241E+04  0.27008092531E+04 0.  0.
        2    1    3    3  502    0  0.38171463228E+03 -0.12948205216E+04 -0.52599778272E+03  0.14487718630E+04  0.25500000920E-02 0.  1.
       -2    1    3    3    0  502 -0.38171463228E+03  0.12948205216E+04 -0.60496613534E+03  0.14792735611E+04  0.25500000920E-02 0. -1.
</event>
<event>
 5   0  0.7335091E-07  0.2691258E+04  0.7818609E-02  0.8337847E-01
       -1   -1    0    0    0  501  0.00000000000E+00  0.00000000000E+00  0.93570835673E+03  0.93570835674E+03  0.50400001928E-02 0.  1.
        1   -1    0    0  501    0  0.00000000000E+00  0.00000000000E+00 -0.19351299824E+04  0.19351299824E+04  0.50400001928E-02 0. -1.
    10030    2    1    2    0    0  0.00000000000E+00  0.00000000000E+00 -0.99942162567E+03  0.28708383391E+04  0.26912579185E+04 0.  0.
        3    1    3    3  502    0  0.12845416805E+04  0.80882716832E+02 -0.91849869597E+03  0.15812113102E+04  0.10100000352E+00 0. -1.
       -3    1    3    3    0  502 -0.12845416805E+04 -0.80882716832E+02 -0.80922929694E+02  0.12896270289E+04  0.10100000352E+00 0.  1.
</event>
<event>
 5   0  0.7566905E-07  0.2697379E+04  0.7818609E-02  0.8335856E-01
        1   -1    0    0  501    0  0.00000000000E+00  0.00000000000E+00  0.12010524651E+04  0.12010524651E+04  0.50400001928E-02 0. -1.
       -1   -1    0    0    0  501  0.00000000000E+00  0.00000000000E+00 -0.15144742278E+04  0.15144742278E+04  0.50400001928E-02 0.  1.
    10030    2    1    2    0    0  0.00000000000E+00  0.00000000000E+00 -0.31342176277E+03  0.27155266929E+04  0.26973787310E+04 0.  0.
        1    1    3    3  502    0 -0.11204655104E+04  0.31791558276E+03  0.52790096696E+03  0.12787465381E+04  0.50400001928E-02 0. -1.
       -1    1    3    3    0  502  0.11204655104E+04 -0.31791558276E+03 -0.84132272974E+03  0.14367801548E+04  0.50400001928E-02 0.  1.
</event>
<event>
 5   0  0.7436613E-07  0.2701634E+04  0.7818609E-02  0.8334475E-01
        1   -1    0    0  501    0  0.00000000000E+00  0.00000000000E+00  0.10101536462E+04  0.10101536462E+04  0.50400001928E-02 0.  1.
       -1   -1    0    0    0  501  0.00000000000E+00  0.00000000000E+00 -0.18063656568E+04  0.18063656568E+04  0.50400001928E-02 0. -1.
    10030    2    1    2    0    0  0.00000000000E+00  0.00000000000E+00 -0.79621201055E+03  0.28165193030E+04  0.27016342126E+04 0.  0.
        2    1    3    3  502    0 -0.10137717646E+04 -0.20568194585E+03 -0.13037642083E+04  0.16642834387E+04  0.25500000920E-02 0. -1.
       -2    1    3    3    0  502  0.10137717646E+04  0.20568194585E+03  0.50755219777E+03  0.11522358643E+04  0.25500000920E-02 0.  1.
</event>
<event>
 5   0  0.2063087E-06  0.2701086E+04  0.7818609E-02  0.8334653E-01
       -2   -1    0    0    0  501  0.00000000000E+00  0.00000000000E+00  0.11628322487E+04  0.11628322487E+04  0.25500000920E-02 0. -1.
        2   -1    0    0  501    0  0.00000000000E+00  0.00000000000E+00 -0.15685549575E+04  0.15685549575E+04  0.25500000920E-02 0.  1.
    10030    2    1    2    0    0  0.00000000000E+00  0.00000000000E+00 -0.40572270883E+03  0.27313872062E+04  0.27010859212E+04 0.  0.
        3    1    3    3  502    0  0.10417156626E+04  0.76544589519E+03 -0.59825586094E+03  0.14244258582E+04  0.10100000352E+00 0.  1.
       -3    1    3    3    0  502 -0.10417156626E+04 -0.76544589519E+03  0.19253315211E+03  0.13069613480E+04  0.10100000352E+00 0. -1.
</event>
<event>
 5   0  0.7436613E-07  0.2703806E+04  0.7818609E-02  0.8333771E-01
       -1   -1    0    0    0  501  0.00000000000E+00  0.00000000000E+00  0.91317894408E+03  0.91317894409E+03  0.50400001928E-02 0. -1.
        1   -1    0    0  501    0  0.00000000000E+00  0.00000000000E+00 -0.20014052392E+04  0.20014052392E+04  0.50400001928E-02 0.  1.
    10030    2    1    2    0    0  0.00000000000E+00  0.00000000000E+00 -0.10882262952E+04  0.29145841833E+04  0.27038055574E+04 0.  0.
        2    1    3    3  502    0  0.77764580091E+03 -0.88912913122E+03 -0.12529114286E+04  0.17219380510E+04  0.25500000920E-02 0.  1.
       -2    1    3    3    0  502 -0.77764580091E+03  0.88912913122E+03  0.16468513347E+03  0.11926461323E+04  0.25500000920E-02 0. -1.
</event>
<event>
 5   0  0.1991277E-06  0.2702125E+04  0.7818609E-02  0.8334316E-01
       -2   -1    0    0    0  501  0.00000000000E+00  0.00000000000E+00  0.12632197847E+04  0.12632197847E+04  0.25500000920E-02 0. -1.
        2   -1    0    0  501    0  0.00000000000E+00  0.00000000000E+00 -0.14450133313E+04  0.14450133313E+04  0.25500000920E-02 0.  1.
    10030    2    1    2    0    0  0.00000000000E+00  0.00000000000E+00 -0.18179354660E+03  0.27082331160E+04  0.27021246672E+04 0.  0.
        5    1    3    3  502    0 -0.72726527977E+03 -0.11158952540E+04 -0.31770534671E+03  0.13693413681E+04  0.46999998093E+01 0.  1.
       -5    1    3    3    0  502  0.72726527977E+03  0.11158952540E+04  0.13591180011E+03  0.13388917479E+04  0.46999998093E+01 0. -1.
</event>
<event>
 5   0  0.2030645E-06  0.2685967E+04  0.7818609E-02  0.8339573E-01
       -2   -1    0    0    0  501  0.00000000000E+00  0.00000000000E+00  0.77913551218E+03  0.77913551219E+03  0.25500000920E-02 0.  1.
        2   -1    0    0  501    0  0.00000000000E+00  0.00000000000E+00 -0.23148787599E+04  0.23148787599E+04  0.25500000920E-02 0. -1.
    10030    2    1    2    0    0  0.00000000000E+00  0.00000000000E+00 -0.15357432477E+04  0.30940142721E+04  0.26859666776E+04 0.  0.
        1    1    3    3  502    0 -0.10935177875E+04 -0.75343446602E+03 -0.53702879264E+03  0.14324261134E+04  0.50400001928E-02 0. -1.
       -1    1    3    3    0  502  0.10935177875E+04  0.75343446602E+03 -0.99871445509E+03  0.16615881587E+04  0.50400001928E-02 0.  1.
</event>
<event>
 5   0  0.7806808E-07  0.2699906E+04  0.7818609E-02  0.8335035E-01
       -1   -1    0    0    0  501  0.00000000000E+00  0.00000000000E+00  0.12715498024E+04  0.12715498024E+04  0.50400001928E-02 0. -1.
        1   -1    0    0  501    0  0.00000000000E+00  0.00000000000E+00 -0.14331904966E+04  0.14331904966E+04  0.50400001928E-02 0.  1.
    10030    2    1    2    0    0  0.00000000000E+00  0.00000000000E+00 -0.16164069418E+03  0.27047402989E+04  0.26999059929E+04 0.  0.
        5    1    3    3  502    0 -0.28174910885E+03 -0.52781651433E+03 -0.12931020542E+04  0.14248185308E+04  0.46999998093E+01 0.  1.
       -5    1    3    3    0  502  0.28174910885E+03  0.52781651433E+03  0.11314613601E+04  0.12799217681E+04  0.46999998093E+01 0. -1.
</event>
<event>
 5   0  0.7335091E-07  0.2708233E+04  0.7818609E-02  0.8332338E-01
        1   -1    0    0  501    0  0.00000000000E+00  0.00000000000E+00  0.19682307507E+04  0.19682307507E+04  0.50400001928E-02 0.  1.
       -1   -1    0    0    0  501  0.00000000000E+00  0.00000000000E+00 -0.93161429493E+03  0.93161429495E+03  0.50400001928E-02 0. -1.
    10030    2    1    2    0    0  0.00000000000E+00  0.00000000000E+00  0.10366164558E+04  0.28998450457E+04  0.27082333010E+04 0.  0.
        3    1    3    3  502    0  0.10793166386E+04 -0.16576278453E+03 -0.33911589353E+03  0.11434165062E+04  0.10100000352E+00 0. -1.
       -3    1    3    3    0  502 -0.10793166386E+04  0.16576278453E+03  0.13757323493E+04  0.17564285395E+04  0.10100000352E+00 0.  1.
</event>
<event>
 5   0  0.7566905E-07  0.2703251E+04  0.7818609E-02  0.8333951E-01
        1   -1    0    0  501    0  0.00000000000E+00  0.00000000000E+00  0.12841745368E+04  0.12841745368E+04  0.50400001928E-02 0. -1.
       -1   -1    0    0    0  501  0.00000000000E+00  0.00000000000E+00 -0.14226195025E+04  0.14226195025E+04  0.50400001928E-02 0.  1.
    10030    2    1    2    0    0  0.00000000000E+00  0.00000000000E+00 -0.13844496568E+03  0.27067940393E+04  0.27032511838E+04 0.  0.
        1    1    3    3  502    0  0.89376154322E+03  0.88031014076E+03 -0.57300820217E+03  0.13791642541E+04  0.50400001928E-02 0.  1.
       -1    1    3    3    0  502 -0.89376154322E+03 -0.88031014076E+03  0.43456323649E+03  0.13276297852E+04  0.50400001928E-02 0. -1.
</event>
<event>
 5   0  0.7806808E-07  0.2708389E+04  0.7818609E-02  0.8332288E-01
       -1   -1    0    0    0  501  0.00000000000E+00  0.00000000000E+00  0.15236537607E+04  0.15236537607E+04  0.50400001928E-02 0. -1.
        1   -1    0    0  501    0  0.00000000000E+00  0.00000000000E+00 -0.12035822506E+04  0.12035822506E+04  0.50400001928E-02 0.  1.
    10030    2    1    2    0    0  0.00000000000E+00  0.00000000000E+00  0.32007151013E+03  0.27272360113E+04  0.27083889104E+04 0.  0.
        5    1    3    3  502    0  0.10163687465E+04 -0.76961615158E+03  0.61983797174E+03  0.14175809151E+04  0.46999998093E+01 0.  1.
       -5    1    3    3    0  502 -0.10163687465E+04  0.76961615158E+03 -0.29976646161E+03  0.13096550962E+04  0.46999998093E+01 0. -1.
</event>
<event>
 5   0  0.1932012E-06  0.2696712E+04  0.7818609E-02  0.8336073E-01
        2   -1    0    0  501    0  0.00000000000E+00  0.00000000000E+00  0.21285990627E+04  0.21285990627E+04  0.25500000920E-02 0. -1.
       -2   -1    0    0    0  501  0.00000000000E+00  0.00000000000E+00 -0.85411291297E+03  0.85411291298E+03  0.25500000920E-02 0.  1.
    10030    2    1    2    0    0  0.00000000000E+00  0.00000000000E+00  0.12744861498E+04  0.29827119757E+04  0.26967120321E+04 0.  0.
        2    1    3    3  502    0  0.52113545490E+03 -0.64762624465E+03 -0.53698011941E+03  0.98962091922E+03  0.25500000920E-02 0.  1.
       -2    1    3    3    0  502 -0.52113545490E+03  0.64762624465E+03  0.18114662692E+04  0.19930910565E+04  0.25500000920E-02 0. -1.
</event>
<event>
 5   0  0.7436613E-07  0.2690299E+04  0.7818609E-02  0.8338159E-01
       -1   -1    0    0    0  501  0.00000000000E+00  0.00000000000E+00  0.12784389913E+04  0.12784389913E+04  0.50400001928E-02 0. -1.
        1   -1    0    0  501    0  0.00000000000E+00  0.00000000000E+00 -0.14153409928E+04  0.14153409928E+04  0.50400001928E-02 0.  1.
    10030    2    1    2    0    0  0.00000000000E+00  0.00000000000E+00 -0.13690200147E+03  0.26937799842E+04  0.26902989509E+04 0.  0.
        2    1    3    3  502    0 -0.52696851583E+03 -0.83580870074E+03 -0.98240536415E+03  0.13933385448E+04  0.25500000920E-02 0.  1.
       -2    1    3    3    0  502  0.52696851583E+03  0.83580870074E+03  0.84550336268E+03  0.13004414394E+04  0.25500000920E-02 0. -1.
</event>
<event>
 5   0  0.1991277E-06  0.2705453E+04  0.7818609E-02  0.8333238E-01
        2   -1    0    0  501    0  0.00000000000E+00  0.00000000000E+00  0.18095029559E+04  0.18095029559E+04  0.25500000920E-02 0.  1.
       -2   -1    0    0    0  501  0.00000000000E+00  0.00000000000E+00 -0.10112551095E+04  0.10112551095E+04  0.25500000920E-02 0. -1.
    10030    2    1    2    0    0  0.00000000000E+00  0.00000000000E+00  0.79824784646E+03  0.28207580654E+04  0.27054530931E+04 0.  0.
        5    1    3    3  502    0 -0.25084577478E+03 -0.32055155376E+03 -0.94588352654E+03  0.10297546490E+04  0.46999998093E+01 0. -1.
       -5    1    3    3    0  502  0.25084577478E+03  0.32055155376E+03  0.17441313730E+04  0.17910034164E+04  0.46999998093E+01 0.  1.
</event>
<event>
 5   0  0.7566905E-07  0.2692211E+04  0.7818609E-02  0.8337537E-01
        1   -1    0    0  501    0  0.00000000000E+00  0.00000000000E+00  0.76821888253E+03  0.76821888255E+03  0.50400001928E-02 0.  1.
       -1   -1    0    0    0  501  0.00000000000E+00  0.00000000000E+00 -0.23587029500E+04  0.23587029500E+04  0.50400001928E-02 0. -1.
    10030    2    1    2    0    0  0.00000000000E+00  0.00000000000E+00 -0.15904840674E+04  0.31269218325E+04  0.26922110946E+04 0.  0.
        1    1    3    3  502    0  0.85946551151E+03  0.10006963187E+03 -0.19929112686E+04  0.21726459034E+04  0.50400001928E-02 0. -1.
       -1    1    3    3    0  502 -0.85946551151E+03 -0.10006963187E+03  0.40242720119E+03  0.95427592917E+03  0.50400001928E-02 0.  1.
</event>
<event>
 5   0  0.1991277E-06  0.2698963E+04  0.7818609E-02  0.8335342E-01
       -2   -1    0    0    0  501  0.00000000000E+00  0.00000000000E+00  0.13425672373E+04  0.13425672373E+04  0.25500000920E-02 0. -1.
        2   -1    0    0  501    0  0.00000000000E+00  0.00000000000E+00 -0.13564313194E+04  0.13564313194E+04  0.25500000920E-02 0.  1.
    10030    2    1    2    0    0  0.00000000000E+00  0.00000000000E+00 -0.13864082067E+02  0.26989985566E+04  0.26989629482E+04 0.  0.
        5    1    3    3  502    0  0.20246810237E+03 -0.13145353278E+04  0.22128512051E+03  0.13483269837E+04  0.46999998093E+01 0.  1.
       -5    1    3    3    0  502 -0.20246810237E+03  0.13145353278E+04 -0.23514920258E+03  0.13506715729E+04  0.46999998093E+01 0. -1.
</event>
<event>
 5   0  0.1991277E-06  0.2698497E+04  0.7818609E-02  0.8335493E-01
       -2   -1    0    0    0  501  0.00000000000E+00  0.00000000000E+00  0.17881609584E+04  0.17881609584E+04  0.25500000920E-02 0.  1.
        2   -1    0    0  501    0  0.00000000000E+00  0.00000000000E+00 -0.10180693549E+04  0.10180693549E+04  0.25500000920E-02 0. -1.
    10030    2    1    2    0    0  0.00000000000E+00  0.00000000000E+00  0.77009160358E+03  0.28062303133E+04  0.26984972658E+04 0.  0.
        5    1    3    3  502    0  0.12285311600E+04  0.55733188377E+03  0.36083225101E+03  0.13964704233E+04  0.46999998093E+01 0. -1.
       -5    1    3    3    0  502 -0.12285311600E+04 -0.55733188377E+03  0.40925935256E+03  0.14097598900E+04  0.46999998093E+01 0.  1.
</event>
<event>
 5   0  0.1991277E-06  0.2698371E+04  0.7818609E-02  0.8335534E-01
       -2   -1    0    0    0  501  0.00000000000E+00  0.00000000000E+00  0.12966476181E+04  0.12966476181E+04  0.25500000920E-02 0.  1.
        2   -1    0    0  501    0  0.00000000000E+00  0.00000000000E+00 -0.14038519675E+04  0.14038519675E+04  0.25500000920E-02 0. -1.
    10030    2    1    2    0    0  0.00000000000E+00  0.00000000000E+00 -0.10720434941E+03  0.27004995856E+04  0.26983708491E+04 0.  0.
        5    1    3    3  502    0  0.55576501062E+03  0.77314546238E+03 -0.10102069456E+04  0.13882250595E+04  0.46999998093E+01 0. -1.
       -5    1    3    3    0  502 -0.55576501062E+03 -0.77314546238E+03  0.90300259615E+03  0.13122745260E+04  0.46999998093E+01 0.  1.
</event>
<event>
 5   0  0.2063087E-06  0.2713055E+04  0.7818609E-02  0.8330782E-01
        2   -1    0    0  501    0  0.00000000000E+00  0.00000000000E+00  0.10503339313E+04  0.10503339313E+04  0.25500000920E-02 0. -1.
       -2   -1    0    0    0  501  0.00000000000E+00  0.00000000000E+00 -0.17519823464E+04  0.17519823464E+04  0.25500000920E-02 0.  1.
    10030    2    1    2    0    0  0.00000000000E+00  0.00000000000E+00 -0.70164841508E+03  0.28023162776E+04  0.27130547399E+04 0.  0.
        3    1    3    3  502    0  0.84657360543E+03 -0.23018713170E+03 -0.14195114191E+04  0.16687377458E+04  0.10100000352E+00 0.  1.
       -3    1    3    3    0  502 -0.84657360543E+03  0.23018713170E+03  0.71786300406E+03  0.11335785318E+04  0.10100000352E+00 0. -1.
</event>
<event>
 5   0  0.7566905E-07  0.2699882E+04  0.7818609E-02  0.8335043E-01
        1   -1    0    0  501    0  0.00000000000E+00  0.00000000000E+00  0.12845158414E+04  0.12845158414E+04  0.50400001928E-02 0.  1.
       -1   -1    0    0    0  501  0.00000000000E+00  0.00000000000E+00 -0.14186982596E+04  0.14186982596E+04  0.50400001928E-02 0. -1.
    10030    2    1    2    0    0  0.00000000000E+00  0.00000000000E+00 -0.13418241815E+03  0.27032141010E+04  0.26998817668E+04 0.  0.
        1    1    3    3  502    0  0.53922329454E+03 -0.71239285188E+03 -0.10803061641E+04  0.14019011181E+04  0.50400001928E-02 0. -1.
       -1    1    3    3    0  502 -0.53922329454E+03  0.71239285188E+03  0.94612374596E+03  0.13013129829E+04  0.50400001928E-02 0.  1.
</event>
<event>
 5   0  0.7768032E-07  0.2699641E+04  0.7818609E-02  0.8335121E-01
        1   -1    0    0  501    0  0.00000000000E+00  0.00000000000E+00  0.20074332381E+04  0.20074332381E+04  0.50400001928E-02 0.  1.
       -1   -1    0    0    0  501  0.00000000000E+00  0.00000000000E+00 -0.90763434957E+03  0.90763434958E+03  0.50400001928E-02 0. -1.
    10030    2    1    2    0    0  0.00000000000E+00  0.00000000000E+00  0.10997988885E+04  0.29150675877E+04  0.26996409846E+04 0.  0.
        4    1    3    3  502    0  0.89651867849E+03  0.97879673207E+03  0.81489030358E+03  0.15575097442E+04  0.12699999809E+01 0.  1.
       -4    1    3    3    0  502 -0.89651867849E+03 -0.97879673207E+03  0.28490858493E+03  0.13575578434E+04  0.12699999809E+01 0. -1.
</event>
<event>
 5   0  0.7806808E-07  0.2699242E+04  0.7818609E-02  0.8335251E-01
       -1   -1    0    0    0  501  0.00000000000E+00  0.00000000000E+00  0.16952025807E+04  0.16952025807E+04  0.50400001928E-02 0. -1.
        1   -1    0    0  501    0  0.00000000000E+00  0.00000000000E+00 -0.10744889161E+04  0.10744889161E+04  0.50400001928E-02 0.  1.
    10030    2    1    2    0    0  0.00000000000E+00  0.00000000000E+00  0.62071366462E+03  0.27696914968E+04  0.26992416591E+04 0.  0.
        5    1    3    3  502    0 -0.19516331828E+03 -0.56855466532E+03  0.15502452144E+04  0.16627162846E+04  0.46999998093E+01 0. -1.
       -5    1    3    3    0  502  0.19516331828E+03  0.56855466532E+03 -0.92953154982E+03  0.11069752122E+04  0.46999998093E+01 0.  1.
</event>
<event>
 5   0  0.1932012E-06  0.2700318E+04  0.7818609E-02  0.8334902E-01
        2   -1    0    0  501    0  0.00000000000E+00  0.00000000000E+00  0.20999362146E+04  0.20999362146E+04  0.25500000920E-02 0.  1.
       -2   -1    0    0    0  501  0.00000000000E+00  0.00000000000E+00 -0.86808785598E+03  0.86808785598E+03  0.25500000920E-02 0. -1.
    10030    2    1    2    0    0  0.00000000000E+00  0.00000000000E+00  0.12318483586E+04  0.29680240706E+04  0.27003178526E+04 0.  0.
        2    1    3    3  502    0 -0.77812361066E+03  0.10585416360E+04  0.95814731368E+03  0.16260482844E+04  0.25500000920E-02 0.  1.
       -2    1    3    3    0  502  0.77812361066E+03 -0.10585416360E+04  0.27370104496E+03  0.13419757862E+04  0.25500000920E-02 0. -1.
</event>
<event>
 5   0  0.7335091E-07  0.2697529E+04  0.7818609E-02  0.8335807E-01
        1   -1    0    0  501    0  0.00000000000E+00  0.00000000000E+00  0.13892547300E+04  0.13892547300E+04  0.50400001928E-02 0. -1.
       -1   -1    0    0    0  501  0.00000000000E+00  0.00000000000E+00 -0.13094547350E+04  0.13094547350E+04  0.50400001928E-02 0.  1.
    10030    2    1    2    0    0  0.00000000000E+00  0.00000000000E+00  0.79799995021E+02  0.26987094650E+04  0.26975293765E+04 0.  0.
        3    1    3    3  502    0  0.55289632997E+03  0.16807032557E+03 -0.11793308890E+04  0.13133024564E+04  0.10100000352E+00 0.  1.
       -3    1    3    3    0  502 -0.55289632997E+03 -0.16807032557E+03  0.12591308840E+04  0.13854070085E+04  0.10100000352E+00 0. -1.
</event>
<event>
 5   0  0.7768032E-07  0.2700891E+04  0.7818609E-02  0.8334716E-01
        1   -1    0    0  501    0  0.00000000000E+00  0.00000000000E+00  0.25448370299E+04  0.25448370299E+04  0.50400001928E-02 0. -1.
       -1   -1    0    0    0  501  0.00000000000E+00  0.00000000000E+00 -0.71662847572E+03  0.71662847574E+03  0.50400001928E-02 0.  1.
    10030    2    1    2    0    0  0.00000000000E+00  0.00000000000E+00  0.18282085542E+04  0.32614655056E+04  0.27008907284E+04 0.  0.
        4    1    3    3  502    0  0.57574057771E+03  0.32295943406E+03 -0.50851326119E+03  0.83328708053E+03  0.12699999809E+01 0.  1.
       -4    1    3    3    0  502 -0.57574057771E+03 -0.32295943406E+03  0.23367218154E+04  0.24281784251E+04  0.12699999809E+01 0. -1.
</event>
<event>
 5   0  0.1999104E-06  0.2697535E+04  0.7818609E-02  0.8335805E-01
        2   -1    0    0  501    0  0.00000000000E+00  0.00000000000E+00  0.25846983308E+04  0.25846983308E+04  0.25500000920E-02 0. -1.
       -2   -1    0    0    0  501  0.00000000000E+00  0.00000000000E+00 -0.70382460957E+03  0.70382460957E+03  0.25500000920E-02 0.  1.
    10030    2    1    2    0    0  0.00000000000E+00  0.00000000000E+00  0.18808737212E+04  0.32885229404E+04  0.26975353889E+04 0.  0.
        4    1    3    3  502    0 -0.43993228258E+03 -0.61533395823E+03  0.23017759736E+04  0.24228806283E+04  0.12699999809E+01 0. -1.
       -4    1    3    3    0  502  0.43993228258E+03  0.61533395823E+03 -0.42090225241E+03  0.86564231204E+03  0.12699999809E+01 0.  1.
</event>
<event>
 5   0  0.7768032E-07  0.2699857E+04  0.7818609E-02  0.8335051E-01
        1   -1    0    0  501    0  0.00000000000E+00  0.00000000000E+00  0.11525337988E+04  0.11525337988E+04  0.50400001928E-02 0.  1.
       -1   -1    0    0    0  501  0.00000000000E+00  0.00000000000E+00 -0.15811309240E+04  0.15811309240E+04  0.50400001928E-02 0. -1.
    10030    2    1    2    0    0  0.00000000000E+00  0.00000000000E+00 -0.42859712524E+03  0.27336647228E+04  0.26998569075E+04 0.  0.
        4    1    3    3  502    0 -0.92888746714E+03  0.83415036305E+03  0.30561595864E+03  0.12853176580E+04  0.12699999809E+01 0.  1.
       -4    1    3    3    0  502  0.92888746714E+03 -0.83415036305E+03 -0.73421308388E+03  0.14483470648E+04  0.12699999809E+01 0. -1.
</event>
<event>
 5   0  0.7768032E-07  0.2699975E+04  0.7818609E-02  0.8335013E-01
        1   -1    0    0  501    0  0.00000000000E+00  0.00000000000E+00  0.14553959039E+04  0.14553959040E+04  0.50400001928E-02 0.  1.
       -1   -1    0    0    0  501  0.00000000000E+00  0.00000000000E+00 -0.12522137287E+04  0.12522137287E+04  0.50400001928E-02 0. -1.
    10030    2    1    2    0    0  0.00000000000E+00  0.00000000000E+00  0.20318217524E+03  0.27076096327E+04  0.26999753567E+04 0.  0.
        4    1    3    3  502    0  0.88108777107E+03  0.25718115238E+02 -0.92379113602E+03  0.12768589420E+04  0.12699999809E+01 0. -1.
       -4    1    3    3    0  502 -0.88108777107E+03 -0.25718115238E+02  0.11269733113E+04  0.14307506907E+04  0.12699999809E+01 0.  1.
</event>
<event>
 5   0  0.7566905E-07  0.2698039E+04  0.7818609E-02  0.8335642E-01
        1   -1    0    0  501    0  0.00000000000E+00  0.00000000000E+00  0.23565779569E+04  0.23565779569E+04  0.50400001928E-02 0. -1.
       -1   -1    0    0    0  501  0.00000000000E+00  0.00000000000E+00 -0.77224399276E+03  0.77224399278E+03  0.50400001928E-02 0.  1.
    10030    2    1    2    0    0  0.00000000000E+00  0.00000000000E+00  0.15843339642E+04  0.31288219497E+04  0.26980386734E+04 0.  0.
        1    1    3    3  502    0  0.72577655385E+02 -0.18592722643E+01  0.23543107555E+04  0.23554299197E+04  0.50400001928E-02 0. -1.
       -1    1    3    3    0  502 -0.72577655385E+02  0.18592722643E+01 -0.76997679132E+03  0.77339203006E+03  0.50400001928E-02 0.  1.
</event>
<event>
 5   0  0.2030645E-06  0.2697518E+04  0.7818609E-02  0.8335811E-01
       -2   -1    0    0    0  501  0.00000000000E+00  0.00000000000E+00  0.80744711164E+03  0.80744711164E+03  0.25500000920E-02 0. -1.
        2   -1    0    0  501    0  0.00000000000E+00  0.00000000000E+00 -0.22529656606E+04  0.22529656606E+04  0.25500000920E-02 0.  1.
    10030    2    1    2    0    0  0.00000000000E+00  0.00000000000E+00 -0.14455185489E+04  0.30604127722E+04  0.26975178333E+04 0.  0.
        1    1    3    3  502    0 -0.12966983533E+04 -0.36563516877E+03 -0.65069282900E+03  0.14961673883E+04  0.50400001928E-02 0.  1.
       -1    1    3    3    0  502  0.12966983533E+04  0.36563516877E+03 -0.79482571995E+03  0.15642453839E+04  0.50400001928E-02 0. -1.
</event>
<event>
 5   0  0.7335091E-07  0.2620405E+04  0.7818609E-02  0.8361303E-01
       -1   -1    0    0    0  501  0.00000000000E+00  0.00000000000E+00  0.15353885297E+04  0.15353885298E+04  0.50400001928E-02 0.  1.
        1   -1    0    0  501    0  0.00000000000E+00  0.00000000000E+00 -0.11180429678E+04  0.11180429678E+04  0.50400001928E-02 0. -1.
    10030    2    1    2    0    0  0.00000000000E+00  0.00000000000E+00  0.41734556200E+03  0.26534314975E+04  0.26204048149E+04 0.  0.
        3    1    3    3  502    0 -0.35019018952E+03 -0.12597467940E+04  0.12373962963E+03  0.13133570192E+04  0.10100000352E+00 0. -1.
       -3    1    3    3    0  502  0.35019018952E+03  0.12597467940E+04  0.29360593237E+03  0.13400744783E+04  0.10100000352E+00 0.  1.
</event>
<event>
 5   0  0.1932012E-06  0.2698692E+04  0.7818609E-02  0.8335430E-01
        2   -1    0    0  501    0  0.00000000000E+00  0.00000000000E+00  0.78204549936E+03  0.78204549936E+03  0.25500000920E-02 0. -1.
       -2   -1    0    0    0  501  0.00000000000E+00  0.00000000000E+00 -0.23281688406E+04  0.23281688406E+04  0.25500000920E-02 0.  1.
    10030    2    1    2    0    0  0.00000000000E+00  0.00000000000E+00 -0.15461233413E+04  0.31102143400E+04  0.26986915078E+04 0.  0.
        2    1    3    3  502    0 -0.46724451024E+02 -0.39998681383E+03 -0.22572972762E+04  0.22929377704E+04  0.25500000920E-02 0.  1.
       -2    1    3    3    0  502  0.46724451024E+02  0.39998681383E+03  0.71117393492E+03  0.81727656964E+03  0.25500000920E-02 0. -1.
</event>
<event>
 5   0  0.2063087E-06  0.2693687E+04  0.7818609E-02  0.8337056E-01
        2   -1    0    0  501    0  0.00000000000E+00  0.00000000000E+00  0.12854063460E+04  0.12854063460E+04  0.25500000920E-02 0. -1.
       -2   -1    0    0    0  501  0.00000000000E+00  0.00000000000E+00 -0.14112166210E+04  0.14112166210E+04  0.25500000920E-02 0.  1.
    10030    2    1    2    0    0  0.00000000000E+00  0.00000000000E+00 -0.12581027500E+03  0.26966229670E+04  0.26936865446E+04 0.  0.
        3    1    3    3  502    0 -0.84354466417E+03  0.55892251997E+03 -0.95270746241E+03  0.13898249900E+04  0.10100000352E+00 0.  1.
       -3    1    3    3    0  502  0.84354466417E+03 -0.55892251997E+03  0.82689718741E+03  0.13067979769E+04  0.10100000352E+00 0. -1.
</event>
<event>
 5   0  0.7806808E-07  0.2691485E+04  0.7818609E-02  0.8337773E-01
       -1   -1    0    0    0  501  0.00000000000E+00  0.00000000000E+00  0.98271011180E+03  0.98271011182E+03  0.50400001928E-02 0.  1.
        1   -1    0    0  501    0  0.00000000000E+00  0.00000000000E+00 -0.18428858283E+04  0.18428858284E+04  0.50400001928E-02 0. -1.
    10030    2    1    2    0    0  0.00000000000E+00  0.00000000000E+00 -0.86017571654E+03  0.28255959402E+04  0.26914847489E+04 0.  0.
        5    1    3    3  502    0  0.13110562742E+04  0.20692483814E+03 -0.19695511440E+03  0.13418270566E+04  0.46999998093E+01 0. -1.
       -5    1    3    3    0  502 -0.13110562742E+04 -0.20692483814E+03 -0.66322060214E+03  0.14837688836E+04  0.46999998093E+01 0.  1.
</event>
<event>
 5   0  0.1999104E-06  0.2677774E+04  0.7818609E-02  0.8342253E-01
        2   -1    0    0  501    0  0.00000000000E+00  0.00000000000E+00  0.53818334173E+03  0.53818334173E+03  0.25500000920E-02 0. -1.
       -2   -1    0    0    0  501  0.00000000000E+00  0.00000000000E+00 -0.33308703339E+04  0.33308703339E+04  0.25500000920E-02 0.  1.
    10030    2    1    2    0    0  0.00000000000E+00  0.00000000000E+00 -0.27926869922E+04  0.38690536756E+04  0.26777743947E+04 0.  0.
        4    1    3    3  502    0  0.15852375271E+03 -0.10705676956E+03 -0.33110238825E+04  0.33165451445E+04  0.12699999809E+01 0.  1.
       -4    1    3    3    0  502 -0.15852375271E+03  0.10705676956E+03  0.51833689039E+03  0.55250853108E+03  0.12699999809E+01 0. -1.
</event>
<event>
 5   0  0.1999104E-06  0.2708933E+04  0.7818609E-02  0.8332112E-01
        2   -1    0    0  501    0  0.00000000000E+00  0.00000000000E+00  0.14906589352E+04  0.14906589352E+04  0.25500000920E-02 0. -1.
       -2   -1    0    0    0  501  0.00000000000E+00  0.00000000000E+00 -0.12307171503E+04  0.12307171503E+04  0.25500000920E-02 0.  1.
    10030    2    1    2    0    0  0.00000000000E+00  0.00000000000E+00  0.25994178497E+03  0.27213760855E+04  0.27089330127E+04 0.  0.
        4    1    3    3  502    0  0.82796844032E+03  0.15595452269E+03  0.11953724995E+04  0.14624536153E+04  0.12699999809E+01 0. -1.
       -4    1    3    3    0  502 -0.82796844032E+03 -0.15595452269E+03 -0.93543071456E+03  0.12589224702E+04  0.12699999809E+01 0.  1.
</event>
<event>
 5   0  0.1932012E-06  0.2696666E+04  0.7818609E-02  0.8336087E-01
       -2   -1    0    0    0  501  0.00000000000E+00  0.00000000000E+00  0.80933729281E+03  0.80933729282E+03  0.25500000920E-02 0.  1.
        2   -1    0    0  501    0  0.00000000000E+00  0.00000000000E+00 -0.22462850593E+04  0.22462850593E+04  0.25500000920E-02 0. -1.
    10030    2    1    2    0    0  0.00000000000E+00  0.00000000000E+00 -0.14369477665E+04  0.30556223521E+04  0.26966662892E+04 0.  0.
        2    1    3    3  502    0  0.68389027071E+03 -0.33545401741E+03  0.54216853601E+03  0.93497701662E+03  0.25500000920E-02 0.  1.
       -2    1    3    3    0  502 -0.68389027071E+03  0.33545401741E+03 -0.19791163025E+04  0.21206453355E+04  0.25500000920E-02 0. -1.
</event>
<event>
 5   0  0.7806808E-07  0.2700070E+04  0.7818609E-02  0.8334982E-01
       -1   -1    0    0    0  501  0.00000000000E+00  0.00000000000E+00  0.13798367855E+04  0.13798367855E+04  0.50400001928E-02 0. -1.
        1   -1    0    0  501    0  0.00000000000E+00  0.00000000000E+00 -0.13208768377E+04  0.13208768377E+04  0.50400001928E-02 0.  1.
    10030    2    1    2    0    0  0.00000000000E+00  0.00000000000E+00  0.58959947810E+02  0.27007136231E+04  0.27000699618E+04 0.  0.
        5    1    3    3  502    0 -0.64142424659E+03  0.11685493084E+04 -0.18420571066E+03  0.13456917865E+04  0.46999998093E+01 0.  1.
       -5    1    3    3    0  502  0.64142424659E+03 -0.11685493084E+04  0.24316565847E+03  0.13550218367E+04  0.46999998093E+01 0. -1.
</event>
<event>
 5   0  0.2063087E-06  0.2698518E+04  0.7818609E-02  0.8335486E-01
        2   -1    0    0  501    0  0.00000000000E+00  0.00000000000E+00  0.15228735099E+04  0.15228735100E+04  0.25500000920E-02 0.  1.
       -2   -1    0    0    0  501  0.00000000000E+00  0.00000000000E+00 -0.11954371296E+04  0.11954371296E+04  0.25500000920E-02 0. -1.
    10030    2    1    2    0    0  0.00000000000E+00  0.00000000000E+00  0.32743638031E+03  0.27183106396E+04  0.26985177691E+04 0.  0.
        3    1    3    3  502    0 -0.32118339908E+03 -0.66960385045E+03 -0.97103059345E+03  0.12224682065E+04  0.10100000352E+00 0. -1.
       -3    1    3    3    0  502  0.32118339908E+03  0.66960385045E+03  0.12984669738E+04  0.14958424331E+04  0.10100000352E+00 0.  1.
</event>
<event>
 5   0  0.6561875E-07  0.2713107E+04  0.7818609E-02  0.8330765E-01
        3   -1    0    0  501    0  0.00000000000E+00  0.00000000000E+00  0.10634103258E+04  0.10634103306E+04  0.10100000352E+00 0. -1.
       -3   -1    0    0    0  501  0.00000000000E+00  0.00000000000E+00 -0.17305058015E+04  0.17305058045E+04  0.10100000352E+00 0.  1.
    10030    2    1    2    0    0  0.00000000000E+00  0.00000000000E+00 -0.66709547575E+03  0.27939161350E+04  0.27131072584E+04 0.  0.
        3    1    3    3  502    0  0.50950374902E+03  0.53442630804E+03 -0.15054372951E+04  0.16767668320E+04  0.10100000352E+00 0.  1.
       -3    1    3    3    0  502 -0.50950374902E+03 -0.53442630804E+03  0.83834181939E+03  0.11171493031E+04  0.10100000352E+00 0. -1.
</event>
<event>
 5   0  0.7335091E-07  0.2712570E+04  0.7818609E-02  0.8330938E-01
        1   -1    0    0  501    0  0.00000000000E+00  0.00000000000E+00  0.25248723109E+04  0.25248723110E+04  0.50400001928E-02 0.  1.
       -1   -1    0    0    0  501  0.00000000000E+00  0.00000000000E+00 -0.72855516541E+03  0.72855516543E+03  0.50400001928E-02 0. -1.
    10030    2    1    2    0    0  0.00000000000E+00  0.00000000000E+00  0.17963171455E+04  0.32534274764E+04  0.27125698252E+04 0.  0.
        3    1    3    3  502    0 -0.10586401582E+04  0.84383346001E+03  0.79972924319E+03  0.15723678849E+04  0.10100000352E+00 0.  1.
       -3    1    3    3    0  502  0.10586401582E+04 -0.84383346001E+03  0.99658790234E+03  0.16810595915E+04  0.10100000352E+00 0. -1.
</event>
<event>
 5   0  0.6561875E-07  0.2680227E+04  0.7818609E-02  0.8341449E-01
        3   -1    0    0  501    0  0.00000000000E+00  0.00000000000E+00  0.22913525307E+04  0.22913525330E+04  0.10100000352E+00 0. -1.
       -3   -1    0    0    0  501  0.00000000000E+00  0.00000000000E+00 -0.78377443771E+03  0.78377444421E+03  0.10100000352E+00 0.  1.
    10030    2    1    2    0    0  0.00000000000E+00  0.00000000000E+00  0.15075780930E+04  0.30751269772E+04  0.26802265238E+04 0.  0.
        5    1    3    3  502    0 -0.12299576432E+03  0.23239577529E+03  0.22614571448E+04  0.22766963483E+04  0.46999998093E+01 0. -1.
       -5    1    3    3    0  502  0.12299576432E+03 -0.23239577529E+03 -0.75387905180E+03  0.79843062889E+03  0.46999998093E+01 0.  1.
</event>
<event>
 5   0  0.1999104E-06  0.2699908E+04  0.7818609E-02  0.8335035E-01
        2   -1    0    0  501    0  0.00000000000E+00  0.00000000000E+00  0.11937370512E+04  0.11937370512E+04  0.25500000920E-02 0. -1.
       -2   -1    0    0    0  501  0.00000000000E+00  0.00000000000E+00 -0.15266138102E+04  0.15266138102E+04  0.25500000920E-02 0.  1.
    10030    2    1    2    0    0  0.00000000000E+00  0.00000000000E+00 -0.33287675902E+03  0.27203508615E+04  0.26999077527E+04 0.  0.
        4    1    3    3  502    0  0.10124034967E+04 -0.82350978101E+03  0.18149448887E+03  0.13176004941E+04  0.12699999809E+01 0.  1.
       -4    1    3    3    0  502 -0.10124034967E+04  0.82350978101E+03 -0.51437124788E+03  0.14027503674E+04  0.12699999809E+01 0. -1.
</event>
<event>
 5   0  0.7768032E-07  0.2689034E+04  0.7818609E-02  0.8338572E-01
        1   -1    0    0  501    0  0.00000000000E+00  0.00000000000E+00  0.15436644364E+04  0.15436644364E+04  0.50400001928E-02 0. -1.
       -1   -1    0    0    0  501  0.00000000000E+00  0.00000000000E+00 -0.11710615086E+04  0.11710615086E+04  0.50400001928E-02 0.  1.
    10030    2    1    2    0    0  0.00000000000E+00  0.00000000000E+00  0.37260292776E+03  0.27147259450E+04  0.26890340301E+04 0.  0.
        4    1    3    3  502    0  0.69775114906E+03  0.31530865150E+03  0.13020522936E+04  0.15105025653E+04  0.12699999809E+01 0. -1.
       -4    1    3    3    0  502 -0.69775114906E+03 -0.31530865150E+03 -0.92944936581E+03  0.12042233797E+04  0.12699999809E+01 0.  1.
</event>
<event>
 5   0  0.7335091E-07  0.2706638E+04  0.7818609E-02  0.8332854E-01
       -1   -1    0    0    0  501  0.00000000000E+00  0.00000000000E+00  0.10373535076E+04  0.10373535076E+04  0.50400001928E-02 0.  1.
        1   -1    0    0  501    0  0.00000000000E+00  0.00000000000E+00 -0.17655236566E+04  0.17655236566E+04  0.50400001928E-02 0. -1.
    10030    2    1    2    0    0  0.00000000000E+00  0.00000000000E+00 -0.72817014895E+03  0.28028771642E+04  0.27066378834E+04 0.  0.
        3    1    3    3  502    0  0.34989418875E+02 -0.67087275517E+03 -0.15806671175E+04  0.17174990712E+04  0.10100000352E+00 0. -1.
       -3    1    3    3    0  502 -0.34989418875E+02  0.67087275517E+03  0.85249696856E+03  0.10853780930E+04  0.10100000352E+00 0.  1.
</event>
<event>
 5   0  0.1932012E-06  0.2699868E+04  0.7818609E-02  0.8335048E-01
       -2   -1    0    0    0  501  0.00000000000E+00  0.00000000000E+00  0.90339131482E+03  0.90339131482E+03  0.25500000920E-02 0.  1.
        2   -1    0    0  501    0  0.00000000000E+00  0.00000000000E+00 -0.20172004740E+04  0.20172004740E+04  0.25500000920E-02 0. -1.
    10030    2    1    2    0    0  0.00000000000E+00  0.00000000000E+00 -0.11138091592E+04  0.29205917888E+04  0.26998676919E+04 0.  0.
        2    1    3    3  502    0  0.10854391280E+04 -0.36854159297E+03 -0.13281580654E+04  0.17544243652E+04  0.25500000920E-02 0. -1.
       -2    1    3    3    0  502 -0.10854391280E+04  0.36854159297E+03  0.21434890620E+03  0.11661674237E+04  0.25500000920E-02 0.  1.
</event>
<event>
 5   0  0.7335091E-07  0.2701470E+04  0.7818609E-02  0.8334528E-01
       -1   -1    0    0    0  501  0.00000000000E+00  0.00000000000E+00  0.96747496233E+03  0.96747496235E+03  0.50400001928E-02 0.  1.
        1   -1    0    0  501    0  0.00000000000E+00  0.00000000000E+00 -0.18858215254E+04  0.18858215254E+04  0.50400001928E-02 0. -1.
    10030    2    1    2    0    0  0.00000000000E+00  0.00000000000E+00 -0.91834656310E+03  0.28532964878E+04  0.27014700512E+04 0.  0.
        3    1    3    3  502    0 -0.10868653798E+04 -0.65213921959E+03  0.33885231796E+02  0.12679550996E+04  0.10100000352E+00 0.  1.
       -3    1    3    3    0  502  0.10868653798E+04  0.65213921959E+03 -0.95223179490E+03  0.15853413882E+04  0.10100000352E+00 0. -1.
</event>
<event>
 5   0  0.1999104E-06  0.2687802E+04  0.7818609E-02  0.8338974E-01
        2   -1    0    0  501    0  0.00000000000E+00  0.00000000000E+00  0.19706398192E+04  0.19706398192E+04  0.25500000920E-02 0. -1.
       -2   -1    0    0    0  501  0.00000000000E+00  0.00000000000E+00 -0.91648938004E+03  0.91648938004E+03  0.25500000920E-02 0.  1.
    10030    2    1    2    0    0  0.00000000000E+00  0.00000000000E+00  0.10541504392E+04  0.28871291992E+04  0.26878024229E+04 0.  0.
        4    1    3    3  502    0  0.12567234918E+04 -0.11136375302E+03  0.10243462614E+04  0.16251285169E+04  0.12699999809E+01 0.  1.
       -4    1    3    3    0  502 -0.12567234918E+04  0.11136375302E+03  0.29804177797E+02  0.12620006824E+04  0.12699999809E+01 0. -1.
</event>
<event>
 5   0  0.2030645E-06  0.2687517E+04  0.7818609E-02  0.8339067E-01
       -2   -1    0    0    0  501  0.00000000000E+00  0.00000000000E+00  0.97521518176E+03  0.97521518176E+03  0.25500000920E-02 0. -1.
        2   -1    0    0  501    0  0.00000000000E+00  0.00000000000E+00 -0.18515776094E+04  0.18515776094E+04  0.25500000920E-02 0.  1.
    10030    2    1    2    0    0  0.00000000000E+00  0.00000000000E+00 -0.87636242767E+03  0.28267927912E+04  0.26875167683E+04 0.  0.
        1    1    3    3  502    0 -0.84314140189E+03  0.46237316539E+03  0.54908270991E+03  0.11073247898E+04  0.50400001928E-02 0. -1.
       -1    1    3    3    0  502  0.84314140189E+03 -0.46237316539E+03 -0.14254451376E+04  0.17194680014E+04  0.50400001928E-02 0.  1.
</event>
<event>
 5   0  0.2063087E-06  0.2698719E+04  0.7818609E-02  0.8335421E-01
       -2   -1    0    0    0  501  0.00000000000E+00  0.00000000000E+00  0.11809111480E+04  0.11809111480E+04  0.25500000920E-02 0.  1.
        2   -1    0    0  501    0  0.00000000000E+00  0.00000000000E+00 -0.15418360096E+04  0.15418360096E+04  0.25500000920E-02 0. -1.
    10030    2    1    2    0    0  0.00000000000E+00  0.00000000000E+00 -0.36092486160E+03  0.27227471576E+04  0.26987192015E+04 0.  0.
        3    1    3    3  502    0 -0.35332216135E+03 -0.83154255567E+02  0.11307317967E+04  0.11875628767E+04  0.10100000352E+00 0.  1.
       -3    1    3    3    0  502  0.35332216135E+03  0.83154255567E+02 -0.14916566583E+04  0.15351842809E+04  0.10100000352E+00 0. -1.
</event>
<event>
 5   0  0.2063087E-06  0.2688997E+04  0.7818609E-02  0.8338584E-01
       -2   -1    0    0    0  501  0.00000000000E+00  0.00000000000E+00  0.90136739881E+03  0.90136739882E+03  0.25500000920E-02 0. -1.
        2   -1    0    0  501    0  0.00000000000E+00  0.00000000000E+00 -0.20054826819E+04  0.20054826819E+04  0.25500000920E-02 0.  1.
    10030    2    1    2    0    0  0.00000000000E+00  0.00000000000E+00 -0.11041152831E+04  0.29068500807E+04  0.26889973658E+04 0.  0.
        3    1    3    3  502    0 -0.83945345033E+03 -0.10212526034E+04 -0.28718057171E+03  0.13528161982E+04  0.10100000352E+00 0. -1.
       -3    1    3    3    0  502  0.83945345033E+03  0.10212526034E+04 -0.81693471141E+03  0.15540338825E+04  0.10100000352E+00 0.  1.
</event>
<event>
 5   0  0.1991277E-06  0.2701776E+04  0.7818609E-02  0.8334429E-01
       -2   -1    0    0    0  501  0.00000000000E+00  0.00000000000E+00  0.11405772825E+04  0.11405772826E+04  0.25500000920E-02 0. -1.
        2   -1    0    0  501    0  0.00000000000E+00  0.00000000000E+00 -0.15999775583E+04  0.15999775583E+04  0.25500000920E-02 0.  1.
    10030    2    1    2    0    0  0.00000000000E+00  0.00000000000E+00 -0.45940027572E+03  0.27405548408E+04  0.27017757535E+04 0.  0.
        5    1    3    3  502    0 -0.64746553517E+03  0.71903988499E+03  0.72651054197E+03  0.12099874516E+04  0.46999998093E+01 0. -1.
       -5    1    3    3    0  502  0.64746553517E+03 -0.71903988499E+03 -0.11859108177E+04  0.15305673892E+04  0.46999998093E+01 0.  1.
</event>
<event>
 5   0  0.7335091E-07  0.2698305E+04  0.7818609E-02  0.8335555E-01
       -1   -1    0    0    0  501  0.00000000000E+00  0.00000000000E+00  0.21271879526E+04  0.21271879526E+04  0.50400001928E-02 0.  1.
        1   -1    0    0  501    0  0.00000000000E+00  0.00000000000E+00 -0.85568970188E+03  0.85568970189E+03  0.50400001928E-02 0. -1.
    10030    2    1    2    0    0  0.00000000000E+00  0.00000000000E+00  0.12714982507E+04  0.29828776545E+04  0.26983052644E+04 0.  0.
        3    1    3    3  502    0 -0.78474066080E+03  0.43837036461E+03  0.17479498553E+04  0.19655317826E+04  0.10100000352E+00 0.  1.
       -3    1    3    3    0  502  0.78474066080E+03 -0.43837036461E+03 -0.47645160466E+03  0.10173458719E+04  0.10100000352E+00 0. -1.
</event>
<event>
 5   0  0.7768032E-07  0.2697629E+04  0.7818609E-02  0.8335775E-01
        1   -1    0    0  501    0  0.00000000000E+00  0.00000000000E+00  0.13916674055E+04  0.13916674055E+04  0.50400001928E-02 0.  1.
       -1   -1    0    0    0  501  0.00000000000E+00  0.00000000000E+00 -0.13072816030E+04  0.13072816030E+04  0.50400001928E-02 0. -1.
    10030    2    1    2    0    0  0.00000000000E+00  0.00000000000E+00  0.84385802442E+02  0.26989490085E+04  0.26976294755E+04 0.  0.
        4    1    3    3  502    0 -0.11200372626E+04 -0.48729761354E+03 -0.53023829881E+03  0.13315767722E+04  0.12699999809E+01 0. -1.
       -4    1    3    3    0  502  0.11200372626E+04  0.48729761354E+03  0.61462410125E+03  0.13673722363E+04  0.12699999809E+01 0.  1.
</event>
<event>
 5   0  0.1999104E-06  0.2699742E+04  0.7818609E-02  0.8335089E-01
        2   -1    0    0  501    0  0.00000000000E+00  0.00000000000E+00  0.23564497369E+04  0.23564497369E+04  0.25500000920E-02 0.  1.
       -2   -1    0    0    0  501  0.00000000000E+00  0.00000000000E+00 -0.77326141689E+03  0.77326141689E+03  0.25500000920E-02 0. -1.
    10030    2    1    2    0    0  0.00000000000E+00  0.00000000000E+00  0.15831883200E+04  0.31297111538E+04  0.26997419598E+04 0.  0.
        4    1    3    3  502    0  0.54678754424E+03 -0.50619999853E+03 -0.51325156454E+03  0.90478938900E+03  0.12699999809E+01 0. -1.
       -4    1    3    3    0  502 -0.54678754424E+03  0.50619999853E+03  0.20964398846E+04  0.22249217648E+04  0.12699999809E+01 0.  1.
</event>
<event>
 5   0  0.7335091E-07  0.2701429E+04  0.7818609E-02  0.8334541E-01
        1   -1    0    0  501    0  0.00000000000E+00  0.00000000000E+00  0.17433316513E+04  0.17433316513E+04  0.50400001928E-02 0.  1.
       -1   -1    0    0    0  501  0.00000000000E+00  0.00000000000E+00 -0.10465191213E+04  0.10465191213E+04  0.50400001928E-02 0. -1.
    10030    2    1    2    0    0  0.00000000000E+00  0.00000000000E+00  0.69681252998E+03  0.27898507726E+04  0.27014291831E+04 0.  0.
        3    1    3    3  502    0  0.49839967495E+03 -0.87915077600E+03 -0.57709716573E+03  0.11637652134E+04  0.10100000352E+00 0. -1.
       -3    1    3    3    0  502 -0.49839967495E+03  0.87915077600E+03  0.12739096957E+04  0.16260855592E+04  0.10100000352E+00 0.  1.
</event>
<event>
 5   0  0.7768032E-07  0.2705406E+04  0.7818609E-02  0.8333253E-01
        1   -1    0    0  501    0  0.00000000000E+00  0.00000000000E+00  0.25508738757E+04  0.25508738757E+04  0.50400001928E-02 0. -1.
       -1   -1    0    0    0  501  0.00000000000E+00  0.00000000000E+00 -0.71732514992E+03  0.71732514994E+03  0.50400001928E-02 0.  1.
    10030    2    1    2    0    0  0.00000000000E+00  0.00000000000E+00  0.18335487257E+04  0.32681990256E+04  0.27054064281E+04 0.  0.
        4    1    3    3  502    0 -0.84273327107E+03 -0.15651131549E+02 -0.36131399743E+03  0.91705710931E+03  0.12699999809E+01 0.  1.
       -4    1    3    3    0  502  0.84273327107E+03  0.15651131549E+02  0.21948627232E+04  0.23511419163E+04  0.12699999809E+01 0. -1.
</event>
<event>
 5   0  0.7806808E-07  0.2700105E+04  0.7818609E-02  0.8334971E-01
       -1   -1    0    0    0  501  0.00000000000E+00  0.00000000000E+00  0.85267030828E+03  0.85267030830E+03  0.50400001928E-02 0.  1.
        1   -1    0    0  501    0  0.00000000000E+00  0.00000000000E+00 -0.21375686713E+04  0.21375686713E+04  0.50400001928E-02 0. -1.
    10030    2    1    2    0    0  0.00000000000E+00  0.00000000000E+00 -0.12848983630E+04  0.29902389796E+04  0.27001046928E+04 0.  0.
        5    1    3    3  502    0 -0.66779981584E+03  0.11616127264E+04 -0.45940583739E+03  0.14164662133E+04  0.46999998093E+01 0. -1.
       -5    1    3    3    0  502  0.66779981584E+03 -0.11616127264E+04 -0.82549252566E+03  0.15737727663E+04  0.46999998093E+01 0.  1.
</event>
<event>
 5   0  0.7335091E-07  0.2702588E+04  0.7818609E-02  0.8334166E-01
        1   -1    0    0  501    0  0.00000000000E+00  0.00000000000E+00  0.16207354273E+04  0.16207354274E+04  0.50400001928E-02 0.  1.
       -1   -1    0    0    0  501  0.00000000000E+00  0.00000000000E+00 -0.11266462509E+04  0.11266462509E+04  0.50400001928E-02 0. -1.
    10030    2    1    2    0    0  0.00000000000E+00  0.00000000000E+00  0.49408917649E+03  0.27473816782E+04  0.27025880136E+04 0.  0.
        3    1    3    3  502    0  0.85855825890E+03  0.10695348269E+03  0.13022439504E+04  0.15634579137E+04  0.10100000352E+00 0.  1.
       -3    1    3    3    0  502 -0.85855825890E+03 -0.10695348269E+03 -0.80815477391E+03  0.11839237645E+04  0.10100000352E+00 0. -1.
</event>
<event>
 5   0  0.7806808E-07  0.2701254E+04  0.7818609E-02  0.8334598E-01
        1   -1    0    0  501    0  0.00000000000E+00  0.00000000000E+00  0.13649839633E+04  0.13649839634E+04  0.50400001928E-02 0. -1.
       -1   -1    0    0    0  501  0.00000000000E+00  0.00000000000E+00 -0.13364211923E+04  0.13364211924E+04  0.50400001928E-02 0.  1.
    10030    2    1    2    0    0  0.00000000000E+00  0.00000000000E+00  0.28562771000E+02  0.27014051557E+04  0.27012541501E+04 0.  0.
        5    1    3    3  502    0  0.11313124592E+04 -0.56654126290E+03 -0.45832785411E+03  0.13457055379E+04  0.46999998093E+01 0.  1.
       -5    1    3    3    0  502 -0.11313124592E+04  0.56654126290E+03  0.48689062511E+03  0.13556996178E+04  0.46999998093E+01 0. -1.
</event>
<event>
 5   0  0.7436613E-07  0.2706472E+04  0.7818609E-02  0.8332908E-01
       -1   -1    0    0    0  501  0.00000000000E+00  0.00000000000E+00  0.10758508049E+04  0.10758508049E+04  0.50400001928E-02 0.  1.
        1   -1    0    0  501    0  0.00000000000E+00  0.00000000000E+00 -0.17021386865E+04  0.17021386865E+04  0.50400001928E-02 0. -1.
    10030    2    1    2    0    0  0.00000000000E+00  0.00000000000E+00 -0.62628788155E+03  0.27779894914E+04  0.27064717076E+04 0.  0.
        2    1    3    3  502    0 -0.11379119225E+04 -0.25063790648E+03 -0.10195034376E+04  0.15482409899E+04  0.25500000920E-02 0. -1.
       -2    1    3    3    0  502  0.11379119225E+04  0.25063790648E+03  0.39321555608E+03  0.12297485015E+04  0.25500000920E-02 0.  1.
</event>
<event>
 5   0  0.7436613E-07  0.2683584E+04  0.7818609E-02  0.8340351E-01
       -1   -1    0    0    0  501  0.00000000000E+00  0.00000000000E+00  0.11155223291E+04  0.11155223291E+04  0.50400001928E-02 0. -1.
        1   -1    0    0  501    0  0.00000000000E+00  0.00000000000E+00 -0.16139580813E+04  0.16139580813E+04  0.50400001928E-02 0.  1.
    10030    2    1    2    0    0  0.00000000000E+00  0.00000000000E+00 -0.49843575218E+03  0.27294804104E+04  0.26835843776E+04 0.  0.
        2    1    3    3  502    0  0.38721709718E+03 -0.12845240573E+04 -0.27120102960E+03  0.13687545918E+04  0.25500000920E-02 0.  1.
       -2    1    3    3    0  502 -0.38721709718E+03  0.12845240573E+04 -0.22723472258E+03  0.13607258186E+04  0.25500000920E-02 0. -1.
</event>
<event>
 5   0  0.1991277E-06  0.2727829E+04  0.7818609E-02  0.8326032E-01
        2   -1    0    0  501    0  0.00000000000E+00  0.00000000000E+00  0.15582989862E+04  0.15582989862E+04  0.25500000920E-02 0. -1.
       -2   -1    0    0    0  501  0.00000000000E+00  0.00000000000E+00 -0.11937775502E+04  0.11937775502E+04  0.25500000920E-02 0.  1.
    10030    2    1    2    0    0  0.00000000000E+00  0.00000000000E+00  0.36452143602E+03  0.27520765363E+04  0.27278286941E+04 0.  0.
        5    1    3    3  502    0 -0.56388903079E+03  0.39945062699E+02  0.14345329889E+04  0.15419057796E+04  0.46999998093E+01 0. -1.
       -5    1    3    3    0  502  0.56388903079E+03 -0.39945062699E+02 -0.10700115529E+04  0.12101707567E+04  0.46999998093E+01 0.  1.
</event>
<event>
 5   0  0.7335091E-07  0.2683940E+04  0.7818609E-02  0.8340235E-01
        1   -1    0    0  501    0  0.00000000000E+00  0.00000000000E+00  0.15998072123E+04  0.15998072123E+04  0.50400001928E-02 0. -1.
       -1   -1    0    0    0  501  0.00000000000E+00  0.00000000000E+00 -0.11256880321E+04  0.11256880321E+04  0.50400001928E-02 0.  1.
    10030    2    1    2    0    0  0.00000000000E+00  0.00000000000E+00  0.47411918020E+03  0.27254952444E+04  0.26839402621E+04 0.  0.
        3    1    3    3  502    0  0.57529373123E+03 -0.23455059195E+03  0.14449750104E+04  0.15728730554E+04  0.10100000352E+00 0. -1.
       -3    1    3    3    0  502 -0.57529373123E+03  0.23455059195E+03 -0.97085583022E+03  0.11526221890E+04  0.10100000352E+00 0.  1.
</event>
<event>
 5   0  0.1991277E-06  0.2722898E+04  0.7818609E-02  0.8327613E-01
        2   -1    0    0  501    0  0.00000000000E+00  0.00000000000E+00  0.14240422182E+04  0.14240422182E+04  0.25500000920E-02 0.  1.
       -2   -1    0    0    0  501  0.00000000000E+00  0.00000000000E+00 -0.13016068352E+04  0.13016068352E+04  0.25500000920E-02 0. -1.
    10030    2    1    2    0    0  0.00000000000E+00  0.00000000000E+00  0.12243538300E+03  0.27256490535E+04  0.27228977836E+04 0.  0.
        5    1    3    3  502    0  0.12892121821E+04  0.35809930787E+02  0.49774385525E+03  0.13824331583E+04  0.46999998093E+01 0.  1.
       -5    1    3    3    0  502 -0.12892121821E+04 -0.35809930787E+02 -0.37530847225E+03  0.13432158952E+04  0.46999998093E+01 0. -1.
</event>
<event>
 5   0  0.7335091E-07  0.2711092E+04  0.7818609E-02  0.8331415E-01
        1   -1    0    0  501    0  0.00000000000E+00  0.00000000000E+00  0.16921719022E+04  0.16921719022E+04  0.50400001928E-02 0. -1.
       -1   -1    0    0    0  501  0.00000000000E+00  0.00000000000E+00 -0.10858857701E+04  0.10858857701E+04  0.50400001928E-02 0.  1.
    10030    2    1    2    0    0  0.00000000000E+00  0.00000000000E+00  0.60628613211E+03  0.27780576724E+04  0.27110923181E+04 0.  0.
        3    1    3    3  502    0  0.10435287220E+04 -0.86055432594E+03  0.21149428813E+03  0.13690273137E+04  0.10100000352E+00 0.  1.
       -3    1    3    3    0  502 -0.10435287220E+04  0.86055432594E+03  0.39479184398E+03  0.14090303587E+04  0.10100000352E+00 0. -1.
</event>
<event>
 5   0  0.1999104E-06  0.2703054E+04  0.7818609E-02  0.8334015E-01
       -2   -1    0    0    0  501  0.00000000000E+00  0.00000000000E+00  0.93101678364E+03  0.93101678365E+03  0.25500000920E-02 0. -1.
        2   -1    0    0  501    0  0.00000000000E+00  0.00000000000E+00 -0.19619680829E+04  0.19619680829E+04  0.25500000920E-02 0.  1.
    10030    2    1    2    0    0  0.00000000000E+00  0.00000000000E+00 -0.10309512992E+04  0.28929848665E+04  0.27030539870E+04 0.  0.
        4    1    3    3  502    0  0.84415351557E+03 -0.51268215300E+03 -0.15028993307E+04  0.17983731979E+04  0.12699999809E+01 0.  1.
       -4    1    3    3    0  502 -0.84415351557E+03  0.51268215300E+03  0.47194803142E+03  0.10946116686E+04  0.12699999809E+01 0. -1.
</event>
<event>
 5   0  0.7768032E-07  0.2692513E+04  0.7818609E-02  0.8337438E-01
       -1   -1    0    0    0  501  0.00000000000E+00  0.00000000000E+00  0.11806047973E+04  0.11806047973E+04  0.50400001928E-02 0. -1.
        1   -1    0    0  501    0  0.00000000000E+00  0.00000000000E+00 -0.15351514374E+04  0.15351514374E+04  0.50400001928E-02 0.  1.
    10030    2    1    2    0    0  0.00000000000E+00  0.00000000000E+00 -0.35454664009E+03  0.27157562347E+04  0.26925134366E+04 0.  0.
        4    1    3    3  502    0  0.10121743061E+04 -0.40140225001E+03 -0.97580506288E+03  0.14621278077E+04  0.12699999809E+01 0.  1.
       -4    1    3    3    0  502 -0.10121743061E+04  0.40140225001E+03  0.62125842279E+03  0.12536284271E+04  0.12699999809E+01 0. -1.
</event>
<event>
 5   0  0.1999104E-06  0.2700095E+04  0.7818609E-02  0.8334974E-01
        2   -1    0    0  501    0  0.00000000000E+00  0.00000000000E+00  0.19530922595E+04  0.19530922595E+04  0.25500000920E-02 0. -1.
       -2   -1    0    0    0  501  0.00000000000E+00  0.00000000000E+00 -0.93320126251E+03  0.93320126252E+03  0.25500000920E-02 0.  1.
    10030    2    1    2    0    0  0.00000000000E+00  0.00000000000E+00  0.10198909970E+04  0.28862935221E+04  0.27000949335E+04 0.  0.
        4    1    3    3  502    0 -0.36874800564E+03  0.96197397058E+02 -0.87451146118E+03  0.95393969385E+03  0.12699999809E+01 0.  1.
       -4    1    3    3    0  502  0.36874800564E+03 -0.96197397058E+02  0.18944024582E+04  0.19323538282E+04  0.12699999809E+01 0. -1.
</event>
<event>
 5   0  0.1932012E-06  0.2719647E+04  0.7818609E-02  0.8328658E-01
        2   -1    0    0  501    0  0.00000000000E+00  0.00000000000E+00  0.12120911922E+04  0.12120911922E+04  0.25500000920E-02 0.  1.
       -2   -1    0    0    0  501  0.00000000000E+00  0.00000000000E+00 -0.15255620781E+04  0.15255620781E+04  0.25500000920E-02 0. -1.
    10030    2    1    2    0    0  0.00000000000E+00  0.00000000000E+00 -0.31347088582E+03  0.27376532703E+04  0.27196472992E+04 0.  0.
        2    1    3    3  502    0 -0.10213124024E+04 -0.56884317349E+03  0.54245577348E+03  0.12887667925E+04  0.25500000920E-02 0.  1.
       -2    1    3    3    0  502  0.10213124024E+04  0.56884317349E+03 -0.85592665929E+03  0.14488864778E+04  0.25500000920E-02 0. -1.
</event>
<event>
 5   0  0.7566905E-07  0.2699716E+04  0.7818609E-02  0.8335097E-01
       -1   -1    0    0    0  501  0.00000000000E+00  0.00000000000E+00  0.11689291187E+04  0.11689291187E+04  0.50400001928E-02 0.  1.
        1   -1    0    0  501    0  0.00000000000E+00  0.00000000000E+00 -0.15587918388E+04  0.15587918388E+04  0.50400001928E-02 0. -1.
    10030    2    1    2    0    0  0.00000000000E+00  0.00000000000E+00 -0.38986272012E+03  0.27277209576E+04  0.26997164077E+04 0.  0.
        1    1    3    3  502    0 -0.43371553146E+03 -0.42381288765E+03 -0.14134223737E+04  0.15380147374E+04  0.50400001928E-02 0. -1.
       -1    1    3    3    0  502  0.43371553146E+03  0.42381288765E+03  0.10235596536E+04  0.11897062202E+04  0.50400001928E-02 0.  1.
</event>
<event>
 5   0  0.7566905E-07  0.2699570E+04  0.7818609E-02  0.8335144E-01
        1   -1    0    0  501    0  0.00000000000E+00  0.00000000000E+00  0.19901019428E+04  0.19901019428E+04  0.50400001928E-02 0.  1.
       -1   -1    0    0    0  501  0.00000000000E+00  0.00000000000E+00 -0.91549056486E+03  0.91549056488E+03  0.50400001928E-02 0. -1.
    10030    2    1    2    0    0  0.00000000000E+00  0.00000000000E+00  0.10746113779E+04  0.29055925077E+04  0.26995700041E+04 0.  0.
        1    1    3    3  502    0  0.56764613601E+03 -0.36501426023E+03 -0.72086305912E+03  0.98747207349E+03  0.50400001928E-02 0. -1.
       -1    1    3    3    0  502 -0.56764613601E+03  0.36501426023E+03  0.17954744370E+04  0.19181204342E+04  0.50400001928E-02 0.  1.
</event>
<event>
 5   0  0.1991277E-06  0.2687615E+04  0.7818609E-02  0.8339035E-01
        2   -1    0    0  501    0  0.00000000000E+00  0.00000000000E+00  0.14013358424E+04  0.14013358424E+04  0.25500000920E-02 0.  1.
       -2   -1    0    0    0  501  0.00000000000E+00  0.00000000000E+00 -0.12886408601E+04  0.12886408601E+04  0.25500000920E-02 0. -1.
    10030    2    1    2    0    0  0.00000000000E+00  0.00000000000E+00  0.11269498235E+03  0.26899767025E+04  0.26876150210E+04 0.  0.
        5    1    3    3  502    0  0.21319260385E+03 -0.13247689591E+04 -0.16741700369E+02  0.13419263228E+04  0.46999998093E+01 0.  1.
       -5    1    3    3    0  502 -0.21319260385E+03  0.13247689591E+04  0.12943668272E+03  0.13480503797E+04  0.46999998093E+01 0. -1.
</event>
<event>
 5   0  0.2063087E-06  0.2663362E+04  0.7818609E-02  0.8346992E-01
        2   -1    0    0  501    0  0.00000000000E+00  0.00000000000E+00  0.20393653721E+04  0.20393653721E+04  0.25500000920E-02 0. -1.
       -2   -1    0    0    0  501  0.00000000000E+00  0.00000000000E+00 -0.86957137460E+03  0.86957137460E+03  0.25500000920E-02 0.  1.
    10030    2    1    2    0    0  0.00000000000E+00  0.00000000000E+00  0.11697939975E+04  0.29089367467E+04  0.26633615976E+04 0.  0.
        3    1    3    3  502    0  0.28373241199E+03  0.12999821406E+04  0.52591699801E+03  0.14307502740E+04  0.10100000352E+00 0. -1.
       -3    1    3    3    0  502 -0.28373241199E+03 -0.12999821406E+04  0.64387699946E+03  0.14781864727E+04  0.10100000352E+00 0.  1.
</event>
<event>
 5   0  0.1991277E-06  0.2707750E+04  0.7818609E-02  0.8332495E-01
       -2   -1    0    0    0  501  0.00000000000E+00  0.00000000000E+00  0.90693949471E+03  0.90693949471E+03  0.25500000920E-02 0.  1.
        2   -1    0    0  501    0  0.00000000000E+00  0.00000000000E+00 -0.20210581520E+04  0.20210581520E+04  0.25500000920E-02 0. -1.
    10030    2    1    2    0    0  0.00000000000E+00  0.00000000000E+00 -0.11141186572E+04  0.29279976467E+04  0.27077499583E+04 0.  0.
        5    1    3    3  502    0  0.77271343663E+03 -0.14767404609E+03 -0.17485277685E+04  0.19173588935E+04  0.46999998093E+01 0. -1.
       -5    1    3    3    0  502 -0.77271343663E+03  0.14767404609E+03  0.63440911128E+03  0.10106387532E+04  0.46999998093E+01 0.  1.
</event>
<event>
 5   0  0.7436613E-07  0.2697083E+04  0.7818609E-02  0.8335952E-01
       -1   -1    0    0    0  501  0.00000000000E+00  0.00000000000E+00  0.88136632330E+03  0.88136632331E+03  0.50400001928E-02 0. -1.
        1   -1    0    0  501    0  0.00000000000E+00  0.00000000000E+00 -0.20633458164E+04  0.20633458164E+04  0.50400001928E-02 0.  1.
    10030    2    1    2    0    0  0.00000000000E+00  0.00000000000E+00 -0.11819794931E+04  0.29447121397E+04  0.26970825096E+04 0.  0.
        2    1    3    3  502    0 -0.22679997004E+03  0.26310774550E+03  0.83168170785E+03  0.90130925621E+03  0.25500000920E-02 0. -1.
       -2    1    3    3    0  502  0.22679997004E+03 -0.26310774550E+03 -0.20136612009E+04  0.20434028835E+04  0.25500000920E-02 0.  1.
</event>
<event>
 5   0  0.1999104E-06  0.2701980E+04  0.7818609E-02  0.8334363E-01
        2   -1    0    0  501    0  0.00000000000E+00  0.00000000000E+00  0.27196918879E+04  0.27196918879E+04  0.25500000920E-02 0. -1.
       -2   -1    0    0    0  501  0.00000000000E+00  0.00000000000E+00 -0.67109587897E+03  0.67109587898E+03  0.25500000920E-02 0.  1.
    10030    2    1    2    0    0  0.00000000000E+00  0.00000000000E+00  0.20485960089E+04  0.33907877669E+04  0.27019800281E+04 0.  0.
        4    1    3    3  502    0 -0.89641657683E+03 -0.24279170425E+03 -0.20697786480E+03  0.95149983725E+03  0.12699999809E+01 0.  1.
       -4    1    3    3    0  502  0.89641657683E+03  0.24279170425E+03  0.22555738737E+04  0.24392879296E+04  0.12699999809E+01 0. -1.
</event>
<event>
 5   0  0.7335091E-07  0.2625276E+04  0.7818609E-02  0.8359666E-01
       -1   -1    0    0    0  501  0.00000000000E+00  0.00000000000E+00  0.15174581474E+04  0.15174581474E+04  0.50400001928E-02 0. -1.
        1   -1    0    0  501    0  0.00000000000E+00  0.00000000000E+00 -0.11354640140E+04  0.11354640140E+04  0.50400001928E-02 0.  1.
    10030    2    1    2    0    0  0.00000000000E+00  0.00000000000E+00  0.38199413337E+03  0.26529221614E+04  0.26252764572E+04 0.  0.
        3    1    3    3  502    0  0.67043102542E+03 -0.24204197655E+03 -0.92286117592E+03  0.11660766864E+04  0.10100000352E+00 0.  1.
       -3    1    3    3    0  502 -0.67043102542E+03  0.24204197655E+03  0.13048553093E+04  0.14868454750E+04  0.10100000352E+00 0. -1.
</event>
<event>
 5   0  0.2063087E-06  0.2695568E+04  0.7818609E-02  0.8336444E-01
        2   -1    0    0  501    0  0.00000000000E+00  0.00000000000E+00  0.19147828302E+04  0.19147828302E+04  0.25500000920E-02 0. -1.
       -2   -1    0    0    0  501  0.00000000000E+00  0.00000000000E+00 -0.94868319107E+03  0.94868319107E+03  0.25500000920E-02 0.  1.
    10030    2    1    2    0    0  0.00000000000E+00  0.00000000000E+00  0.96609963909E+03  0.28634660212E+04  0.26955684265E+04 0.  0.
        3    1    3    3  502    0 -0.13059145315E+04  0.32919514826E+03  0.53865588780E+03  0.14504938417E+04  0.10100000352E+00 0.  1.
       -3    1    3    3    0  502  0.13059145315E+04 -0.32919514826E+03  0.42744375129E+03  0.14129721795E+04  0.10100000352E+00 0. -1.
</event>
<event>
 5   0  0.7566905E-07  0.2694208E+04  0.7818609E-02  0.8336887E-01
       -1   -1    0    0    0  501  0.00000000000E+00  0.00000000000E+00  0.11332679375E+04  0.11332679375E+04  0.50400001928E-02 0. -1.
        1   -1    0    0  501    0  0.00000000000E+00  0.00000000000E+00 -0.16012891110E+04  0.16012891110E+04  0.50400001928E-02 0.  1.
    10030    2    1    2    0    0  0.00000000000E+00  0.00000000000E+00 -0.46802117354E+03  0.27345570485E+04  0.26942083128E+04 0.  0.
        1    1    3    3  502    0 -0.41176832726E+03 -0.23350806375E+03 -0.15140924083E+04  0.15863653400E+04  0.50400001928E-02 0.  1.
       -1    1    3    3    0  502  0.41176832726E+03  0.23350806375E+03  0.10460712348E+04  0.11481917085E+04  0.50400001928E-02 0. -1.
</event>
<event>
 5   0  0.1991277E-06  0.2699829E+04  0.7818609E-02  0.8335060E-01
       -2   -1    0    0    0  501  0.00000000000E+00  0.00000000000E+00  0.10802675245E+04  0.10802675245E+04  0.25500000920E-02 0. -1.
        2   -1    0    0  501    0  0.00000000000E+00  0.00000000000E+00 -0.16868689467E+04  0.16868689467E+04  0.25500000920E-02 0.  1.
    10030    2    1    2    0    0  0.00000000000E+00  0.00000000000E+00 -0.60660142221E+03  0.27671364712E+04  0.26998294325E+04 0.  0.
        5    1    3    3  502    0  0.48485082939E+03  0.12510988822E+04 -0.15155943213E+03  0.13503040737E+04  0.46999998093E+01 0.  1.
       -5    1    3    3    0  502 -0.48485082939E+03 -0.12510988822E+04 -0.45504199007E+03  0.14168323975E+04  0.46999998093E+01 0. -1.
</event>
<event>
 5   0  0.7768032E-07  0.2700238E+04  0.7818609E-02  0.8334928E-01
        1   -1    0    0  501    0  0.00000000000E+00  0.00000000000E+00  0.25164543687E+04  0.25164543687E+04  0.50400001928E-02 0.  1.
       -1   -1    0    0    0  501  0.00000000000E+00  0.00000000000E+00 -0.72436113598E+03  0.72436113600E+03  0.50400001928E-02 0. -1.
    10030    2    1    2    0    0  0.00000000000E+00  0.00000000000E+00  0.17920932327E+04  0.32408155047E+04  0.27002383192E+04 0.  0.
        4    1    3    3  502    0 -0.16977940378E+03 -0.10805006542E+04  0.18460330466E+04  0.21457274598E+04  0.12699999809E+01 0.  1.
       -4    1    3    3    0  502  0.16977940378E+03  0.10805006542E+04 -0.53939813888E+02  0.10950880449E+04  0.12699999809E+01 0. -1.
</event>
<event>
 5   0  0.1932012E-06  0.2680942E+04  0.7818609E-02  0.8341215E-01
       -2   -1    0    0    0  501  0.00000000000E+00  0.00000000000E+00  0.14035881372E+04  0.14035881372E+04  0.25500000920E-02 0.  1.
        2   -1    0    0  501    0  0.00000000000E+00  0.00000000000E+00 -0.12801920687E+04  0.12801920687E+04  0.25500000920E-02 0. -1.
    10030    2    1    2    0    0  0.00000000000E+00  0.00000000000E+00  0.12339606843E+03  0.26837802059E+04  0.26809419247E+04 0.  0.
        2    1    3    3  502    0  0.85095083493E+03  0.41404278180E+03 -0.88868245933E+03  0.12981930758E+04  0.25500000920E-02 0. -1.
       -2    1    3    3    0  502 -0.85095083493E+03 -0.41404278180E+03  0.10120785278E+04  0.13855871301E+04  0.25500000920E-02 0.  1.
</event>
<event>
 5   0  0.2063087E-06  0.2683082E+04  0.7818609E-02  0.8340515E-01
       -2   -1    0    0    0  501  0.00000000000E+00  0.00000000000E+00  0.58657464020E+03  0.58657464021E+03  0.25500000920E-02 0.  1.
        2   -1    0    0  501    0  0.00000000000E+00  0.00000000000E+00 -0.30682062350E+04  0.30682062350E+04  0.25500000920E-02 0. -1.
    10030    2    1    2    0    0  0.00000000000E+00  0.00000000000E+00 -0.24816315948E+04  0.36547808752E+04  0.26830817866E+04 0.  0.
        3    1    3    3  502    0  0.84298612870E+03 -0.66198141451E+03 -0.14186002334E+03  0.10811888284E+04  0.10100000352E+00 0.  1.
       -3    1    3    3    0  502 -0.84298612870E+03  0.66198141451E+03 -0.23397715714E+04  0.25735920467E+04  0.10100000352E+00 0. -1.
</event>
<event>
 5   0  0.7806808E-07  0.2710469E+04  0.7818609E-02  0.8331616E-01
        1   -1    0    0  501    0  0.00000000000E+00  0.00000000000E+00  0.19877952667E+04  0.19877952667E+04  0.50400001928E-02 0.  1.
       -1   -1    0    0    0  501  0.00000000000E+00  0.00000000000E+00 -0.92396853866E+03  0.92396853868E+03  0.50400001928E-02 0. -1.
    10030    2    1    2    0    0  0.00000000000E+00  0.00000000000E+00  0.10638267281E+04  0.29117638054E+04  0.27104688065E+04 0.  0.
        5    1    3    3  502    0  0.79149346903E+03  0.68415340323E+03  0.14573485136E+04  0.17939940275E+04  0.46999998093E+01 0.  1.
       -5    1    3    3    0  502 -0.79149346903E+03 -0.68415340323E+03 -0.39352178555E+03  0.11177697779E+04  0.46999998093E+01 0. -1.
</event>
<event>
 5   0  0.7436613E-07  0.2700738E+04  0.7818609E-02  0.8334766E-01
        1   -1    0    0  501    0  0.00000000000E+00  0.00000000000E+00  0.13012501126E+04  0.13012501126E+04  0.50400001928E-02 0.  1.
       -1   -1    0    0    0  501  0.00000000000E+00  0.00000000000E+00 -0.14013417510E+04  0.14013417510E+04  0.50400001928E-02 0. -1.
    10030    2    1    2    0    0  0.00000000000E+00  0.00000000000E+00 -0.10009163849E+03  0.27025918636E+04  0.27007377594E+04 0.  0.
        2    1    3    3  502    0 -0.40097994031E+03 -0.45308233936E+03  0.11580226304E+04  0.13065546032E+04  0.25500000920E-02 0.  1.
       -2    1    3    3    0  502  0.40097994031E+03  0.45308233936E+03 -0.12581142689E+04  0.13960372604E+04  0.25500000920E-02 0. -1.
</event>
<event>
 5   0  0.1999104E-06  0.2701021E+04  0.7818609E-02  0.8334674E-01
       -2   -1    0    0    0  501  0.00000000000E+00  0.00000000000E+00  0.11819748672E+04  0.11819748672E+04  0.25500000920E-02 0.  1.
        2   -1    0    0  501    0  0.00000000000E+00  0.00000000000E+00 -0.15430768810E+04  0.15430768810E+04  0.25500000920E-02 0. -1.
    10030    2    1    2    0    0  0.00000000000E+00  0.00000000000E+00 -0.36110201378E+03  0.27250517483E+04  0.27010206157E+04 0.  0.
        4    1    3    3  502    0 -0.16849081514E+03 -0.78941658827E+03  0.91181420935E+03  0.12177743920E+04  0.12699999809E+01 0.  1.
       -4    1    3    3    0  502  0.16849081514E+03  0.78941658827E+03 -0.12729162231E+04  0.15072773562E+04  0.12699999809E+01 0. -1.
</event>
<event>
 5   0  0.1932012E-06  0.2699778E+04  0.7818609E-02  0.8335077E-01
       -2   -1    0    0    0  501  0.00000000000E+00  0.00000000000E+00  0.89510892604E+03  0.89510892605E+03  0.25500000920E-02 0.  1.
        2   -1    0    0  501    0  0.00000000000E+00  0.00000000000E+00 -0.20357300143E+04  0.20357300143E+04  0.25500000920E-02 0. -1.
    10030    2    1    2    0    0  0.00000000000E+00  0.00000000000E+00 -0.11406210882E+04  0.29308389403E+04  0.26997778477E+04 0.  0.
        2    1    3    3  502    0 -0.87289976293E+03 -0.10132993423E+04 -0.76891791927E+03  0.15427132980E+04  0.25500000920E-02 0. -1.
       -2    1    3    3    0  502  0.87289976293E+03  0.10132993423E+04 -0.37170316896E+03  0.13881256423E+04  0.25500000920E-02 0.  1.
</event>
<event>
 5   0  0.7436613E-07  0.2701222E+04  0.7818609E-02  0.8334608E-01
        1   -1    0    0  501    0  0.00000000000E+00  0.00000000000E+00  0.20390214663E+04  0.20390214664E+04  0.50400001928E-02 0. -1.
       -1   -1    0    0    0  501  0.00000000000E+00  0.00000000000E+00 -0.89462059682E+03  0.89462059684E+03  0.50400001928E-02 0.  1.
    10030    2    1    2    0    0  0.00000000000E+00  0.00000000000E+00  0.11444008695E+04  0.29336420632E+04  0.27012223908E+04 0.  0.
        2    1    3    3  502    0 -0.38245275230E+03 -0.11989626099E+04  0.39741462061E+02  0.12591111276E+04  0.25500000920E-02 0. -1.
       -2    1    3    3    0  502  0.38245275230E+03  0.11989626099E+04  0.11046594075E+04  0.16745309356E+04  0.25500000920E-02 0.  1.
</event>
<event>
 5   0  0.1932012E-06  0.2699207E+04  0.7818609E-02  0.8335262E-01
        2   -1    0    0  501    0  0.00000000000E+00  0.00000000000E+00  0.10243871062E+04  0.10243871062E+04  0.25500000920E-02 0. -1.
       -2   -1    0    0    0  501  0.00000000000E+00  0.00000000000E+00 -0.17780680242E+04  0.17780680242E+04  0.25500000920E-02 0.  1.
    10030    2    1    2    0    0  0.00000000000E+00  0.00000000000E+00 -0.75368091803E+03  0.28024551303E+04  0.26992072598E+04 0.  0.
        2    1    3    3  502    0 -0.90548071415E+03 -0.12860175159E+03  0.65359244282E+03  0.11241071192E+04  0.25500000920E-02 0. -1.
       -2    1    3    3    0  502  0.90548071415E+03  0.12860175159E+03 -0.14072733609E+04  0.16783480111E+04  0.25500000920E-02 0.  1.
</event>
<event>
 5   0  0.1991277E-06  0.2701655E+04  0.7818609E-02  0.8334468E-01
        2   -1    0    0  501    0  0.00000000000E+00  0.00000000000E+00  0.15886509467E+04  0.15886509467E+04  0.25500000920E-02 0.  1.
       -2   -1    0    0    0  501  0.00000000000E+00  0.00000000000E+00 -0.11486065313E+04  0.11486065313E+04  0.25500000920E-02 0. -1.
    10030    2    1    2    0    0  0.00000000000E+00  0.00000000000E+00  0.44004441542E+03  0.27372574780E+04  0.27016549398E+04 0.  0.
        5    1    3    3  502    0 -0.11936254991E+04 -0.10450808062E+03  0.85197977548E+03  0.14702229079E+04  0.46999998093E+01 0.  1.
       -5    1    3    3    0  502  0.11936254991E+04  0.10450808062E+03 -0.41193536006E+03  0.12670345701E+04  0.46999998093E+01 0. -1.
</event>
<event>
 5   0  0.1999104E-06  0.2703843E+04  0.7818609E-02  0.8333759E-01
        2   -1    0    0  501    0  0.00000000000E+00  0.00000000000E+00  0.19889290608E+04  0.19889290608E+04  0.25500000920E-02 0. -1.
       -2   -1    0    0    0  501  0.00000000000E+00  0.00000000000E+00 -0.91893290703E+03  0.91893290703E+03  0.25500000920E-02 0.  1.
    10030    2    1    2    0    0  0.00000000000E+00  0.00000000000E+00  0.10699961538E+04  0.29078619678E+04  0.27038434598E+04 0.  0.
        4    1    3    3  502    0 -0.14777129054E+03  0.11850324920E+04  0.12164941383E+04  0.17046987895E+04  0.12699999809E+01 0.  1.
       -4    1    3    3    0  502  0.14777129054E+03 -0.11850324920E+04 -0.14649798452E+03  0.12031631784E+04  0.12699999809E+01 0. -1.
</event>
<event>
 5   0  0.1932012E-06  0.2700137E+04  0.7818609E-02  0.8334961E-01
        2   -1    0    0  501    0  0.00000000000E+00  0.00000000000E+00  0.10660020003E+04  0.10660020003E+04  0.25500000920E-02 0.  1.
       -2   -1    0    0    0  501  0.00000000000E+00  0.00000000000E+00 -0.17098320305E+04  0.17098320305E+04  0.25500000920E-02 0. -1.
    10030    2    1    2    0    0  0.00000000000E+00  0.00000000000E+00 -0.64383003016E+03  0.27758340308E+04  0.27001365630E+04 0.  0.
        2    1    3    3  502    0  0.49677039680E+03 -0.55663529359E+03  0.83482305168E+03  0.11196219026E+04  0.25500000920E-02 0.  1.
       -2    1    3    3    0  502 -0.49677039680E+03  0.55663529359E+03 -0.14786530818E+04  0.16562121282E+04  0.25500000920E-02 0. -1.
</event>
<event>
 5   0  0.7436613E-07  0.2673845E+04  0.7818609E-02  0.8343541E-01
        1   -1    0    0  501    0  0.00000000000E+00  0.00000000000E+00  0.13499191586E+04  0.13499191586E+04  0.50400001928E-02 0. -1.
       -1   -1    0    0    0  501  0.00000000000E+00  0.00000000000E+00 -0.13240514003E+04  0.13240514003E+04  0.50400001928E-02 0.  1.
    10030    2    1    2    0    0  0.00000000000E+00  0.00000000000E+00  0.25867758283E+02  0.26739705589E+04  0.26738454348E+04 0.  0.
        2    1    3    3  502    0 -0.11531043516E+04 -0.67550584470E+03 -0.24545339562E+02  0.13366227088E+04  0.25500000920E-02 0.  1.
       -2    1    3    3    0  502  0.11531043516E+04  0.67550584470E+03  0.50413097845E+02  0.13373478502E+04  0.25500000920E-02 0. -1.
</event>
<event>
 5   0  0.7566905E-07  0.2700633E+04  0.7818609E-02  0.8334800E-01
        1   -1    0    0  501    0  0.00000000000E+00  0.00000000000E+00  0.79656846674E+03  0.79656846676E+03  0.50400001928E-02 0.  1.
       -1   -1    0    0    0  501  0.00000000000E+00  0.00000000000E+00 -0.22890112236E+04  0.22890112236E+04  0.50400001928E-02 0. -1.
    10030    2    1    2    0    0  0.00000000000E+00  0.00000000000E+00 -0.14924427568E+04  0.30855796903E+04  0.27006326375E+04 0.  0.
        1    1    3    3  502    0 -0.93968969840E+03 -0.43744517771E+03  0.24257329638E+03  0.10645265694E+04  0.50400001928E-02 0.  1.
       -1    1    3    3    0  502  0.93968969840E+03  0.43744517771E+03 -0.17350160532E+04  0.20210531209E+04  0.50400001928E-02 0. -1.
</event>
<event>
 5   0  0.2063087E-06  0.2698224E+04  0.7818609E-02  0.8335582E-01
        2   -1    0    0  501    0  0.00000000000E+00  0.00000000000E+00  0.17455189393E+04  0.17455189393E+04  0.25500000920E-02 0.  1.
       -2   -1    0    0    0  501  0.00000000000E+00  0.00000000000E+00 -0.10427286909E+04  0.10427286909E+04  0.25500000920E-02 0. -1.
    10030    2    1    2    0    0  0.00000000000E+00  0.00000000000E+00  0.70279024838E+03  0.27882476302E+04  0.26982236220E+04 0.  0.
        3    1    3    3  502    0 -0.38360667197E+03 -0.34371110018E+03  0.16399183215E+04  0.17189018327E+04  0.10100000352E+00 0.  1.
       -3    1    3    3    0  502  0.38360667197E+03  0.34371110018E+03 -0.93712807307E+03  0.10693457975E+04  0.10100000352E+00 0. -1.
</event>
<event>
 5   0  0.7566905E-07  0.2688457E+04  0.7818609E-02  0.8338760E-01
       -1   -1    0    0    0  501  0.00000000000E+00  0.00000000000E+00  0.91376562571E+03  0.91376562572E+03  0.50400001928E-02 0. -1.
        1   -1    0    0  501    0  0.00000000000E+00  0.00000000000E+00 -0.19774772956E+04  0.19774772956E+04  0.50400001928E-02 0.  1.
    10030    2    1    2    0    0  0.00000000000E+00  0.00000000000E+00 -0.10637116699E+04  0.28912429213E+04  0.26884573855E+04 0.  0.
        1    1    3    3  502    0 -0.11940169607E+04  0.61734581024E+03 -0.54539198546E+03  0.14506015200E+04  0.50400001928E-02 0. -1.
       -1    1    3    3    0  502  0.11940169607E+04 -0.61734581024E+03 -0.51831968446E+03  0.14406414014E+04  0.50400001928E-02 0.  1.
</event>
<event>
 5   0  0.1932012E-06  0.2675666E+04  0.7818609E-02  0.8342944E-01
        2   -1    0    0  501    0  0.00000000000E+00  0.00000000000E+00  0.29900939625E+04  0.29900939625E+04  0.25500000920E-02 0. -1.
       -2   -1    0    0    0  501  0.00000000000E+00  0.00000000000E+00 -0.59857549903E+03  0.59857549904E+03  0.25500000920E-02 0.  1.
    10030    2    1    2    0    0  0.00000000000E+00  0.00000000000E+00  0.23915184635E+04  0.35886694615E+04  0.26756658878E+04 0.  0.
        2    1    3    3  502    0 -0.13099793851E+04  0.57966968934E+02  0.83991526171E+03  0.15571974203E+04  0.25500000920E-02 0. -1.
       -2    1    3    3    0  502  0.13099793851E+04 -0.57966968934E+02  0.15516032017E+04  0.20314720413E+04  0.25500000920E-02 0.  1.
</event>
<event>
 5   0  0.1991277E-06  0.2697026E+04  0.7818609E-02  0.8335971E-01
       -2   -1    0    0    0  501  0.00000000000E+00  0.00000000000E+00  0.92811348329E+03  0.92811348329E+03  0.25500000920E-02 0. -1.
        2   -1    0    0  501    0  0.00000000000E+00  0.00000000000E+00 -0.19593366840E+04  0.19593366840E+04  0.25500000920E-02 0.  1.
    10030    2    1    2    0    0  0.00000000000E+00  0.00000000000E+00 -0.10312232007E+04  0.28874501673E+04  0.26970256170E+04 0.  0.
        5    1    3    3  502    0  0.13032931900E+04  0.30438770511E+03 -0.33891405722E+03  0.13806193691E+04  0.46999998093E+01 0.  1.
       -5    1    3    3    0  502 -0.13032931900E+04 -0.30438770511E+03 -0.69230914349E+03  0.15068307982E+04  0.46999998093E+01 0. -1.
</event>
<event>
 5   0  0.7335091E-07  0.2690804E+04  0.7818609E-02  0.8337995E-01
       -1   -1    0    0    0  501  0.00000000000E+00  0.00000000000E+00  0.91524873137E+03  0.91524873138E+03  0.50400001928E-02 0.  1.
        1   -1    0    0  501    0  0.00000000000E+00  0.00000000000E+00 -0.19777206236E+04  0.19777206236E+04  0.50400001928E-02 0. -1.
    10030    2    1    2    0    0  0.00000000000E+00  0.00000000000E+00 -0.10624718922E+04  0.28929693550E+04  0.26908038143E+04 0.  0.
        3    1    3    3  502    0  0.91546584011E+03 -0.26221718644E+03 -0.15530473985E+04  0.18217551398E+04  0.10100000352E+00 0. -1.
       -3    1    3    3    0  502 -0.91546584011E+03  0.26221718644E+03  0.49057550625E+03  0.10712142152E+04  0.10100000352E+00 0.  1.
</event>
<event>
 5   0  0.7566905E-07  0.2703507E+04  0.7818609E-02  0.8333868E-01
       -1   -1    0    0    0  501  0.00000000000E+00  0.00000000000E+00  0.16197235103E+04  0.16197235103E+04  0.50400001928E-02 0. -1.
        1   -1    0    0  501    0  0.00000000000E+00  0.00000000000E+00 -0.11281166464E+04  0.11281166464E+04  0.50400001928E-02 0.  1.
    10030    2    1    2    0    0  0.00000000000E+00  0.00000000000E+00  0.49160686395E+03  0.27478401567E+04  0.27035066521E+04 0.  0.
        1    1    3    3  502    0  0.41492791980E+02  0.16921784808E+03 -0.11166562147E+04  0.11301669938E+04  0.50400001928E-02 0.  1.
       -1    1    3    3    0  502 -0.41492791980E+02 -0.16921784808E+03  0.16082630787E+04  0.16176731629E+04  0.50400001928E-02 0. -1.
</event>
<event>
 5   0  0.7806808E-07  0.2705596E+04  0.7818609E-02  0.8333191E-01
       -1   -1    0    0    0  501  0.00000000000E+00  0.00000000000E+00  0.14626878399E+04  0.14626878400E+04  0.50400001928E-02 0.  1.
        1   -1    0    0  501    0  0.00000000000E+00  0.00000000000E+00 -0.12511643879E+04  0.12511643879E+04  0.50400001928E-02 0. -1.
    10030    2    1    2    0    0  0.00000000000E+00  0.00000000000E+00  0.21152345206E+03  0.27138522278E+04  0.27055963749E+04 0.  0.
        5    1    3    3  502    0  0.60151449860E+03  0.90912109652E+03 -0.69775694070E+03  0.12942981490E+04  0.46999998093E+01 0. -1.
       -5    1    3    3    0  502 -0.60151449860E+03 -0.90912109652E+03  0.90928039276E+03  0.14195540789E+04  0.46999998093E+01 0.  1.
</event>
<event>
 5   0  0.6561875E-07  0.2699239E+04  0.7818609E-02  0.8335252E-01
        3   -1    0    0  501    0  0.00000000000E+00  0.00000000000E+00  0.88163235659E+03  0.88163236237E+03  0.10100000352E+00 0.  1.
       -3   -1    0    0    0  501  0.00000000000E+00  0.00000000000E+00 -0.20660231292E+04  0.20660231316E+04  0.10100000352E+00 0. -1.
    10030    2    1    2    0    0  0.00000000000E+00  0.00000000000E+00 -0.11843907726E+04  0.29476554940E+04  0.26992390426E+04 0.  0.
        3    1    3    3  502    0 -0.63339769284E+03 -0.11106323654E+04 -0.12024552970E+03  0.12841946449E+04  0.10100000352E+00 0.  1.
       -3    1    3    3    0  502  0.63339769284E+03  0.11106323654E+04 -0.10641452429E+04  0.16634608491E+04  0.10100000352E+00 0. -1.
</event>
<event>
 5   0  0.7335091E-07  0.2700907E+04  0.7818609E-02  0.8334711E-01
        1   -1    0    0  501    0  0.00000000000E+00  0.00000000000E+00  0.14458770611E+04  0.14458770611E+04  0.50400001928E-02 0. -1.
       -1   -1    0    0    0  501  0.00000000000E+00  0.00000000000E+00 -0.12613278821E+04  0.12613278821E+04  0.50400001928E-02 0.  1.
    10030    2    1    2    0    0  0.00000000000E+00  0.00000000000E+00  0.18454917903E+03  0.27072049432E+04  0.27009072929E+04 0.  0.
        3    1    3    3  502    0  0.80771764114E+03 -0.91513945911E+03  0.67140811516E+03  0.13930817940E+04  0.10100000352E+00 0.  1.
       -3    1    3    3    0  502 -0.80771764114E+03  0.91513945911E+03 -0.48685893613E+03  0.13141231492E+04  0.10100000352E+00 0. -1.
</event>
<event>
 5   0  0.1991277E-06  0.2695832E+04  0.7818609E-02  0.8336359E-01
        2   -1    0    0  501    0  0.00000000000E+00  0.00000000000E+00  0.25634458858E+04  0.25634458858E+04  0.25500000920E-02 0. -1.
       -2   -1    0    0    0  501  0.00000000000E+00  0.00000000000E+00 -0.70876363646E+03  0.70876363646E+03  0.25500000920E-02 0.  1.
    10030    2    1    2    0    0  0.00000000000E+00  0.00000000000E+00  0.18546822494E+04  0.32722095223E+04  0.26958317662E+04 0.  0.
        5    1    3    3  502    0  0.59866291995E+03 -0.11749322502E+04  0.12663206721E+04  0.18282377359E+04  0.46999998093E+01 0.  1.
       -5    1    3    3    0  502 -0.59866291995E+03  0.11749322502E+04  0.58836157731E+03  0.14439717864E+04  0.46999998093E+01 0. -1.
</event>
<event>
 5   0  0.6561875E-07  0.2697951E+04  0.7818609E-02  0.8335670E-01
       -3   -1    0    0    0  501  0.00000000000E+00  0.00000000000E+00  0.16011589014E+04  0.16011589046E+04  0.10100000352E+00 0.  1.
        3   -1    0    0  501    0  0.00000000000E+00  0.00000000000E+00 -0.11365108769E+04  0.11365108814E+04  0.10100000352E+00 0. -1.
    10030    2    1    2    0    0  0.00000000000E+00  0.00000000000E+00  0.46464802457E+03  0.27376697860E+04  0.26979507168E+04 0.  0.
        3    1    3    3  502    0 -0.49535944469E+03 -0.59070883558E+01 -0.10408664270E+04  0.11527440315E+04  0.10100000352E+00 0. -1.
       -3    1    3    3    0  502  0.49535944469E+03  0.59070883558E+01  0.15055144516E+04  0.15849257545E+04  0.10100000352E+00 0.  1.
</event>
<event>
 5   0  0.1991277E-06  0.2691603E+04  0.7818609E-02  0.8337735E-01
        2   -1    0    0  501    0  0.00000000000E+00  0.00000000000E+00  0.15130262070E+04  0.15130262070E+04  0.25500000920E-02 0. -1.
       -2   -1    0    0    0  501  0.00000000000E+00  0.00000000000E+00 -0.11970591118E+04  0.11970591118E+04  0.25500000920E-02 0.  1.
    10030    2    1    2    0    0  0.00000000000E+00  0.00000000000E+00  0.31596709517E+03  0.27100853189E+04  0.26916030967E+04 0.  0.
        5    1    3    3  502    0  0.53385233606E+03  0.12314222226E+04  0.25745825290E+03  0.13666403510E+04  0.46999998093E+01 0.  1.
       -5    1    3    3    0  502 -0.53385233606E+03 -0.12314222226E+04  0.58508842273E+02  0.13434449678E+04  0.46999998093E+01 0. -1.
</event>
<event>
 5   0  0.7566905E-07  0.2699824E+04  0.7818609E-02  0.8335062E-01
       -1   -1    0    0    0  501  0.00000000000E+00  0.00000000000E+00  0.68002147495E+03  0.68002147497E+03  0.50400001928E-02 0.  1.
        1   -1    0    0  501    0  0.00000000000E+00  0.00000000000E+00 -0.26797138332E+04  0.26797138332E+04  0.50400001928E-02 0. -1.
    10030    2    1    2    0    0  0.00000000000E+00  0.00000000000E+00 -0.19996923583E+04  0.33597353082E+04  0.26998244042E+04 0.  0.
        1    1    3    3  502    0 -0.88836732955E+03  0.69789209944E+03 -0.80305260655E+02  0.11325629473E+04  0.50400001928E-02 0.  1.
       -1    1    3    3    0  502  0.88836732955E+03 -0.69789209944E+03 -0.19193870976E+04  0.22271723609E+04  0.50400001928E-02 0. -1.
</event>
<event>
 5   0  0.7806808E-07  0.2698090E+04  0.7818609E-02  0.8335625E-01
        1   -1    0    0  501    0  0.00000000000E+00  0.00000000000E+00  0.22193383228E+04  0.22193383228E+04  0.50400001928E-02 0. -1.
       -1   -1    0    0    0  501  0.00000000000E+00  0.00000000000E+00 -0.82002920828E+03  0.82002920830E+03  0.50400001928E-02 0.  1.
    10030    2    1    2    0    0  0.00000000000E+00  0.00000000000E+00  0.13993091145E+04  0.30393675311E+04  0.26980898782E+04 0.  0.
        5    1    3    3  502    0  0.67565631187E+03 -0.90568279925E+03  0.15298448533E+04  0.19018990903E+04  0.46999998093E+01 0. -1.
       -5    1    3    3    0  502 -0.67565631187E+03  0.90568279925E+03 -0.13053573880E+03  0.11374684408E+04  0.46999998093E+01 0.  1.
</event>
<event>
 5   0  0.2063087E-06  0.2747050E+04  0.7818609E-02  0.8319898E-01
       -2   -1    0    0    0  501  0.00000000000E+00  0.00000000000E+00  0.12244216356E+04  0.12244216356E+04  0.25500000920E-02 0.  1.
        2   -1    0    0  501    0  0.00000000000E+00  0.00000000000E+00 -0.15407850830E+04  0.15407850830E+04  0.25500000920E-02 0. -1.
    10030    2    1    2    0    0  0.00000000000E+00  0.00000000000E+00 -0.31636344735E+03  0.27652067186E+04  0.27470497567E+04 0.  0.
        3    1    3    3  502    0  0.22100665380E+03 -0.91783707420E+03 -0.11624239081E+04  0.14974973082E+04  0.10100000352E+00 0. -1.
       -3    1    3    3    0  502 -0.22100665380E+03  0.91783707420E+03  0.84606046073E+03  0.12677094104E+04  0.10100000352E+00 0.  1.
</event>
<event>
 5   0  0.1991277E-06  0.2697535E+04  0.7818609E-02  0.8335805E-01
       -2   -1    0    0    0  501  0.00000000000E+00  0.00000000000E+00  0.68965927298E+03  0.68965927298E+03  0.25500000920E-02 0.  1.
        2   -1    0    0  501    0  0.00000000000E+00  0.00000000000E+00 -0.26377854508E+04  0.26377854508E+04  0.25500000920E-02 0. -1.
    10030    2    1    2    0    0  0.00000000000E+00  0.00000000000E+00 -0.19481261779E+04  0.33274447238E+04  0.26975345754E+04 0.  0.
        5    1    3    3  502    0  0.10438197152E+04  0.84732129699E+03 -0.84099148297E+03  0.15858126442E+04  0.46999998093E+01 0.  1.
       -5    1    3    3    0  502 -0.10438197152E+04 -0.84732129699E+03 -0.11071346949E+04  0.17416320796E+04  0.46999998093E+01 0. -1.
</event>
<event>
 5   0  0.1999104E-06  0.2686996E+04  0.7818609E-02  0.8339237E-01
       -2   -1    0    0    0  501  0.00000000000E+00  0.00000000000E+00  0.82547798957E+03  0.82547798958E+03  0.25500000920E-02 0. -1.
        2   -1    0    0  501    0  0.00000000000E+00  0.00000000000E+00 -0.21865967196E+04  0.21865967196E+04  0.25500000920E-02 0.  1.
    10030    2    1    2    0    0  0.00000000000E+00  0.00000000000E+00 -0.13611187300E+04  0.30120747091E+04  0.26869964377E+04 0.  0.
        4    1    3    3  502    0  0.45073165667E+02  0.12789128393E+04 -0.11391166670E+04  0.17132536400E+04  0.12699999809E+01 0.  1.
       -4    1    3    3    0  502 -0.45073165667E+02 -0.12789128393E+04 -0.22200206295E+03  0.12988210692E+04  0.12699999809E+01 0. -1.
</event>
<event>
 5   0  0.7335091E-07  0.2704365E+04  0.7818609E-02  0.8333590E-01
        1   -1    0    0  501    0  0.00000000000E+00  0.00000000000E+00  0.14985003440E+04  0.14985003440E+04  0.50400001928E-02 0.  1.
       -1   -1    0    0    0  501  0.00000000000E+00  0.00000000000E+00 -0.12201515106E+04  0.12201515106E+04  0.50400001928E-02 0. -1.
    10030    2    1    2    0    0  0.00000000000E+00  0.00000000000E+00  0.27834883338E+03  0.27186518546E+04  0.27043649594E+04 0.  0.
        3    1    3    3  502    0 -0.57329616776E+03  0.10668386647E+04 -0.46532102176E+03  0.12974347367E+04  0.10100000352E+00 0. -1.
       -3    1    3    3    0  502  0.57329616776E+03 -0.10668386647E+04  0.74366985514E+03  0.14212171179E+04  0.10100000352E+00 0.  1.
</event>
<event>
 5   0  0.7768032E-07  0.2705636E+04  0.7818609E-02  0.8333178E-01
        1   -1    0    0  501    0  0.00000000000E+00  0.00000000000E+00  0.17237338733E+04  0.17237338733E+04  0.50400001928E-02 0.  1.
       -1   -1    0    0    0  501  0.00000000000E+00  0.00000000000E+00 -0.10617167899E+04  0.10617167899E+04  0.50400001928E-02 0. -1.
    10030    2    1    2    0    0  0.00000000000E+00  0.00000000000E+00  0.66201708338E+03  0.27854506632E+04  0.27056364831E+04 0.  0.
        4    1    3    3  502    0 -0.17356604661E+03 -0.68788670390E+03  0.15168568289E+04  0.16745654786E+04  0.12699999809E+01 0.  1.
       -4    1    3    3    0  502  0.17356604661E+03  0.68788670390E+03 -0.85483974552E+03  0.11108851846E+04  0.12699999809E+01 0. -1.
</event>
<event>
 5   0  0.7768032E-07  0.2700880E+04  0.7818609E-02  0.8334719E-01
       -1   -1    0    0    0  501  0.00000000000E+00  0.00000000000E+00  0.80553632643E+03  0.80553632645E+03  0.50400001928E-02 0.  1.
        1   -1    0    0  501    0  0.00000000000E+00  0.00000000000E+00 -0.22639434071E+04  0.22639434071E+04  0.50400001928E-02 0. -1.
    10030    2    1    2    0    0  0.00000000000E+00  0.00000000000E+00 -0.14584070807E+04  0.30694797335E+04  0.27008803420E+04 0.  0.
        4    1    3    3  502    0 -0.88127237460E+03  0.13029892691E+03 -0.18826366757E+04  0.20827724969E+04  0.12699999809E+01 0. -1.
       -4    1    3    3    0  502  0.88127237460E+03 -0.13029892691E+03  0.42422959500E+03  0.98670723660E+03  0.12699999809E+01 0.  1.
</event>
<event>
 5   0  0.7768032E-07  0.2701896E+04  0.7818609E-02  0.8334390E-01
        1   -1    0    0  501    0  0.00000000000E+00  0.00000000000E+00  0.15988380877E+04  0.15988380877E+04  0.50400001928E-02 0. -1.
       -1   -1    0    0    0  501  0.00000000000E+00  0.00000000000E+00 -0.11414915979E+04  0.11414915979E+04  0.50400001928E-02 0.  1.
    10030    2    1    2    0    0  0.00000000000E+00  0.00000000000E+00  0.45734648981E+03  0.27403296856E+04  0.27018958111E+04 0.  0.
        4    1    3    3  502    0 -0.74660674806E+03  0.68993890052E+03  0.11310605047E+04  0.15207684902E+04  0.12699999809E+01 0. -1.
       -4    1    3    3    0  502  0.74660674806E+03 -0.68993890052E+03 -0.67371401485E+03  0.12195611954E+04  0.12699999809E+01 0.  1.
</event>
<event>
 5   0  0.7566905E-07  0.2693997E+04  0.7818609E-02  0.8336955E-01
        1   -1    0    0  501    0  0.00000000000E+00  0.00000000000E+00  0.20639164403E+04  0.20639164403E+04  0.50400001928E-02 0.  1.
       -1   -1    0    0    0  501  0.00000000000E+00  0.00000000000E+00 -0.87910758838E+03  0.87910758840E+03  0.50400001928E-02 0. -1.
    10030    2    1    2    0    0  0.00000000000E+00  0.00000000000E+00  0.11848088519E+04  0.29430240287E+04  0.26939967368E+04 0.  0.
        1    1    3    3  502    0 -0.59288661853E+03  0.93530106368E+03  0.14301710690E+04  0.18087818854E+04  0.50400001928E-02 0.  1.
       -1    1    3    3    0  502  0.59288661853E+03 -0.93530106368E+03 -0.24536221709E+03  0.11342421433E+04  0.50400001928E-02 0. -1.
</event>
<event>
 5   0  0.7806808E-07  0.2698255E+04  0.7818609E-02  0.8335571E-01
       -1   -1    0    0    0  501  0.00000000000E+00  0.00000000000E+00  0.78626714742E+03  0.78626714743E+03  0.50400001928E-02 0. -1.
        1   -1    0    0  501    0  0.00000000000E+00  0.00000000000E+00 -0.23149189528E+04  0.23149189528E+04  0.50400001928E-02 0.  1.
    10030    2    1    2    0    0  0.00000000000E+00  0.00000000000E+00 -0.15286518054E+04  0.31011861002E+04  0.26982547853E+04 0.  0.
        5    1    3    3  502    0 -0.95070887693E+03  0.92449158298E+03 -0.10495603708E+04  0.16911922178E+04  0.46999998093E+01 0.  1.
       -5    1    3    3    0  502  0.95070887693E+03 -0.92449158298E+03 -0.47909143453E+03  0.14099938824E+04  0.46999998093E+01 0. -1.
</event>
<event>
 5   0  0.1999104E-06  0.2698702E+04  0.7818609E-02  0.8335426E-01
       -2   -1    0    0    0  501  0.00000000000E+00  0.00000000000E+00  0.93159356608E+03  0.93159356609E+03  0.25500000920E-02 0. -1.
        2   -1    0    0  501    0  0.00000000000E+00  0.00000000000E+00 -0.19544442442E+04  0.19544442442E+04  0.25500000920E-02 0.  1.
    10030    2    1    2    0    0  0.00000000000E+00  0.00000000000E+00 -0.10228506781E+04  0.28860378103E+04  0.26987016754E+04 0.  0.
        4    1    3    3  502    0  0.26945429545E+03  0.91914255931E+03  0.50498091314E+03  0.10827908372E+04  0.12699999809E+01 0. -1.
       -4    1    3    3    0  502 -0.26945429545E+03 -0.91914255931E+03 -0.15278315913E+04  0.18032469731E+04  0.12699999809E+01 0.  1.
</event>
<event>
 5   0  0.7806808E-07  0.2695994E+04  0.7818609E-02  0.8336306E-01
        1   -1    0    0  501    0  0.00000000000E+00  0.00000000000E+00  0.14515014439E+04  0.14515014439E+04  0.50400001928E-02 0.  1.
       -1   -1    0    0    0  501  0.00000000000E+00  0.00000000000E+00 -0.12518730766E+04  0.12518730766E+04  0.50400001928E-02 0. -1.
    10030    2    1    2    0    0  0.00000000000E+00  0.00000000000E+00  0.19962836730E+03  0.27033745204E+04  0.26959937524E+04 0.  0.
        5    1    3    3  502    0  0.67679088563E+03 -0.20831198881E+03 -0.10503367322E+04  0.12667553547E+04  0.46999998093E+01 0. -1.
       -5    1    3    3    0  502 -0.67679088563E+03  0.20831198881E+03  0.12499650995E+04  0.14366191658E+04  0.46999998093E+01 0.  1.
</event>
<event>
 5   0  0.1999104E-06  0.2684720E+04  0.7818609E-02  0.8339980E-01
        2   -1    0    0  501    0  0.00000000000E+00  0.00000000000E+00  0.20081713850E+04  0.20081713850E+04  0.25500000920E-02 0. -1.
       -2   -1    0    0    0  501  0.00000000000E+00  0.00000000000E+00 -0.89729937644E+03  0.89729937644E+03  0.25500000920E-02 0.  1.
    10030    2    1    2    0    0  0.00000000000E+00  0.00000000000E+00  0.11108720086E+04  0.29054707615E+04  0.26847204187E+04 0.  0.
        4    1    3    3  502    0  0.54443223662E+03 -0.72853306494E+03  0.16239170807E+04  0.18612563458E+04  0.12699999809E+01 0. -1.
       -4    1    3    3    0  502 -0.54443223662E+03  0.72853306494E+03 -0.51304507210E+03  0.10442144157E+04  0.12699999809E+01 0.  1.
</event>
<event>
 5   0  0.7566905E-07  0.2659633E+04  0.7818609E-02  0.8348223E-01
        1   -1    0    0  501    0  0.00000000000E+00  0.00000000000E+00  0.16816546417E+04  0.16816546417E+04  0.50400001928E-02 0.  1.
       -1   -1    0    0    0  501  0.00000000000E+00  0.00000000000E+00 -0.10515907093E+04  0.10515907093E+04  0.50400001928E-02 0. -1.
    10030    2    1    2    0    0  0.00000000000E+00  0.00000000000E+00  0.63006393240E+03  0.27332453509E+04  0.26596333562E+04 0.  0.
        1    1    3    3  502    0  0.21204120258E+03 -0.93151082531E+03 -0.63563277050E+03  0.11474767572E+04  0.50400001928E-02 0. -1.
       -1    1    3    3    0  502 -0.21204120258E+03  0.93151082531E+03  0.12656967029E+04  0.15857685938E+04  0.50400001928E-02 0.  1.
</event>
<event>
 5   0  0.2030645E-06  0.2696103E+04  0.7818609E-02  0.8336270E-01
       -2   -1    0    0    0  501  0.00000000000E+00  0.00000000000E+00  0.62269048486E+03  0.62269048486E+03  0.25500000920E-02 0.  1.
        2   -1    0    0  501    0  0.00000000000E+00  0.00000000000E+00 -0.29183732553E+04  0.29183732553E+04  0.25500000920E-02 0. -1.
    10030    2    1    2    0    0  0.00000000000E+00  0.00000000000E+00 -0.22956827704E+04  0.35410637401E+04  0.26961033046E+04 0.  0.
        1    1    3    3  502    0  0.13360075854E+04  0.16648365347E+03 -0.10586636873E+04  0.17127176878E+04  0.50400001928E-02 0.  1.
       -1    1    3    3    0  502 -0.13360075854E+04 -0.16648365347E+03 -0.12370190831E+04  0.18283460523E+04  0.50400001928E-02 0. -1.
</event>
<event>
 5   0  0.7335091E-07  0.2698683E+04  0.7818609E-02  0.8335432E-01
        1   -1    0    0  501    0  0.00000000000E+00  0.00000000000E+00  0.18033965508E+04  0.18033965508E+04  0.50400001928E-02 0.  1.
       -1   -1    0    0    0  501  0.00000000000E+00  0.00000000000E+00 -0.10096076669E+04  0.10096076669E+04  0.50400001928E-02 0. -1.
    10030    2    1    2    0    0  0.00000000000E+00  0.00000000000E+00  0.79378888385E+03  0.28130042177E+04  0.26986833710E+04 0.  0.
        3    1    3    3  502    0 -0.91126295008E+03  0.82315087339E+03 -0.18603226088E+03  0.12420086702E+04  0.10100000352E+00 0. -1.
       -3    1    3    3    0  502  0.91126295008E+03 -0.82315087339E+03  0.97982114473E+03  0.15709955475E+04  0.10100000352E+00 0.  1.
</event>
<event>
 5   0  0.1932012E-06  0.2698318E+04  0.7818609E-02  0.8335551E-01
       -2   -1    0    0    0  501  0.00000000000E+00  0.00000000000E+00  0.13254423320E+04  0.13254423321E+04  0.25500000920E-02 0.  1.
        2   -1    0    0  501    0  0.00000000000E+00  0.00000000000E+00 -0.13733003798E+04  0.13733003798E+04  0.25500000920E-02 0. -1.
    10030    2    1    2    0    0  0.00000000000E+00  0.00000000000E+00 -0.47858047733E+02  0.26987427118E+04  0.26983183341E+04 0.  0.
        2    1    3    3  502    0  0.11478912153E+03  0.10116917515E+04  0.86138459017E+03  0.13336716818E+04  0.25500000920E-02 0.  1.
       -2    1    3    3    0  502 -0.11478912153E+03 -0.10116917515E+04 -0.90924263790E+03  0.13650710301E+04  0.25500000920E-02 0. -1.
</event>
<event>
 5   0  0.7566905E-07  0.2693770E+04  0.7818609E-02  0.8337029E-01
        1   -1    0    0  501    0  0.00000000000E+00  0.00000000000E+00  0.16763752862E+04  0.16763752862E+04  0.50400001928E-02 0. -1.
       -1   -1    0    0    0  501  0.00000000000E+00  0.00000000000E+00 -0.10821559398E+04  0.10821559398E+04  0.50400001928E-02 0.  1.
    10030    2    1    2    0    0  0.00000000000E+00  0.00000000000E+00  0.59421934642E+03  0.27585312260E+04  0.26937702005E+04 0.  0.
        1    1    3    3  502    0 -0.15610907443E+03  0.44198098962E+03 -0.99593516078E+03  0.11007288871E+04  0.50400001928E-02 0.  1.
       -1    1    3    3    0  502  0.15610907443E+03 -0.44198098962E+03  0.15901545072E+04  0.16578023390E+04  0.50400001928E-02 0. -1.
</event>
<event>
 5   0  0.7335091E-07  0.2698457E+04  0.7818609E-02  0.8335506E-01
       -1   -1    0    0    0  501  0.00000000000E+00  0.00000000000E+00  0.11630104140E+04  0.11630104140E+04  0.50400001928E-02 0. -1.
        1   -1    0    0  501    0  0.00000000000E+00  0.00000000000E+00 -0.15652633833E+04  0.15652633833E+04  0.50400001928E-02 0.  1.
    10030    2    1    2    0    0  0.00000000000E+00  0.00000000000E+00 -0.40225296931E+03  0.27282737973E+04  0.26984570521E+04 0.  0.
        3    1    3    3  502    0  0.31203738378E+03 -0.69520634710E+03 -0.13268648582E+04  0.15301142298E+04  0.10100000352E+00 0.  1.
       -3    1    3    3    0  502 -0.31203738378E+03  0.69520634710E+03  0.92461188893E+03  0.11981595675E+04  0.10100000352E+00 0. -1.
</event>
<event>
 5   0  0.7566905E-07  0.2742004E+04  0.7818609E-02  0.8321503E-01
       -1   -1    0    0    0  501  0.00000000000E+00  0.00000000000E+00  0.26344958946E+04  0.26344958946E+04  0.50400001928E-02 0. -1.
        1   -1    0    0  501    0  0.00000000000E+00  0.00000000000E+00 -0.71347496394E+03  0.71347496396E+03  0.50400001928E-02 0.  1.
    10030    2    1    2    0    0  0.00000000000E+00  0.00000000000E+00  0.19210209307E+04  0.33479708586E+04  0.27420042768E+04 0.  0.
        1    1    3    3  502    0 -0.42701058673E+03 -0.11074597493E+04  0.17983310237E+04  0.21547156676E+04  0.50400001928E-02 0. -1.
       -1    1    3    3    0  502  0.42701058673E+03  0.11074597493E+04  0.12268990694E+03  0.11932551909E+04  0.50400001928E-02 0.  1.
</event>
<event>
 5   0  0.1991277E-06  0.2698729E+04  0.7818609E-02  0.8335418E-01
        2   -1    0    0  501    0  0.00000000000E+00  0.00000000000E+00  0.15562045690E+04  0.15562045690E+04  0.25500000920E-02 0.  1.
       -2   -1    0    0    0  501  0.00000000000E+00  0.00000000000E+00 -0.11700159930E+04  0.11700159930E+04  0.25500000920E-02 0. -1.
    10030    2    1    2    0    0  0.00000000000E+00  0.00000000000E+00  0.38618857596E+03  0.27262205620E+04  0.26987287630E+04 0.  0.
        5    1    3    3  502    0 -0.85709135313E+02 -0.11471547638E+04  0.90558196563E+03  0.14640392394E+04  0.46999998093E+01 0.  1.
       -5    1    3    3    0  502  0.85709135313E+02  0.11471547638E+04 -0.51939338967E+03  0.12621813226E+04  0.46999998093E+01 0. -1.
</event>
<event>
 5   0  0.2063087E-06  0.2703997E+04  0.7818609E-02  0.8333709E-01
        2   -1    0    0  501    0  0.00000000000E+00  0.00000000000E+00  0.10106494503E+04  0.10106494503E+04  0.25500000920E-02 0. -1.
       -2   -1    0    0    0  501  0.00000000000E+00  0.00000000000E+00 -0.18086392394E+04  0.18086392394E+04  0.25500000920E-02 0.  1.
    10030    2    1    2    0    0  0.00000000000E+00  0.00000000000E+00 -0.79798978909E+03  0.28192886898E+04  0.27039972287E+04 0.  0.
        3    1    3    3  502    0  0.68753785559E+03  0.20149672613E+03 -0.15944372408E+04  0.17480101140E+04  0.10100000352E+00 0.  1.
       -3    1    3    3    0  502 -0.68753785559E+03 -0.20149672613E+03  0.79644745168E+03  0.10712785758E+04  0.10100000352E+00 0. -1.
</event>
<event>
 5   0  0.2030645E-06  0.2699582E+04  0.7818609E-02  0.8335141E-01
       -2   -1    0    0    0  501  0.00000000000E+00  0.00000000000E+00  0.21053538784E+04  0.21053538784E+04  0.25500000920E-02 0.  1.
        2   -1    0    0  501    0  0.00000000000E+00  0.00000000000E+00 -0.86538197513E+03  0.86538197513E+03  0.25500000920E-02 0. -1.
    10030    2    1    2    0    0  0.00000000000E+00  0.00000000000E+00  0.12399719033E+04  0.29707358536E+04  0.26995816696E+04 0.  0.
        1    1    3    3  502    0  0.11241348314E+04  0.72750908906E+03  0.43263022033E+03  0.14071664797E+04  0.50400001928E-02 0. -1.
       -1    1    3    3    0  502 -0.11241348314E+04 -0.72750908906E+03  0.80734168298E+03  0.15635693739E+04  0.50400001928E-02 0.  1.
</event>
<event>
 5   0  0.7436613E-07  0.2703321E+04  0.7818609E-02  0.8333928E-01
        1   -1    0    0  501    0  0.00000000000E+00  0.00000000000E+00  0.16755760888E+04  0.16755760888E+04  0.50400001928E-02 0.  1.
       -1   -1    0    0    0  501  0.00000000000E+00  0.00000000000E+00 -0.10903631795E+04  0.10903631795E+04  0.50400001928E-02 0. -1.
    10030    2    1    2    0    0  0.00000000000E+00  0.00000000000E+00  0.58521290929E+03  0.27659392683E+04  0.27033212697E+04 0.  0.
        2    1    3    3  502    0 -0.25414932535E+03 -0.15844025775E+03 -0.10559877783E+04  0.10976362707E+04  0.25500000920E-02 0. -1.
       -2    1    3    3    0  502  0.25414932535E+03  0.15844025775E+03  0.16412006876E+04  0.16683029976E+04  0.25500000920E-02 0.  1.
</event>
<event>
 5   0  0.7566905E-07  0.2680698E+04  0.7818609E-02  0.8341295E-01
       -1   -1    0    0    0  501  0.00000000000E+00  0.00000000000E+00  0.17570077123E+04  0.17570077123E+04  0.50400001928E-02 0. -1.
        1   -1    0    0  501    0  0.00000000000E+00  0.00000000000E+00 -0.10224969435E+04  0.10224969435E+04  0.50400001928E-02 0.  1.
    10030    2    1    2    0    0  0.00000000000E+00  0.00000000000E+00  0.73451076881E+03  0.27795046558E+04  0.26806976820E+04 0.  0.
        1    1    3    3  502    0  0.70148809556E+03  0.10540110200E+04  0.82336742762E+03  0.15102843108E+04  0.50400001928E-02 0. -1.
       -1    1    3    3    0  502 -0.70148809556E+03 -0.10540110200E+04 -0.88856658806E+02  0.12692203450E+04  0.50400001928E-02 0.  1.
</event>
<event>
 5   0  0.1991277E-06  0.2696918E+04  0.7818609E-02  0.8336006E-01
       -2   -1    0    0    0  501  0.00000000000E+00  0.00000000000E+00  0.73924021170E+03  0.73924021170E+03  0.25500000920E-02 0. -1.
        2   -1    0    0  501    0  0.00000000000E+00  0.00000000000E+00 -0.24597438237E+04  0.24597438237E+04  0.25500000920E-02 0.  1.
    10030    2    1    2    0    0  0.00000000000E+00  0.00000000000E+00 -0.17205036120E+04  0.31989840355E+04  0.26969179038E+04 0.  0.
        5    1    3    3  502    0 -0.12135270620E+04 -0.53301348799E+03 -0.11545735757E+04  0.17577865457E+04  0.46999998093E+01 0.  1.
       -5    1    3    3    0  502  0.12135270620E+04  0.53301348799E+03 -0.56593003634E+03  0.14411974898E+04  0.46999998093E+01 0. -1.
</event>
<event>
 5   0  0.7806808E-07  0.2694798E+04  0.7818609E-02  0.8336695E-01
       -1   -1    0    0    0  501  0.00000000000E+00  0.00000000000E+00  0.19537609597E+04  0.19537609597E+04  0.50400001928E-02 0. -1.
        1   -1    0    0  501    0  0.00000000000E+00  0.00000000000E+00 -0.92922521960E+03  0.92922521961E+03  0.50400001928E-02 0.  1.
    10030    2    1    2    0    0  0.00000000000E+00  0.00000000000E+00  0.10245357401E+04  0.28829861793E+04  0.26947979196E+04 0.  0.
        5    1    3    3  502    0  0.20558927792E+02  0.11918052641E+04 -0.15980533916E+03  0.12026563489E+04  0.46999998093E+01 0.  1.
       -5    1    3    3    0  502 -0.20558927792E+02 -0.11918052641E+04  0.11843410792E+04  0.16803298304E+04  0.46999998093E+01 0. -1.
</event>
<event>
 5   0  0.7768032E-07  0.2695836E+04  0.7818609E-02  0.8336357E-01
        1   -1    0    0  501    0  0.00000000000E+00  0.00000000000E+00  0.16389335909E+04  0.16389335909E+04  0.50400001928E-02 0. -1.
       -1   -1    0    0    0  501  0.00000000000E+00  0.00000000000E+00 -0.11085759745E+04  0.11085759745E+04  0.50400001928E-02 0.  1.
    10030    2    1    2    0    0  0.00000000000E+00  0.00000000000E+00  0.53035761642E+03  0.27475095654E+04  0.26958356052E+04 0.  0.
        4    1    3    3  502    0 -0.25387591940E+03 -0.79710317624E+03  0.13423456025E+04  0.15816825805E+04  0.12699999809E+01 0. -1.
       -4    1    3    3    0  502  0.25387591940E+03  0.79710317624E+03 -0.81198798613E+03  0.11658269848E+04  0.12699999809E+01 0.  1.
</event>
<event>
 5   0  0.1991277E-06  0.2701555E+04  0.7818609E-02  0.8334501E-01
        2   -1    0    0  501    0  0.00000000000E+00  0.00000000000E+00  0.14768282757E+04  0.14768282757E+04  0.25500000920E-02 0. -1.
       -2   -1    0    0    0  501  0.00000000000E+00  0.00000000000E+00 -0.12354850519E+04  0.12354850519E+04  0.25500000920E-02 0.  1.
    10030    2    1    2    0    0  0.00000000000E+00  0.00000000000E+00  0.24134322383E+03  0.27123133276E+04  0.27015545590E+04 0.  0.
        5    1    3    3  502    0  0.47930253482E+03 -0.12184971955E+04 -0.21247940253E+03  0.13265126920E+04  0.46999998093E+01 0. -1.
       -5    1    3    3    0  502 -0.47930253482E+03  0.12184971955E+04  0.45382262637E+03  0.13858006356E+04  0.46999998093E+01 0.  1.
</event>
<event>
 5   0  0.6561875E-07  0.2711386E+04  0.7818609E-02  0.8331320E-01
        3   -1    0    0  501    0  0.00000000000E+00  0.00000000000E+00  0.12205607004E+04  0.12205607046E+04  0.10100000352E+00 0. -1.
       -3   -1    0    0    0  501  0.00000000000E+00  0.00000000000E+00 -0.15057861463E+04  0.15057861497E+04  0.10100000352E+00 0.  1.
    10030    2    1    2    0    0  0.00000000000E+00  0.00000000000E+00 -0.28522544584E+03  0.27263468543E+04  0.27113859214E+04 0.  0.
        4    1    3    3  502    0 -0.79157219686E+03  0.28949986708E+03 -0.12103121834E+04  0.14748742014E+04  0.12699999809E+01 0.  1.
       -4    1    3    3    0  502  0.79157219686E+03 -0.28949986708E+03  0.92508673757E+03  0.12514726528E+04  0.12699999809E+01 0. -1.
</event>
<event>
 5   0  0.1991277E-06  0.2701916E+04  0.7818609E-02  0.8334384E-01
       -2   -1    0    0    0  501  0.00000000000E+00  0.00000000000E+00  0.10631163083E+04  0.10631163083E+04  0.25500000920E-02 0. -1.
        2   -1    0    0  501    0  0.00000000000E+00  0.00000000000E+00 -0.17167336352E+04  0.17167336352E+04  0.25500000920E-02 0.  1.
    10030    2    1    2    0    0  0.00000000000E+00  0.00000000000E+00 -0.65361732686E+03  0.27798499435E+04  0.27019160050E+04 0.  0.
        5    1    3    3  502    0  0.10785385191E+04  0.23252203530E+03  0.47526319629E+03  0.12013363516E+04  0.46999998093E+01 0. -1.
       -5    1    3    3    0  502 -0.10785385191E+04 -0.23252203530E+03 -0.11288805231E+04  0.15785135918E+04  0.46999998093E+01 0.  1.
</event>
<event>
 5   0  0.1999104E-06  0.2703172E+04  0.7818609E-02  0.8333977E-01
       -2   -1    0    0    0  501  0.00000000000E+00  0.00000000000E+00  0.82218868393E+03  0.82218868393E+03  0.25500000920E-02 0.  1.
        2   -1    0    0  501    0  0.00000000000E+00  0.00000000000E+00 -0.22218554045E+04  0.22218554045E+04  0.25500000920E-02 0. -1.
    10030    2    1    2    0    0  0.00000000000E+00  0.00000000000E+00 -0.13996667206E+04  0.30440440885E+04  0.27031717452E+04 0.  0.
        4    1    3    3  502    0 -0.48810008517E+03  0.89757068462E+03 -0.16962308970E+04  0.19801706229E+04  0.12699999809E+01 0. -1.
       -4    1    3    3    0  502  0.48810008517E+03 -0.89757068462E+03  0.29656417642E+03  0.10638734655E+04  0.12699999809E+01 0.  1.
</event>
<event>
 5   0  0.2030645E-06  0.2698540E+04  0.7818609E-02  0.8335479E-01
       -2   -1    0    0    0  501  0.00000000000E+00  0.00000000000E+00  0.10675944318E+04  0.10675944318E+04  0.25500000920E-02 0.  1.
        2   -1    0    0  501    0  0.00000000000E+00  0.00000000000E+00 -0.17052636732E+04  0.17052636732E+04  0.25500000920E-02 0. -1.
    10030    2    1    2    0    0  0.00000000000E+00  0.00000000000E+00 -0.63766924144E+03  0.27728581050E+04  0.26985403479E+04 0.  0.
        1    1    3    3  502    0  0.41118622463E+03  0.19864669740E+03 -0.16234443909E+04  0.16864478386E+04  0.50400001928E-02 0. -1.
       -1    1    3    3    0  502 -0.41118622463E+03 -0.19864669740E+03  0.98577514950E+03  0.10864102665E+04  0.50400001928E-02 0.  1.
</event>
<event>
 5   0  0.2030645E-06  0.2700365E+04  0.7818609E-02  0.8334886E-01
       -2   -1    0    0    0  501  0.00000000000E+00  0.00000000000E+00  0.12712663219E+04  0.12712663219E+04  0.25500000920E-02 0. -1.
        2   -1    0    0  501    0  0.00000000000E+00  0.00000000000E+00 -0.14339979059E+04  0.14339979059E+04  0.25500000920E-02 0.  1.
    10030    2    1    2    0    0  0.00000000000E+00  0.00000000000E+00 -0.16273158403E+03  0.27052642279E+04  0.27003653409E+04 0.  0.
        1    1    3    3  502    0 -0.49839434314E+03  0.15201854826E+03 -0.13292123654E+04  0.14276946706E+04  0.50400001928E-02 0.  1.
       -1    1    3    3    0  502  0.49839434314E+03 -0.15201854826E+03  0.11664807813E+04  0.12775695572E+04  0.50400001928E-02 0. -1.
</event>
<event>
 5   0  0.7436613E-07  0.2702877E+04  0.7818609E-02  0.8334072E-01
       -1   -1    0    0    0  501  0.00000000000E+00  0.00000000000E+00  0.16760123816E+04  0.16760123816E+04  0.50400001928E-02 0. -1.
        1   -1    0    0  501    0  0.00000000000E+00  0.00000000000E+00 -0.10897212145E+04  0.10897212145E+04  0.50400001928E-02 0.  1.
    10030    2    1    2    0    0  0.00000000000E+00  0.00000000000E+00  0.58629116710E+03  0.27657335961E+04  0.27028771693E+04 0.  0.
        2    1    3    3  502    0 -0.42208537426E+03  0.70203639715E+03  0.13930261629E+04  0.16160238416E+04  0.25500000920E-02 0. -1.
       -2    1    3    3    0  502  0.42208537426E+03 -0.70203639715E+03 -0.80673499584E+03  0.11497097545E+04  0.25500000920E-02 0.  1.
</event>
<event>
 5   0  0.2030645E-06  0.2701222E+04  0.7818609E-02  0.8334608E-01
       -2   -1    0    0    0  501  0.00000000000E+00  0.00000000000E+00  0.74089333656E+03  0.74089333656E+03  0.25500000920E-02 0.  1.
        2   -1    0    0  501    0  0.00000000000E+00  0.00000000000E+00 -0.24620958705E+04  0.24620958705E+04  0.25500000920E-02 0. -1.
    10030    2    1    2    0    0  0.00000000000E+00  0.00000000000E+00 -0.17212025339E+04  0.32029892070E+04  0.27012222599E+04 0.  0.
        1    1    3    3  502    0 -0.66487472149E+02 -0.53923716462E+03 -0.23267979752E+04  0.23893903241E+04  0.50400001928E-02 0. -1.
       -1    1    3    3    0  502  0.66487472149E+02  0.53923716462E+03  0.60559544131E+03  0.81359888288E+03  0.50400001928E-02 0.  1.
</event>
<event>
 5   0  0.7806808E-07  0.2693617E+04  0.7818609E-02  0.8337079E-01
       -1   -1    0    0    0  501  0.00000000000E+00  0.00000000000E+00  0.12912286669E+04  0.12912286669E+04  0.50400001928E-02 0.  1.
        1   -1    0    0  501    0  0.00000000000E+00  0.00000000000E+00 -0.14047806936E+04  0.14047806936E+04  0.50400001928E-02 0. -1.
    10030    2    1    2    0    0  0.00000000000E+00  0.00000000000E+00 -0.11355202673E+03  0.26960093605E+04  0.26936169752E+04 0.  0.
        5    1    3    3  502    0 -0.12298285269E+03  0.23836976964E+03  0.12642166832E+04  0.12923663727E+04  0.46999998093E+01 0.  1.
       -5    1    3    3    0  502  0.12298285269E+03 -0.23836976964E+03 -0.13777687099E+04  0.14036429878E+04  0.46999998093E+01 0. -1.
</event>
<event>
 5   0  0.7335091E-07  0.2696807E+04  0.7818609E-02  0.8336042E-01
        1   -1    0    0  501    0  0.00000000000E+00  0.00000000000E+00  0.11834712356E+04  0.11834712356E+04  0.50400001928E-02 0.  1.
       -1   -1    0    0    0  501  0.00000000000E+00  0.00000000000E+00 -0.15363207831E+04  0.15363207831E+04  0.50400001928E-02 0. -1.
    10030    2    1    2    0    0  0.00000000000E+00  0.00000000000E+00 -0.35284954749E+03  0.27197920186E+04  0.26968065970E+04 0.  0.
        3    1    3    3  502    0 -0.18717556881E+03 -0.60545615508E+03  0.10239210453E+04  0.12041703229E+04  0.10100000352E+00 0.  1.
       -3    1    3    3    0  502  0.18717556881E+03  0.60545615508E+03 -0.13767705928E+04  0.15156216958E+04  0.10100000352E+00 0. -1.
</event>
<event>
 5   0  0.1999104E-06  0.2701063E+04  0.7818609E-02  0.8334660E-01
       -2   -1    0    0    0  501  0.00000000000E+00  0.00000000000E+00  0.14058857099E+04  0.14058857099E+04  0.25500000920E-02 0.  1.
        2   -1    0    0  501    0  0.00000000000E+00  0.00000000000E+00 -0.12973570346E+04  0.12973570346E+04  0.25500000920E-02 0. -1.
    10030    2    1    2    0    0  0.00000000000E+00  0.00000000000E+00  0.10852867527E+03  0.27032427445E+04  0.27010632837E+04 0.  0.
        4    1    3    3  502    0  0.82619501782E+03  0.10609004195E+04  0.18016805261E+03  0.13566761027E+04  0.12699999809E+01 0.  1.
       -4    1    3    3    0  502 -0.82619501782E+03 -0.10609004195E+04 -0.71639377346E+02  0.13465666418E+04  0.12699999809E+01 0. -1.
</event>
<event>
 5   0  0.7566905E-07  0.2700616E+04  0.7818609E-02  0.8334805E-01
        1   -1    0    0  501    0  0.00000000000E+00  0.00000000000E+00  0.13105536043E+04  0.13105536043E+04  0.50400001928E-02 0.  1.
       -1   -1    0    0    0  501  0.00000000000E+00  0.00000000000E+00 -0.13912683798E+04  0.13912683798E+04  0.50400001928E-02 0. -1.
    10030    2    1    2    0    0  0.00000000000E+00  0.00000000000E+00 -0.80714775485E+02  0.27018219840E+04  0.27006160702E+04 0.  0.
        1    1    3    3  502    0 -0.99605287389E+03 -0.17041019464E+03  0.85568244330E+03  0.13241425172E+04  0.50400001928E-02 0.  1.
       -1    1    3    3    0  502  0.99605287389E+03  0.17041019464E+03 -0.93639721878E+03  0.13776794669E+04  0.50400001928E-02 0. -1.
</event>
<event>
 5   0  0.2063087E-06  0.2697322E+04  0.7818609E-02  0.8335874E-01
       -2   -1    0    0    0  501  0.00000000000E+00  0.00000000000E+00  0.13484148999E+04  0.13484148999E+04  0.25500000920E-02 0. -1.
        2   -1    0    0  501    0  0.00000000000E+00  0.00000000000E+00 -0.13489069895E+04  0.13489069895E+04  0.25500000920E-02 0.  1.
    10030    2    1    2    0    0  0.00000000000E+00  0.00000000000E+00 -0.49208955897E+00  0.26973218894E+04  0.26973218445E+04 0.  0.
        3    1    3    3  502    0  0.18596913074E+03 -0.35668183694E+03 -0.12875221914E+04  0.13488957906E+04  0.10100000352E+00 0.  1.
       -3    1    3    3    0  502 -0.18596913074E+03  0.35668183694E+03  0.12870301019E+04  0.13484260987E+04  0.10100000352E+00 0. -1.
</event>
<event>
 5   0  0.2063087E-06  0.2700065E+04  0.7818609E-02  0.8334984E-01
        2   -1    0    0  501    0  0.00000000000E+00  0.00000000000E+00  0.61999998881E+03  0.61999998881E+03  0.25500000920E-02 0.  1.
       -2   -1    0    0    0  501  0.00000000000E+00  0.00000000000E+00 -0.29396570210E+04  0.29396570210E+04  0.25500000920E-02 0. -1.
    10030    2    1    2    0    0  0.00000000000E+00  0.00000000000E+00 -0.23196570322E+04  0.35596570098E+04  0.27000646808E+04 0.  0.
        3    1    3    3  502    0 -0.90407754927E+03 -0.49716654913E+03 -0.23076775647E+04  0.25278264469E+04  0.10100000352E+00 0. -1.
       -3    1    3    3    0  502  0.90407754927E+03  0.49716654913E+03 -0.11979467424E+02  0.10318305629E+04  0.10100000352E+00 0.  1.
</event>
<event>
 5   0  0.2063087E-06  0.2695098E+04  0.7818609E-02  0.8336597E-01
        2   -1    0    0  501    0  0.00000000000E+00  0.00000000000E+00  0.25311303489E+04  0.25311303489E+04  0.25500000920E-02 0. -1.
       -2   -1    0    0    0  501  0.00000000000E+00  0.00000000000E+00 -0.71742183279E+03  0.71742183279E+03  0.25500000920E-02 0.  1.
    10030    2    1    2    0    0  0.00000000000E+00  0.00000000000E+00  0.18137085162E+04  0.32485521817E+04  0.26950979010E+04 0.  0.
        3    1    3    3  502    0 -0.72332022462E+03  0.71570596772E+03  0.19717103017E+04  0.22187989327E+04  0.10100000352E+00 0. -1.
       -3    1    3    3    0  502  0.72332022462E+03 -0.71570596772E+03 -0.15800178553E+03  0.10297532491E+04  0.10100000352E+00 0.  1.
</event>
<event>
 5   0  0.7436613E-07  0.2644608E+04  0.7818609E-02  0.8353205E-01
        1   -1    0    0  501    0  0.00000000000E+00  0.00000000000E+00  0.17240053715E+04  0.17240053715E+04  0.50400001928E-02 0.  1.
       -1   -1    0    0    0  501  0.00000000000E+00  0.00000000000E+00 -0.10142006675E+04  0.10142006675E+04  0.50400001928E-02 0. -1.
    10030    2    1    2    0    0  0.00000000000E+00  0.00000000000E+00  0.70980470402E+03  0.27382060390E+04  0.26446076447E+04 0.  0.
        2    1    3    3  502    0 -0.10679520550E+03 -0.10556539588E+04 -0.46212435486E+03  0.11573112874E+04  0.25500000920E-02 0. -1.
       -2    1    3    3    0  502  0.10679520550E+03  0.10556539588E+04  0.11719290589E+04  0.15808947516E+04  0.25500000920E-02 0.  1.
</event>
<event>
 5   0  0.1991277E-06  0.2639938E+04  0.7818609E-02  0.8354760E-01
       -2   -1    0    0    0  501  0.00000000000E+00  0.00000000000E+00  0.23580770239E+04  0.23580770239E+04  0.25500000920E-02 0. -1.
        2   -1    0    0  501    0  0.00000000000E+00  0.00000000000E+00 -0.73887256032E+03  0.73887256032E+03  0.25500000920E-02 0.  1.
    10030    2    1    2    0    0  0.00000000000E+00  0.00000000000E+00  0.16192044636E+04  0.30969495842E+04  0.26399381872E+04 0.  0.
        5    1    3    3  502    0 -0.10041939035E+04  0.67573565140E+03  0.19187950212E+03  0.12255055690E+04  0.46999998093E+01 0.  1.
       -5    1    3    3    0  502  0.10041939035E+04 -0.67573565140E+03  0.14273249614E+04  0.18714440152E+04  0.46999998093E+01 0. -1.
</event>
<event>
 5   0  0.1991277E-06  0.2704981E+04  0.7818609E-02  0.8333391E-01
       -2   -1    0    0    0  501  0.00000000000E+00  0.00000000000E+00  0.11139582598E+04  0.11139582598E+04  0.25500000920E-02 0.  1.
        2   -1    0    0  501    0  0.00000000000E+00  0.00000000000E+00 -0.16420997212E+04  0.16420997212E+04  0.25500000920E-02 0. -1.
    10030    2    1    2    0    0  0.00000000000E+00  0.00000000000E+00 -0.52814146148E+03  0.27560579810E+04  0.27049809965E+04 0.  0.
        5    1    3    3  502    0  0.47465481593E+03  0.12150954575E+04 -0.62781935990E+03  0.14477338857E+04  0.46999998093E+01 0. -1.
       -5    1    3    3    0  502 -0.47465481593E+03 -0.12150954575E+04  0.99677898422E+02  0.13083240953E+04  0.46999998093E+01 0.  1.
</event>
<event>
 5   0  0.1999104E-06  0.2696293E+04  0.7818609E-02  0.8336209E-01
       -2   -1    0    0    0  501  0.00000000000E+00  0.00000000000E+00  0.96794581410E+03  0.96794581410E+03  0.25500000920E-02 0. -1.
        2   -1    0    0  501    0  0.00000000000E+00  0.00000000000E+00 -0.18776865746E+04  0.18776865746E+04  0.25500000920E-02 0.  1.
    10030    2    1    2    0    0  0.00000000000E+00  0.00000000000E+00 -0.90974076046E+03  0.28456323887E+04  0.26962929070E+04 0.  0.
        4    1    3    3  502    0  0.11007918080E+04  0.79799372620E+02 -0.12719516931E+04  0.16840348176E+04  0.12699999809E+01 0.  1.
       -4    1    3    3    0  502 -0.11007918080E+04 -0.79799372620E+02  0.36221093268E+03  0.11615975710E+04  0.12699999809E+01 0. -1.
</event>
<event>
 5   0  0.1999104E-06  0.2694120E+04  0.7818609E-02  0.8336915E-01
       -2   -1    0    0    0  501  0.00000000000E+00  0.00000000000E+00  0.12612497414E+04  0.12612497414E+04  0.25500000920E-02 0. -1.
        2   -1    0    0  501    0  0.00000000000E+00  0.00000000000E+00 -0.14387080804E+04  0.14387080804E+04  0.25500000920E-02 0.  1.
    10030    2    1    2    0    0  0.00000000000E+00  0.00000000000E+00 -0.17745833899E+03  0.26999578218E+04  0.26941196665E+04 0.  0.
        4    1    3    3  502    0 -0.11650253372E+04 -0.45960838872E+03  0.40837462943E+03  0.13173060989E+04  0.12699999809E+01 0. -1.
       -4    1    3    3    0  502  0.11650253372E+04  0.45960838872E+03 -0.58583296841E+03  0.13826517230E+04  0.12699999809E+01 0.  1.
</event>
<event>
 5   0  0.7768032E-07  0.2661946E+04  0.7818609E-02  0.8347459E-01
        1   -1    0    0  501    0  0.00000000000E+00  0.00000000000E+00  0.16509986817E+04  0.16509986817E+04  0.50400001928E-02 0.  1.
       -1   -1    0    0    0  501  0.00000000000E+00  0.00000000000E+00 -0.10729802541E+04  0.10729802541E+04  0.50400001928E-02 0. -1.
    10030    2    1    2    0    0  0.00000000000E+00  0.00000000000E+00  0.57801842761E+03  0.27239789357E+04  0.26619458935E+04 0.  0.
        4    1    3    3  502    0  0.32806830722E+03  0.12898247182E+04  0.27415353642E+03  0.13588371471E+04  0.12699999809E+01 0.  1.
       -4    1    3    3    0  502 -0.32806830722E+03 -0.12898247182E+04  0.30386489119E+03  0.13651417886E+04  0.12699999809E+01 0. -1.
</event>
<event>
 5   0  0.2063087E-06  0.2694960E+04  0.7818609E-02  0.8336642E-01
       -2   -1    0    0    0  501  0.00000000000E+00  0.00000000000E+00  0.10354567002E+04  0.10354567002E+04  0.25500000920E-02 0. -1.
        2   -1    0    0  501    0  0.00000000000E+00  0.00000000000E+00 -0.17535284743E+04  0.17535284743E+04  0.25500000920E-02 0.  1.
    10030    2    1    2    0    0  0.00000000000E+00  0.00000000000E+00 -0.71807177410E+03  0.27889851746E+04  0.26949603395E+04 0.  0.
        3    1    3    3  502    0  0.11199437096E+04 -0.93245596947E+02  0.41036374411E+03  0.11963975371E+04  0.10100000352E+00 0. -1.
       -3    1    3    3    0  502 -0.11199437096E+04  0.93245596947E+02 -0.11284355182E+04  0.15925876375E+04  0.10100000352E+00 0.  1.
</event>
<event>
 5   0  0.7768032E-07  0.2698939E+04  0.7818609E-02  0.8335349E-01
        1   -1    0    0  501    0  0.00000000000E+00  0.00000000000E+00  0.14101497564E+04  0.14101497564E+04  0.50400001928E-02 0. -1.
       -1   -1    0    0    0  501  0.00000000000E+00  0.00000000000E+00 -0.12914005116E+04  0.12914005116E+04  0.50400001928E-02 0.  1.
    10030    2    1    2    0    0  0.00000000000E+00  0.00000000000E+00  0.11874924477E+03  0.27015502680E+04  0.26989391374E+04 0.  0.
        4    1    3    3  502    0  0.47458452083E+03  0.48993300754E+03  0.12248901034E+04  0.14020064898E+04  0.12699999809E+01 0. -1.
       -4    1    3    3    0  502 -0.47458452083E+03 -0.48993300754E+03 -0.11061408586E+04  0.12995437781E+04  0.12699999809E+01 0.  1.
</event>
<event>
 5   0  0.2030645E-06  0.2699339E+04  0.7818609E-02  0.8335219E-01
        2   -1    0    0  501    0  0.00000000000E+00  0.00000000000E+00  0.24541699260E+04  0.24541699260E+04  0.25500000920E-02 0.  1.
       -2   -1    0    0    0  501  0.00000000000E+00  0.00000000000E+00 -0.74225001330E+03  0.74225001331E+03  0.25500000920E-02 0. -1.
    10030    2    1    2    0    0  0.00000000000E+00  0.00000000000E+00  0.17119199127E+04  0.31964199393E+04  0.26993389266E+04 0.  0.
        1    1    3    3  502    0  0.46987278965E+03 -0.12153922329E+04  0.12723512265E+04  0.18212183729E+04  0.50400001928E-02 0.  1.
       -1    1    3    3    0  502 -0.46987278965E+03  0.12153922329E+04  0.43956868617E+03  0.13752015664E+04  0.50400001928E-02 0. -1.
</event>
<event>
 5   0  0.1932012E-06  0.2701200E+04  0.7818609E-02  0.8334616E-01
       -2   -1    0    0    0  501  0.00000000000E+00  0.00000000000E+00  0.13014515865E+04  0.13014515865E+04  0.25500000920E-02 0.  1.
        2   -1    0    0  501    0  0.00000000000E+00  0.00000000000E+00 -0.14016041989E+04  0.14016041989E+04  0.25500000920E-02 0. -1.
    10030    2    1    2    0    0  0.00000000000E+00  0.00000000000E+00 -0.10015261240E+03  0.27030557854E+04  0.27011997396E+04 0.  0.
        2    1    3    3  502    0 -0.10001469286E+04 -0.42123703456E+03  0.75445715047E+03  0.13217186198E+04  0.25500000920E-02 0.  1.
       -2    1    3    3    0  502  0.10001469286E+04  0.42123703456E+03 -0.85460976288E+03  0.13813371656E+04  0.25500000920E-02 0. -1.
</event>
<event>
 5   0  0.7566905E-07  0.2700648E+04  0.7818609E-02  0.8334795E-01
        1   -1    0    0  501    0  0.00000000000E+00  0.00000000000E+00  0.21848819141E+04  0.21848819141E+04  0.50400001928E-02 0. -1.
       -1   -1    0    0    0  501  0.00000000000E+00  0.00000000000E+00 -0.83454184075E+03  0.83454184077E+03  0.50400001928E-02 0.  1.
    10030    2    1    2    0    0  0.00000000000E+00  0.00000000000E+00  0.13503400734E+04  0.30194237549E+04  0.27006483477E+04 0.  0.
        1    1    3    3  502    0  0.73646696363E+03 -0.38804318793E+03  0.18638771044E+04  0.20413228467E+04  0.50400001928E-02 0. -1.
       -1    1    3    3    0  502 -0.73646696363E+03  0.38804318793E+03 -0.51353703106E+03  0.97810090814E+03  0.50400001928E-02 0.  1.
</event>
<event>
 5   0  0.7436613E-07  0.2699037E+04  0.7818609E-02  0.8335317E-01
       -1   -1    0    0    0  501  0.00000000000E+00  0.00000000000E+00  0.92261960791E+03  0.92261960793E+03  0.50400001928E-02 0.  1.
        1   -1    0    0  501    0  0.00000000000E+00  0.00000000000E+00 -0.19739451830E+04  0.19739451830E+04  0.50400001928E-02 0. -1.
    10030    2    1    2    0    0  0.00000000000E+00  0.00000000000E+00 -0.10513255751E+04  0.28965647910E+04  0.26990372586E+04 0.  0.
        2    1    3    3  502    0  0.28050642609E+03  0.22156876231E+03 -0.19222151300E+04  0.19551694498E+04  0.25500000920E-02 0. -1.
       -2    1    3    3    0  502 -0.28050642609E+03 -0.22156876231E+03  0.87088955489E+03  0.94139534114E+03  0.25500000920E-02 0.  1.
</event>
<event>
 5   0  0.1999104E-06  0.2704653E+04  0.7818609E-02  0.8333497E-01
        2   -1    0    0  501    0  0.00000000000E+00  0.00000000000E+00  0.24245443364E+04  0.24245443364E+04  0.25500000920E-02 0. -1.
       -2   -1    0    0    0  501  0.00000000000E+00  0.00000000000E+00 -0.75428056031E+03  0.75428056032E+03  0.25500000920E-02 0.  1.
    10030    2    1    2    0    0  0.00000000000E+00  0.00000000000E+00  0.16702637761E+04  0.31788248967E+04  0.27046527766E+04 0.  0.
        4    1    3    3  502    0 -0.19666270308E+03  0.13099109833E+04  0.11553751857E+04  0.17576792756E+04  0.12699999809E+01 0. -1.
       -4    1    3    3    0  502  0.19666270308E+03 -0.13099109833E+04  0.51488859031E+03  0.14211456211E+04  0.12699999809E+01 0.  1.
</event>
<event>
 5   0  0.1999104E-06  0.2689798E+04  0.7818609E-02  0.8338323E-01
        2   -1    0    0  501    0  0.00000000000E+00  0.00000000000E+00  0.25319177439E+04  0.25319177439E+04  0.25500000920E-02 0. -1.
       -2   -1    0    0    0  501  0.00000000000E+00  0.00000000000E+00 -0.71438061290E+03  0.71438061291E+03  0.25500000920E-02 0.  1.
    10030    2    1    2    0    0  0.00000000000E+00  0.00000000000E+00  0.18175371310E+04  0.32462983568E+04  0.26897977245E+04 0.  0.
        4    1    3    3  502    0  0.10414794950E+04 -0.75394987904E+03  0.43264750544E+03  0.13565785769E+04  0.12699999809E+01 0. -1.
       -4    1    3    3    0  502 -0.10414794950E+04  0.75394987904E+03  0.13848896255E+04  0.18897197798E+04  0.12699999809E+01 0.  1.
</event>
<event>
 5   0  0.7768032E-07  0.2699382E+04  0.7818609E-02  0.8335205E-01
       -1   -1    0    0    0  501  0.00000000000E+00  0.00000000000E+00  0.98635123039E+03  0.98635123040E+03  0.50400001928E-02 0.  1.
        1   -1    0    0  501    0  0.00000000000E+00  0.00000000000E+00 -0.18468738574E+04  0.18468738574E+04  0.50400001928E-02 0. -1.
    10030    2    1    2    0    0  0.00000000000E+00  0.00000000000E+00 -0.86052262698E+03  0.28332250878E+04  0.26993823750E+04 0.  0.
        4    1    3    3  502    0 -0.39103512777E+03 -0.12432442297E+04 -0.62008814659E+02  0.13047648799E+04  0.12699999809E+01 0.  1.
       -4    1    3    3    0  502  0.39103512777E+03  0.12432442297E+04 -0.79851381232E+03  0.15284602079E+04  0.12699999809E+01 0. -1.
</event>
<event>
 5   0  0.7436613E-07  0.2701905E+04  0.7818609E-02  0.8334387E-01
        1   -1    0    0  501    0  0.00000000000E+00  0.00000000000E+00  0.12328777775E+04  0.12328777775E+04  0.50400001928E-02 0. -1.
       -1   -1    0    0    0  501  0.00000000000E+00  0.00000000000E+00 -0.14803353661E+04  0.14803353661E+04  0.50400001928E-02 0.  1.
    10030    2    1    2    0    0  0.00000000000E+00  0.00000000000E+00 -0.24745758858E+03  0.27132131436E+04  0.27019049399E+04 0.  0.
        2    1    3    3  502    0  0.47386456746E+03  0.27332883511E+03  0.11166803847E+04  0.12434755172E+04  0.25500000920E-02 0. -1.
       -2    1    3    3    0  502 -0.47386456746E+03 -0.27332883511E+03 -0.13641379732E+04  0.14697376264E+04  0.25500000920E-02 0.  1.
</event>
<event>
 5   0  0.1991277E-06  0.2703094E+04  0.7818609E-02  0.8334002E-01
        2   -1    0    0  501    0  0.00000000000E+00  0.00000000000E+00  0.12833461331E+04  0.12833461331E+04  0.25500000920E-02 0. -1.
       -2   -1    0    0    0  501  0.00000000000E+00  0.00000000000E+00 -0.14233719532E+04  0.14233719532E+04  0.25500000920E-02 0.  1.
    10030    2    1    2    0    0  0.00000000000E+00  0.00000000000E+00 -0.14002582015E+03  0.27067180863E+04  0.27030937033E+04 0.  0.
        5    1    3    3  502    0 -0.19864302595E+03  0.13354478254E+04 -0.13155144234E+03  0.13565425973E+04  0.46999998093E+01 0. -1.
       -5    1    3    3    0  502  0.19864302595E+03 -0.13354478254E+04 -0.84743778026E+01  0.13501754891E+04  0.46999998093E+01 0.  1.
</event>
<event>
 5   0  0.7436613E-07  0.2695043E+04  0.7818609E-02  0.8336615E-01
        1   -1    0    0  501    0  0.00000000000E+00  0.00000000000E+00  0.16500505809E+04  0.16500505809E+04  0.50400001928E-02 0. -1.
       -1   -1    0    0    0  501  0.00000000000E+00  0.00000000000E+00 -0.11004596019E+04  0.11004596019E+04  0.50400001928E-02 0.  1.
    10030    2    1    2    0    0  0.00000000000E+00  0.00000000000E+00  0.54959097897E+03  0.27505101828E+04  0.26950428608E+04 0.  0.
        2    1    3    3  502    0 -0.33529913043E+03 -0.99168235846E+03  0.11407600833E+04  0.15482871099E+04  0.25500000920E-02 0. -1.
       -2    1    3    3    0  502  0.33529913043E+03  0.99168235846E+03 -0.59116910438E+03  0.12022230729E+04  0.25500000920E-02 0.  1.
</event>
<event>
 5   0  0.7806808E-07  0.2704918E+04  0.7818609E-02  0.8333411E-01
        1   -1    0    0  501    0  0.00000000000E+00  0.00000000000E+00  0.11864517520E+04  0.11864517521E+04  0.50400001928E-02 0.  1.
       -1   -1    0    0    0  501  0.00000000000E+00  0.00000000000E+00 -0.15416932939E+04  0.15416932939E+04  0.50400001928E-02 0. -1.
    10030    2    1    2    0    0  0.00000000000E+00  0.00000000000E+00 -0.35524154189E+03  0.27281450460E+04  0.27049175290E+04 0.  0.
        5    1    3    3  502    0 -0.86753386846E+03 -0.43926832830E+03 -0.11256663677E+04  0.14875209372E+04  0.46999998093E+01 0. -1.
       -5    1    3    3    0  502  0.86753386846E+03  0.43926832830E+03  0.77042482580E+03  0.12406241088E+04  0.46999998093E+01 0.  1.
</event>
<event>
 5   0  0.1932012E-06  0.2698760E+04  0.7818609E-02  0.8335407E-01
       -2   -1    0    0    0  501  0.00000000000E+00  0.00000000000E+00  0.10955175763E+04  0.10955175763E+04  0.25500000920E-02 0. -1.
        2   -1    0    0  501    0  0.00000000000E+00  0.00000000000E+00 -0.16620700518E+04  0.16620700518E+04  0.25500000920E-02 0.  1.
    10030    2    1    2    0    0  0.00000000000E+00  0.00000000000E+00 -0.56655247548E+03  0.27575876282E+04  0.26987604228E+04 0.  0.
        2    1    3    3  502    0  0.69725061144E+03 -0.11224888586E+04 -0.40293285648E+01  0.13214219191E+04  0.25500000920E-02 0.  1.
       -2    1    3    3    0  502 -0.69725061144E+03  0.11224888586E+04 -0.56252314691E+03  0.14361657090E+04  0.25500000920E-02 0. -1.
</event>
<event>
 5   0  0.7768032E-07  0.2702095E+04  0.7818609E-02  0.8334325E-01
       -1   -1    0    0    0  501  0.00000000000E+00  0.00000000000E+00  0.13404017019E+04  0.13404017019E+04  0.50400001928E-02 0. -1.
        1   -1    0    0  501    0  0.00000000000E+00  0.00000000000E+00 -0.13617782468E+04  0.13617782468E+04  0.50400001928E-02 0.  1.
    10030    2    1    2    0    0  0.00000000000E+00  0.00000000000E+00 -0.21376544870E+02  0.27021799488E+04  0.27020953941E+04 0.  0.
        4    1    3    3  502    0  0.12891458213E+04  0.39909937954E+03  0.53742024548E+02  0.13505802759E+04  0.12699999809E+01 0. -1.
       -4    1    3    3    0  502 -0.12891458213E+04 -0.39909937954E+03 -0.75118569418E+02  0.13515996729E+04  0.12699999809E+01 0.  1.
</event>
<event>
 5   0  0.2063087E-06  0.2705409E+04  0.7818609E-02  0.8333252E-01
       -2   -1    0    0    0  501  0.00000000000E+00  0.00000000000E+00  0.10121633720E+04  0.10121633720E+04  0.25500000920E-02 0.  1.
        2   -1    0    0  501    0  0.00000000000E+00  0.00000000000E+00 -0.18078198742E+04  0.18078198742E+04  0.25500000920E-02 0. -1.
    10030    2    1    2    0    0  0.00000000000E+00  0.00000000000E+00 -0.79565650219E+03  0.28199832462E+04  0.27054087010E+04 0.  0.
        3    1    3    3  502    0 -0.33235728192E+03 -0.10910250657E+03  0.96420252861E+03  0.10256954939E+04  0.10100000352E+00 0.  1.
       -3    1    3    3    0  502  0.33235728192E+03  0.10910250657E+03 -0.17598590308E+04  0.17942877524E+04  0.10100000352E+00 0. -1.
</event>
<event>
 5   0  0.7436613E-07  0.2702118E+04  0.7818609E-02  0.8334318E-01
        1   -1    0    0  501    0  0.00000000000E+00  0.00000000000E+00  0.21703080336E+04  0.21703080336E+04  0.50400001928E-02 0. -1.
       -1   -1    0    0    0  501  0.00000000000E+00  0.00000000000E+00 -0.84106023212E+03  0.84106023213E+03  0.50400001928E-02 0.  1.
    10030    2    1    2    0    0  0.00000000000E+00  0.00000000000E+00  0.13292478014E+04  0.30113682657E+04  0.27021175241E+04 0.  0.
        2    1    3    3  502    0  0.81160223943E+03 -0.57938405522E+03  0.16805305373E+04  0.19541153920E+04  0.25500000920E-02 0. -1.
       -2    1    3    3    0  502 -0.81160223943E+03  0.57938405522E+03 -0.35128273583E+03  0.10572528737E+04  0.25500000920E-02 0.  1.
</event>
<event>
 5   0  0.1932012E-06  0.2701360E+04  0.7818609E-02  0.8334564E-01
       -2   -1    0    0    0  501  0.00000000000E+00  0.00000000000E+00  0.95146420986E+03  0.95146420986E+03  0.25500000920E-02 0. -1.
        2   -1    0    0  501    0  0.00000000000E+00  0.00000000000E+00 -0.19173992682E+04  0.19173992682E+04  0.25500000920E-02 0.  1.
    10030    2    1    2    0    0  0.00000000000E+00  0.00000000000E+00 -0.96593505839E+03  0.28688634781E+04  0.27013602350E+04 0.  0.
        2    1    3    3  502    0 -0.69593008128E+02  0.63793593843E+03 -0.17451624379E+04  0.18594078044E+04  0.25500000920E-02 0.  1.
       -2    1    3    3    0  502  0.69593008128E+02 -0.63793593843E+03  0.77922737949E+03  0.10094556738E+04  0.25500000920E-02 0. -1.
</event>
<event>
 5   0  0.7335091E-07  0.2707782E+04  0.7818609E-02  0.8332484E-01
        1   -1    0    0  501    0  0.00000000000E+00  0.00000000000E+00  0.11700094351E+04  0.11700094352E+04  0.50400001928E-02 0.  1.
       -1   -1    0    0    0  501  0.00000000000E+00  0.00000000000E+00 -0.15666719631E+04  0.15666719631E+04  0.50400001928E-02 0. -1.
    10030    2    1    2    0    0  0.00000000000E+00  0.00000000000E+00 -0.39666252798E+03  0.27366813983E+04  0.27077821025E+04 0.  0.
        3    1    3    3  502    0 -0.66419723015E+03  0.70499698681E+02 -0.13885642269E+04  0.15408565120E+04  0.10100000352E+00 0. -1.
       -3    1    3    3    0  502  0.66419723015E+03 -0.70499698681E+02  0.99190169895E+03  0.11958248863E+04  0.10100000352E+00 0.  1.
</event>
<event>
 5   0  0.1932012E-06  0.2703660E+04  0.7818609E-02  0.8333818E-01
       -2   -1    0    0    0  501  0.00000000000E+00  0.00000000000E+00  0.14100690305E+04  0.14100690305E+04  0.25500000920E-02 0. -1.
        2   -1    0    0  501    0  0.00000000000E+00  0.00000000000E+00 -0.12959964937E+04  0.12959964937E+04  0.25500000920E-02 0.  1.
    10030    2    1    2    0    0  0.00000000000E+00  0.00000000000E+00  0.11407253680E+03  0.27060655241E+04  0.27036601260E+04 0.  0.
        2    1    3    3  502    0  0.10528053061E+04  0.47393500862E+03  0.76081981369E+03  0.13827003269E+04  0.25500000920E-02 0. -1.
       -2    1    3    3    0  502 -0.10528053061E+04 -0.47393500862E+03 -0.64674727690E+03  0.13233651972E+04  0.25500000920E-02 0.  1.
</event>
<event>
 5   0  0.7806808E-07  0.2700173E+04  0.7818609E-02  0.8334949E-01
        1   -1    0    0  501    0  0.00000000000E+00  0.00000000000E+00  0.14734698379E+04  0.14734698379E+04  0.50400001928E-02 0.  1.
       -1   -1    0    0    0  501  0.00000000000E+00  0.00000000000E+00 -0.12370351542E+04  0.12370351542E+04  0.50400001928E-02 0. -1.
    10030    2    1    2    0    0  0.00000000000E+00  0.00000000000E+00  0.23643468376E+03  0.27105049921E+04  0.27001733190E+04 0.  0.
        5    1    3    3  502    0  0.84063153519E+03  0.72298660576E+03  0.89145092584E+03  0.14227009008E+04  0.46999998093E+01 0.  1.
       -5    1    3    3    0  502 -0.84063153519E+03 -0.72298660576E+03 -0.65501624209E+03  0.12878040913E+04  0.46999998093E+01 0. -1.
</event>
<event>
 5   0  0.7768032E-07  0.2698267E+04  0.7818609E-02  0.8335567E-01
        1   -1    0    0  501    0  0.00000000000E+00  0.00000000000E+00  0.11847423262E+04  0.11847423262E+04  0.50400001928E-02 0. -1.
       -1   -1    0    0    0  501  0.00000000000E+00  0.00000000000E+00 -0.15363350162E+04  0.15363350162E+04  0.50400001928E-02 0.  1.
    10030    2    1    2    0    0  0.00000000000E+00  0.00000000000E+00 -0.35159269002E+03  0.27210773424E+04  0.26982669408E+04 0.  0.
        4    1    3    3  502    0 -0.49748355317E+03  0.71495469404E+03  0.86320927689E+03  0.12262878817E+04  0.12699999809E+01 0. -1.
       -4    1    3    3    0  502  0.49748355317E+03 -0.71495469404E+03 -0.12148019669E+04  0.14947894607E+04  0.12699999809E+01 0.  1.
</event>
<event>
 5   0  0.2063087E-06  0.2702226E+04  0.7818609E-02  0.8334283E-01
       -2   -1    0    0    0  501  0.00000000000E+00  0.00000000000E+00  0.12215992999E+04  0.12215992999E+04  0.25500000920E-02 0.  1.
        2   -1    0    0  501    0  0.00000000000E+00  0.00000000000E+00 -0.14943581911E+04  0.14943581911E+04  0.25500000920E-02 0. -1.
    10030    2    1    2    0    0  0.00000000000E+00  0.00000000000E+00 -0.27275889118E+03  0.27159574911E+04  0.27022264303E+04 0.  0.
        3    1    3    3  502    0  0.71228522015E+03  0.53289002112E+03  0.88573688488E+03  0.12553293786E+04  0.10100000352E+00 0.  1.
       -3    1    3    3    0  502 -0.71228522015E+03 -0.53289002112E+03 -0.11584957761E+04  0.14606281124E+04  0.10100000352E+00 0. -1.
</event>
<event>
 5   0  0.7335091E-07  0.2672366E+04  0.7818609E-02  0.8344027E-01
        1   -1    0    0  501    0  0.00000000000E+00  0.00000000000E+00  0.13705375222E+04  0.13705375222E+04  0.50400001928E-02 0.  1.
       -1   -1    0    0    0  501  0.00000000000E+00  0.00000000000E+00 -0.13026893774E+04  0.13026893774E+04  0.50400001928E-02 0. -1.
    10030    2    1    2    0    0  0.00000000000E+00  0.00000000000E+00  0.67848144840E+02  0.26732268996E+04  0.26723657470E+04 0.  0.
        3    1    3    3  502    0  0.32113131122E+03 -0.11881982347E+04  0.55413424448E+03  0.13498167043E+04  0.10100000352E+00 0.  1.
       -3    1    3    3    0  502 -0.32113131122E+03  0.11881982347E+04 -0.48628609964E+03  0.13234101953E+04  0.10100000352E+00 0. -1.
</event>
<event>
 5   0  0.7436613E-07  0.2692562E+04  0.7818609E-02  0.8337423E-01
       -1   -1    0    0    0  501  0.00000000000E+00  0.00000000000E+00  0.15305155824E+04  0.15305155824E+04  0.50400001928E-02 0.  1.
        1   -1    0    0  501    0  0.00000000000E+00  0.00000000000E+00 -0.11842231031E+04  0.11842231031E+04  0.50400001928E-02 0. -1.
    10030    2    1    2    0    0  0.00000000000E+00  0.00000000000E+00  0.34629247936E+03  0.27147386855E+04  0.26925615405E+04 0.  0.
        2    1    3    3  502    0 -0.75957920910E+03  0.10828723969E+04 -0.79715581142E+02  0.13251142505E+04  0.25500000920E-02 0. -1.
       -2    1    3    3    0  502  0.75957920910E+03 -0.10828723969E+04  0.42600806050E+03  0.13896244351E+04  0.25500000920E-02 0.  1.
</event>
<event>
 5   0  0.7436613E-07  0.2700179E+04  0.7818609E-02  0.8334947E-01
       -1   -1    0    0    0  501  0.00000000000E+00  0.00000000000E+00  0.95821509315E+03  0.95821509316E+03  0.50400001928E-02 0. -1.
        1   -1    0    0  501    0  0.00000000000E+00  0.00000000000E+00 -0.19022256227E+04  0.19022256227E+04  0.50400001928E-02 0.  1.
    10030    2    1    2    0    0  0.00000000000E+00  0.00000000000E+00 -0.94401052954E+03  0.28604407159E+04  0.27001787365E+04 0.  0.
        2    1    3    3  502    0 -0.76376170658E+03 -0.74783837749E+03  0.40165356325E+03  0.11418930634E+04  0.25500000920E-02 0. -1.
       -2    1    3    3    0  502  0.76376170658E+03  0.74783837749E+03 -0.13456640928E+04  0.17185476525E+04  0.25500000920E-02 0.  1.
</event>
<event>
 5   0  0.1999104E-06  0.2699163E+04  0.7818609E-02  0.8335277E-01
        2   -1    0    0  501    0  0.00000000000E+00  0.00000000000E+00  0.31039060468E+04  0.31039060468E+04  0.25500000920E-02 0. -1.
       -2   -1    0    0    0  501  0.00000000000E+00  0.00000000000E+00 -0.58679923873E+03  0.58679923874E+03  0.25500000920E-02 0.  1.
    10030    2    1    2    0    0  0.00000000000E+00  0.00000000000E+00  0.25171068081E+04  0.36907052856E+04  0.26991626149E+04 0.  0.
        4    1    3    3  502    0 -0.89376625593E+02 -0.99977225795E+03  0.25026602565E+02  0.10040720555E+04  0.12699999809E+01 0.  1.
       -4    1    3    3    0  502  0.89376625593E+02  0.99977225795E+03  0.24920802055E+04  0.26866332300E+04  0.12699999809E+01 0. -1.
</event>
<event>
 5   0  0.7566905E-07  0.2698692E+04  0.7818609E-02  0.8335429E-01
        1   -1    0    0  501    0  0.00000000000E+00  0.00000000000E+00  0.11141903415E+04  0.11141903415E+04  0.50400001928E-02 0.  1.
       -1   -1    0    0    0  501  0.00000000000E+00  0.00000000000E+00 -0.16341329637E+04  0.16341329637E+04  0.50400001928E-02 0. -1.
    10030    2    1    2    0    0  0.00000000000E+00  0.00000000000E+00 -0.51994262220E+03  0.27483233052E+04  0.26986923981E+04 0.  0.
        1    1    3    3  502    0  0.18758853304E+01 -0.24994986481E+03 -0.16103500040E+04  0.16296335751E+04  0.50400001928E-02 0. -1.
       -1    1    3    3    0  502 -0.18758853304E+01  0.24994986481E+03  0.10904073818E+04  0.11186897301E+04  0.50400001928E-02 0.  1.
</event>
<event>
 5   0  0.7566905E-07  0.2697493E+04  0.7818609E-02  0.8335819E-01
       -1   -1    0    0    0  501  0.00000000000E+00  0.00000000000E+00  0.14148039675E+04  0.14148039675E+04  0.50400001928E-02 0. -1.
        1   -1    0    0  501    0  0.00000000000E+00  0.00000000000E+00 -0.12857735810E+04  0.12857735810E+04  0.50400001928E-02 0.  1.
    10030    2    1    2    0    0  0.00000000000E+00  0.00000000000E+00  0.12903038644E+03  0.27005775485E+04  0.26974933281E+04 0.  0.
        1    1    3    3  502    0 -0.55751075294E+03  0.29655637259E+03 -0.11286333579E+04  0.12932815542E+04  0.50400001928E-02 0.  1.
       -1    1    3    3    0  502  0.55751075294E+03 -0.29655637259E+03  0.12576637444E+04  0.14072959943E+04  0.50400001928E-02 0. -1.
</event>
<event>
 5   0  0.1991277E-06  0.2709356E+04  0.7818609E-02  0.8331976E-01
       -2   -1    0    0    0  501  0.00000000000E+00  0.00000000000E+00  0.97697448969E+03  0.97697448969E+03  0.25500000920E-02 0. -1.
        2   -1    0    0  501    0  0.00000000000E+00  0.00000000000E+00 -0.18784034756E+04  0.18784034756E+04  0.25500000920E-02 0.  1.
    10030    2    1    2    0    0  0.00000000000E+00  0.00000000000E+00 -0.90142898589E+03  0.28553779653E+04  0.27093558474E+04 0.  0.
        5    1    3    3  502    0 -0.56995952570E+03  0.45916129614E+03  0.75065577197E+03  0.10484222121E+04  0.46999998093E+01 0. -1.
       -5    1    3    3    0  502  0.56995952570E+03 -0.45916129614E+03 -0.16520847579E+04  0.18069557532E+04  0.46999998093E+01 0.  1.
</event>
<event>
 5   0  0.2030645E-06  0.2694759E+04  0.7818609E-02  0.8336708E-01
       -2   -1    0    0    0  501  0.00000000000E+00  0.00000000000E+00  0.22928781641E+04  0.22928781641E+04  0.25500000920E-02 0. -1.
        2   -1    0    0  501    0  0.00000000000E+00  0.00000000000E+00 -0.79176960283E+03  0.79176960283E+03  0.25500000920E-02 0.  1.
    10030    2    1    2    0    0  0.00000000000E+00  0.00000000000E+00  0.15011085612E+04  0.30846477669E+04  0.26947587894E+04 0.  0.
        1    1    3    3  502    0 -0.69672703224E+03  0.91569447419E+03  0.15530638677E+04  0.19328559969E+04  0.50400001928E-02 0. -1.
       -1    1    3    3    0  502  0.69672703224E+03 -0.91569447419E+03 -0.51955306487E+02  0.11517917700E+04  0.50400001928E-02 0.  1.
</event>
<event>
 5   0  0.2030645E-06  0.2698251E+04  0.7818609E-02  0.8335573E-01
       -2   -1    0    0    0  501  0.00000000000E+00  0.00000000000E+00  0.19799311635E+04  0.19799311635E+04  0.25500000920E-02 0. -1.
        2   -1    0    0  501    0  0.00000000000E+00  0.00000000000E+00 -0.91929458094E+03  0.91929458094E+03  0.25500000920E-02 0.  1.
    10030    2    1    2    0    0  0.00000000000E+00  0.00000000000E+00  0.10606365825E+04  0.28992257444E+04  0.26982512775E+04 0.  0.
        1    1    3    3  502    0  0.10876758044E+04  0.78641199644E+03  0.38355196218E+03  0.13959206966E+04  0.50400001928E-02 0. -1.
       -1    1    3    3    0  502 -0.10876758044E+04 -0.78641199644E+03  0.67708462034E+03  0.15033050478E+04  0.50400001928E-02 0.  1.
</event>
<event>
 5   0  0.7335091E-07  0.2697503E+04  0.7818609E-02  0.8335816E-01
        1   -1    0    0  501    0  0.00000000000E+00  0.00000000000E+00  0.13866389599E+04  0.13866389599E+04  0.50400001928E-02 0. -1.
       -1   -1    0    0    0  501  0.00000000000E+00  0.00000000000E+00 -0.13118990324E+04  0.13118990324E+04  0.50400001928E-02 0.  1.
    10030    2    1    2    0    0  0.00000000000E+00  0.00000000000E+00  0.74739927446E+02  0.26985379923E+04  0.26975027784E+04 0.  0.
        3    1    3    3  502    0 -0.54115137669E+03 -0.12161225853E+04 -0.18027120894E+03  0.13432411079E+04  0.10100000352E+00 0.  1.
       -3    1    3    3    0  502  0.54115137669E+03  0.12161225853E+04  0.25501113638E+03  0.13552968844E+04  0.10100000352E+00 0. -1.
</event>
<event>
 5   0  0.1991277E-06  0.2697513E+04  0.7818609E-02  0.8335812E-01
        2   -1    0    0  501    0  0.00000000000E+00  0.00000000000E+00  0.15312149033E+04  0.15312149033E+04  0.25500000920E-02 0. -1.
       -2   -1    0    0    0  501  0.00000000000E+00  0.00000000000E+00 -0.11880397624E+04  0.11880397624E+04  0.25500000920E-02 0.  1.
    10030    2    1    2    0    0  0.00000000000E+00  0.00000000000E+00  0.34317514089E+03  0.27192546658E+04  0.26975130695E+04 0.  0.
        5    1    3    3  502    0  0.11778258919E+04  0.17144403792E+03  0.81109427506E+03  0.14403343024E+04  0.46999998093E+01 0.  1.
       -5    1    3    3    0  502 -0.11778258919E+04 -0.17144403792E+03 -0.46791913418E+03  0.12789203634E+04  0.46999998093E+01 0. -1.
</event>
<event>
 5   0  0.1932012E-06  0.2696627E+04  0.7818609E-02  0.8336100E-01
       -2   -1    0    0    0  501  0.00000000000E+00  0.00000000000E+00  0.91767460920E+03  0.91767460920E+03  0.25500000920E-02 0.  1.
        2   -1    0    0  501    0  0.00000000000E+00  0.00000000000E+00 -0.19810387356E+04  0.19810387356E+04  0.25500000920E-02 0. -1.
    10030    2    1    2    0    0  0.00000000000E+00  0.00000000000E+00 -0.10633641264E+04  0.28987133448E+04  0.26966267428E+04 0.  0.
        2    1    3    3  502    0  0.12573616158E+04 -0.45599193568E+03 -0.34843049522E+03  0.13821326594E+04  0.25500000920E-02 0. -1.
       -2    1    3    3    0  502 -0.12573616158E+04  0.45599193568E+03 -0.71493363121E+03  0.15165806854E+04  0.25500000920E-02 0.  1.
</event>
<event>
 5   0  0.7806808E-07  0.2699268E+04  0.7818609E-02  0.8335242E-01
        1   -1    0    0  501    0  0.00000000000E+00  0.00000000000E+00  0.17305932403E+04  0.17305932403E+04  0.50400001928E-02 0.  1.
       -1   -1    0    0    0  501  0.00000000000E+00  0.00000000000E+00 -0.10525364818E+04  0.10525364818E+04  0.50400001928E-02 0. -1.
    10030    2    1    2    0    0  0.00000000000E+00  0.00000000000E+00  0.67805675846E+03  0.27831297221E+04  0.26992684347E+04 0.  0.
        5    1    3    3  502    0  0.94362650697E+03  0.39465860798E+03  0.12468978114E+04  0.16127500252E+04  0.46999998093E+01 0.  1.
       -5    1    3    3    0  502 -0.94362650697E+03 -0.39465860798E+03 -0.56884105297E+03  0.11703796970E+04  0.46999998093E+01 0. -1.
</event>
<event>
 5   0  0.2030645E-06  0.2698709E+04  0.7818609E-02  0.8335424E-01
       -2   -1    0    0    0  501  0.00000000000E+00  0.00000000000E+00  0.10581453795E+04  0.10581453795E+04  0.25500000920E-02 0.  1.
        2   -1    0    0  501    0  0.00000000000E+00  0.00000000000E+00 -0.17207069443E+04  0.17207069443E+04  0.25500000920E-02 0. -1.
    10030    2    1    2    0    0  0.00000000000E+00  0.00000000000E+00 -0.66256156480E+03  0.27788523237E+04  0.26987093971E+04 0.  0.
        1    1    3    3  502    0 -0.59360185340E+03  0.17734183421E+02 -0.15789063688E+04  0.16868974430E+04  0.50400001928E-02 0. -1.
       -1    1    3    3    0  502  0.59360185340E+03 -0.17734183421E+02  0.91634480403E+03  0.10919548807E+04  0.50400001928E-02 0.  1.
</event>
<event>
 5   0  0.1999104E-06  0.2702113E+04  0.7818609E-02  0.8334320E-01
        2   -1    0    0  501    0  0.00000000000E+00  0.00000000000E+00  0.17300365165E+04  0.17300365166E+04  0.25500000920E-02 0. -1.
       -2   -1    0    0    0  501  0.00000000000E+00  0.00000000000E+00 -0.10550957293E+04  0.10550957293E+04  0.25500000920E-02 0.  1.
    10030    2    1    2    0    0  0.00000000000E+00  0.00000000000E+00  0.67494078728E+03  0.27851322458E+04  0.27021133508E+04 0.  0.
        4    1    3    3  502    0  0.12710835692E+04 -0.31031876215E+03  0.68456780647E+03  0.14766806929E+04  0.12699999809E+01 0. -1.
       -4    1    3    3    0  502 -0.12710835692E+04  0.31031876215E+03 -0.96270191893E+01  0.13084515530E+04  0.12699999809E+01 0.  1.
</event>
<event>
 5   0  0.2030645E-06  0.2697524E+04  0.7818609E-02  0.8335809E-01
        2   -1    0    0  501    0  0.00000000000E+00  0.00000000000E+00  0.21035756369E+04  0.21035756369E+04  0.25500000920E-02 0. -1.
       -2   -1    0    0    0  501  0.00000000000E+00  0.00000000000E+00 -0.86479383213E+03  0.86479383214E+03  0.25500000920E-02 0.  1.
    10030    2    1    2    0    0  0.00000000000E+00  0.00000000000E+00  0.12387818048E+04  0.29683694690E+04  0.26975242251E+04 0.  0.
        1    1    3    3  502    0  0.74898502361E+03  0.17331023734E+03 -0.60009641766E+03  0.97525930628E+03  0.50400001928E-02 0.  1.
       -1    1    3    3    0  502 -0.74898502361E+03 -0.17331023734E+03  0.18388782224E+04  0.19931101628E+04  0.50400001928E-02 0. -1.
</event>
<event>
 5   0  0.1932012E-06  0.2697456E+04  0.7818609E-02  0.8335831E-01
       -2   -1    0    0    0  501  0.00000000000E+00  0.00000000000E+00  0.78734630005E+03  0.78734630006E+03  0.25500000920E-02 0.  1.
        2   -1    0    0  501    0  0.00000000000E+00  0.00000000000E+00 -0.23103782890E+04  0.23103782890E+04  0.25500000920E-02 0. -1.
    10030    2    1    2    0    0  0.00000000000E+00  0.00000000000E+00 -0.15230319890E+04  0.30977245891E+04  0.26974564298E+04 0.  0.
        2    1    3    3  502    0  0.68582766653E+03  0.52312230785E+03  0.42918564313E+03  0.96344011408E+03  0.25500000920E-02 0.  1.
       -2    1    3    3    0  502 -0.68582766653E+03 -0.52312230785E+03 -0.19522176321E+04  0.21342844750E+04  0.25500000920E-02 0. -1.
</event>
<event>
 5   0  0.7436613E-07  0.2701770E+04  0.7818609E-02  0.8334431E-01
        1   -1    0    0  501    0  0.00000000000E+00  0.00000000000E+00  0.20034769040E+04  0.20034769040E+04  0.50400001928E-02 0. -1.
       -1   -1    0    0    0  501  0.00000000000E+00  0.00000000000E+00 -0.91086186226E+03  0.91086186227E+03  0.50400001928E-02 0.  1.
    10030    2    1    2    0    0  0.00000000000E+00  0.00000000000E+00  0.10926150418E+04  0.29143387663E+04  0.27017703113E+04 0.  0.
        2    1    3    3  502    0 -0.82255374931E+03  0.10412580669E+04  0.27325576813E+03  0.13547995229E+04  0.25500000920E-02 0. -1.
       -2    1    3    3    0  502  0.82255374931E+03 -0.10412580669E+04  0.81935927362E+03  0.15595392434E+04  0.25500000920E-02 0.  1.
</event>
<event>
 5   0  0.7436613E-07  0.2691147E+04  0.7818609E-02  0.8337883E-01
       -1   -1    0    0    0  501  0.00000000000E+00  0.00000000000E+00  0.12369822448E+04  0.12369822448E+04  0.50400001928E-02 0. -1.
        1   -1    0    0  501    0  0.00000000000E+00  0.00000000000E+00 -0.14636975051E+04  0.14636975051E+04  0.50400001928E-02 0.  1.
    10030    2    1    2    0    0  0.00000000000E+00  0.00000000000E+00 -0.22671526024E+03  0.27006797499E+04  0.26911468377E+04 0.  0.
        2    1    3    3  502    0 -0.75955867815E+03  0.82107619671E+03  0.63727077539E+03  0.12873265116E+04  0.25500000920E-02 0. -1.
       -2    1    3    3    0  502  0.75955867815E+03 -0.82107619671E+03 -0.86398603563E+03  0.14133532383E+04  0.25500000920E-02 0.  1.
</event>
<event>
 5   0  0.2030645E-06  0.2705982E+04  0.7818609E-02  0.8333067E-01
       -2   -1    0    0    0  501  0.00000000000E+00  0.00000000000E+00  0.11344513113E+04  0.11344513113E+04  0.25500000920E-02 0.  1.
        2   -1    0    0  501    0  0.00000000000E+00  0.00000000000E+00 -0.16136300636E+04  0.16136300636E+04  0.25500000920E-02 0. -1.
    10030    2    1    2    0    0  0.00000000000E+00  0.00000000000E+00 -0.47917875225E+03  0.27480813749E+04  0.27059820706E+04 0.  0.
        1    1    3    3  502    0 -0.37931626637E+03  0.78451675523E+03 -0.12906978366E+04  0.15573208644E+04  0.50400001928E-02 0. -1.
       -1    1    3    3    0  502  0.37931626637E+03 -0.78451675523E+03  0.81151908436E+03  0.11907605105E+04  0.50400001928E-02 0.  1.
</event>
<event>
 5   0  0.7335091E-07  0.2630499E+04  0.7818609E-02  0.8357914E-01
       -1   -1    0    0    0  501  0.00000000000E+00  0.00000000000E+00  0.10269523982E+04  0.10269523982E+04  0.50400001928E-02 0. -1.
        1   -1    0    0  501    0  0.00000000000E+00  0.00000000000E+00 -0.16844810284E+04  0.16844810284E+04  0.50400001928E-02 0.  1.
    10030    2    1    2    0    0  0.00000000000E+00  0.00000000000E+00 -0.65752863022E+03  0.27114334267E+04  0.26304994445E+04 0.  0.
        3    1    3    3  502    0 -0.11368171156E+04 -0.39236184014E+03  0.22014320937E+03  0.12226054191E+04  0.10100000352E+00 0.  1.
       -3    1    3    3    0  502  0.11368171156E+04  0.39236184014E+03 -0.87767183960E+03  0.14888280076E+04  0.10100000352E+00 0. -1.
</event>
<event>
 5   0  0.7806808E-07  0.2699747E+04  0.7818609E-02  0.8335087E-01
        1   -1    0    0  501    0  0.00000000000E+00  0.00000000000E+00  0.14200253206E+04  0.14200253206E+04  0.50400001928E-02 0.  1.
       -1   -1    0    0    0  501  0.00000000000E+00  0.00000000000E+00 -0.12831877651E+04  0.12831877651E+04  0.50400001928E-02 0. -1.
    10030    2    1    2    0    0  0.00000000000E+00  0.00000000000E+00  0.13683755548E+03  0.27032130857E+04  0.26997474826E+04 0.  0.
        5    1    3    3  502    0  0.12765591567E+04  0.43728825059E+03  0.32140611229E+02  0.13497701298E+04  0.46999998093E+01 0. -1.
       -5    1    3    3    0  502 -0.12765591567E+04 -0.43728825059E+03  0.10469694425E+03  0.13534429558E+04  0.46999998093E+01 0.  1.
</event>
<event>
 5   0  0.2063087E-06  0.2701788E+04  0.7818609E-02  0.8334425E-01
        2   -1    0    0  501    0  0.00000000000E+00  0.00000000000E+00  0.15848960363E+04  0.15848960363E+04  0.25500000920E-02 0. -1.
       -2   -1    0    0    0  501  0.00000000000E+00  0.00000000000E+00 -0.11514413465E+04  0.11514413465E+04  0.25500000920E-02 0.  1.
    10030    2    1    2    0    0  0.00000000000E+00  0.00000000000E+00  0.43345468975E+03  0.27363373828E+04  0.27017881679E+04 0.  0.
        3    1    3    3  502    0 -0.13025332465E+04 -0.20589099767E+03  0.51361552931E+03  0.14151978248E+04  0.10100000352E+00 0. -1.
       -3    1    3    3    0  502  0.13025332465E+04  0.20589099767E+03 -0.80160839566E+02  0.13211395580E+04  0.10100000352E+00 0.  1.
</event>
<event>
 5   0  0.7768032E-07  0.2701539E+04  0.7818609E-02  0.8334506E-01
       -1   -1    0    0    0  501  0.00000000000E+00  0.00000000000E+00  0.13046658849E+04  0.13046658849E+04  0.50400001928E-02 0.  1.
        1   -1    0    0  501    0  0.00000000000E+00  0.00000000000E+00 -0.13985022160E+04  0.13985022160E+04  0.50400001928E-02 0. -1.
    10030    2    1    2    0    0  0.00000000000E+00  0.00000000000E+00 -0.93836331120E+02  0.27031681009E+04  0.27015389178E+04 0.  0.
        4    1    3    3  502    0 -0.13454449977E+04  0.10436819695E+03 -0.10578863453E+03  0.13536276484E+04  0.12699999809E+01 0.  1.
       -4    1    3    3    0  502  0.13454449977E+04 -0.10436819695E+03  0.11952303414E+02  0.13495404525E+04  0.12699999809E+01 0. -1.
</event>
<event>
 5   0  0.1932012E-06  0.2699273E+04  0.7818609E-02  0.8335241E-01
       -2   -1    0    0    0  501  0.00000000000E+00  0.00000000000E+00  0.98288542297E+03  0.98288542298E+03  0.25500000920E-02 0.  1.
        2   -1    0    0  501    0  0.00000000000E+00  0.00000000000E+00 -0.18532360674E+04  0.18532360674E+04  0.25500000920E-02 0. -1.
    10030    2    1    2    0    0  0.00000000000E+00  0.00000000000E+00 -0.87035064439E+03  0.28361214903E+04  0.26992730251E+04 0.  0.
        2    1    3    3  502    0 -0.56885782206E+03  0.89215570116E+03 -0.13154935081E+04  0.16882133120E+04  0.25500000920E-02 0. -1.
       -2    1    3    3    0  502  0.56885782206E+03 -0.89215570116E+03  0.44514286373E+03  0.11479081784E+04  0.25500000920E-02 0.  1.
</event>
<event>
 5   0  0.7566905E-07  0.2703872E+04  0.7818609E-02  0.8333750E-01
        1   -1    0    0  501    0  0.00000000000E+00  0.00000000000E+00  0.16308882259E+04  0.16308882259E+04  0.50400001928E-02 0.  1.
       -1   -1    0    0    0  501  0.00000000000E+00  0.00000000000E+00 -0.11206962599E+04  0.11206962599E+04  0.50400001928E-02 0. -1.
    10030    2    1    2    0    0  0.00000000000E+00  0.00000000000E+00  0.51019196600E+03  0.27515844859E+04  0.27038715467E+04 0.  0.
        1    1    3    3  502    0  0.78626514420E+03  0.95930293178E+03 -0.29221919441E+03  0.12743104212E+04  0.50400001928E-02 0. -1.
       -1    1    3    3    0  502 -0.78626514420E+03 -0.95930293178E+03  0.80241116041E+03  0.14772740647E+04  0.50400001928E-02 0.  1.
</event>
<event>
 5   0  0.7566905E-07  0.2698056E+04  0.7818609E-02  0.8335636E-01
        1   -1    0    0  501    0  0.00000000000E+00  0.00000000000E+00  0.18836469624E+04  0.18836469624E+04  0.50400001928E-02 0.  1.
       -1   -1    0    0    0  501  0.00000000000E+00  0.00000000000E+00 -0.96614529947E+03  0.96614529948E+03  0.50400001928E-02 0. -1.
    10030    2    1    2    0    0  0.00000000000E+00  0.00000000000E+00  0.91750166297E+03  0.28497922619E+04  0.26980560844E+04 0.  0.
        1    1    3    3  502    0  0.44615265552E+03 -0.12468908183E+04  0.18721776432E+03  0.13374750077E+04  0.50400001928E-02 0.  1.
       -1    1    3    3    0  502 -0.44615265552E+03  0.12468908183E+04  0.73028389865E+03  0.15123172543E+04  0.50400001928E-02 0. -1.
</event>
<event>
 5   0  0.1991277E-06  0.2700402E+04  0.7818609E-02  0.8334874E-01
        2   -1    0    0  501    0  0.00000000000E+00  0.00000000000E+00  0.27768682446E+04  0.27768682446E+04  0.25500000920E-02 0.  1.
       -2   -1    0    0    0  501  0.00000000000E+00  0.00000000000E+00 -0.65651057095E+03  0.65651057096E+03  0.25500000920E-02 0. -1.
    10030    2    1    2    0    0  0.00000000000E+00  0.00000000000E+00  0.21203576737E+04  0.34333788156E+04  0.27004024565E+04 0.  0.
        5    1    3    3  502    0 -0.48668251454E+03  0.10096493839E+04  0.20173651311E+04  0.23078205976E+04  0.46999998093E+01 0.  1.
       -5    1    3    3    0  502  0.48668251454E+03 -0.10096493839E+04  0.10299254255E+03  0.11255582180E+04  0.46999998093E+01 0. -1.
</event>
<event>
 5   0  0.7335091E-07  0.2701239E+04  0.7818609E-02  0.8334603E-01
        1   -1    0    0  501    0  0.00000000000E+00  0.00000000000E+00  0.15599537120E+04  0.15599537120E+04  0.50400001928E-02 0.  1.
       -1   -1    0    0    0  501  0.00000000000E+00  0.00000000000E+00 -0.11693762135E+04  0.11693762135E+04  0.50400001928E-02 0. -1.
    10030    2    1    2    0    0  0.00000000000E+00  0.00000000000E+00  0.39057749849E+03  0.27293299256E+04  0.27012388010E+04 0.  0.
        3    1    3    3  502    0 -0.96317636951E+03  0.16876631997E+02  0.11518009000E+04  0.15015454914E+04  0.10100000352E+00 0.  1.
       -3    1    3    3    0  502  0.96317636951E+03 -0.16876631997E+02 -0.76122340148E+03  0.12277844341E+04  0.10100000352E+00 0. -1.
</event>
<event>
 5   0  0.7806808E-07  0.2707737E+04  0.7818609E-02  0.8332499E-01
        1   -1    0    0  501    0  0.00000000000E+00  0.00000000000E+00  0.22143977925E+04  0.22143977925E+04  0.50400001928E-02 0. -1.
       -1   -1    0    0    0  501  0.00000000000E+00  0.00000000000E+00 -0.82774620566E+03  0.82774620567E+03  0.50400001928E-02 0.  1.
    10030    2    1    2    0    0  0.00000000000E+00  0.00000000000E+00  0.13866515869E+04  0.30421439982E+04  0.27077365977E+04 0.  0.
        5    1    3    3  502    0  0.83034732285E+02  0.77178721633E+03  0.19395443693E+04  0.20891157757E+04  0.46999998093E+01 0. -1.
       -5    1    3    3    0  502 -0.83034732285E+02 -0.77178721633E+03 -0.55289278238E+03  0.95302822249E+03  0.46999998093E+01 0.  1.
</event>
<event>
 5   0  0.1932012E-06  0.2695358E+04  0.7818609E-02  0.8336513E-01
        2   -1    0    0  501    0  0.00000000000E+00  0.00000000000E+00  0.12305279829E+04  0.12305279829E+04  0.25500000920E-02 0. -1.
       -2   -1    0    0    0  501  0.00000000000E+00  0.00000000000E+00 -0.14759828591E+04  0.14759828591E+04  0.25500000920E-02 0.  1.
    10030    2    1    2    0    0  0.00000000000E+00  0.00000000000E+00 -0.24545487620E+03  0.27065108420E+04  0.26953576463E+04 0.  0.
        2    1    3    3  502    0 -0.21421499255E+03 -0.31849595773E+03 -0.14199362534E+04  0.14708999633E+04  0.25500000920E-02 0.  1.
       -2    1    3    3    0  502  0.21421499255E+03  0.31849595773E+03  0.11744813772E+04  0.12356108787E+04  0.25500000920E-02 0. -1.
</event>
<event>
 5   0  0.1999104E-06  0.2701084E+04  0.7818609E-02  0.8334653E-01
        2   -1    0    0  501    0  0.00000000000E+00  0.00000000000E+00  0.13961603331E+04  0.13961603331E+04  0.25500000920E-02 0.  1.
       -2   -1    0    0    0  501  0.00000000000E+00  0.00000000000E+00 -0.13064139770E+04  0.13064139770E+04  0.25500000920E-02 0. -1.
    10030    2    1    2    0    0  0.00000000000E+00  0.00000000000E+00  0.89746356035E+02  0.27025743101E+04  0.27010837627E+04 0.  0.
        4    1    3    3  502    0  0.19064212851E+03  0.13303437090E+04 -0.88628166562E+02  0.13468538785E+04  0.12699999809E+01 0. -1.
       -4    1    3    3    0  502 -0.19064212851E+03 -0.13303437090E+04  0.17837452260E+03  0.13557204316E+04  0.12699999809E+01 0.  1.
</event>
<event>
 5   0  0.7335091E-07  0.2686358E+04  0.7818609E-02  0.8339445E-01
       -1   -1    0    0    0  501  0.00000000000E+00  0.00000000000E+00  0.17507137351E+04  0.17507137351E+04  0.50400001928E-02 0.  1.
        1   -1    0    0  501    0  0.00000000000E+00  0.00000000000E+00 -0.10305109820E+04  0.10305109820E+04  0.50400001928E-02 0. -1.
    10030    2    1    2    0    0  0.00000000000E+00  0.00000000000E+00  0.72020275302E+03  0.27812247171E+04  0.26863579288E+04 0.  0.
        3    1    3    3  502    0  0.63075170488E+03  0.23145371545E+03 -0.84403241318E+03  0.10787999167E+04  0.10100000352E+00 0. -1.
       -3    1    3    3    0  502 -0.63075170488E+03 -0.23145371545E+03  0.15642351662E+04  0.17024248004E+04  0.10100000352E+00 0.  1.
</event>
<event>
 5   0  0.1932012E-06  0.2696375E+04  0.7818609E-02  0.8336182E-01
       -2   -1    0    0    0  501  0.00000000000E+00  0.00000000000E+00  0.11711872617E+04  0.11711872617E+04  0.25500000920E-02 0. -1.
        2   -1    0    0  501    0  0.00000000000E+00  0.00000000000E+00 -0.15519379955E+04  0.15519379955E+04  0.25500000920E-02 0.  1.
    10030    2    1    2    0    0  0.00000000000E+00  0.00000000000E+00 -0.38075073381E+03  0.27231252571E+04  0.26963753531E+04 0.  0.
        2    1    3    3  502    0  0.72205426427E+03  0.10862569215E+04  0.15402617394E+03  0.13134079801E+04  0.25500000920E-02 0. -1.
       -2    1    3    3    0  502 -0.72205426427E+03 -0.10862569215E+04 -0.53477690774E+03  0.14097172770E+04  0.25500000920E-02 0.  1.
</event>
<event>
 5   0  0.1999104E-06  0.2692894E+04  0.7818609E-02  0.8337314E-01
       -2   -1    0    0    0  501  0.00000000000E+00  0.00000000000E+00  0.10265185330E+04  0.10265185330E+04  0.25500000920E-02 0.  1.
        2   -1    0    0  501    0  0.00000000000E+00  0.00000000000E+00 -0.17660850067E+04  0.17660850067E+04  0.25500000920E-02 0. -1.
    10030    2    1    2    0    0  0.00000000000E+00  0.00000000000E+00 -0.73956647366E+03  0.27926035397E+04  0.26928936037E+04 0.  0.
        4    1    3    3  502    0 -0.65831753651E+03 -0.91936904711E+03 -0.11278038784E+04  0.15970487233E+04  0.12699999809E+01 0. -1.
       -4    1    3    3    0  502  0.65831753651E+03  0.91936904711E+03  0.38823740471E+03  0.11955548164E+04  0.12699999809E+01 0.  1.
</event>
<event>
 5   0  0.2063087E-06  0.2700673E+04  0.7818609E-02  0.8334787E-01
       -2   -1    0    0    0  501  0.00000000000E+00  0.00000000000E+00  0.63942386329E+03  0.63942386330E+03  0.25500000920E-02 0.  1.
        2   -1    0    0  501    0  0.00000000000E+00  0.00000000000E+00 -0.28516424938E+04  0.28516424938E+04  0.25500000920E-02 0. -1.
    10030    2    1    2    0    0  0.00000000000E+00  0.00000000000E+00 -0.22122186306E+04  0.34910663571E+04  0.27006727015E+04 0.  0.
        3    1    3    3  502    0 -0.58144911393E+03 -0.11458639533E+04 -0.16427149456E+04  0.20855693885E+04  0.10100000352E+00 0. -1.
       -3    1    3    3    0  502  0.58144911393E+03  0.11458639533E+04 -0.56950368493E+03  0.14054969686E+04  0.10100000352E+00 0.  1.
</event>
<event>
 5   0  0.7806808E-07  0.2701736E+04  0.7818609E-02  0.8334442E-01
       -1   -1    0    0    0  501  0.00000000000E+00  0.00000000000E+00  0.73801251013E+03  0.73801251015E+03  0.50400001928E-02 0. -1.
        1   -1    0    0  501    0  0.00000000000E+00  0.00000000000E+00 -0.24726463196E+04  0.24726463196E+04  0.50400001928E-02 0.  1.
    10030    2    1    2    0    0  0.00000000000E+00  0.00000000000E+00 -0.17346338094E+04  0.32106588297E+04  0.27017356769E+04 0.  0.
        5    1    3    3  502    0 -0.48376792109E+02 -0.90558620898E+03 -0.20571081682E+04  0.22481420777E+04  0.46999998093E+01 0.  1.
       -5    1    3    3    0  502  0.48376792109E+02  0.90558620898E+03  0.32247435873E+03  0.96251675204E+03  0.46999998093E+01 0. -1.
</event>
<event>
 5   0  0.1932012E-06  0.2698947E+04  0.7818609E-02  0.8335347E-01
        2   -1    0    0  501    0  0.00000000000E+00  0.00000000000E+00  0.18738650538E+04  0.18738650538E+04  0.25500000920E-02 0.  1.
       -2   -1    0    0    0  501  0.00000000000E+00  0.00000000000E+00 -0.97182992263E+03  0.97182992264E+03  0.25500000920E-02 0. -1.
    10030    2    1    2    0    0  0.00000000000E+00  0.00000000000E+00  0.90203513116E+03  0.28456949764E+04  0.26989465577E+04 0.  0.
        2    1    3    3  502    0 -0.29441618181E+03 -0.56037420203E+03 -0.80557946744E+03  0.10245283855E+04  0.25500000920E-02 0. -1.
       -2    1    3    3    0  502  0.29441618181E+03  0.56037420203E+03  0.17076145986E+04  0.18211665909E+04  0.25500000920E-02 0.  1.
</event>
<event>
 5   0  0.6561875E-07  0.2697337E+04  0.7818609E-02  0.8335870E-01
       -3   -1    0    0    0  501  0.00000000000E+00  0.00000000000E+00  0.18900396802E+04  0.18900396829E+04  0.10100000352E+00 0. -1.
        3   -1    0    0  501    0  0.00000000000E+00  0.00000000000E+00 -0.96236402588E+03  0.96236403118E+03  0.10100000352E+00 0.  1.
    10030    2    1    2    0    0  0.00000000000E+00  0.00000000000E+00  0.92767565429E+03  0.28524037141E+04  0.26973366176E+04 0.  0.
        1    1    3    3  502    0 -0.88639719250E+02 -0.11448586546E+04 -0.28417986849E+03  0.11829271054E+04  0.50400001928E-02 0.  1.
       -1    1    3    3    0  502  0.88639719250E+02  0.11448586546E+04  0.12118555228E+04  0.16694766087E+04  0.50400001928E-02 0. -1.
</event>
<event>
 5   0  0.7768032E-07  0.2699070E+04  0.7818609E-02  0.8335307E-01
        1   -1    0    0  501    0  0.00000000000E+00  0.00000000000E+00  0.13537859220E+04  0.13537859220E+04  0.50400001928E-02 0.  1.
       -1   -1    0    0    0  501  0.00000000000E+00  0.00000000000E+00 -0.13452978204E+04  0.13452978204E+04  0.50400001928E-02 0. -1.
    10030    2    1    2    0    0  0.00000000000E+00  0.00000000000E+00  0.84881016371E+01  0.26990837424E+04  0.26990703956E+04 0.  0.
        4    1    3    3  502    0 -0.72131023174E+03  0.10992609871E+04 -0.30002784198E+03  0.13485849943E+04  0.12699999809E+01 0.  1.
       -4    1    3    3    0  502  0.72131023174E+03 -0.10992609871E+04  0.30851594362E+03  0.13504987480E+04  0.12699999809E+01 0. -1.
</event>
<event>
 5   0  0.1932012E-06  0.2701382E+04  0.7818609E-02  0.8334557E-01
        2   -1    0    0  501    0  0.00000000000E+00  0.00000000000E+00  0.17418701869E+04  0.17418701869E+04  0.25500000920E-02 0. -1.
       -2   -1    0    0    0  501  0.00000000000E+00  0.00000000000E+00 -0.10473609253E+04  0.10473609253E+04  0.25500000920E-02 0.  1.
    10030    2    1    2    0    0  0.00000000000E+00  0.00000000000E+00  0.69450926165E+03  0.27892311122E+04  0.27013824392E+04 0.  0.
        2    1    3    3  502    0  0.78308838072E+03 -0.43631326748E+03 -0.69593292295E+03  0.11348653280E+04  0.25500000920E-02 0.  1.
       -2    1    3    3    0  502 -0.78308838072E+03  0.43631326748E+03  0.13904421846E+04  0.16543657843E+04  0.25500000920E-02 0. -1.
</event>
<event>
 5   0  0.7806808E-07  0.2697684E+04  0.7818609E-02  0.8335757E-01
        1   -1    0    0  501    0  0.00000000000E+00  0.00000000000E+00  0.15410726721E+04  0.15410726721E+04  0.50400001928E-02 0. -1.
       -1   -1    0    0    0  501  0.00000000000E+00  0.00000000000E+00 -0.11805896612E+04  0.11805896612E+04  0.50400001928E-02 0.  1.
    10030    2    1    2    0    0  0.00000000000E+00  0.00000000000E+00  0.36048301096E+03  0.27216623333E+04  0.26976837946E+04 0.  0.
        5    1    3    3  502    0 -0.18336664922E+03 -0.78619495582E+03  0.12704138942E+04  0.15052240329E+04  0.46999998093E+01 0. -1.
       -5    1    3    3    0  502  0.18336664922E+03  0.78619495582E+03 -0.90993088321E+03  0.12164383005E+04  0.46999998093E+01 0.  1.
</event>
<event>
 5   0  0.7806808E-07  0.2697823E+04  0.7818609E-02  0.8335712E-01
        1   -1    0    0  501    0  0.00000000000E+00  0.00000000000E+00  0.17620873360E+04  0.17620873360E+04  0.50400001928E-02 0. -1.
       -1   -1    0    0    0  501  0.00000000000E+00  0.00000000000E+00 -0.10326177475E+04  0.10326177475E+04  0.50400001928E-02 0.  1.
    10030    2    1    2    0    0  0.00000000000E+00  0.00000000000E+00  0.72946958843E+03  0.27947050835E+04  0.26978233121E+04 0.  0.
        5    1    3    3  502    0 -0.30672801982E+03  0.55667111368E+03 -0.86777120035E+03  0.10756457377E+04  0.46999998093E+01 0.  1.
       -5    1    3    3    0  502  0.30672801982E+03 -0.55667111368E+03  0.15972407888E+04  0.17190593458E+04  0.46999998093E+01 0. -1.
</event>
<event>
 5   0  0.7335091E-07  0.2691456E+04  0.7818609E-02  0.8337782E-01
       -1   -1    0    0    0  501  0.00000000000E+00  0.00000000000E+00  0.16938278525E+04  0.16938278525E+04  0.50400001928E-02 0. -1.
        1   -1    0    0  501    0  0.00000000000E+00  0.00000000000E+00 -0.10691666508E+04  0.10691666508E+04  0.50400001928E-02 0.  1.
    10030    2    1    2    0    0  0.00000000000E+00  0.00000000000E+00  0.62466120170E+03  0.27629945033E+04  0.26914562988E+04 0.  0.
        3    1    3    3  502    0  0.25396821434E+03 -0.46598903116E+03 -0.95720392108E+03  0.10944793227E+04  0.10100000352E+00 0.  1.
       -3    1    3    3    0  502 -0.25396821434E+03  0.46598903116E+03  0.15818651228E+04  0.16685151806E+04  0.10100000352E+00 0. -1.
</event>
<event>
 5   0  0.7436613E-07  0.2701729E+04  0.7818609E-02  0.8334444E-01
        1   -1    0    0  501    0  0.00000000000E+00  0.00000000000E+00  0.19233890470E+04  0.19233890470E+04  0.50400001928E-02 0.  1.
       -1   -1    0    0    0  501  0.00000000000E+00  0.00000000000E+00 -0.94875986664E+03  0.94875986665E+03  0.50400001928E-02 0. -1.
    10030    2    1    2    0    0  0.00000000000E+00  0.00000000000E+00  0.97462918039E+03  0.28721489137E+04  0.27017285843E+04 0.  0.
        2    1    3    3  502    0  0.60141423073E+02  0.11319370294E+04  0.12684680135E+04  0.17011494734E+04  0.25500000920E-02 0.  1.
       -2    1    3    3    0  502 -0.60141423073E+02 -0.11319370294E+04 -0.29383883313E+03  0.11709994403E+04  0.25500000920E-02 0. -1.
</event>
<event>
 5   0  0.1991277E-06  0.2701134E+04  0.7818609E-02  0.8334637E-01
        2   -1    0    0  501    0  0.00000000000E+00  0.00000000000E+00  0.24334143041E+04  0.24334143041E+04  0.25500000920E-02 0. -1.
       -2   -1    0    0    0  501  0.00000000000E+00  0.00000000000E+00 -0.74957669844E+03  0.74957669844E+03  0.25500000920E-02 0.  1.
    10030    2    1    2    0    0  0.00000000000E+00  0.00000000000E+00  0.16838376057E+04  0.31829910026E+04  0.27011335843E+04 0.  0.
        5    1    3    3  502    0 -0.39804356439E+03  0.77959169333E+03  0.20538905654E+04  0.22326420296E+04  0.46999998093E+01 0. -1.
       -5    1    3    3    0  502  0.39804356439E+03 -0.77959169333E+03 -0.37005295975E+03  0.95034897300E+03  0.46999998093E+01 0.  1.
</event>
<event>
 5   0  0.7768032E-07  0.2703569E+04  0.7818609E-02  0.8333848E-01
       -1   -1    0    0    0  501  0.00000000000E+00  0.00000000000E+00  0.18532617709E+04  0.18532617709E+04  0.50400001928E-02 0.  1.
        1   -1    0    0  501    0  0.00000000000E+00  0.00000000000E+00 -0.98600312921E+03  0.98600312922E+03  0.50400001928E-02 0. -1.
    10030    2    1    2    0    0  0.00000000000E+00  0.00000000000E+00  0.86725864170E+03  0.28392649001E+04  0.27035694224E+04 0.  0.
        4    1    3    3  502    0  0.92652934544E+03 -0.76220466322E+03  0.10877119219E+04  0.16194231734E+04  0.12699999809E+01 0.  1.
       -4    1    3    3    0  502 -0.92652934544E+03  0.76220466322E+03 -0.22045328023E+03  0.12198417267E+04  0.12699999809E+01 0. -1.
</event>
<event>
 5   0  0.7806808E-07  0.2705432E+04  0.7818609E-02  0.8333245E-01
        1   -1    0    0  501    0  0.00000000000E+00  0.00000000000E+00  0.72716036759E+03  0.72716036761E+03  0.50400001928E-02 0. -1.
       -1   -1    0    0    0  501  0.00000000000E+00  0.00000000000E+00 -0.25164186567E+04  0.25164186567E+04  0.50400001928E-02 0.  1.
    10030    2    1    2    0    0  0.00000000000E+00  0.00000000000E+00 -0.17892582891E+04  0.32435790243E+04  0.27054315112E+04 0.  0.
        5    1    3    3  502    0 -0.12363353926E+04 -0.21886817176E+03 -0.29112241890E+03  0.12888765776E+04  0.46999998093E+01 0. -1.
       -5    1    3    3    0  502  0.12363353926E+04  0.21886817176E+03 -0.14981358702E+04  0.19547024467E+04  0.46999998093E+01 0.  1.
</event>
<event>
 5   0  0.1932012E-06  0.2704780E+04  0.7818609E-02  0.8333456E-01
       -2   -1    0    0    0  501  0.00000000000E+00  0.00000000000E+00  0.20731224622E+04  0.20731224622E+04  0.25500000920E-02 0.  1.
        2   -1    0    0  501    0  0.00000000000E+00  0.00000000000E+00 -0.88222431240E+03  0.88222431240E+03  0.25500000920E-02 0. -1.
    10030    2    1    2    0    0  0.00000000000E+00  0.00000000000E+00  0.11908981498E+04  0.29553467746E+04  0.27047802416E+04 0.  0.
        2    1    3    3  502    0  0.92398156650E+03 -0.44344720807E+03 -0.36865909408E+03  0.10891725709E+04  0.25500000920E-02 0.  1.
       -2    1    3    3    0  502 -0.92398156650E+03  0.44344720807E+03  0.15595572439E+04  0.18661742037E+04  0.25500000920E-02 0. -1.
</event>
<event>
 5   0  0.7436613E-07  0.2699079E+04  0.7818609E-02  0.8335304E-01
        1   -1    0    0  501    0  0.00000000000E+00  0.00000000000E+00  0.13981853663E+04  0.13981853663E+04  0.50400001928E-02 0. -1.
       -1   -1    0    0    0  501  0.00000000000E+00  0.00000000000E+00 -0.13025862512E+04  0.13025862512E+04  0.50400001928E-02 0.  1.
    10030    2    1    2    0    0  0.00000000000E+00  0.00000000000E+00  0.95599115091E+02  0.27007716175E+04  0.26990791279E+04 0.  0.
        2    1    3    3  502    0 -0.41830847729E+03 -0.80184224624E+03 -0.95448919908E+03  0.13149078299E+04  0.25500000920E-02 0.  1.
       -2    1    3    3    0  502  0.41830847729E+03  0.80184224624E+03  0.10500883142E+04  0.13858637875E+04  0.25500000920E-02 0. -1.
</event>
<event>
 5   0  0.1991277E-06  0.2696893E+04  0.7818609E-02  0.8336014E-01
        2   -1    0    0  501    0  0.00000000000E+00  0.00000000000E+00  0.21977995164E+04  0.21977995164E+04  0.25500000920E-02 0. -1.
       -2   -1    0    0    0  501  0.00000000000E+00  0.00000000000E+00 -0.82733092814E+03  0.82733092814E+03  0.25500000920E-02 0.  1.
    10030    2    1    2    0    0  0.00000000000E+00  0.00000000000E+00  0.13704685883E+04  0.30251304446E+04  0.26968926666E+04 0.  0.
        5    1    3    3  502    0  0.11370250699E+04 -0.66234491982E+03  0.10156318037E+04  0.16622445226E+04  0.46999998093E+01 0.  1.
       -5    1    3    3    0  502 -0.11370250699E+04  0.66234491982E+03  0.35483678463E+03  0.13628859219E+04  0.46999998093E+01 0. -1.
</event>
<event>
 5   0  0.7566905E-07  0.2702142E+04  0.7818609E-02  0.8334310E-01
        1   -1    0    0  501    0  0.00000000000E+00  0.00000000000E+00  0.22071312582E+04  0.22071312582E+04  0.50400001928E-02 0.  1.
       -1   -1    0    0    0  501  0.00000000000E+00  0.00000000000E+00 -0.82704292603E+03  0.82704292605E+03  0.50400001928E-02 0. -1.
    10030    2    1    2    0    0  0.00000000000E+00  0.00000000000E+00  0.13800883321E+04  0.30341741842E+04  0.27021415906E+04 0.  0.
        1    1    3    3  502    0  0.54990658479E+03  0.16866481178E+03  0.20627808129E+04  0.21414737339E+04  0.50400001928E-02 0.  1.
       -1    1    3    3    0  502 -0.54990658479E+03 -0.16866481178E+03 -0.68269248077E+03  0.89270045035E+03  0.50400001928E-02 0. -1.
</event>
<event>
 5   0  0.2063087E-06  0.2702426E+04  0.7818609E-02  0.8334218E-01
        2   -1    0    0  501    0  0.00000000000E+00  0.00000000000E+00  0.22847474713E+04  0.22847474713E+04  0.25500000920E-02 0. -1.
       -2   -1    0    0    0  501  0.00000000000E+00  0.00000000000E+00 -0.79911506622E+03  0.79911506623E+03  0.25500000920E-02 0.  1.
    10030    2    1    2    0    0  0.00000000000E+00  0.00000000000E+00  0.14856324050E+04  0.30838625375E+04  0.27024256710E+04 0.  0.
        3    1    3    3  502    0  0.12192766085E+04 -0.58226481709E+03  0.73093778768E+03  0.15362089132E+04  0.10100000352E+00 0. -1.
       -3    1    3    3    0  502 -0.12192766085E+04  0.58226481709E+03  0.75469461737E+03  0.15476536243E+04  0.10100000352E+00 0.  1.
</event>
<event>
 5   0  0.1991277E-06  0.2703816E+04  0.7818609E-02  0.8333768E-01
       -2   -1    0    0    0  501  0.00000000000E+00  0.00000000000E+00  0.15258737687E+04  0.15258737687E+04  0.25500000920E-02 0.  1.
        2   -1    0    0  501    0  0.00000000000E+00  0.00000000000E+00 -0.11977764843E+04  0.11977764843E+04  0.25500000920E-02 0. -1.
    10030    2    1    2    0    0  0.00000000000E+00  0.00000000000E+00  0.32809728436E+03  0.27236502530E+04  0.27038163534E+04 0.  0.
        5    1    3    3  502    0  0.22054229957E+03 -0.13070010829E+04 -0.10387778424E+03  0.13295500821E+04  0.46999998093E+01 0.  1.
       -5    1    3    3    0  502 -0.22054229957E+03  0.13070010829E+04  0.43197506860E+03  0.13941001709E+04  0.46999998093E+01 0. -1.
</event>
<event>
 5   0  0.7566905E-07  0.2695330E+04  0.7818609E-02  0.8336522E-01
        1   -1    0    0  501    0  0.00000000000E+00  0.00000000000E+00  0.15352733534E+04  0.15352733534E+04  0.50400001928E-02 0.  1.
       -1   -1    0    0    0  501  0.00000000000E+00  0.00000000000E+00 -0.11829817677E+04  0.11829817677E+04  0.50400001928E-02 0. -1.
    10030    2    1    2    0    0  0.00000000000E+00  0.00000000000E+00  0.35229158567E+03  0.27182551211E+04  0.26953295795E+04 0.  0.
        1    1    3    3  502    0  0.35891981452E+03  0.84921564889E+03  0.11674661888E+04  0.14876047706E+04  0.50400001928E-02 0.  1.
       -1    1    3    3    0  502 -0.35891981452E+03 -0.84921564889E+03 -0.81517460312E+03  0.12306503505E+04  0.50400001928E-02 0. -1.
</event>
<event>
 5   0  0.1932012E-06  0.2672161E+04  0.7818609E-02  0.8344095E-01
       -2   -1    0    0    0  501  0.00000000000E+00  0.00000000000E+00  0.75027980455E+03  0.75027980455E+03  0.25500000920E-02 0.  1.
        2   -1    0    0  501    0  0.00000000000E+00  0.00000000000E+00 -0.23792611251E+04  0.23792611251E+04  0.25500000920E-02 0. -1.
    10030    2    1    2    0    0  0.00000000000E+00  0.00000000000E+00 -0.16289813206E+04  0.31295409297E+04  0.26721613514E+04 0.  0.
        2    1    3    3  502    0 -0.81607734624E+03 -0.10577640892E+04 -0.83353671272E+03  0.15746842715E+04  0.25500000920E-02 0. -1.
       -2    1    3    3    0  502  0.81607734624E+03  0.10577640892E+04 -0.79544460785E+03  0.15548566582E+04  0.25500000920E-02 0.  1.
</event>
<event>
 5   0  0.1991277E-06  0.2699539E+04  0.7818609E-02  0.8335155E-01
        2   -1    0    0  501    0  0.00000000000E+00  0.00000000000E+00  0.23772893338E+04  0.23772893338E+04  0.25500000920E-02 0. -1.
       -2   -1    0    0    0  501  0.00000000000E+00  0.00000000000E+00 -0.76636769690E+03  0.76636769691E+03  0.25500000920E-02 0.  1.
    10030    2    1    2    0    0  0.00000000000E+00  0.00000000000E+00  0.16109216369E+04  0.31436570307E+04  0.26995390359E+04 0.  0.
        5    1    3    3  502    0 -0.80988670387E+03  0.85318003075E+03  0.34745454699E+02  0.11768865598E+04  0.46999998093E+01 0. -1.
       -5    1    3    3    0  502  0.80988670387E+03 -0.85318003075E+03  0.15761761822E+04  0.19667704709E+04  0.46999998093E+01 0.  1.
</event>
<event>
 5   0  0.7768032E-07  0.2656862E+04  0.7818609E-02  0.8349139E-01
       -1   -1    0    0    0  501  0.00000000000E+00  0.00000000000E+00  0.76808147171E+03  0.76808147172E+03  0.50400001928E-02 0.  1.
        1   -1    0    0  501    0  0.00000000000E+00  0.00000000000E+00 -0.22975804017E+04  0.22975804017E+04  0.50400001928E-02 0. -1.
    10030    2    1    2    0    0  0.00000000000E+00  0.00000000000E+00 -0.15294989300E+04  0.30656618735E+04  0.26568620110E+04 0.  0.
        4    1    3    3  502    0  0.22506663173E+03 -0.22647366186E+03 -0.22526466184E+04  0.22751623477E+04  0.12699999809E+01 0. -1.
       -4    1    3    3    0  502 -0.22506663173E+03  0.22647366186E+03  0.72314768832E+03  0.79049952578E+03  0.12699999809E+01 0.  1.
</event>
<event>
 5   0  0.1991277E-06  0.2701172E+04  0.7818609E-02  0.8334625E-01
        2   -1    0    0  501    0  0.00000000000E+00  0.00000000000E+00  0.14989828601E+04  0.14989828601E+04  0.25500000920E-02 0. -1.
       -2   -1    0    0    0  501  0.00000000000E+00  0.00000000000E+00 -0.12168803881E+04  0.12168803881E+04  0.25500000920E-02 0.  1.
    10030    2    1    2    0    0  0.00000000000E+00  0.00000000000E+00  0.28210247204E+03  0.27158632482E+04  0.27011722230E+04 0.  0.
        5    1    3    3  502    0 -0.12130420367E+04 -0.38637093267E+02  0.73680822992E+03  0.14198141658E+04  0.46999998093E+01 0. -1.
       -5    1    3    3    0  502  0.12130420367E+04  0.38637093267E+02 -0.45470575788E+03  0.12960490824E+04  0.46999998093E+01 0.  1.
</event>
<event>
 5   0  0.7768032E-07  0.2695637E+04  0.7818609E-02  0.8336422E-01
       -1   -1    0    0    0  501  0.00000000000E+00  0.00000000000E+00  0.95121475746E+03  0.95121475747E+03  0.50400001928E-02 0. -1.
        1   -1    0    0  501    0  0.00000000000E+00  0.00000000000E+00 -0.19097833992E+04  0.19097833992E+04  0.50400001928E-02 0.  1.
    10030    2    1    2    0    0  0.00000000000E+00  0.00000000000E+00 -0.95856864172E+03  0.28609981567E+04  0.26956365874E+04 0.  0.
        4    1    3    3  502    0 -0.11927361380E+04 -0.39733209921E+03  0.36446220635E+02  0.12577051450E+04  0.12699999809E+01 0. -1.
       -4    1    3    3    0  502  0.11927361380E+04  0.39733209921E+03 -0.99501486235E+03  0.16032930116E+04  0.12699999809E+01 0.  1.
</event>
<event>
 5   0  0.7806808E-07  0.2693148E+04  0.7818609E-02  0.8337232E-01
       -1   -1    0    0    0  501  0.00000000000E+00  0.00000000000E+00  0.15598149943E+04  0.15598149943E+04  0.50400001928E-02 0. -1.
        1   -1    0    0  501    0  0.00000000000E+00  0.00000000000E+00 -0.11624848501E+04  0.11624848501E+04  0.50400001928E-02 0.  1.
    10030    2    1    2    0    0  0.00000000000E+00  0.00000000000E+00  0.39733014418E+03  0.27222998444E+04  0.26931478235E+04 0.  0.
        5    1    3    3  502    0  0.15809860009E+03  0.13347244332E+04  0.28174187195E+03  0.13732753010E+04  0.46999998093E+01 0.  1.
       -5    1    3    3    0  502 -0.15809860009E+03 -0.13347244332E+04  0.11558827224E+03  0.13490245434E+04  0.46999998093E+01 0. -1.
</event>
<event>
 5   0  0.7806808E-07  0.2692210E+04  0.7818609E-02  0.8337537E-01
        1   -1    0    0  501    0  0.00000000000E+00  0.00000000000E+00  0.77720779238E+03  0.77720779240E+03  0.50400001928E-02 0.  1.
       -1   -1    0    0    0  501  0.00000000000E+00  0.00000000000E+00 -0.23314211352E+04  0.23314211352E+04  0.50400001928E-02 0. -1.
    10030    2    1    2    0    0  0.00000000000E+00  0.00000000000E+00 -0.15542133428E+04  0.31086289276E+04  0.26922100019E+04 0.  0.
        5    1    3    3  502    0  0.83803915062E+03 -0.34105940402E+03  0.37372049101E+03  0.97893831799E+03  0.46999998093E+01 0.  1.
       -5    1    3    3    0  502 -0.83803915062E+03  0.34105940402E+03 -0.19279338338E+04  0.21296906096E+04  0.46999998093E+01 0. -1.
</event>
<event>
 5   0  0.6561875E-07  0.2706312E+04  0.7818609E-02  0.8332960E-01
        3   -1    0    0  501    0  0.00000000000E+00  0.00000000000E+00  0.23756609324E+04  0.23756609345E+04  0.10100000352E+00 0.  1.
       -3   -1    0    0    0  501  0.00000000000E+00  0.00000000000E+00 -0.77074577042E+03  0.77074577704E+03  0.10100000352E+00 0. -1.
    10030    2    1    2    0    0  0.00000000000E+00  0.00000000000E+00  0.16049151619E+04  0.31464067115E+04  0.27063116076E+04 0.  0.
        3    1    3    3  502    0 -0.10180693100E+04 -0.84565156864E+03  0.11301404483E+04  0.17403474189E+04  0.10100000352E+00 0.  1.
       -3    1    3    3    0  502  0.10180693100E+04  0.84565156864E+03  0.47477471365E+03  0.14060592926E+04  0.10100000352E+00 0. -1.
</event>
<event>
 5   0  0.1991277E-06  0.2699313E+04  0.7818609E-02  0.8335228E-01
        2   -1    0    0  501    0  0.00000000000E+00  0.00000000000E+00  0.12914025513E+04  0.12914025513E+04  0.25500000920E-02 0. -1.
       -2   -1    0    0    0  501  0.00000000000E+00  0.00000000000E+00 -0.14105387116E+04  0.14105387116E+04  0.25500000920E-02 0.  1.
    10030    2    1    2    0    0  0.00000000000E+00  0.00000000000E+00 -0.11913616038E+03  0.27019412629E+04  0.26993134615E+04 0.  0.
        5    1    3    3  502    0  0.13299779455E+04  0.21727658002E+03 -0.13380734503E+03  0.13542440486E+04  0.46999998093E+01 0.  1.
       -5    1    3    3    0  502 -0.13299779455E+04 -0.21727658002E+03  0.14671184650E+02  0.13476972143E+04  0.46999998093E+01 0. -1.
</event>
<event>
 5   0  0.7806808E-07  0.2701588E+04  0.7818609E-02  0.8334490E-01
        1   -1    0    0  501    0  0.00000000000E+00  0.00000000000E+00  0.17165758565E+04  0.17165758565E+04  0.50400001928E-02 0. -1.
       -1   -1    0    0    0  501  0.00000000000E+00  0.00000000000E+00 -0.10629561474E+04  0.10629561475E+04  0.50400001928E-02 0.  1.
    10030    2    1    2    0    0  0.00000000000E+00  0.00000000000E+00  0.65361970908E+03  0.27795320040E+04  0.27015883175E+04 0.  0.
        5    1    3    3  502    0 -0.25232046396E+03  0.48459939424E+03  0.15978139027E+04  0.16886484380E+04  0.46999998093E+01 0. -1.
       -5    1    3    3    0  502  0.25232046396E+03 -0.48459939424E+03 -0.94419419359E+03  0.10908835660E+04  0.46999998093E+01 0.  1.
</event>
<event>
 5   0  0.7806808E-07  0.2699231E+04  0.7818609E-02  0.8335255E-01
       -1   -1    0    0    0  501  0.00000000000E+00  0.00000000000E+00  0.21235786196E+04  0.21235786196E+04  0.50400001928E-02 0. -1.
        1   -1    0    0  501    0  0.00000000000E+00  0.00000000000E+00 -0.85773217506E+03  0.85773217507E+03  0.50400001928E-02 0.  1.
    10030    2    1    2    0    0  0.00000000000E+00  0.00000000000E+00  0.12658464446E+04  0.29813107947E+04  0.26992307855E+04 0.  0.
        5    1    3    3  502    0 -0.68404217415E+03  0.45150291352E+03 -0.55135578281E+03  0.98781772922E+03  0.46999998093E+01 0.  1.
       -5    1    3    3    0  502  0.68404217415E+03 -0.45150291352E+03  0.18172022274E+04  0.19934930655E+04  0.46999998093E+01 0. -1.
</event>
<event>
 5   0  0.2063087E-06  0.2697869E+04  0.7818609E-02  0.8335697E-01
        2   -1    0    0  501    0  0.00000000000E+00  0.00000000000E+00  0.19188902315E+04  0.19188902315E+04  0.25500000920E-02 0.  1.
       -2   -1    0    0    0  501  0.00000000000E+00  0.00000000000E+00 -0.94826915141E+03  0.94826915141E+03  0.25500000920E-02 0. -1.
    10030    2    1    2    0    0  0.00000000000E+00  0.00000000000E+00  0.97062108011E+03  0.28671593829E+04  0.26978690936E+04 0.  0.
        3    1    3    3  502    0  0.80163162477E+02  0.74027600735E+03 -0.71007717097E+03  0.10289044166E+04  0.10100000352E+00 0. -1.
       -3    1    3    3    0  502 -0.80163162477E+02 -0.74027600735E+03  0.16806982511E+04  0.18382549663E+04  0.10100000352E+00 0.  1.
</event>
<event>
 5   0  0.2030645E-06  0.2700689E+04  0.7818609E-02  0.8334781E-01
        2   -1    0    0  501    0  0.00000000000E+00  0.00000000000E+00  0.15437291754E+04  0.15437291754E+04  0.25500000920E-02 0.  1.
       -2   -1    0    0    0  501  0.00000000000E+00  0.00000000000E+00 -0.11811856539E+04  0.11811856539E+04  0.25500000920E-02 0. -1.
    10030    2    1    2    0    0  0.00000000000E+00  0.00000000000E+00  0.36254352148E+03  0.27249148293E+04  0.27006893605E+04 0.  0.
        1    1    3    3  502    0 -0.35726193468E+03  0.10215438872E+04 -0.63358810828E+03  0.12540422219E+04  0.50400001928E-02 0. -1.
       -1    1    3    3    0  502  0.35726193468E+03 -0.10215438872E+04  0.99613162975E+03  0.14708726074E+04  0.50400001928E-02 0.  1.
</event>
<event>
 5   0  0.1999104E-06  0.2701867E+04  0.7818609E-02  0.8334399E-01
        2   -1    0    0  501    0  0.00000000000E+00  0.00000000000E+00  0.29646992514E+04  0.29646992514E+04  0.25500000920E-02 0. -1.
       -2   -1    0    0    0  501  0.00000000000E+00  0.00000000000E+00 -0.61558397579E+03  0.61558397580E+03  0.25500000920E-02 0.  1.
    10030    2    1    2    0    0  0.00000000000E+00  0.00000000000E+00  0.23491152756E+04  0.35802832272E+04  0.27018670228E+04 0.  0.
        4    1    3    3  502    0 -0.43930963527E+03  0.42155061081E+03 -0.42346777066E+03  0.74163632516E+03  0.12699999809E+01 0.  1.
       -4    1    3    3    0  502  0.43930963527E+03 -0.42155061081E+03  0.27725830463E+04  0.28386469021E+04  0.12699999809E+01 0. -1.
</event>
<event>
 5   0  0.7436613E-07  0.2669584E+04  0.7818609E-02  0.8344942E-01
       -1   -1    0    0    0  501  0.00000000000E+00  0.00000000000E+00  0.91558221458E+03  0.91558221459E+03  0.50400001928E-02 0. -1.
        1   -1    0    0  501    0  0.00000000000E+00  0.00000000000E+00 -0.19459419326E+04  0.19459419326E+04  0.50400001928E-02 0.  1.
    10030    2    1    2    0    0  0.00000000000E+00  0.00000000000E+00 -0.10303597180E+04  0.28615241472E+04  0.26695841055E+04 0.  0.
        2    1    3    3  502    0 -0.10929322610E+04  0.69628764496E+03 -0.17225193594E+03  0.13072827319E+04  0.25500000920E-02 0. -1.
       -2    1    3    3    0  502  0.10929322610E+04 -0.69628764496E+03 -0.85810778211E+03  0.15542414154E+04  0.25500000920E-02 0.  1.
</event>
<event>
 5   0  0.6561875E-07  0.2700172E+04  0.7818609E-02  0.8334949E-01
       -4   -1    0    0    0  501  0.00000000000E+00  0.00000000000E+00  0.14022065752E+04  0.14022071503E+04  0.12699999809E+01 0. -1.
        4   -1    0    0  501    0  0.00000000000E+00  0.00000000000E+00 -0.12999018127E+04  0.12999024331E+04  0.12699999809E+01 0.  1.
    10030    2    1    2    0    0  0.00000000000E+00  0.00000000000E+00  0.10230476247E+03  0.27021095834E+04  0.27001722050E+04 0.  0.
        3    1    3    3  502    0 -0.10304853344E+04  0.29069689010E+03 -0.77182917910E+03  0.13198958285E+04  0.10100000352E+00 0.  1.
       -3    1    3    3    0  502  0.10304853344E+04 -0.29069689010E+03  0.87413394157E+03  0.13822137549E+04  0.10100000352E+00 0. -1.
</event>
<event>
 5   0  0.7768032E-07  0.2701704E+04  0.7818609E-02  0.8334452E-01
       -1   -1    0    0    0  501  0.00000000000E+00  0.00000000000E+00  0.51876643234E+03  0.51876643236E+03  0.50400001928E-02 0.  1.
        1   -1    0    0  501    0  0.00000000000E+00  0.00000000000E+00 -0.35175763992E+04  0.35175763992E+04  0.50400001928E-02 0. -1.
    10030    2    1    2    0    0  0.00000000000E+00  0.00000000000E+00 -0.29988099668E+04  0.40363428315E+04  0.27017035804E+04 0.  0.
        4    1    3    3  502    0 -0.44200613810E+03  0.14201486499E+03 -0.33946424424E+04  0.34262423401E+04  0.12699999809E+01 0. -1.
       -4    1    3    3    0  502  0.44200613810E+03 -0.14201486499E+03  0.39583247563E+03  0.61010049144E+03  0.12699999809E+01 0.  1.
</event>
<event>
 5   0  0.2030645E-06  0.2693391E+04  0.7818609E-02  0.8337153E-01
        2   -1    0    0  501    0  0.00000000000E+00  0.00000000000E+00  0.17457510004E+04  0.17457510004E+04  0.25500000920E-02 0. -1.
       -2   -1    0    0    0  501  0.00000000000E+00  0.00000000000E+00 -0.10388588332E+04  0.10388588332E+04  0.25500000920E-02 0.  1.
    10030    2    1    2    0    0  0.00000000000E+00  0.00000000000E+00  0.70689216714E+03  0.27846098336E+04  0.26933910576E+04 0.  0.
        1    1    3    3  502    0 -0.25735608090E+03  0.13148792517E+04  0.21301790023E+03  0.13566562662E+04  0.50400001928E-02 0. -1.
       -1    1    3    3    0  502  0.25735608090E+03 -0.13148792517E+04  0.49387426692E+03  0.14279535673E+04  0.50400001928E-02 0.  1.
</event>
<event>
 5   0  0.7436613E-07  0.2700597E+04  0.7818609E-02  0.8334811E-01
       -1   -1    0    0    0  501  0.00000000000E+00  0.00000000000E+00  0.21015235533E+04  0.21015235533E+04  0.50400001928E-02 0. -1.
        1   -1    0    0  501    0  0.00000000000E+00  0.00000000000E+00 -0.86761181917E+03  0.86761181919E+03  0.50400001928E-02 0.  1.
    10030    2    1    2    0    0  0.00000000000E+00  0.00000000000E+00  0.12339117341E+04  0.29691353725E+04  0.27005974696E+04 0.  0.
        2    1    3    3  502    0 -0.11269972710E+04 -0.66761762861E+03  0.25653093080E+03  0.13347824787E+04  0.25500000920E-02 0.  1.
       -2    1    3    3    0  502  0.11269972710E+04  0.66761762861E+03  0.97738080332E+03  0.16343528938E+04  0.25500000920E-02 0. -1.
</event>
<event>
 5   0  0.1932012E-06  0.2696598E+04  0.7818609E-02  0.8336110E-01
       -2   -1    0    0    0  501  0.00000000000E+00  0.00000000000E+00  0.12015217523E+04  0.12015217523E+04  0.25500000920E-02 0. -1.
        2   -1    0    0  501    0  0.00000000000E+00  0.00000000000E+00 -0.15130066637E+04  0.15130066637E+04  0.25500000920E-02 0.  1.
    10030    2    1    2    0    0  0.00000000000E+00  0.00000000000E+00 -0.31148491143E+03  0.27145284160E+04  0.26965981664E+04 0.  0.
        2    1    3    3  502    0  0.12832254388E+04  0.33965626364E+03  0.82211433728E+02  0.13299596325E+04  0.25500000920E-02 0. -1.
       -2    1    3    3    0  502 -0.12832254388E+04 -0.33965626364E+03 -0.39369634515E+03  0.13845687835E+04  0.25500000920E-02 0.  1.
</event>
<event>
 5   0  0.7566905E-07  0.2744338E+04  0.7818609E-02  0.8320760E-01
        1   -1    0    0  501    0  0.00000000000E+00  0.00000000000E+00  0.17574139831E+04  0.17574139831E+04  0.50400001928E-02 0.  1.
       -1   -1    0    0    0  501  0.00000000000E+00  0.00000000000E+00 -0.10713744372E+04  0.10713744372E+04  0.50400001928E-02 0. -1.
    10030    2    1    2    0    0  0.00000000000E+00  0.00000000000E+00  0.68603954594E+03  0.28287884203E+04  0.27443384755E+04 0.  0.
        1    1    3    3  502    0  0.13579900903E+04 -0.33633152944E+02  0.14319837059E+03  0.13659333980E+04  0.50400001928E-02 0. -1.
       -1    1    3    3    0  502 -0.13579900903E+04  0.33633152944E+02  0.54284117535E+03  0.14628550223E+04  0.50400001928E-02 0.  1.
</event>
<event>
 5   0  0.7768032E-07  0.2700075E+04  0.7818609E-02  0.8334981E-01
        1   -1    0    0  501    0  0.00000000000E+00  0.00000000000E+00  0.14859522286E+04  0.14859522286E+04  0.50400001928E-02 0. -1.
       -1   -1    0    0    0  501  0.00000000000E+00  0.00000000000E+00 -0.12265541902E+04  0.12265541902E+04  0.50400001928E-02 0.  1.
    10030    2    1    2    0    0  0.00000000000E+00  0.00000000000E+00  0.25939803841E+03  0.27125064187E+04  0.27000747637E+04 0.  0.
        4    1    3    3  502    0  0.68859923400E+03  0.13985920870E+03  0.12877727312E+04  0.14670002465E+04  0.12699999809E+01 0. -1.
       -4    1    3    3    0  502 -0.68859923400E+03 -0.13985920870E+03 -0.10283746928E+04  0.12455061722E+04  0.12699999809E+01 0.  1.
</event>
<event>
 5   0  0.1932012E-06  0.2698534E+04  0.7818609E-02  0.8335481E-01
        2   -1    0    0  501    0  0.00000000000E+00  0.00000000000E+00  0.16796118983E+04  0.16796118983E+04  0.25500000920E-02 0.  1.
       -2   -1    0    0    0  501  0.00000000000E+00  0.00000000000E+00 -0.10838944989E+04  0.10838944989E+04  0.25500000920E-02 0. -1.
    10030    2    1    2    0    0  0.00000000000E+00  0.00000000000E+00  0.59571739946E+03  0.27635063972E+04  0.26985344888E+04 0.  0.
        2    1    3    3  502    0  0.75910266321E+03  0.20882492296E+03 -0.82427774719E+03  0.11398589853E+04  0.25500000920E-02 0. -1.
       -2    1    3    3    0  502 -0.75910266321E+03 -0.20882492296E+03  0.14199951466E+04  0.16236474119E+04  0.25500000920E-02 0.  1.
</event>
<event>
 5   0  0.1991277E-06  0.2700259E+04  0.7818609E-02  0.8334921E-01
        2   -1    0    0  501    0  0.00000000000E+00  0.00000000000E+00  0.19829165193E+04  0.19829165193E+04  0.25500000920E-02 0. -1.
       -2   -1    0    0    0  501  0.00000000000E+00  0.00000000000E+00 -0.91927706259E+03  0.91927706260E+03  0.25500000920E-02 0.  1.
    10030    2    1    2    0    0  0.00000000000E+00  0.00000000000E+00  0.10636394567E+04  0.29021935819E+04  0.27002590048E+04 0.  0.
        5    1    3    3  502    0  0.37514649288E+03 -0.93499686484E+03 -0.43421480209E+03  0.10970499591E+04  0.46999998093E+01 0.  1.
       -5    1    3    3    0  502 -0.37514649288E+03  0.93499686484E+03  0.14978542588E+04  0.18051436228E+04  0.46999998093E+01 0. -1.
</event>
<event>
 5   0  0.7566905E-07  0.2704019E+04  0.7818609E-02  0.8333702E-01
       -1   -1    0    0    0  501  0.00000000000E+00  0.00000000000E+00  0.14277673246E+04  0.14277673246E+04  0.50400001928E-02 0. -1.
        1   -1    0    0  501    0  0.00000000000E+00  0.00000000000E+00 -0.12802718531E+04  0.12802718531E+04  0.50400001928E-02 0.  1.
    10030    2    1    2    0    0  0.00000000000E+00  0.00000000000E+00  0.14749547151E+03  0.27080391777E+04  0.27040194662E+04 0.  0.
        1    1    3    3  502    0  0.80556529162E+03 -0.48725910999E+03  0.10455372951E+04  0.14069488671E+04  0.50400001928E-02 0. -1.
       -1    1    3    3    0  502 -0.80556529162E+03  0.48725910999E+03 -0.89804182356E+03  0.13010903106E+04  0.50400001928E-02 0.  1.
</event>
<event>
 5   0  0.7436613E-07  0.2691845E+04  0.7818609E-02  0.8337656E-01
       -1   -1    0    0    0  501  0.00000000000E+00  0.00000000000E+00  0.18311985156E+04  0.18311985156E+04  0.50400001928E-02 0.  1.
        1   -1    0    0  501    0  0.00000000000E+00  0.00000000000E+00 -0.98924721610E+03  0.98924721611E+03  0.50400001928E-02 0. -1.
    10030    2    1    2    0    0  0.00000000000E+00  0.00000000000E+00  0.84195129949E+03  0.28204457317E+04  0.26918454887E+04 0.  0.
        2    1    3    3  502    0  0.10404524671E+04  0.37629109518E+03 -0.38204022777E+03  0.11705088894E+04  0.25500000920E-02 0.  1.
       -2    1    3    3    0  502 -0.10404524671E+04 -0.37629109518E+03  0.12239915273E+04  0.16499368423E+04  0.25500000920E-02 0. -1.
</event>
<event>
 5   0  0.1999104E-06  0.2702714E+04  0.7818609E-02  0.8334125E-01
        2   -1    0    0  501    0  0.00000000000E+00  0.00000000000E+00  0.26442503453E+04  0.26442503453E+04  0.25500000920E-02 0. -1.
       -2   -1    0    0    0  501  0.00000000000E+00  0.00000000000E+00 -0.69061732371E+03  0.69061732371E+03  0.25500000920E-02 0.  1.
    10030    2    1    2    0    0  0.00000000000E+00  0.00000000000E+00  0.19536330216E+04  0.33348676690E+04  0.27027135229E+04 0.  0.
        4    1    3    3  502    0  0.23801397423E+02  0.96675150445E+03  0.21415180288E+04  0.23497395724E+04  0.12699999809E+01 0. -1.
       -4    1    3    3    0  502 -0.23801397423E+02 -0.96675150445E+03 -0.18788500715E+03  0.98512809659E+03  0.12699999809E+01 0.  1.
</event>
<event>
 5   0  0.6561875E-07  0.2699371E+04  0.7818609E-02  0.8335209E-01
        3   -1    0    0  501    0  0.00000000000E+00  0.00000000000E+00  0.13201564826E+04  0.13201564865E+04  0.10100000352E+00 0. -1.
       -3   -1    0    0    0  501  0.00000000000E+00  0.00000000000E+00 -0.13798755067E+04  0.13798755104E+04  0.10100000352E+00 0.  1.
    10030    2    1    2    0    0  0.00000000000E+00  0.00000000000E+00 -0.59719024099E+02  0.27000319969E+04  0.26993714866E+04 0.  0.
        4    1    3    3  502    0  0.57616910422E+02  0.99890531478E+03 -0.93590589696E+03  0.13700558372E+04  0.12699999809E+01 0.  1.
       -4    1    3    3    0  502 -0.57616910422E+02 -0.99890531478E+03  0.87618687286E+03  0.13299761597E+04  0.12699999809E+01 0. -1.
</event>
<event>
 5   0  0.1999104E-06  0.2707403E+04  0.7818609E-02  0.8332607E-01
       -2   -1    0    0    0  501  0.00000000000E+00  0.00000000000E+00  0.88883777232E+03  0.88883777233E+03  0.25500000920E-02 0. -1.
        2   -1    0    0  501    0  0.00000000000E+00  0.00000000000E+00 -0.20616894261E+04  0.20616894261E+04  0.25500000920E-02 0.  1.
    10030    2    1    2    0    0  0.00000000000E+00  0.00000000000E+00 -0.11728516538E+04  0.29505271985E+04  0.27074027678E+04 0.  0.
        4    1    3    3  502    0 -0.11259600610E+04 -0.65831909564E+03 -0.98137226866E+03  0.16322570978E+04  0.12699999809E+01 0.  1.
       -4    1    3    3    0  502  0.11259600610E+04  0.65831909564E+03 -0.19147938516E+03  0.13182701007E+04  0.12699999809E+01 0. -1.
</event>
<event>
 5   0  0.1999104E-06  0.2694346E+04  0.7818609E-02  0.8336842E-01
        2   -1    0    0  501    0  0.00000000000E+00  0.00000000000E+00  0.23984809198E+04  0.23984809198E+04  0.25500000920E-02 0. -1.
       -2   -1    0    0    0  501  0.00000000000E+00  0.00000000000E+00 -0.75667674205E+03  0.75667674206E+03  0.25500000920E-02 0.  1.
    10030    2    1    2    0    0  0.00000000000E+00  0.00000000000E+00  0.16418041778E+04  0.31551576619E+04  0.26943457301E+04 0.  0.
        4    1    3    3  502    0 -0.13345317788E+04 -0.20892366773E+02  0.10351126155E+04  0.16890444930E+04  0.12699999809E+01 0. -1.
       -4    1    3    3    0  502  0.13345317788E+04  0.20892366773E+02  0.60669156226E+03  0.14661131689E+04  0.12699999809E+01 0.  1.
</event>
<event>
 5   0  0.1991277E-06  0.2706824E+04  0.7818609E-02  0.8332794E-01
        2   -1    0    0  501    0  0.00000000000E+00  0.00000000000E+00  0.27243404392E+04  0.27243404392E+04  0.25500000920E-02 0.  1.
       -2   -1    0    0    0  501  0.00000000000E+00  0.00000000000E+00 -0.67235502633E+03  0.67235502633E+03  0.25500000920E-02 0. -1.
    10030    2    1    2    0    0  0.00000000000E+00  0.00000000000E+00  0.20519854129E+04  0.33966954655E+04  0.27068239601E+04 0.  0.
        5    1    3    3  502    0 -0.37048004471E+03 -0.40248218384E+03  0.25794180901E+04  0.26367910697E+04  0.46999998093E+01 0.  1.
       -5    1    3    3    0  502  0.37048004471E+03  0.40248218384E+03 -0.52743267719E+03  0.75990439584E+03  0.46999998093E+01 0. -1.
</event>
<event>
 5   0  0.7436613E-07  0.2750112E+04  0.7818609E-02  0.8318926E-01
        1   -1    0    0  501    0  0.00000000000E+00  0.00000000000E+00  0.20426582837E+04  0.20426582837E+04  0.50400001928E-02 0.  1.
       -1   -1    0    0    0  501  0.00000000000E+00  0.00000000000E+00 -0.92564640622E+03  0.92564640623E+03  0.50400001928E-02 0. -1.
    10030    2    1    2    0    0  0.00000000000E+00  0.00000000000E+00  0.11170118775E+04  0.29683046899E+04  0.27501122155E+04 0.  0.
        2    1    3    3  502    0  0.12408567549E+04 -0.36310513647E+03  0.10638494942E+04  0.16743197343E+04  0.25500000920E-02 0. -1.
       -2    1    3    3    0  502 -0.12408567549E+04  0.36310513647E+03  0.53162383253E+02  0.12939849556E+04  0.25500000920E-02 0.  1.
</event>
<event>
 5   0  0.7566905E-07  0.2701478E+04  0.7818609E-02  0.8334526E-01
       -1   -1    0    0    0  501  0.00000000000E+00  0.00000000000E+00  0.92112195762E+03  0.92112195763E+03  0.50400001928E-02 0.  1.
        1   -1    0    0  501    0  0.00000000000E+00  0.00000000000E+00 -0.19807323760E+04  0.19807323760E+04  0.50400001928E-02 0. -1.
    10030    2    1    2    0    0  0.00000000000E+00  0.00000000000E+00 -0.10596104184E+04  0.29018543337E+04  0.27014781759E+04 0.  0.
        1    1    3    3  502    0 -0.38393189541E+03 -0.46952352590E+03  0.76662835664E+03  0.97753520598E+03  0.50400001928E-02 0.  1.
       -1    1    3    3    0  502  0.38393189541E+03  0.46952352590E+03 -0.18262387751E+04  0.19243191277E+04  0.50400001928E-02 0. -1.
</event>
<event>
 5   0  0.7806808E-07  0.2701824E+04  0.7818609E-02  0.8334413E-01
        1   -1    0    0  501    0  0.00000000000E+00  0.00000000000E+00  0.23384280450E+04  0.23384280450E+04  0.50400001928E-02 0. -1.
       -1   -1    0    0    0  501  0.00000000000E+00  0.00000000000E+00 -0.78042293700E+03  0.78042293701E+03  0.50400001928E-02 0.  1.
    10030    2    1    2    0    0  0.00000000000E+00  0.00000000000E+00  0.15580051080E+04  0.31188509821E+04  0.27018237418E+04 0.  0.
        5    1    3    3  502    0  0.46065542480E+03 -0.60267997010E+03  0.20693545967E+04  0.22040138619E+04  0.46999998093E+01 0. -1.
       -5    1    3    3    0  502 -0.46065542480E+03  0.60267997010E+03 -0.51134948867E+03  0.91483712010E+03  0.46999998093E+01 0.  1.
</event>
<event>
 5   0  0.2030645E-06  0.2678793E+04  0.7818609E-02  0.8341919E-01
       -2   -1    0    0    0  501  0.00000000000E+00  0.00000000000E+00  0.17796723528E+04  0.17796723528E+04  0.25500000920E-02 0.  1.
        2   -1    0    0  501    0  0.00000000000E+00  0.00000000000E+00 -0.10080412704E+04  0.10080412704E+04  0.25500000920E-02 0. -1.
    10030    2    1    2    0    0  0.00000000000E+00  0.00000000000E+00  0.77163108240E+03  0.27877136232E+04  0.26787931457E+04 0.  0.
        1    1    3    3  502    0  0.11868552951E+04  0.11374706059E+03  0.10208906111E+04  0.15696437574E+04  0.50400001928E-02 0.  1.
       -1    1    3    3    0  502 -0.11868552951E+04 -0.11374706059E+03 -0.24925952866E+03  0.12180698658E+04  0.50400001928E-02 0. -1.
</event>
<event>
 5   0  0.6561875E-07  0.2696945E+04  0.7818609E-02  0.8335997E-01
        4   -1    0    0  501    0  0.00000000000E+00  0.00000000000E+00  0.14698346277E+04  0.14698351763E+04  0.12699999809E+01 0. -1.
       -4   -1    0    0    0  501  0.00000000000E+00  0.00000000000E+00 -0.12371300804E+04  0.12371307323E+04  0.12699999809E+01 0.  1.
    10030    2    1    2    0    0  0.00000000000E+00  0.00000000000E+00  0.23270454727E+03  0.27069659086E+04  0.26969451281E+04 0.  0.
        5    1    3    3  502    0 -0.35292322202E+03 -0.10940816755E+04  0.82380208544E+03  0.14142989356E+04  0.46999998093E+01 0. -1.
       -5    1    3    3    0  502  0.35292322202E+03  0.10940816755E+04 -0.59109753818E+03  0.12926669730E+04  0.46999998093E+01 0.  1.
</event>
<event>
 5   0  0.1999104E-06  0.2699032E+04  0.7818609E-02  0.8335319E-01
       -2   -1    0    0    0  501  0.00000000000E+00  0.00000000000E+00  0.16006811536E+04  0.16006811536E+04  0.25500000920E-02 0. -1.
        2   -1    0    0  501    0  0.00000000000E+00  0.00000000000E+00 -0.11377618022E+04  0.11377618022E+04  0.25500000920E-02 0.  1.
    10030    2    1    2    0    0  0.00000000000E+00  0.00000000000E+00  0.46291935139E+03  0.27384429558E+04  0.26990323259E+04 0.  0.
        4    1    3    3  502    0  0.11761665631E+04  0.63069062089E+03  0.28402859795E+02  0.13348957932E+04  0.12699999809E+01 0. -1.
       -4    1    3    3    0  502 -0.11761665631E+04 -0.63069062089E+03  0.43451649159E+03  0.14035471626E+04  0.12699999809E+01 0.  1.
</event>
<event>
 5   0  0.7806808E-07  0.2695228E+04  0.7818609E-02  0.8336555E-01
       -1   -1    0    0    0  501  0.00000000000E+00  0.00000000000E+00  0.11745643012E+04  0.11745643012E+04  0.50400001928E-02 0.  1.
        1   -1    0    0  501    0  0.00000000000E+00  0.00000000000E+00 -0.15461594535E+04  0.15461594535E+04  0.50400001928E-02 0. -1.
    10030    2    1    2    0    0  0.00000000000E+00  0.00000000000E+00 -0.37159515226E+03  0.27207237547E+04  0.26952281522E+04 0.  0.
        5    1    3    3  502    0 -0.61661533497E+03  0.45336118436E+03 -0.13054746805E+04  0.15132868421E+04  0.46999998093E+01 0. -1.
       -5    1    3    3    0  502  0.61661533497E+03 -0.45336118436E+03  0.93387952828E+03  0.12074369127E+04  0.46999998093E+01 0.  1.
</event>
<event>
 5   0  0.7335091E-07  0.2699613E+04  0.7818609E-02  0.8335130E-01
       -1   -1    0    0    0  501  0.00000000000E+00  0.00000000000E+00  0.10890888170E+04  0.10890888170E+04  0.50400001928E-02 0. -1.
        1   -1    0    0  501    0  0.00000000000E+00  0.00000000000E+00 -0.16729377599E+04  0.16729377599E+04  0.50400001928E-02 0.  1.
    10030    2    1    2    0    0  0.00000000000E+00  0.00000000000E+00 -0.58384894287E+03  0.27620265769E+04  0.26996131618E+04 0.  0.
        3    1    3    3  502    0  0.21676608112E+03  0.73038805098E+03 -0.14319217077E+04  0.16219907601E+04  0.10100000352E+00 0.  1.
       -3    1    3    3    0  502 -0.21676608112E+03 -0.73038805098E+03  0.84807276479E+03  0.11400358168E+04  0.10100000352E+00 0. -1.
</event>
<event>
 5   0  0.7436613E-07  0.2701804E+04  0.7818609E-02  0.8334420E-01
        1   -1    0    0  501    0  0.00000000000E+00  0.00000000000E+00  0.10266756267E+04  0.10266756267E+04  0.50400001928E-02 0.  1.
       -1   -1    0    0    0  501  0.00000000000E+00  0.00000000000E+00 -0.17775196046E+04  0.17775196046E+04  0.50400001928E-02 0. -1.
    10030    2    1    2    0    0  0.00000000000E+00  0.00000000000E+00 -0.75084397784E+03  0.28041952313E+04  0.27018038819E+04 0.  0.
        2    1    3    3  502    0  0.27473356205E+03  0.89537910272E+03  0.63499860487E+03  0.11315500413E+04  0.25500000920E-02 0.  1.
       -2    1    3    3    0  502 -0.27473356205E+03 -0.89537910272E+03 -0.13858425827E+04  0.16726451900E+04  0.25500000920E-02 0. -1.
</event>
<event>
 5   0  0.7436613E-07  0.2701706E+04  0.7818609E-02  0.8334452E-01
        1   -1    0    0  501    0  0.00000000000E+00  0.00000000000E+00  0.11030980412E+04  0.11030980412E+04  0.50400001928E-02 0. -1.
       -1   -1    0    0    0  501  0.00000000000E+00  0.00000000000E+00 -0.16542538402E+04  0.16542538402E+04  0.50400001928E-02 0.  1.
    10030    2    1    2    0    0  0.00000000000E+00  0.00000000000E+00 -0.55115579906E+03  0.27573518814E+04  0.27017062540E+04 0.  0.
        2    1    3    3  502    0 -0.23733128018E+03  0.90593787598E+03  0.71800021006E+03  0.11800736728E+04  0.25500000920E-02 0. -1.
       -2    1    3    3    0  502  0.23733128018E+03 -0.90593787598E+03 -0.12691560091E+04  0.15772782086E+04  0.25500000920E-02 0.  1.
</event>
<event>
 5   0  0.7806808E-07  0.2695785E+04  0.7818609E-02  0.8336374E-01
        1   -1    0    0  501    0  0.00000000000E+00  0.00000000000E+00  0.21610717252E+04  0.21610717252E+04  0.50400001928E-02 0. -1.
       -1   -1    0    0    0  501  0.00000000000E+00  0.00000000000E+00 -0.84070078087E+03  0.84070078088E+03  0.50400001928E-02 0.  1.
    10030    2    1    2    0    0  0.00000000000E+00  0.00000000000E+00  0.13203709444E+04  0.30017725061E+04  0.26957853675E+04 0.  0.
        5    1    3    3  502    0  0.44598244903E+03 -0.11052712838E+04  0.13611350343E+04  0.18092085638E+04  0.46999998093E+01 0. -1.
       -5    1    3    3    0  502 -0.44598244903E+03  0.11052712838E+04 -0.40764089910E+02  0.11925639424E+04  0.46999998093E+01 0.  1.
</event>
<event>
 5   0  0.2030645E-06  0.2699151E+04  0.7818609E-02  0.8335281E-01
        2   -1    0    0  501    0  0.00000000000E+00  0.00000000000E+00  0.16777099251E+04  0.16777099251E+04  0.25500000920E-02 0.  1.
       -2   -1    0    0    0  501  0.00000000000E+00  0.00000000000E+00 -0.10856188160E+04  0.10856188160E+04  0.25500000920E-02 0. -1.
    10030    2    1    2    0    0  0.00000000000E+00  0.00000000000E+00  0.59209110914E+03  0.27633287411E+04  0.26991505794E+04 0.  0.
        1    1    3    3  502    0 -0.13058697311E+03  0.90090306358E+03  0.13160658250E+04  0.16002214044E+04  0.50400001928E-02 0.  1.
       -1    1    3    3    0  502  0.13058697311E+03 -0.90090306358E+03 -0.72397471583E+03  0.11631073367E+04  0.50400001928E-02 0. -1.
</event>
<event>
 5   0  0.7768032E-07  0.2701678E+04  0.7818609E-02  0.8334461E-01
        1   -1    0    0  501    0  0.00000000000E+00  0.00000000000E+00  0.14482118968E+04  0.14482118968E+04  0.50400001928E-02 0.  1.
       -1   -1    0    0    0  501  0.00000000000E+00  0.00000000000E+00 -0.12600131623E+04  0.12600131624E+04  0.50400001928E-02 0. -1.
    10030    2    1    2    0    0  0.00000000000E+00  0.00000000000E+00  0.18819873443E+03  0.27082250591E+04  0.27016780355E+04 0.  0.
        4    1    3    3  502    0  0.10658110842E+04 -0.80491542082E+03 -0.10868355368E+03  0.13400208318E+04  0.12699999809E+01 0.  1.
       -4    1    3    3    0  502 -0.10658110842E+04  0.80491542082E+03  0.29688228811E+03  0.13682042274E+04  0.12699999809E+01 0. -1.
</event>
<event>
 5   0  0.7566905E-07  0.2699656E+04  0.7818609E-02  0.8335116E-01
        1   -1    0    0  501    0  0.00000000000E+00  0.00000000000E+00  0.20290226506E+04  0.20290226506E+04  0.50400001928E-02 0. -1.
       -1   -1    0    0    0  501  0.00000000000E+00  0.00000000000E+00 -0.89798707940E+03  0.89798707942E+03  0.50400001928E-02 0.  1.
    10030    2    1    2    0    0  0.00000000000E+00  0.00000000000E+00  0.11310355712E+04  0.29270097301E+04  0.26996563664E+04 0.  0.
        1    1    3    3  502    0  0.52614690911E+03 -0.71474896905E+03  0.16681920198E+04  0.18895928857E+04  0.50400001928E-02 0. -1.
       -1    1    3    3    0  502 -0.52614690911E+03  0.71474896905E+03 -0.53715644856E+03  0.10374168444E+04  0.50400001928E-02 0.  1.
</event>
<event>
 5   0  0.1999104E-06  0.2699718E+04  0.7818609E-02  0.8335097E-01
       -2   -1    0    0    0  501  0.00000000000E+00  0.00000000000E+00  0.10869138026E+04  0.10869138026E+04  0.25500000920E-02 0. -1.
        2   -1    0    0  501    0  0.00000000000E+00  0.00000000000E+00 -0.16764154587E+04  0.16764154587E+04  0.25500000920E-02 0.  1.
    10030    2    1    2    0    0  0.00000000000E+00  0.00000000000E+00 -0.58950165612E+03  0.27633292613E+04  0.26997178378E+04 0.  0.
        4    1    3    3  502    0  0.52208515086E+03  0.12235712484E+04 -0.52909513848E+03  0.14316573554E+04  0.12699999809E+01 0. -1.
       -4    1    3    3    0  502 -0.52208515086E+03 -0.12235712484E+04 -0.60406517636E+02  0.13316719059E+04  0.12699999809E+01 0.  1.
</event>
<event>
 5   0  0.7806808E-07  0.2704079E+04  0.7818609E-02  0.8333683E-01
       -1   -1    0    0    0  501  0.00000000000E+00  0.00000000000E+00  0.13235846266E+04  0.13235846266E+04  0.50400001928E-02 0. -1.
        1   -1    0    0  501    0  0.00000000000E+00  0.00000000000E+00 -0.13811060121E+04  0.13811060121E+04  0.50400001928E-02 0.  1.
    10030    2    1    2    0    0  0.00000000000E+00  0.00000000000E+00 -0.57521385493E+02  0.27046906387E+04  0.27040789081E+04 0.  0.
        5    1    3    3  502    0 -0.28103571138E+03  0.66739261792E+03  0.11132482810E+04  0.13280579064E+04  0.46999998093E+01 0. -1.
       -5    1    3    3    0  502  0.28103571138E+03 -0.66739261792E+03 -0.11707696665E+04  0.13766327323E+04  0.46999998093E+01 0.  1.
</event>
<event>
 5   0  0.7806808E-07  0.2694068E+04  0.7818609E-02  0.8336932E-01
       -1   -1    0    0    0  501  0.00000000000E+00  0.00000000000E+00  0.64386665055E+03  0.64386665057E+03  0.50400001928E-02 0.  1.
        1   -1    0    0  501    0  0.00000000000E+00  0.00000000000E+00 -0.28181301043E+04  0.28181301043E+04  0.50400001928E-02 0. -1.
    10030    2    1    2    0    0  0.00000000000E+00  0.00000000000E+00 -0.21742634537E+04  0.34619967549E+04  0.26940675501E+04 0.  0.
        5    1    3    3  502    0 -0.56483445882E+03  0.10658912302E+04 -0.31683802796E+03  0.12472251226E+04  0.46999998093E+01 0.  1.
       -5    1    3    3    0  502  0.56483445882E+03 -0.10658912302E+04 -0.18574254258E+04  0.22147716322E+04  0.46999998093E+01 0. -1.
</event>
<event>
 5   0  0.7768032E-07  0.2701026E+04  0.7818609E-02  0.8334672E-01
       -1   -1    0    0    0  501  0.00000000000E+00  0.00000000000E+00  0.80652962587E+03  0.80652962589E+03  0.50400001928E-02 0.  1.
        1   -1    0    0  501    0  0.00000000000E+00  0.00000000000E+00 -0.22613984815E+04  0.22613984815E+04  0.50400001928E-02 0. -1.
    10030    2    1    2    0    0  0.00000000000E+00  0.00000000000E+00 -0.14548688557E+04  0.30679281074E+04  0.27010256358E+04 0.  0.
        4    1    3    3  502    0  0.14105887389E+03 -0.10338509864E+04 -0.17013041112E+04  0.19957912616E+04  0.12699999809E+01 0. -1.
       -4    1    3    3    0  502 -0.14105887389E+03  0.10338509864E+04  0.24643525559E+03  0.10721368458E+04  0.12699999809E+01 0.  1.
</event>
<event>
 5   0  0.2030645E-06  0.2700558E+04  0.7818609E-02  0.8334824E-01
        2   -1    0    0  501    0  0.00000000000E+00  0.00000000000E+00  0.20854825697E+04  0.20854825697E+04  0.25500000920E-02 0. -1.
       -2   -1    0    0    0  501  0.00000000000E+00  0.00000000000E+00 -0.87425995354E+03  0.87425995354E+03  0.25500000920E-02 0.  1.
    10030    2    1    2    0    0  0.00000000000E+00  0.00000000000E+00  0.12112226162E+04  0.29597425233E+04  0.27005583827E+04 0.  0.
        1    1    3    3  502    0  0.11586177063E+04 -0.24727175007E+03 -0.10442067268E+03  0.11893031509E+04  0.50400001928E-02 0.  1.
       -1    1    3    3    0  502 -0.11586177063E+04  0.24727175007E+03  0.13156432889E+04  0.17704393724E+04  0.50400001928E-02 0. -1.
</event>
<event>
 5   0  0.7768032E-07  0.2697683E+04  0.7818609E-02  0.8335757E-01
        1   -1    0    0  501    0  0.00000000000E+00  0.00000000000E+00  0.13351857316E+04  0.13351857316E+04  0.50400001928E-02 0.  1.
       -1   -1    0    0    0  501  0.00000000000E+00  0.00000000000E+00 -0.13626367145E+04  0.13626367146E+04  0.50400001928E-02 0. -1.
    10030    2    1    2    0    0  0.00000000000E+00  0.00000000000E+00 -0.27450982935E+02  0.26978224462E+04  0.26976827824E+04 0.  0.
        4    1    3    3  502    0  0.17359545550E+03 -0.10112310762E+04  0.86190410923E+03  0.13400014843E+04  0.12699999809E+01 0.  1.
       -4    1    3    3    0  502 -0.17359545550E+03  0.10112310762E+04 -0.88935509216E+03  0.13578209619E+04  0.12699999809E+01 0. -1.
</event>
<event>
 5   0  0.2030645E-06  0.2702431E+04  0.7818609E-02  0.8334217E-01
       -2   -1    0    0    0  501  0.00000000000E+00  0.00000000000E+00  0.10612179021E+04  0.10612179021E+04  0.25500000920E-02 0.  1.
        2   -1    0    0  501    0  0.00000000000E+00  0.00000000000E+00 -0.17204601553E+04  0.17204601553E+04  0.25500000920E-02 0. -1.
    10030    2    1    2    0    0  0.00000000000E+00  0.00000000000E+00 -0.65924225318E+03  0.27816780574E+04  0.27024308440E+04 0.  0.
        1    1    3    3  502    0  0.35760427718E+03  0.12344403540E+04  0.99817301380E+02  0.12890645059E+04  0.50400001928E-02 0.  1.
       -1    1    3    3    0  502 -0.35760427718E+03 -0.12344403540E+04 -0.75905955456E+03  0.14926135515E+04  0.50400001928E-02 0. -1.
</event>
<event>
 5   0  0.2063087E-06  0.2698915E+04  0.7818609E-02  0.8335357E-01
        2   -1    0    0  501    0  0.00000000000E+00  0.00000000000E+00  0.10358490923E+04  0.10358490923E+04  0.25500000920E-02 0.  1.
       -2   -1    0    0    0  501  0.00000000000E+00  0.00000000000E+00 -0.17580126246E+04  0.17580126246E+04  0.25500000920E-02 0. -1.
    10030    2    1    2    0    0  0.00000000000E+00  0.00000000000E+00 -0.72216353230E+03  0.27938617169E+04  0.26989151757E+04 0.  0.
        3    1    3    3  502    0 -0.74275534847E+03 -0.11204000067E+04 -0.23836129535E+03  0.13652098008E+04  0.10100000352E+00 0.  1.
       -3    1    3    3    0  502  0.74275534847E+03  0.11204000067E+04 -0.48380223695E+03  0.14286519161E+04  0.10100000352E+00 0. -1.
</event>
<event>
 5   0  0.2063087E-06  0.2699827E+04  0.7818609E-02  0.8335061E-01
        2   -1    0    0  501    0  0.00000000000E+00  0.00000000000E+00  0.23399301155E+04  0.23399301155E+04  0.25500000920E-02 0. -1.
       -2   -1    0    0    0  501  0.00000000000E+00  0.00000000000E+00 -0.77876978261E+03  0.77876978262E+03  0.25500000920E-02 0.  1.
    10030    2    1    2    0    0  0.00000000000E+00  0.00000000000E+00  0.15611603329E+04  0.31186998981E+04  0.26998273036E+04 0.  0.
        3    1    3    3  502    0  0.88344997135E+03 -0.32981391761E+03 -0.33520290816E+03  0.10008107074E+04  0.10100000352E+00 0.  1.
       -3    1    3    3    0  502 -0.88344997135E+03  0.32981391761E+03  0.18963632410E+04  0.21178891907E+04  0.10100000352E+00 0. -1.
</event>
<event>
 5   0  0.7566905E-07  0.2691731E+04  0.7818609E-02  0.8337693E-01
        1   -1    0    0  501    0  0.00000000000E+00  0.00000000000E+00  0.17302258425E+04  0.17302258426E+04  0.50400001928E-02 0.  1.
       -1   -1    0    0    0  501  0.00000000000E+00  0.00000000000E+00 -0.10468885017E+04  0.10468885017E+04  0.50400001928E-02 0. -1.
    10030    2    1    2    0    0  0.00000000000E+00  0.00000000000E+00  0.68333734085E+03  0.27771143443E+04  0.26917306997E+04 0.  0.
        1    1    3    3  502    0 -0.67488036845E+02  0.99924126139E+03  0.12692514760E+04  0.16167983928E+04  0.50400001928E-02 0.  1.
       -1    1    3    3    0  502  0.67488036845E+02 -0.99924126139E+03 -0.58591413510E+03  0.11603159515E+04  0.50400001928E-02 0. -1.
</event>
<event>
 5   0  0.7806808E-07  0.2680249E+04  0.7818609E-02  0.8341442E-01
        1   -1    0    0  501    0  0.00000000000E+00  0.00000000000E+00  0.22836675662E+04  0.22836675662E+04  0.50400001928E-02 0. -1.
       -1   -1    0    0    0  501  0.00000000000E+00  0.00000000000E+00 -0.78642529756E+03  0.78642529758E+03  0.50400001928E-02 0.  1.
    10030    2    1    2    0    0  0.00000000000E+00  0.00000000000E+00  0.14972422687E+04  0.30700928638E+04  0.26802492013E+04 0.  0.
        5    1    3    3  502    0  0.22924287417E+03  0.15498602735E+03  0.22505766856E+04  0.22675295967E+04  0.46999998093E+01 0. -1.
       -5    1    3    3    0  502 -0.22924287417E+03 -0.15498602735E+03 -0.75333441693E+03  0.80256326714E+03  0.46999998093E+01 0.  1.
</event>
<event>
 5   0  0.2063087E-06  0.2708258E+04  0.7818609E-02  0.8332331E-01
       -2   -1    0    0    0  501  0.00000000000E+00  0.00000000000E+00  0.10258553662E+04  0.10258553662E+04  0.25500000920E-02 0.  1.
        2   -1    0    0  501    0  0.00000000000E+00  0.00000000000E+00 -0.17874500106E+04  0.17874500106E+04  0.25500000920E-02 0. -1.
    10030    2    1    2    0    0  0.00000000000E+00  0.00000000000E+00 -0.76159464440E+03  0.28133053767E+04  0.27082578792E+04 0.  0.
        3    1    3    3  502    0  0.84505990905E+03  0.48834891983E+03  0.59425559948E+03  0.11426944671E+04  0.10100000352E+00 0.  1.
       -3    1    3    3    0  502 -0.84505990905E+03 -0.48834891983E+03 -0.13558502439E+04  0.16706109096E+04  0.10100000352E+00 0. -1.
</event>
<event>
 5   0  0.7806808E-07  0.2689688E+04  0.7818609E-02  0.8338358E-01
        1   -1    0    0  501    0  0.00000000000E+00  0.00000000000E+00  0.14603045720E+04  0.14603045720E+04  0.50400001928E-02 0. -1.
       -1   -1    0    0    0  501  0.00000000000E+00  0.00000000000E+00 -0.12385128542E+04  0.12385128542E+04  0.50400001928E-02 0.  1.
    10030    2    1    2    0    0  0.00000000000E+00  0.00000000000E+00  0.22179171781E+03  0.26988174262E+04  0.26896884455E+04 0.  0.
        5    1    3    3  502    0  0.11520584688E+04  0.62547024672E+03  0.41213499268E+03  0.13741648690E+04  0.46999998093E+01 0. -1.
       -5    1    3    3    0  502 -0.11520584688E+04 -0.62547024672E+03 -0.19034327487E+03  0.13246525572E+04  0.46999998093E+01 0.  1.
</event>
<event>
 5   0  0.1932012E-06  0.2701702E+04  0.7818609E-02  0.8334453E-01
       -2   -1    0    0    0  501  0.00000000000E+00  0.00000000000E+00  0.11620054733E+04  0.11620054733E+04  0.25500000920E-02 0. -1.
        2   -1    0    0  501    0  0.00000000000E+00  0.00000000000E+00 -0.15703868963E+04  0.15703868963E+04  0.25500000920E-02 0.  1.
    10030    2    1    2    0    0  0.00000000000E+00  0.00000000000E+00 -0.40838142293E+03  0.27323923696E+04  0.27017018109E+04 0.  0.
        2    1    3    3  502    0 -0.77381235733E+03  0.67028415383E+03 -0.10955261646E+04  0.14994145486E+04  0.25500000920E-02 0.  1.
       -2    1    3    3    0  502  0.77381235733E+03 -0.67028415383E+03  0.68714474163E+03  0.12329778210E+04  0.25500000920E-02 0. -1.
</event>
<event>
 5   0  0.7335091E-07  0.2701357E+04  0.7818609E-02  0.8334565E-01
       -1   -1    0    0    0  501  0.00000000000E+00  0.00000000000E+00  0.11527732901E+04  0.11527732902E+04  0.50400001928E-02 0.  1.
        1   -1    0    0  501    0  0.00000000000E+00  0.00000000000E+00 -0.15825598068E+04  0.15825598068E+04  0.50400001928E-02 0. -1.
    10030    2    1    2    0    0  0.00000000000E+00  0.00000000000E+00 -0.42978651662E+03  0.27353330969E+04  0.27013571962E+04 0.  0.
        3    1    3    3  502    0  0.10780191725E+04  0.11008685581E+03  0.60152808959E+03  0.12393871489E+04  0.10100000352E+00 0.  1.
       -3    1    3    3    0  502 -0.10780191725E+04 -0.11008685581E+03 -0.10313146062E+04  0.14959459480E+04  0.10100000352E+00 0. -1.
</event>
<event>
 5   0  0.7335091E-07  0.2700436E+04  0.7818609E-02  0.8334864E-01
       -1   -1    0    0    0  501  0.00000000000E+00  0.00000000000E+00  0.15242273952E+04  0.15242273952E+04  0.50400001928E-02 0.  1.
        1   -1    0    0  501    0  0.00000000000E+00  0.00000000000E+00 -0.11960737502E+04  0.11960737503E+04  0.50400001928E-02 0. -1.
    10030    2    1    2    0    0  0.00000000000E+00  0.00000000000E+00  0.32815364499E+03  0.27203011455E+04  0.27004357996E+04 0.  0.
        3    1    3    3  502    0  0.11040006667E+04  0.74864383163E+03  0.37490884846E+03  0.13855835282E+04  0.10100000352E+00 0. -1.
       -3    1    3    3    0  502 -0.11040006667E+04 -0.74864383163E+03 -0.46755203469E+02  0.13347176173E+04  0.10100000352E+00 0.  1.
</event>
<event>
 5   0  0.7768032E-07  0.2698216E+04  0.7818609E-02  0.8335584E-01
        1   -1    0    0  501    0  0.00000000000E+00  0.00000000000E+00  0.15851594621E+04  0.15851594621E+04  0.50400001928E-02 0. -1.
       -1   -1    0    0    0  501  0.00000000000E+00  0.00000000000E+00 -0.11482074901E+04  0.11482074901E+04  0.50400001928E-02 0.  1.
    10030    2    1    2    0    0  0.00000000000E+00  0.00000000000E+00  0.43695197199E+03  0.27333669523E+04  0.26982156826E+04 0.  0.
        4    1    3    3  502    0 -0.38611956694E+03  0.12898744681E+04  0.13236332979E+03  0.13529176351E+04  0.12699999809E+01 0. -1.
       -4    1    3    3    0  502  0.38611956694E+03 -0.12898744681E+04  0.30458864220E+03  0.13804493172E+04  0.12699999809E+01 0.  1.
</event>
<event>
 5   0  0.1999104E-06  0.2710490E+04  0.7818609E-02  0.8331609E-01
       -2   -1    0    0    0  501  0.00000000000E+00  0.00000000000E+00  0.12119054132E+04  0.12119054132E+04  0.25500000920E-02 0.  1.
        2   -1    0    0  501    0  0.00000000000E+00  0.00000000000E+00 -0.15155379113E+04  0.15155379113E+04  0.25500000920E-02 0. -1.
    10030    2    1    2    0    0  0.00000000000E+00  0.00000000000E+00 -0.30363249804E+03  0.27274433245E+04  0.27104896964E+04 0.  0.
        4    1    3    3  502    0 -0.91975825387E+03 -0.40066523270E+03 -0.10686679737E+04  0.14657901368E+04  0.12699999809E+01 0. -1.
       -4    1    3    3    0  502  0.91975825387E+03  0.40066523270E+03  0.76503547562E+03  0.12616531877E+04  0.12699999809E+01 0.  1.
</event>
<event>
 5   0  0.7335091E-07  0.2697512E+04  0.7818609E-02  0.8335813E-01
        1   -1    0    0  501    0  0.00000000000E+00  0.00000000000E+00  0.14317605813E+04  0.14317605813E+04  0.50400001928E-02 0.  1.
       -1   -1    0    0    0  501  0.00000000000E+00  0.00000000000E+00 -0.12705633732E+04  0.12705633732E+04  0.50400001928E-02 0. -1.
    10030    2    1    2    0    0  0.00000000000E+00  0.00000000000E+00  0.16119720809E+03  0.27023239545E+04  0.26975118564E+04 0.  0.
        3    1    3    3  502    0 -0.99647636706E+03  0.10286528531E+03 -0.82411605264E+03  0.12971945480E+04  0.10100000352E+00 0. -1.
       -3    1    3    3    0  502  0.99647636706E+03 -0.10286528531E+03  0.98531326073E+03  0.14051294065E+04  0.10100000352E+00 0.  1.
</event>
<event>
 5   0  0.7806808E-07  0.2669273E+04  0.7818609E-02  0.8345044E-01
       -1   -1    0    0    0  501  0.00000000000E+00  0.00000000000E+00  0.14381691635E+04  0.14381691635E+04  0.50400001928E-02 0. -1.
        1   -1    0    0  501    0  0.00000000000E+00  0.00000000000E+00 -0.12385571021E+04  0.12385571021E+04  0.50400001928E-02 0.  1.
    10030    2    1    2    0    0  0.00000000000E+00  0.00000000000E+00  0.19961206135E+03  0.26767262656E+04  0.26692730332E+04 0.  0.
        5    1    3    3  502    0  0.27865856848E+03  0.10772683605E+04 -0.63918777193E+03  0.12832539951E+04  0.46999998093E+01 0.  1.
       -5    1    3    3    0  502 -0.27865856848E+03 -0.10772683605E+04  0.83879983328E+03  0.13934722705E+04  0.46999998093E+01 0. -1.
</event>
<event>
 5   0  0.7768032E-07  0.2700828E+04  0.7818609E-02  0.8334736E-01
        1   -1    0    0  501    0  0.00000000000E+00  0.00000000000E+00  0.16032992209E+04  0.16032992209E+04  0.50400001928E-02 0.  1.
       -1   -1    0    0    0  501  0.00000000000E+00  0.00000000000E+00 -0.11374155451E+04  0.11374155451E+04  0.50400001928E-02 0. -1.
    10030    2    1    2    0    0  0.00000000000E+00  0.00000000000E+00  0.46588367587E+03  0.27407147660E+04  0.27008276193E+04 0.  0.
        4    1    3    3  502    0 -0.45746881731E+03 -0.84217527562E+03  0.11983482989E+04  0.15344631544E+04  0.12699999809E+01 0.  1.
       -4    1    3    3    0  502  0.45746881731E+03  0.84217527562E+03 -0.73246462307E+03  0.12062516117E+04  0.12699999809E+01 0. -1.
</event>
<event>
 5   0  0.1932012E-06  0.2697998E+04  0.7818609E-02  0.8335655E-01
       -2   -1    0    0    0  501  0.00000000000E+00  0.00000000000E+00  0.11731027873E+04  0.11731027873E+04  0.25500000920E-02 0.  1.
        2   -1    0    0  501    0  0.00000000000E+00  0.00000000000E+00 -0.15512693800E+04  0.15512693800E+04  0.25500000920E-02 0. -1.
    10030    2    1    2    0    0  0.00000000000E+00  0.00000000000E+00 -0.37816659270E+03  0.27243721673E+04  0.26979980975E+04 0.  0.
        2    1    3    3  502    0  0.12350476084E+03  0.27469336885E+03  0.11387189973E+04  0.11778755569E+04  0.25500000920E-02 0.  1.
       -2    1    3    3    0  502 -0.12350476084E+03 -0.27469336885E+03 -0.15168855900E+04  0.15464966104E+04  0.25500000920E-02 0. -1.
</event>
<event>
 5   0  0.1999104E-06  0.2704410E+04  0.7818609E-02  0.8333575E-01
       -2   -1    0    0    0  501  0.00000000000E+00  0.00000000000E+00  0.10907605809E+04  0.10907605809E+04  0.25500000920E-02 0. -1.
        2   -1    0    0  501    0  0.00000000000E+00  0.00000000000E+00 -0.16763156188E+04  0.16763156188E+04  0.25500000920E-02 0.  1.
    10030    2    1    2    0    0  0.00000000000E+00  0.00000000000E+00 -0.58555503788E+03  0.27670761997E+04  0.27044104704E+04 0.  0.
        4    1    3    3  502    0 -0.11994627670E+04 -0.53796128670E+03 -0.61688902776E+03  0.14521249811E+04  0.12699999809E+01 0.  1.
       -4    1    3    3    0  502  0.11994627670E+04  0.53796128670E+03  0.31333989880E+02  0.13149512186E+04  0.12699999809E+01 0. -1.
</event>
<event>
 5   0  0.1999104E-06  0.2746865E+04  0.7818609E-02  0.8319957E-01
       -2   -1    0    0    0  501  0.00000000000E+00  0.00000000000E+00  0.71145592474E+03  0.71145592475E+03  0.25500000920E-02 0.  1.
        2   -1    0    0  501    0  0.00000000000E+00  0.00000000000E+00 -0.26513469067E+04  0.26513469067E+04  0.25500000920E-02 0. -1.
    10030    2    1    2    0    0  0.00000000000E+00  0.00000000000E+00 -0.19398909820E+04  0.33628028314E+04  0.27468647330E+04 0.  0.
        4    1    3    3  502    0 -0.45389839812E+03 -0.12056393803E+04 -0.38701922194E+03  0.13451303142E+04  0.12699999809E+01 0.  1.
       -4    1    3    3    0  502  0.45389839812E+03  0.12056393803E+04 -0.15528717600E+04  0.20176725173E+04  0.12699999809E+01 0. -1.
</event>
<event>
 5   0  0.7768032E-07  0.2700022E+04  0.7818609E-02  0.8334998E-01
       -1   -1    0    0    0  501  0.00000000000E+00  0.00000000000E+00  0.89347557197E+03  0.89347557198E+03  0.50400001928E-02 0. -1.
        1   -1    0    0  501    0  0.00000000000E+00  0.00000000000E+00 -0.20398200259E+04  0.20398200259E+04  0.50400001928E-02 0.  1.
    10030    2    1    2    0    0  0.00000000000E+00  0.00000000000E+00 -0.11463444540E+04  0.29332955979E+04  0.27000217513E+04 0.  0.
        4    1    3    3  502    0 -0.81462951464E+03  0.26314008887E+03 -0.17072290846E+04  0.19098420649E+04  0.12699999809E+01 0.  1.
       -4    1    3    3    0  502  0.81462951464E+03 -0.26314008887E+03  0.56088463066E+03  0.10234535330E+04  0.12699999809E+01 0. -1.
</event>
<event>
 5   0  0.1932012E-06  0.2697624E+04  0.7818609E-02  0.8335776E-01
        2   -1    0    0  501    0  0.00000000000E+00  0.00000000000E+00  0.24792018905E+04  0.24792018905E+04  0.25500000920E-02 0. -1.
       -2   -1    0    0    0  501  0.00000000000E+00  0.00000000000E+00 -0.73382241720E+03  0.73382241720E+03  0.25500000920E-02 0.  1.
    10030    2    1    2    0    0  0.00000000000E+00  0.00000000000E+00  0.17453794733E+04  0.32130243077E+04  0.26976240835E+04 0.  0.
        2    1    3    3  502    0 -0.71475715520E+03 -0.24622486595E+03  0.22031540662E+04  0.23292471562E+04  0.25500000920E-02 0. -1.
       -2    1    3    3    0  502  0.71475715520E+03  0.24622486595E+03 -0.45777459289E+03  0.88377715145E+03  0.25500000920E-02 0.  1.
</event>
<event>
 5   0  0.1999104E-06  0.2697889E+04  0.7818609E-02  0.8335690E-01
        2   -1    0    0  501    0  0.00000000000E+00  0.00000000000E+00  0.17295786340E+04  0.17295786340E+04  0.25500000920E-02 0.  1.
       -2   -1    0    0    0  501  0.00000000000E+00  0.00000000000E+00 -0.10520779703E+04  0.10520779703E+04  0.25500000920E-02 0. -1.
    10030    2    1    2    0    0  0.00000000000E+00  0.00000000000E+00  0.67750066372E+03  0.27816566042E+04  0.26978892332E+04 0.  0.
        4    1    3    3  502    0  0.78000232435E+03  0.48484445209E+03  0.13574416793E+04  0.16389409063E+04  0.12699999809E+01 0.  1.
       -4    1    3    3    0  502 -0.78000232435E+03 -0.48484445209E+03 -0.67994101560E+03  0.11427156979E+04  0.12699999809E+01 0. -1.
</event>
<event>
 5   0  0.1991277E-06  0.2698333E+04  0.7818609E-02  0.8335546E-01
        2   -1    0    0  501    0  0.00000000000E+00  0.00000000000E+00  0.14283884724E+04  0.14283884724E+04  0.25500000920E-02 0. -1.
       -2   -1    0    0    0  501  0.00000000000E+00  0.00000000000E+00 -0.12743380312E+04  0.12743380312E+04  0.25500000920E-02 0.  1.
    10030    2    1    2    0    0  0.00000000000E+00  0.00000000000E+00  0.15405044127E+03  0.27027265036E+04  0.26983326361E+04 0.  0.
        5    1    3    3  502    0  0.56749316303E+02  0.39908003932E+03  0.13666552111E+04  0.14248697901E+04  0.46999998093E+01 0. -1.
       -5    1    3    3    0  502 -0.56749316303E+02 -0.39908003932E+03 -0.12126047698E+04  0.12778567136E+04  0.46999998093E+01 0.  1.
</event>
<event>
 5   0  0.7436613E-07  0.2700732E+04  0.7818609E-02  0.8334768E-01
       -1   -1    0    0    0  501  0.00000000000E+00  0.00000000000E+00  0.11467656648E+04  0.11467656648E+04  0.50400001928E-02 0. -1.
        1   -1    0    0  501    0  0.00000000000E+00  0.00000000000E+00 -0.15901141056E+04  0.15901141056E+04  0.50400001928E-02 0.  1.
    10030    2    1    2    0    0  0.00000000000E+00  0.00000000000E+00 -0.44334844087E+03  0.27368797704E+04  0.27007319448E+04 0.  0.
        2    1    3    3  502    0 -0.11833151378E+04 -0.63448553686E+03 -0.75938234188E+02  0.13448320443E+04  0.25500000920E-02 0.  1.
       -2    1    3    3    0  502  0.11833151378E+04  0.63448553686E+03 -0.36741020668E+03  0.13920477261E+04  0.25500000920E-02 0. -1.
</event>
<event>
 5   0  0.1991277E-06  0.2699029E+04  0.7818609E-02  0.8335320E-01
        2   -1    0    0  501    0  0.00000000000E+00  0.00000000000E+00  0.14254613326E+04  0.14254613326E+04  0.25500000920E-02 0.  1.
       -2   -1    0    0    0  501  0.00000000000E+00  0.00000000000E+00 -0.12776138298E+04  0.12776138298E+04  0.25500000920E-02 0. -1.
    10030    2    1    2    0    0  0.00000000000E+00  0.00000000000E+00  0.14784750275E+03  0.27030751624E+04  0.26990287975E+04 0.  0.
        5    1    3    3  502    0 -0.79638414017E+03 -0.49175360886E+03  0.10475528716E+04  0.14047912369E+04  0.46999998093E+01 0.  1.
       -5    1    3    3    0  502  0.79638414017E+03  0.49175360886E+03 -0.89970536882E+03  0.12982839255E+04  0.46999998093E+01 0. -1.
</event>
<event>
 5   0  0.6561875E-07  0.2699260E+04  0.7818609E-02  0.8335245E-01
       -3   -1    0    0    0  501  0.00000000000E+00  0.00000000000E+00  0.22923165883E+04  0.22923165905E+04  0.10100000352E+00 0. -1.
        3   -1    0    0  501    0  0.00000000000E+00  0.00000000000E+00 -0.79461152049E+03  0.79461152691E+03  0.10100000352E+00 0.  1.
    10030    2    1    2    0    0  0.00000000000E+00  0.00000000000E+00  0.14977050678E+04  0.30869281174E+04  0.26992600342E+04 0.  0.
        2    1    3    3  502    0 -0.22239894606E+03  0.46328730315E+02 -0.77258933737E+03  0.80529617327E+03  0.25500000920E-02 0.  1.
       -2    1    3    3    0  502  0.22239894606E+03 -0.46328730315E+02  0.22702944052E+04  0.22816319442E+04  0.25500000920E-02 0. -1.
</event>
<event>
 5   0  0.7436613E-07  0.2696032E+04  0.7818609E-02  0.8336294E-01
        1   -1    0    0  501    0  0.00000000000E+00  0.00000000000E+00  0.12445455635E+04  0.12445455635E+04  0.50400001928E-02 0. -1.
       -1   -1    0    0    0  501  0.00000000000E+00  0.00000000000E+00 -0.14600889996E+04  0.14600889997E+04  0.50400001928E-02 0.  1.
    10030    2    1    2    0    0  0.00000000000E+00  0.00000000000E+00 -0.21554343614E+03  0.27046345632E+04  0.26960321117E+04 0.  0.
        2    1    3    3  502    0 -0.38917113709E+02  0.13063203106E+04  0.22367618745E+03  0.13259028368E+04  0.25500000920E-02 0.  1.
       -2    1    3    3    0  502  0.38917113709E+02 -0.13063203106E+04 -0.43921962359E+03  0.13787317264E+04  0.25500000920E-02 0. -1.
</event>
<event>
 5   0  0.2030645E-06  0.2702264E+04  0.7818609E-02  0.8334271E-01
       -2   -1    0    0    0  501  0.00000000000E+00  0.00000000000E+00  0.66865015377E+03  0.66865015378E+03  0.25500000920E-02 0.  1.
        2   -1    0    0  501    0  0.00000000000E+00  0.00000000000E+00 -0.27302144940E+04  0.27302144940E+04  0.25500000920E-02 0. -1.
    10030    2    1    2    0    0  0.00000000000E+00  0.00000000000E+00 -0.20615643402E+04  0.33988646477E+04  0.27022644883E+04 0.  0.
        1    1    3    3  502    0  0.29243503827E+03  0.15200964266E+03 -0.26788789471E+04  0.26990771750E+04  0.50400001928E-02 0. -1.
       -1    1    3    3    0  502 -0.29243503827E+03 -0.15200964266E+03  0.61731460694E+03  0.69978747276E+03  0.50400001928E-02 0.  1.
</event>
<event>
 5   0  0.7768032E-07  0.2641780E+04  0.7818609E-02  0.8354147E-01
        1   -1    0    0  501    0  0.00000000000E+00  0.00000000000E+00  0.14219059323E+04  0.14219059323E+04  0.50400001928E-02 0. -1.
       -1   -1    0    0    0  501  0.00000000000E+00  0.00000000000E+00 -0.12270500528E+04  0.12270500528E+04  0.50400001928E-02 0.  1.
    10030    2    1    2    0    0  0.00000000000E+00  0.00000000000E+00  0.19485587947E+03  0.26489559851E+04  0.26417795133E+04 0.  0.
        4    1    3    3  502    0  0.71246386461E+03  0.93079466020E+03 -0.51313065772E+03  0.12795656070E+04  0.12699999809E+01 0.  1.
       -4    1    3    3    0  502 -0.71246386461E+03 -0.93079466020E+03  0.70798653720E+03  0.13693903781E+04  0.12699999809E+01 0. -1.
</event>
<event>
 5   0  0.1991277E-06  0.2700250E+04  0.7818609E-02  0.8334924E-01
        2   -1    0    0  501    0  0.00000000000E+00  0.00000000000E+00  0.78894665329E+03  0.78894665330E+03  0.25500000920E-02 0. -1.
       -2   -1    0    0    0  501  0.00000000000E+00  0.00000000000E+00 -0.23104703240E+04  0.23104703240E+04  0.25500000920E-02 0.  1.
    10030    2    1    2    0    0  0.00000000000E+00  0.00000000000E+00 -0.15215236707E+04  0.30994169773E+04  0.27002502326E+04 0.  0.
        5    1    3    3  502    0  0.12160920150E+04 -0.14467266233E+03 -0.10841112962E+03  0.12294653437E+04  0.46999998093E+01 0. -1.
       -5    1    3    3    0  502 -0.12160920150E+04  0.14467266233E+03 -0.14131125411E+04  0.18699516336E+04  0.46999998093E+01 0.  1.
</event>
<event>
 5   0  0.7806808E-07  0.2702336E+04  0.7818609E-02  0.8334248E-01
        1   -1    0    0  501    0  0.00000000000E+00  0.00000000000E+00  0.13497323381E+04  0.13497323382E+04  0.50400001928E-02 0. -1.
       -1   -1    0    0    0  501  0.00000000000E+00  0.00000000000E+00 -0.13526047381E+04  0.13526047382E+04  0.50400001928E-02 0.  1.
    10030    2    1    2    0    0  0.00000000000E+00  0.00000000000E+00 -0.28724000048E+01  0.27023370763E+04  0.27023355497E+04 0.  0.
        5    1    3    3  502    0  0.93752196816E+03 -0.74021189281E+02 -0.97159430669E+03  0.13521997501E+04  0.46999998093E+01 0.  1.
       -5    1    3    3    0  502 -0.93752196816E+03  0.74021189281E+02  0.96872190669E+03  0.13501373263E+04  0.46999998093E+01 0. -1.
</event>
<event>
 5   0  0.7335091E-07  0.2694340E+04  0.7818609E-02  0.8336844E-01
       -1   -1    0    0    0  501  0.00000000000E+00  0.00000000000E+00  0.89677869245E+03  0.89677869247E+03  0.50400001928E-02 0.  1.
        1   -1    0    0  501    0  0.00000000000E+00  0.00000000000E+00 -0.20237618181E+04  0.20237618181E+04  0.50400001928E-02 0. -1.
    10030    2    1    2    0    0  0.00000000000E+00  0.00000000000E+00 -0.11269831257E+04  0.29205405106E+04  0.26943396053E+04 0.  0.
        3    1    3    3  502    0  0.17508282314E+03 -0.56515826420E+03  0.74841027789E+03  0.95403134792E+03  0.10100000352E+00 0.  1.
       -3    1    3    3    0  502 -0.17508282314E+03  0.56515826420E+03 -0.18753934036E+04  0.19665091627E+04  0.10100000352E+00 0. -1.
</event>
<event>
 5   0  0.6561875E-07  0.2702778E+04  0.7818609E-02  0.8334104E-01
        3   -1    0    0  501    0  0.00000000000E+00  0.00000000000E+00  0.19205547788E+04  0.19205547815E+04  0.10100000352E+00 0. -1.
       -3   -1    0    0    0  501  0.00000000000E+00  0.00000000000E+00 -0.95089828888E+03  0.95089829425E+03  0.10100000352E+00 0.  1.
    10030    2    1    2    0    0  0.00000000000E+00  0.00000000000E+00  0.96965648992E+03  0.28714530757E+04  0.27027780259E+04 0.  0.
        5    1    3    3  502    0  0.78594509821E+02 -0.13473421525E+04  0.55783509280E+03  0.14603801059E+04  0.46999998093E+01 0. -1.
       -5    1    3    3    0  502 -0.78594509821E+02  0.13473421525E+04  0.41182139712E+03  0.14110729698E+04  0.46999998093E+01 0.  1.
</event>
<event>
 5   0  0.1932012E-06  0.2717615E+04  0.7818609E-02  0.8329312E-01
       -2   -1    0    0    0  501  0.00000000000E+00  0.00000000000E+00  0.26477319363E+04  0.26477319363E+04  0.25500000920E-02 0. -1.
        2   -1    0    0  501    0  0.00000000000E+00  0.00000000000E+00 -0.69733581196E+03  0.69733581197E+03  0.25500000920E-02 0.  1.
    10030    2    1    2    0    0  0.00000000000E+00  0.00000000000E+00  0.19503961243E+04  0.33450677482E+04  0.27176153515E+04 0.  0.
        2    1    3    3  502    0 -0.21095938258E+03  0.11986320131E+04  0.23141873979E+03  0.12388612502E+04  0.25500000920E-02 0.  1.
       -2    1    3    3    0  502  0.21095938258E+03 -0.11986320131E+04  0.17189773845E+04  0.21062064981E+04  0.25500000920E-02 0. -1.
</event>
<event>
 5   0  0.1991277E-06  0.2697615E+04  0.7818609E-02  0.8335779E-01
       -2   -1    0    0    0  501  0.00000000000E+00  0.00000000000E+00  0.10599065979E+04  0.10599065979E+04  0.25500000920E-02 0. -1.
        2   -1    0    0  501    0  0.00000000000E+00  0.00000000000E+00 -0.17164544166E+04  0.17164544166E+04  0.25500000920E-02 0.  1.
    10030    2    1    2    0    0  0.00000000000E+00  0.00000000000E+00 -0.65654781869E+03  0.27763610146E+04  0.26976147696E+04 0.  0.
        5    1    3    3  502    0 -0.49563908565E+03 -0.12534504807E+04 -0.37935186850E+03  0.14002593121E+04  0.46999998093E+01 0.  1.
       -5    1    3    3    0  502  0.49563908565E+03  0.12534504807E+04 -0.27719595019E+03  0.13761017025E+04  0.46999998093E+01 0. -1.
</event>
<event>
 5   0  0.7768032E-07  0.2695643E+04  0.7818609E-02  0.8336420E-01
       -1   -1    0    0    0  501  0.00000000000E+00  0.00000000000E+00  0.10821911258E+04  0.10821911258E+04  0.50400001928E-02 0.  1.
        1   -1    0    0  501    0  0.00000000000E+00  0.00000000000E+00 -0.16786527880E+04  0.16786527880E+04  0.50400001928E-02 0. -1.
    10030    2    1    2    0    0  0.00000000000E+00  0.00000000000E+00 -0.59646166225E+03  0.27608439139E+04  0.26956432631E+04 0.  0.
        4    1    3    3  502    0  0.13266115813E+04 -0.23614200696E+03 -0.32996746573E+03  0.13872784423E+04  0.12699999809E+01 0.  1.
       -4    1    3    3    0  502 -0.13266115813E+04  0.23614200696E+03 -0.26649419651E+03  0.13735654716E+04  0.12699999809E+01 0. -1.
</event>
<event>
 5   0  0.1999104E-06  0.2698920E+04  0.7818609E-02  0.8335355E-01
       -2   -1    0    0    0  501  0.00000000000E+00  0.00000000000E+00  0.11454012114E+04  0.11454012114E+04  0.25500000920E-02 0.  1.
        2   -1    0    0  501    0  0.00000000000E+00  0.00000000000E+00 -0.15898729182E+04  0.15898729183E+04  0.25500000920E-02 0. -1.
    10030    2    1    2    0    0  0.00000000000E+00  0.00000000000E+00 -0.44447170684E+03  0.27352741297E+04  0.26989200555E+04 0.  0.
        4    1    3    3  502    0 -0.94597465340E+03 -0.64718981702E+03  0.49962085091E+03  0.12503380790E+04  0.12699999809E+01 0.  1.
       -4    1    3    3    0  502  0.94597465340E+03  0.64718981702E+03 -0.94409255776E+03  0.14849360507E+04  0.12699999809E+01 0. -1.
</event>
<event>
 5   0  0.7806808E-07  0.2696539E+04  0.7818609E-02  0.8336129E-01
        1   -1    0    0  501    0  0.00000000000E+00  0.00000000000E+00  0.17268226368E+04  0.17268226368E+04  0.50400001928E-02 0.  1.
       -1   -1    0    0    0  501  0.00000000000E+00  0.00000000000E+00 -0.10527023534E+04  0.10527023534E+04  0.50400001928E-02 0. -1.
    10030    2    1    2    0    0  0.00000000000E+00  0.00000000000E+00  0.67412028338E+03  0.27795249902E+04  0.26965387100E+04 0.  0.
        5    1    3    3  502    0  0.10343620226E+04  0.77677023561E+02  0.12248858695E+04  0.16050875356E+04  0.46999998093E+01 0.  1.
       -5    1    3    3    0  502 -0.10343620226E+04 -0.77677023561E+02 -0.55076558616E+03  0.11744374545E+04  0.46999998093E+01 0. -1.
</event>
<event>
 5   0  0.1932012E-06  0.2700556E+04  0.7818609E-02  0.8334825E-01
       -2   -1    0    0    0  501  0.00000000000E+00  0.00000000000E+00  0.15362417397E+04  0.15362417397E+04  0.25500000920E-02 0. -1.
        2   -1    0    0  501    0  0.00000000000E+00  0.00000000000E+00 -0.11868249776E+04  0.11868249776E+04  0.25500000920E-02 0.  1.
    10030    2    1    2    0    0  0.00000000000E+00  0.00000000000E+00  0.34941676217E+03  0.27230667173E+04  0.27005555490E+04 0.  0.
        2    1    3    3  502    0  0.51556211489E+03 -0.19167172896E+03  0.14181575683E+04  0.15210894893E+04  0.25500000920E-02 0. -1.
       -2    1    3    3    0  502 -0.51556211489E+03  0.19167172896E+03 -0.10687408061E+04  0.12019772280E+04  0.25500000920E-02 0.  1.
</event>
<event>
 5   0  0.2063087E-06  0.2706367E+04  0.7818609E-02  0.8332942E-01
       -2   -1    0    0    0  501  0.00000000000E+00  0.00000000000E+00  0.14682439017E+04  0.14682439017E+04  0.25500000920E-02 0. -1.
        2   -1    0    0  501    0  0.00000000000E+00  0.00000000000E+00 -0.12471395910E+04  0.12471395910E+04  0.25500000920E-02 0.  1.
    10030    2    1    2    0    0  0.00000000000E+00  0.00000000000E+00  0.22110431076E+03  0.27153834927E+04  0.27063666411E+04 0.  0.
        3    1    3    3  502    0  0.87910273075E+03 -0.10222806891E+04 -0.48339160938E+01  0.13482962566E+04  0.10100000352E+00 0. -1.
       -3    1    3    3    0  502 -0.87910273075E+03  0.10222806891E+04  0.22593822685E+03  0.13670872361E+04  0.10100000352E+00 0.  1.
</event>
<event>
 5   0  0.7768032E-07  0.2710984E+04  0.7818609E-02  0.8331450E-01
        1   -1    0    0  501    0  0.00000000000E+00  0.00000000000E+00  0.24215033910E+04  0.24215033910E+04  0.50400001928E-02 0. -1.
       -1   -1    0    0    0  501  0.00000000000E+00  0.00000000000E+00 -0.75876759033E+03  0.75876759035E+03  0.50400001928E-02 0.  1.
    10030    2    1    2    0    0  0.00000000000E+00  0.00000000000E+00  0.16627358007E+04  0.31802709814E+04  0.27109838015E+04 0.  0.
        4    1    3    3  502    0  0.11200454596E+04 -0.25598830842E+03 -0.12391972558E+02  0.11489939163E+04  0.12699999809E+01 0.  1.
       -4    1    3    3    0  502 -0.11200454596E+04  0.25598830842E+03  0.16751277732E+04  0.20312770651E+04  0.12699999809E+01 0. -1.
</event>
<event>
 5   0  0.7806808E-07  0.2695949E+04  0.7818609E-02  0.8336321E-01
       -1   -1    0    0    0  501  0.00000000000E+00  0.00000000000E+00  0.10020492700E+04  0.10020492700E+04  0.50400001928E-02 0.  1.
        1   -1    0    0  501    0  0.00000000000E+00  0.00000000000E+00 -0.18133186379E+04  0.18133186380E+04  0.50400001928E-02 0. -1.
    10030    2    1    2    0    0  0.00000000000E+00  0.00000000000E+00 -0.81126936797E+03  0.28153679079E+04  0.26959485287E+04 0.  0.
        5    1    3    3  502    0 -0.11692462686E+03  0.13044700613E+04 -0.72605771021E+02  0.13117191762E+04  0.46999998093E+01 0. -1.
       -5    1    3    3    0  502  0.11692462686E+03 -0.13044700613E+04 -0.73866359695E+03  0.15036487318E+04  0.46999998093E+01 0.  1.
</event>
<event>
 5   0  0.2063087E-06  0.2696477E+04  0.7818609E-02  0.8336149E-01
       -2   -1    0    0    0  501  0.00000000000E+00  0.00000000000E+00  0.13032817314E+04  0.13032817314E+04  0.25500000920E-02 0. -1.
        2   -1    0    0  501    0  0.00000000000E+00  0.00000000000E+00 -0.13947456672E+04  0.13947456672E+04  0.25500000920E-02 0.  1.
    10030    2    1    2    0    0  0.00000000000E+00  0.00000000000E+00 -0.91463935805E+02  0.26980273985E+04  0.26964766255E+04 0.  0.
        3    1    3    3  502    0  0.47896937993E+02  0.51802510055E+03  0.11988090876E+04  0.13068233852E+04  0.10100000352E+00 0. -1.
       -3    1    3    3    0  502 -0.47896937993E+02 -0.51802510055E+03 -0.12902730234E+04  0.13912040133E+04  0.10100000352E+00 0.  1.
</event>
<event>
 5   0  0.2063087E-06  0.2692475E+04  0.7818609E-02  0.8337451E-01
       -2   -1    0    0    0  501  0.00000000000E+00  0.00000000000E+00  0.61722194653E+03  0.61722194653E+03  0.25500000920E-02 0. -1.
        2   -1    0    0  501    0  0.00000000000E+00  0.00000000000E+00 -0.29363109281E+04  0.29363109281E+04  0.25500000920E-02 0.  1.
    10030    2    1    2    0    0  0.00000000000E+00  0.00000000000E+00 -0.23190889816E+04  0.35535328746E+04  0.26924751042E+04 0.  0.
        3    1    3    3  502    0  0.93562880622E+03 -0.15451066026E+03 -0.24206842852E+04  0.25998052285E+04  0.10100000352E+00 0.  1.
       -3    1    3    3    0  502 -0.93562880622E+03  0.15451066026E+03  0.10159530361E+03  0.95372764618E+03  0.10100000352E+00 0. -1.
</event>
<event>
 5   0  0.1932012E-06  0.2699023E+04  0.7818609E-02  0.8335322E-01
       -2   -1    0    0    0  501  0.00000000000E+00  0.00000000000E+00  0.85845869836E+03  0.85845869837E+03  0.25500000920E-02 0. -1.
        2   -1    0    0  501    0  0.00000000000E+00  0.00000000000E+00 -0.21214541039E+04  0.21214541039E+04  0.25500000920E-02 0.  1.
    10030    2    1    2    0    0  0.00000000000E+00  0.00000000000E+00 -0.12629954055E+04  0.29799128023E+04  0.26990225851E+04 0.  0.
        2    1    3    3  502    0  0.28985339262E+03  0.77270647311E+03 -0.18103698053E+04  0.19896052660E+04  0.25500000920E-02 0.  1.
       -2    1    3    3    0  502 -0.28985339262E+03 -0.77270647311E+03  0.54737439975E+03  0.99030753622E+03  0.25500000920E-02 0. -1.
</event>
<event>
 5   0  0.7566905E-07  0.2699686E+04  0.7818609E-02  0.8335107E-01
        1   -1    0    0  501    0  0.00000000000E+00  0.00000000000E+00  0.22516150183E+04  0.22516150183E+04  0.50400001928E-02 0. -1.
       -1   -1    0    0    0  501  0.00000000000E+00  0.00000000000E+00 -0.80923093212E+03  0.80923093214E+03  0.50400001928E-02 0.  1.
    10030    2    1    2    0    0  0.00000000000E+00  0.00000000000E+00  0.14423840862E+04  0.30608459505E+04  0.26996862930E+04 0.  0.
        1    1    3    3  502    0  0.85618935049E+03 -0.43595936787E+03  0.17961644764E+04  0.20369898381E+04  0.50400001928E-02 0. -1.
       -1    1    3    3    0  502 -0.85618935049E+03  0.43595936787E+03 -0.35378039018E+03  0.10238561124E+04  0.50400001928E-02 0.  1.
</event>
<event>
 5   0  0.1999104E-06  0.2708489E+04  0.7818609E-02  0.8332256E-01
       -2   -1    0    0    0  501  0.00000000000E+00  0.00000000000E+00  0.89938756107E+03  0.89938756107E+03  0.25500000920E-02 0. -1.
        2   -1    0    0  501    0  0.00000000000E+00  0.00000000000E+00 -0.20391405610E+04  0.20391405610E+04  0.25500000920E-02 0.  1.
    10030    2    1    2    0    0  0.00000000000E+00  0.00000000000E+00 -0.11397529999E+04  0.29385281220E+04  0.27084886234E+04 0.  0.
        4    1    3    3  502    0 -0.70583154403E+03  0.96279554746E+03  0.12380428483E+03  0.12002093770E+04  0.12699999809E+01 0. -1.
       -4    1    3    3    0  502  0.70583154403E+03 -0.96279554746E+03 -0.12635572847E+04  0.17383187451E+04  0.12699999809E+01 0.  1.
</event>
<event>
 5   0  0.2063087E-06  0.2689034E+04  0.7818609E-02  0.8338572E-01
       -2   -1    0    0    0  501  0.00000000000E+00  0.00000000000E+00  0.95242206271E+03  0.95242206271E+03  0.25500000920E-02 0. -1.
        2   -1    0    0  501    0  0.00000000000E+00  0.00000000000E+00 -0.18980297283E+04  0.18980297283E+04  0.25500000920E-02 0.  1.
    10030    2    1    2    0    0  0.00000000000E+00  0.00000000000E+00 -0.94560766557E+03  0.28504517910E+04  0.26890335728E+04 0.  0.
        3    1    3    3  502    0  0.17580332835E+03 -0.33518681858E+03 -0.18403917292E+04  0.18789089230E+04  0.10100000352E+00 0.  1.
       -3    1    3    3    0  502 -0.17580332835E+03  0.33518681858E+03  0.89478406366E+03  0.97154286802E+03  0.10100000352E+00 0. -1.
</event>
<event>
 5   0  0.7436613E-07  0.2699733E+04  0.7818609E-02  0.8335092E-01
        1   -1    0    0  501    0  0.00000000000E+00  0.00000000000E+00  0.10131363005E+04  0.10131363006E+04  0.50400001928E-02 0. -1.
       -1   -1    0    0    0  501  0.00000000000E+00  0.00000000000E+00 -0.17985138489E+04  0.17985138489E+04  0.50400001928E-02 0.  1.
    10030    2    1    2    0    0  0.00000000000E+00  0.00000000000E+00 -0.78537754833E+03  0.28116501494E+04  0.26997330737E+04 0.  0.
        2    1    3    3  502    0 -0.81267238638E+03  0.65692525011E+02 -0.15131063037E+04  0.17187910291E+04  0.25500000920E-02 0.  1.
       -2    1    3    3    0  502  0.81267238638E+03 -0.65692525011E+02  0.72772875540E+03  0.10928591203E+04  0.25500000920E-02 0. -1.
</event>
<event>
 5   0  0.7566905E-07  0.2698667E+04  0.7818609E-02  0.8335437E-01
        1   -1    0    0  501    0  0.00000000000E+00  0.00000000000E+00  0.18627844482E+04  0.18627844482E+04  0.50400001928E-02 0. -1.
       -1   -1    0    0    0  501  0.00000000000E+00  0.00000000000E+00 -0.97740851141E+03  0.97740851143E+03  0.50400001928E-02 0.  1.
    10030    2    1    2    0    0  0.00000000000E+00  0.00000000000E+00  0.88537593675E+03  0.28401929596E+04  0.26986673560E+04 0.  0.
        1    1    3    3  502    0 -0.86561577583E+03  0.95861003630E+03  0.85364969214E+03  0.15482059521E+04  0.50400001928E-02 0. -1.
       -1    1    3    3    0  502  0.86561577583E+03 -0.95861003630E+03  0.31726244619E+02  0.12919870076E+04  0.50400001928E-02 0.  1.
</event>
<event>
 5   0  0.2030645E-06  0.2701115E+04  0.7818609E-02  0.8334643E-01
       -2   -1    0    0    0  501  0.00000000000E+00  0.00000000000E+00  0.92312821855E+03  0.92312821856E+03  0.25500000920E-02 0.  1.
        2   -1    0    0  501    0  0.00000000000E+00  0.00000000000E+00 -0.19758956639E+04  0.19758956639E+04  0.25500000920E-02 0. -1.
    10030    2    1    2    0    0  0.00000000000E+00  0.00000000000E+00 -0.10527674453E+04  0.28990238825E+04  0.27011146175E+04 0.  0.
        1    1    3    3  502    0 -0.11756336787E+04  0.33947125741E+03 -0.11397924545E+04  0.16722685551E+04  0.50400001928E-02 0. -1.
       -1    1    3    3    0  502  0.11756336787E+04 -0.33947125741E+03  0.87025009132E+02  0.12267553274E+04  0.50400001928E-02 0.  1.
</event>
<event>
 5   0  0.7806808E-07  0.2712602E+04  0.7818609E-02  0.8330928E-01
        1   -1    0    0  501    0  0.00000000000E+00  0.00000000000E+00  0.14835315073E+04  0.14835315073E+04  0.50400001928E-02 0. -1.
       -1   -1    0    0    0  501  0.00000000000E+00  0.00000000000E+00 -0.12399820358E+04  0.12399820358E+04  0.50400001928E-02 0.  1.
    10030    2    1    2    0    0  0.00000000000E+00  0.00000000000E+00  0.24354947146E+03  0.27235135431E+04  0.27126020118E+04 0.  0.
        5    1    3    3  502    0  0.17877005122E+03 -0.10730396833E+04  0.93506858338E+03  0.14344853568E+04  0.46999998093E+01 0. -1.
       -5    1    3    3    0  502 -0.17877005122E+03  0.10730396833E+04 -0.69151911192E+03  0.12890281864E+04  0.46999998093E+01 0.  1.
</event>
<event>
 5   0  0.7566905E-07  0.2702546E+04  0.7818609E-02  0.8334179E-01
        1   -1    0    0  501    0  0.00000000000E+00  0.00000000000E+00  0.17026024278E+04  0.17026024278E+04  0.50400001928E-02 0.  1.
       -1   -1    0    0    0  501  0.00000000000E+00  0.00000000000E+00 -0.10724397984E+04  0.10724397984E+04  0.50400001928E-02 0. -1.
    10030    2    1    2    0    0  0.00000000000E+00  0.00000000000E+00  0.63016262942E+03  0.27750422263E+04  0.27025459141E+04 0.  0.
        1    1    3    3  502    0  0.85196070482E+03 -0.11969617300E+03  0.13850382828E+04  0.16304892705E+04  0.50400001928E-02 0.  1.
       -1    1    3    3    0  502 -0.85196070482E+03  0.11969617300E+03 -0.75487565339E+03  0.11445529557E+04  0.50400001928E-02 0. -1.
</event>
<event>
 5   0  0.2063087E-06  0.2705605E+04  0.7818609E-02  0.8333189E-01
       -2   -1    0    0    0  501  0.00000000000E+00  0.00000000000E+00  0.14319875578E+04  0.14319875578E+04  0.25500000920E-02 0. -1.
        2   -1    0    0  501    0  0.00000000000E+00  0.00000000000E+00 -0.12779958381E+04  0.12779958381E+04  0.25500000920E-02 0.  1.
    10030    2    1    2    0    0  0.00000000000E+00  0.00000000000E+00  0.15399171966E+03  0.27099833959E+04  0.27056046563E+04 0.  0.
        3    1    3    3  502    0  0.16153997677E+03 -0.86813895775E+03  0.11035026122E+04  0.14133217749E+04  0.10100000352E+00 0. -1.
       -3    1    3    3    0  502 -0.16153997677E+03  0.86813895775E+03 -0.94951089256E+03  0.12966616210E+04  0.10100000352E+00 0.  1.
</event>
<event>
 5   0  0.7566905E-07  0.2698315E+04  0.7818609E-02  0.8335552E-01
       -1   -1    0    0    0  501  0.00000000000E+00  0.00000000000E+00  0.83284865435E+03  0.83284865437E+03  0.50400001928E-02 0. -1.
        1   -1    0    0  501    0  0.00000000000E+00  0.00000000000E+00 -0.21855425004E+04  0.21855425004E+04  0.50400001928E-02 0.  1.
    10030    2    1    2    0    0  0.00000000000E+00  0.00000000000E+00 -0.13526938460E+04  0.30183911547E+04  0.26983151265E+04 0.  0.
        1    1    3    3  502    0 -0.76925130760E+03  0.37075740053E+03 -0.18447661936E+04  0.20328233896E+04  0.50400001928E-02 0.  1.
       -1    1    3    3    0  502  0.76925130760E+03 -0.37075740053E+03  0.49207234761E+03  0.98556776510E+03  0.50400001928E-02 0. -1.
</event>
<event>
 5   0  0.7566905E-07  0.2704717E+04  0.7818609E-02  0.8333476E-01
       -1   -1    0    0    0  501  0.00000000000E+00  0.00000000000E+00  0.24032743139E+04  0.24032743139E+04  0.50400001928E-02 0.  1.
        1   -1    0    0  501    0  0.00000000000E+00  0.00000000000E+00 -0.76099234357E+03  0.76099234359E+03  0.50400001928E-02 0. -1.
    10030    2    1    2    0    0  0.00000000000E+00  0.00000000000E+00  0.16422819703E+04  0.31642666575E+04  0.27047168816E+04 0.  0.
        1    1    3    3  502    0  0.94074713254E+03  0.61956971220E+02 -0.31314354505E+03  0.99342977281E+03  0.50400001928E-02 0. -1.
       -1    1    3    3    0  502 -0.94074713254E+03 -0.61956971220E+02  0.19554255154E+04  0.21708368847E+04  0.50400001928E-02 0.  1.
</event>
<event>
 5   0  0.7436613E-07  0.2697411E+04  0.7818609E-02  0.8335845E-01
        1   -1    0    0  501    0  0.00000000000E+00  0.00000000000E+00  0.14422854848E+04  0.14422854848E+04  0.50400001928E-02 0.  1.
       -1   -1    0    0    0  501  0.00000000000E+00  0.00000000000E+00 -0.12611975540E+04  0.12611975540E+04  0.50400001928E-02 0. -1.
    10030    2    1    2    0    0  0.00000000000E+00  0.00000000000E+00  0.18108793080E+03  0.27034830387E+04  0.26974112964E+04 0.  0.
        2    1    3    3  502    0 -0.12676636965E+04 -0.34161181614E+03  0.40000596033E+03  0.13724702724E+04  0.25500000920E-02 0. -1.
       -2    1    3    3    0  502  0.12676636965E+04  0.34161181614E+03 -0.21891802953E+03  0.13310127663E+04  0.25500000920E-02 0.  1.
</event>
<event>
 5   0  0.2030645E-06  0.2709232E+04  0.7818609E-02  0.8332016E-01
       -2   -1    0    0    0  501  0.00000000000E+00  0.00000000000E+00  0.10785220829E+04  0.10785220829E+04  0.25500000920E-02 0.  1.
        2   -1    0    0  501    0  0.00000000000E+00  0.00000000000E+00 -0.17013879346E+04  0.17013879346E+04  0.25500000920E-02 0. -1.
    10030    2    1    2    0    0  0.00000000000E+00  0.00000000000E+00 -0.62286585168E+03  0.27799100175E+04  0.27092319643E+04 0.  0.
        1    1    3    3  502    0  0.82951698114E+02  0.87037318459E+02 -0.16959018968E+04  0.17001587345E+04  0.50400001928E-02 0. -1.
       -1    1    3    3    0  502 -0.82951698114E+02 -0.87037318459E+02  0.10730360451E+04  0.10797512830E+04  0.50400001928E-02 0.  1.
</event>
<event>
 5   0  0.6561875E-07  0.2701129E+04  0.7818609E-02  0.8334639E-01
       -3   -1    0    0    0  501  0.00000000000E+00  0.00000000000E+00  0.80039137517E+03  0.80039138154E+03  0.10100000352E+00 0. -1.
        3   -1    0    0  501    0  0.00000000000E+00  0.00000000000E+00 -0.22789160418E+04  0.22789160441E+04  0.10100000352E+00 0.  1.
    10030    2    1    2    0    0  0.00000000000E+00  0.00000000000E+00 -0.14785246667E+04  0.30793074256E+04  0.27011292141E+04 0.  0.
        5    1    3    3  502    0 -0.61416825160E+03 -0.11975877381E+04 -0.61137993705E+03  0.14782511793E+04  0.46999998093E+01 0. -1.
       -5    1    3    3    0  502  0.61416825160E+03  0.11975877381E+04 -0.86714472960E+03  0.16010562463E+04  0.46999998093E+01 0.  1.
</event>
<event>
 5   0  0.2063087E-06  0.2691132E+04  0.7818609E-02  0.8337888E-01
       -2   -1    0    0    0  501  0.00000000000E+00  0.00000000000E+00  0.92967414618E+03  0.92967414619E+03  0.25500000920E-02 0. -1.
        2   -1    0    0  501    0  0.00000000000E+00  0.00000000000E+00 -0.19475079984E+04  0.19475079984E+04  0.25500000920E-02 0.  1.
    10030    2    1    2    0    0  0.00000000000E+00  0.00000000000E+00 -0.10178338522E+04  0.28771821446E+04  0.26911319816E+04 0.  0.
        3    1    3    3  502    0 -0.98052185216E+02  0.62600954704E+03 -0.17780141364E+04  0.18875477380E+04  0.10100000352E+00 0.  1.
       -3    1    3    3    0  502  0.98052185216E+02 -0.62600954704E+03  0.76018028416E+03  0.98963440655E+03  0.10100000352E+00 0. -1.
</event>
<event>
 5   0  0.1932012E-06  0.2693339E+04  0.7818609E-02  0.8337169E-01
        2   -1    0    0  501    0  0.00000000000E+00  0.00000000000E+00  0.19144741610E+04  0.19144741610E+04  0.25500000920E-02 0. -1.
       -2   -1    0    0    0  501  0.00000000000E+00  0.00000000000E+00 -0.94726720420E+03  0.94726720420E+03  0.25500000920E-02 0.  1.
    10030    2    1    2    0    0  0.00000000000E+00  0.00000000000E+00  0.96720695685E+03  0.28617413652E+04  0.26933388840E+04 0.  0.
        2    1    3    3  502    0  0.93090040805E+03  0.80883970749E+02  0.15139798118E+04  0.17791156952E+04  0.25500000920E-02 0. -1.
       -2    1    3    3    0  502 -0.93090040805E+03 -0.80883970749E+02 -0.54677285497E+03  0.10826256700E+04  0.25500000920E-02 0.  1.
</event>
<event>
 5   0  0.2030645E-06  0.2702799E+04  0.7818609E-02  0.8334098E-01
       -2   -1    0    0    0  501  0.00000000000E+00  0.00000000000E+00  0.11504270466E+04  0.11504270466E+04  0.25500000920E-02 0.  1.
        2   -1    0    0  501    0  0.00000000000E+00  0.00000000000E+00 -0.15874800136E+04  0.15874800136E+04  0.25500000920E-02 0. -1.
    10030    2    1    2    0    0  0.00000000000E+00  0.00000000000E+00 -0.43705296703E+03  0.27379070602E+04  0.27027985079E+04 0.  0.
        1    1    3    3  502    0  0.13738598398E+03 -0.89989685814E+03 -0.12302951431E+04  0.15304624801E+04  0.50400001928E-02 0. -1.
       -1    1    3    3    0  502 -0.13738598398E+03  0.89989685814E+03  0.79324217610E+03  0.12074445800E+04  0.50400001928E-02 0.  1.
</event>
<event>
 5   0  0.2063087E-06  0.2698831E+04  0.7818609E-02  0.8335384E-01
        2   -1    0    0  501    0  0.00000000000E+00  0.00000000000E+00  0.85117650225E+03  0.85117650226E+03  0.25500000920E-02 0. -1.
       -2   -1    0    0    0  501  0.00000000000E+00  0.00000000000E+00 -0.21392997418E+04  0.21392997418E+04  0.25500000920E-02 0.  1.
    10030    2    1    2    0    0  0.00000000000E+00  0.00000000000E+00 -0.12881232395E+04  0.29904762440E+04  0.26988306145E+04 0.  0.
        3    1    3    3  502    0 -0.38486013014E+02 -0.39892832882E+03  0.78370616332E+03  0.88023880019E+03  0.10100000352E+00 0. -1.
       -3    1    3    3    0  502  0.38486013014E+02  0.39892832882E+03 -0.20718294028E+04  0.21102374438E+04  0.10100000352E+00 0.  1.
</event>
<event>
 5   0  0.7566905E-07  0.2699012E+04  0.7818609E-02  0.8335326E-01
       -1   -1    0    0    0  501  0.00000000000E+00  0.00000000000E+00  0.15669909700E+04  0.15669909700E+04  0.50400001928E-02 0.  1.
        1   -1    0    0  501    0  0.00000000000E+00  0.00000000000E+00 -0.11622063196E+04  0.11622063196E+04  0.50400001928E-02 0. -1.
    10030    2    1    2    0    0  0.00000000000E+00  0.00000000000E+00  0.40478465041E+03  0.27291972895E+04  0.26990122697E+04 0.  0.
        1    1    3    3  502    0  0.12812916634E+04  0.14409107987E+03 -0.20042987156E+03  0.13048535165E+04  0.50400001928E-02 0. -1.
       -1    1    3    3    0  502 -0.12812916634E+04 -0.14409107987E+03  0.60521452197E+03  0.14243437730E+04  0.50400001928E-02 0.  1.
</event>
<event>
 5   0  0.6561875E-07  0.2707188E+04  0.7818609E-02  0.8332676E-01
       -3   -1    0    0    0  501  0.00000000000E+00  0.00000000000E+00  0.10716218123E+04  0.10716218171E+04  0.10100000352E+00 0.  1.
        3   -1    0    0  501    0  0.00000000000E+00  0.00000000000E+00 -0.17097611517E+04  0.17097611547E+04  0.10100000352E+00 0. -1.
    10030    2    1    2    0    0  0.00000000000E+00  0.00000000000E+00 -0.63813933942E+03  0.27813829718E+04  0.27071884713E+04 0.  0.
        3    1    3    3  502    0  0.12893415849E+04 -0.39589090942E+03 -0.43659890783E+03  0.14176564998E+04  0.10100000352E+00 0. -1.
       -3    1    3    3    0  502 -0.12893415849E+04  0.39589090942E+03 -0.20154043159E+03  0.13637264720E+04  0.10100000352E+00 0.  1.
</event>
<event>
 5   0  0.1999104E-06  0.2706286E+04  0.7818609E-02  0.8332968E-01
       -2   -1    0    0    0  501  0.00000000000E+00  0.00000000000E+00  0.84662949295E+03  0.84662949296E+03  0.25500000920E-02 0.  1.
        2   -1    0    0  501    0  0.00000000000E+00  0.00000000000E+00 -0.21626886987E+04  0.21626886987E+04  0.25500000920E-02 0. -1.
    10030    2    1    2    0    0  0.00000000000E+00  0.00000000000E+00 -0.13160592058E+04  0.30093181917E+04  0.27062860428E+04 0.  0.
        4    1    3    3  502    0  0.34254321543E+03 -0.12000314403E+04 -0.76409974003E+02  0.12503005275E+04  0.12699999809E+01 0.  1.
       -4    1    3    3    0  502 -0.34254321543E+03  0.12000314403E+04 -0.12396492318E+04  0.17590176642E+04  0.12699999809E+01 0. -1.
</event>
<event>
 5   0  0.1932012E-06  0.2710414E+04  0.7818609E-02  0.8331634E-01
        2   -1    0    0  501    0  0.00000000000E+00  0.00000000000E+00  0.12356066991E+04  0.12356066991E+04  0.25500000920E-02 0. -1.
       -2   -1    0    0    0  501  0.00000000000E+00  0.00000000000E+00 -0.14863838560E+04  0.14863838560E+04  0.25500000920E-02 0.  1.
    10030    2    1    2    0    0  0.00000000000E+00  0.00000000000E+00 -0.25077715691E+03  0.27219905551E+04  0.27104138797E+04 0.  0.
        2    1    3    3  502    0  0.45349236954E+03 -0.12654300723E+04 -0.29822027257E+03  0.13769182721E+04  0.25500000920E-02 0.  1.
       -2    1    3    3    0  502 -0.45349236954E+03  0.12654300723E+04  0.47443115660E+02  0.13450722829E+04  0.25500000920E-02 0. -1.
</event>
<event>
 5   0  0.7436613E-07  0.2702826E+04  0.7818609E-02  0.8334089E-01
       -1   -1    0    0    0  501  0.00000000000E+00  0.00000000000E+00  0.17165855393E+04  0.17165855393E+04  0.50400001928E-02 0.  1.
        1   -1    0    0  501    0  0.00000000000E+00  0.00000000000E+00 -0.10639244308E+04  0.10639244308E+04  0.50400001928E-02 0. -1.
    10030    2    1    2    0    0  0.00000000000E+00  0.00000000000E+00  0.65266110850E+03  0.27805099701E+04  0.27028261452E+04 0.  0.
        2    1    3    3  502    0  0.28001593754E+03 -0.86517632385E+01  0.16863852576E+04  0.17094967140E+04  0.25500000920E-02 0.  1.
       -2    1    3    3    0  502 -0.28001593754E+03  0.86517632385E+01 -0.10337241491E+04  0.10710132561E+04  0.25500000920E-02 0. -1.
</event>
<event>
 5   0  0.7436613E-07  0.2696636E+04  0.7818609E-02  0.8336097E-01
        1   -1    0    0  501    0  0.00000000000E+00  0.00000000000E+00  0.24786977183E+04  0.24786977183E+04  0.50400001928E-02 0. -1.
       -1   -1    0    0    0  501  0.00000000000E+00  0.00000000000E+00 -0.73343399068E+03  0.73343399069E+03  0.50400001928E-02 0.  1.
    10030    2    1    2    0    0  0.00000000000E+00  0.00000000000E+00  0.17452637276E+04  0.32121317090E+04  0.26966357998E+04 0.  0.
        2    1    3    3  502    0 -0.10704582634E+04 -0.79924875282E+03  0.65532483307E+03  0.14879953291E+04  0.25500000920E-02 0. -1.
       -2    1    3    3    0  502  0.10704582634E+04  0.79924875282E+03  0.10899388945E+04  0.17241363799E+04  0.25500000920E-02 0.  1.
</event>
<event>
 5   0  0.2030645E-06  0.2698233E+04  0.7818609E-02  0.8335579E-01
       -2   -1    0    0    0  501  0.00000000000E+00  0.00000000000E+00  0.87931592218E+03  0.87931592218E+03  0.25500000920E-02 0.  1.
        2   -1    0    0  501    0  0.00000000000E+00  0.00000000000E+00 -0.20699217784E+04  0.20699217784E+04  0.25500000920E-02 0. -1.
    10030    2    1    2    0    0  0.00000000000E+00  0.00000000000E+00 -0.11906058562E+04  0.29492377006E+04  0.26982328865E+04 0.  0.
        1    1    3    3  502    0 -0.20943780669E+03 -0.94682760179E+03  0.42991110826E+03  0.10607404317E+04  0.50400001928E-02 0.  1.
       -1    1    3    3    0  502  0.20943780669E+03  0.94682760179E+03 -0.16205169645E+04  0.18884972689E+04  0.50400001928E-02 0. -1.
</event>
<event>
 5   0  0.7566905E-07  0.2711539E+04  0.7818609E-02  0.8331271E-01
       -1   -1    0    0    0  501  0.00000000000E+00  0.00000000000E+00  0.82310297484E+03  0.82310297486E+03  0.50400001928E-02 0.  1.
        1   -1    0    0  501    0  0.00000000000E+00  0.00000000000E+00 -0.22331490335E+04  0.22331490335E+04  0.50400001928E-02 0. -1.
    10030    2    1    2    0    0  0.00000000000E+00  0.00000000000E+00 -0.14100460587E+04  0.30562520084E+04  0.27115394984E+04 0.  0.
        1    1    3    3  502    0  0.59930079607E+03  0.11065278699E+04 -0.12736881239E+04  0.17904878687E+04  0.50400001928E-02 0. -1.
       -1    1    3    3    0  502 -0.59930079607E+03 -0.11065278699E+04 -0.13635793480E+03  0.12657641397E+04  0.50400001928E-02 0.  1.
</event>
<event>
 5   0  0.7806808E-07  0.2702136E+04  0.7818609E-02  0.8334312E-01
       -1   -1    0    0    0  501  0.00000000000E+00  0.00000000000E+00  0.89813284649E+03  0.89813284651E+03  0.50400001928E-02 0.  1.
        1   -1    0    0  501    0  0.00000000000E+00  0.00000000000E+00 -0.20324213788E+04  0.20324213788E+04  0.50400001928E-02 0. -1.
    10030    2    1    2    0    0  0.00000000000E+00  0.00000000000E+00 -0.11342885323E+04  0.29305542253E+04  0.27021357466E+04 0.  0.
        5    1    3    3  502    0 -0.12086516320E+04  0.48449967554E+03 -0.95785245696E+03  0.16165030536E+04  0.46999998093E+01 0.  1.
       -5    1    3    3    0  502  0.12086516320E+04 -0.48449967554E+03 -0.17643607531E+03  0.13140511717E+04  0.46999998093E+01 0. -1.
</event>
<event>
 5   0  0.7566905E-07  0.2693552E+04  0.7818609E-02  0.8337100E-01
        1   -1    0    0  501    0  0.00000000000E+00  0.00000000000E+00  0.15150232171E+04  0.15150232171E+04  0.50400001928E-02 0.  1.
       -1   -1    0    0    0  501  0.00000000000E+00  0.00000000000E+00 -0.11972128743E+04  0.11972128743E+04  0.50400001928E-02 0. -1.
    10030    2    1    2    0    0  0.00000000000E+00  0.00000000000E+00  0.31781034276E+03  0.27122360914E+04  0.26935517818E+04 0.  0.
        1    1    3    3  502    0 -0.10881204447E+04  0.79278341465E+03  0.19512209048E+03  0.13603618176E+04  0.50400001928E-02 0. -1.
       -1    1    3    3    0  502  0.10881204447E+04 -0.79278341465E+03  0.12268825229E+03  0.13518742737E+04  0.50400001928E-02 0.  1.
</event>
<event>
 5   0  0.7335091E-07  0.2736139E+04  0.7818609E-02  0.8323374E-01
        1   -1    0    0  501    0  0.00000000000E+00  0.00000000000E+00  0.16027945361E+04  0.16027945361E+04  0.50400001928E-02 0.  1.
       -1   -1    0    0    0  501  0.00000000000E+00  0.00000000000E+00 -0.11677189611E+04  0.11677189611E+04  0.50400001928E-02 0. -1.
    10030    2    1    2    0    0  0.00000000000E+00  0.00000000000E+00  0.43507557498E+03  0.27705134973E+04  0.27361385715E+04 0.  0.
        3    1    3    3  502    0 -0.80066825070E+03  0.78537242627E+03 -0.57571625948E+03  0.12606858123E+04  0.10100000352E+00 0. -1.
       -3    1    3    3    0  502  0.80066825070E+03 -0.78537242627E+03  0.10107918345E+04  0.15098276850E+04  0.10100000352E+00 0.  1.
</event>
<event>
 5   0  0.2063087E-06  0.2701115E+04  0.7818609E-02  0.8334643E-01
       -2   -1    0    0    0  501  0.00000000000E+00  0.00000000000E+00  0.17533495630E+04  0.17533495630E+04  0.25500000920E-02 0. -1.
        2   -1    0    0  501    0  0.00000000000E+00  0.00000000000E+00 -0.10402976938E+04  0.10402976939E+04  0.25500000920E-02 0.  1.
    10030    2    1    2    0    0  0.00000000000E+00  0.00000000000E+00  0.71305186912E+03  0.27936472568E+04  0.27011149601E+04 0.  0.
        3    1    3    3  502    0  0.12381892652E+04  0.53606821765E+03  0.29513159325E+03  0.13811533072E+04  0.10100000352E+00 0.  1.
       -3    1    3    3    0  502 -0.12381892652E+04 -0.53606821765E+03  0.41792027587E+03  0.14124939496E+04  0.10100000352E+00 0. -1.
</event>
<event>
 5   0  0.2030645E-06  0.2707341E+04  0.7818609E-02  0.8332627E-01
       -2   -1    0    0    0  501  0.00000000000E+00  0.00000000000E+00  0.11769406682E+04  0.11769406682E+04  0.25500000920E-02 0. -1.
        2   -1    0    0  501    0  0.00000000000E+00  0.00000000000E+00 -0.15569383877E+04  0.15569383877E+04  0.25500000920E-02 0.  1.
    10030    2    1    2    0    0  0.00000000000E+00  0.00000000000E+00 -0.37999771947E+03  0.27338790559E+04  0.27073412097E+04 0.  0.
        1    1    3    3  502    0  0.29302224917E+03  0.35591301940E+03 -0.14752227708E+04  0.15455802598E+04  0.50400001928E-02 0.  1.
       -1    1    3    3    0  502 -0.29302224917E+03 -0.35591301940E+03  0.10952250513E+04  0.11882987962E+04  0.50400001928E-02 0. -1.
</event>
<event>
 5   0  0.1999104E-06  0.2702849E+04  0.7818609E-02  0.8334081E-01
        2   -1    0    0  501    0  0.00000000000E+00  0.00000000000E+00  0.14617311791E+04  0.14617311791E+04  0.25500000920E-02 0.  1.
       -2   -1    0    0    0  501  0.00000000000E+00  0.00000000000E+00 -0.12494416239E+04  0.12494416239E+04  0.25500000920E-02 0. -1.
    10030    2    1    2    0    0  0.00000000000E+00  0.00000000000E+00  0.21228955523E+03  0.27111728030E+04  0.27028487032E+04 0.  0.
        4    1    3    3  502    0 -0.86363834002E+03 -0.10391314374E+04  0.79971531310E+02  0.13535369907E+04  0.12699999809E+01 0. -1.
       -4    1    3    3    0  502  0.86363834002E+03  0.10391314374E+04  0.13231802392E+03  0.13576358123E+04  0.12699999809E+01 0.  1.
</event>
<event>
 5   0  0.7436613E-07  0.2686917E+04  0.7818609E-02  0.8339263E-01
       -1   -1    0    0    0  501  0.00000000000E+00  0.00000000000E+00  0.12342827042E+04  0.12342827042E+04  0.50400001928E-02 0. -1.
        1   -1    0    0  501    0  0.00000000000E+00  0.00000000000E+00 -0.14622909162E+04  0.14622909162E+04  0.50400001928E-02 0.  1.
    10030    2    1    2    0    0  0.00000000000E+00  0.00000000000E+00 -0.22800821206E+03  0.26965736204E+04  0.26869167359E+04 0.  0.
        2    1    3    3  502    0  0.35048153433E+03 -0.26532007569E+03 -0.13880738886E+04  0.14560155112E+04  0.25500000920E-02 0.  1.
       -2    1    3    3    0  502 -0.35048153433E+03  0.26532007569E+03  0.11600656766E+04  0.12405581093E+04  0.25500000920E-02 0. -1.
</event>
<event>
 5   0  0.1991277E-06  0.2705667E+04  0.7818609E-02  0.8333169E-01
       -2   -1    0    0    0  501  0.00000000000E+00  0.00000000000E+00  0.12032740635E+04  0.12032740635E+04  0.25500000920E-02 0. -1.
        2   -1    0    0  501    0  0.00000000000E+00  0.00000000000E+00 -0.15209824351E+04  0.15209824351E+04  0.25500000920E-02 0.  1.
    10030    2    1    2    0    0  0.00000000000E+00  0.00000000000E+00 -0.31770837160E+03  0.27242564986E+04  0.27056671748E+04 0.  0.
        5    1    3    3  502    0  0.55354188472E+03 -0.12331185585E+04 -0.21533439594E+03  0.13687150871E+04  0.46999998093E+01 0. -1.
       -5    1    3    3    0  502 -0.55354188472E+03  0.12331185585E+04 -0.10237397567E+03  0.13555414115E+04  0.46999998093E+01 0.  1.
</event>
<event>
 5   0  0.1991277E-06  0.2698974E+04  0.7818609E-02  0.8335338E-01
       -2   -1    0    0    0  501  0.00000000000E+00  0.00000000000E+00  0.12214309508E+04  0.12214309508E+04  0.25500000920E-02 0.  1.
        2   -1    0    0  501    0  0.00000000000E+00  0.00000000000E+00 -0.14909680611E+04  0.14909680612E+04  0.25500000920E-02 0. -1.
    10030    2    1    2    0    0  0.00000000000E+00  0.00000000000E+00 -0.26953711031E+03  0.27123990120E+04  0.26989735357E+04 0.  0.
        5    1    3    3  502    0  0.12102266895E+04 -0.43801223291E+03 -0.54248241380E+03  0.13967149371E+04  0.46999998093E+01 0. -1.
       -5    1    3    3    0  502 -0.12102266895E+04  0.43801223291E+03  0.27294530348E+03  0.13156840749E+04  0.46999998093E+01 0.  1.
</event>
<event>
 5   0  0.2063087E-06  0.2697656E+04  0.7818609E-02  0.8335766E-01
       -2   -1    0    0    0  501  0.00000000000E+00  0.00000000000E+00  0.97863117273E+03  0.97863117273E+03  0.25500000920E-02 0.  1.
        2   -1    0    0  501    0  0.00000000000E+00  0.00000000000E+00 -0.18590624260E+04  0.18590624260E+04  0.25500000920E-02 0. -1.
    10030    2    1    2    0    0  0.00000000000E+00  0.00000000000E+00 -0.88043125331E+03  0.28376935988E+04  0.26976556060E+04 0.  0.
        3    1    3    3  502    0 -0.35992052306E+03  0.12111266430E+04 -0.93692027363E+03  0.15729558600E+04  0.10100000352E+00 0.  1.
       -3    1    3    3    0  502  0.35992052306E+03 -0.12111266430E+04  0.56489020323E+02  0.12647377388E+04  0.10100000352E+00 0. -1.
</event>
<event>
 5   0  0.1991277E-06  0.2697167E+04  0.7818609E-02  0.8335925E-01
       -2   -1    0    0    0  501  0.00000000000E+00  0.00000000000E+00  0.78318429487E+03  0.78318429488E+03  0.25500000920E-02 0.  1.
        2   -1    0    0  501    0  0.00000000000E+00  0.00000000000E+00 -0.23221574086E+04  0.23221574086E+04  0.25500000920E-02 0. -1.
    10030    2    1    2    0    0  0.00000000000E+00  0.00000000000E+00 -0.15389731137E+04  0.31053417034E+04  0.26971668192E+04 0.  0.
        5    1    3    3  502    0  0.27622848453E+03 -0.61562064374E+03 -0.21138216183E+04  0.22189084877E+04  0.46999998093E+01 0. -1.
       -5    1    3    3    0  502 -0.27622848453E+03  0.61562064374E+03  0.57484850464E+03  0.88643321574E+03  0.46999998093E+01 0.  1.
</event>
<event>
 5   0  0.1932012E-06  0.2681175E+04  0.7818609E-02  0.8341139E-01
       -2   -1    0    0    0  501  0.00000000000E+00  0.00000000000E+00  0.11244453295E+04  0.11244453295E+04  0.25500000920E-02 0. -1.
        2   -1    0    0  501    0  0.00000000000E+00  0.00000000000E+00 -0.15982766148E+04  0.15982766148E+04  0.25500000920E-02 0.  1.
    10030    2    1    2    0    0  0.00000000000E+00  0.00000000000E+00 -0.47383128532E+03  0.27227219443E+04  0.26811748729E+04 0.  0.
        2    1    3    3  502    0  0.22288479805E+03  0.10683585557E+04 -0.10275083691E+04  0.14989466586E+04  0.25500000920E-02 0.  1.
       -2    1    3    3    0  502 -0.22288479805E+03 -0.10683585557E+04  0.55367708379E+03  0.12237752857E+04  0.25500000920E-02 0. -1.
</event>
<event>
 5   0  0.1991277E-06  0.2704329E+04  0.7818609E-02  0.8333602E-01
       -2   -1    0    0    0  501  0.00000000000E+00  0.00000000000E+00  0.80068208851E+03  0.80068208851E+03  0.25500000920E-02 0.  1.
        2   -1    0    0  501    0  0.00000000000E+00  0.00000000000E+00 -0.22834896665E+04  0.22834896665E+04  0.25500000920E-02 0. -1.
    10030    2    1    2    0    0  0.00000000000E+00  0.00000000000E+00 -0.14828075780E+04  0.30841717550E+04  0.27043293256E+04 0.  0.
        5    1    3    3  502    0  0.94760645128E+03  0.84082084589E+03 -0.12804305905E+04  0.18012390926E+04  0.46999998093E+01 0. -1.
       -5    1    3    3    0  502 -0.94760645128E+03 -0.84082084589E+03 -0.20237698746E+03  0.12829326625E+04  0.46999998093E+01 0.  1.
</event>
<event>
 5   0  0.1932012E-06  0.2695618E+04  0.7818609E-02  0.8336428E-01
        2   -1    0    0  501    0  0.00000000000E+00  0.00000000000E+00  0.20692523240E+04  0.20692523240E+04  0.25500000920E-02 0.  1.
       -2   -1    0    0    0  501  0.00000000000E+00  0.00000000000E+00 -0.87789613075E+03  0.87789613075E+03  0.25500000920E-02 0. -1.
    10030    2    1    2    0    0  0.00000000000E+00  0.00000000000E+00  0.11913561933E+04  0.29471484548E+04  0.26956176352E+04 0.  0.
        2    1    3    3  502    0  0.40895545562E+03 -0.12726990825E+04  0.78371834064E+03  0.15495876732E+04  0.25500000920E-02 0.  1.
       -2    1    3    3    0  502 -0.40895545562E+03  0.12726990825E+04  0.40763785264E+03  0.13975607816E+04  0.25500000920E-02 0. -1.
</event>
<event>
 5   0  0.1999104E-06  0.2696606E+04  0.7818609E-02  0.8336107E-01
        2   -1    0    0  501    0  0.00000000000E+00  0.00000000000E+00  0.24979756895E+04  0.24979756895E+04  0.25500000920E-02 0. -1.
       -2   -1    0    0    0  501  0.00000000000E+00  0.00000000000E+00 -0.72775771116E+03  0.72775771117E+03  0.25500000920E-02 0.  1.
    10030    2    1    2    0    0  0.00000000000E+00  0.00000000000E+00  0.17702179783E+04  0.32257334007E+04  0.26966060671E+04 0.  0.
        4    1    3    3  502    0  0.91660220350E+02  0.41623932367E+03  0.24152712173E+04  0.24525891292E+04  0.12699999809E+01 0. -1.
       -4    1    3    3    0  502 -0.91660220350E+02 -0.41623932367E+03 -0.64505323895E+03  0.77314427149E+03  0.12699999809E+01 0.  1.
</event>
<event>
 5   0  0.2030645E-06  0.2708225E+04  0.7818609E-02  0.8332341E-01
       -2   -1    0    0    0  501  0.00000000000E+00  0.00000000000E+00  0.10026595408E+04  0.10026595408E+04  0.25500000920E-02 0. -1.
        2   -1    0    0  501    0  0.00000000000E+00  0.00000000000E+00 -0.18287571343E+04  0.18287571343E+04  0.25500000920E-02 0.  1.
    10030    2    1    2    0    0  0.00000000000E+00  0.00000000000E+00 -0.82609759357E+03  0.28314166751E+04  0.27082250930E+04 0.  0.
        1    1    3    3  502    0  0.78221609511E+03 -0.10062113088E+04  0.65252019308E+02  0.12761587062E+04  0.50400001928E-02 0. -1.
       -1    1    3    3    0  502 -0.78221609511E+03  0.10062113088E+04 -0.89134961288E+03  0.15552579689E+04  0.50400001928E-02 0.  1.
</event>
<event>
 5   0  0.7566905E-07  0.2700163E+04  0.7818609E-02  0.8334952E-01
       -1   -1    0    0    0  501  0.00000000000E+00  0.00000000000E+00  0.10622291110E+04  0.10622291110E+04  0.50400001928E-02 0. -1.
        1   -1    0    0  501    0  0.00000000000E+00  0.00000000000E+00 -0.17159387125E+04  0.17159387125E+04  0.50400001928E-02 0.  1.
    10030    2    1    2    0    0  0.00000000000E+00  0.00000000000E+00 -0.65370960154E+03  0.27781678235E+04  0.27001629974E+04 0.  0.
        1    1    3    3  502    0  0.25188649420E+03  0.95105916037E+03  0.62438610940E+03  0.11652546272E+04  0.50400001928E-02 0. -1.
       -1    1    3    3    0  502 -0.25188649420E+03 -0.95105916037E+03 -0.12780957109E+04  0.16129131963E+04  0.50400001928E-02 0.  1.
</event>
<event>
 5   0  0.7806808E-07  0.2691311E+04  0.7818609E-02  0.8337830E-01
       -1   -1    0    0    0  501  0.00000000000E+00  0.00000000000E+00  0.68605618336E+03  0.68605618338E+03  0.50400001928E-02 0.  1.
        1   -1    0    0  501    0  0.00000000000E+00  0.00000000000E+00 -0.26394178118E+04  0.26394178118E+04  0.50400001928E-02 0. -1.
    10030    2    1    2    0    0  0.00000000000E+00  0.00000000000E+00 -0.19533616284E+04  0.33254739952E+04  0.26913111379E+04 0.  0.
        5    1    3    3  502    0  0.41362476761E+03 -0.87424621319E+02 -0.25552180162E+04  0.25899594037E+04  0.46999998093E+01 0. -1.
       -5    1    3    3    0  502 -0.41362476761E+03  0.87424621319E+02  0.60185638773E+03  0.73551459146E+03  0.46999998093E+01 0.  1.
</event>
<event>
 5   0  0.7436613E-07  0.2700071E+04  0.7818609E-02  0.8334982E-01
        1   -1    0    0  501    0  0.00000000000E+00  0.00000000000E+00  0.18246625808E+04  0.18246625808E+04  0.50400001928E-02 0.  1.
       -1   -1    0    0    0  501  0.00000000000E+00  0.00000000000E+00 -0.99886766107E+03  0.99886766108E+03  0.50400001928E-02 0. -1.
    10030    2    1    2    0    0  0.00000000000E+00  0.00000000000E+00  0.82579491969E+03  0.28235302419E+04  0.27000714393E+04 0.  0.
        2    1    3    3  502    0  0.74958791796E+03  0.10288462010E+03 -0.75631821797E+03  0.10698058416E+04  0.25500000920E-02 0. -1.
       -2    1    3    3    0  502 -0.74958791796E+03 -0.10288462010E+03  0.15821131377E+04  0.17537244003E+04  0.25500000920E-02 0.  1.
</event>
<event>
 5   0  0.7806808E-07  0.2693292E+04  0.7818609E-02  0.8337185E-01
       -1   -1    0    0    0  501  0.00000000000E+00  0.00000000000E+00  0.11923126297E+04  0.11923126297E+04  0.50400001928E-02 0. -1.
        1   -1    0    0  501    0  0.00000000000E+00  0.00000000000E+00 -0.15209558237E+04  0.15209558238E+04  0.50400001928E-02 0.  1.
    10030    2    1    2    0    0  0.00000000000E+00  0.00000000000E+00 -0.32864319403E+03  0.27132684535E+04  0.26932915460E+04 0.  0.
        5    1    3    3  502    0  0.13129991973E+04  0.53814413912E+02  0.13208834544E+03  0.13207317306E+04  0.46999998093E+01 0. -1.
       -5    1    3    3    0  502 -0.13129991973E+04 -0.53814413912E+02 -0.46073153946E+03  0.13925367229E+04  0.46999998093E+01 0.  1.
</event>
<event>
 5   0  0.2063087E-06  0.2691781E+04  0.7818609E-02  0.8337677E-01
        2   -1    0    0  501    0  0.00000000000E+00  0.00000000000E+00  0.21184325112E+04  0.21184325112E+04  0.25500000920E-02 0. -1.
       -2   -1    0    0    0  501  0.00000000000E+00  0.00000000000E+00 -0.85507631028E+03  0.85507631028E+03  0.25500000920E-02 0.  1.
    10030    2    1    2    0    0  0.00000000000E+00  0.00000000000E+00  0.12633562009E+04  0.29735088215E+04  0.26917811614E+04 0.  0.
        3    1    3    3  502    0 -0.10348327756E+04  0.18782452113E+02  0.15820662826E+04  0.18905463197E+04  0.10100000352E+00 0. -1.
       -3    1    3    3    0  502  0.10348327756E+04 -0.18782452113E+02 -0.31871008173E+03  0.10829625018E+04  0.10100000352E+00 0.  1.
</event>
<event>
 5   0  0.1999104E-06  0.2687211E+04  0.7818609E-02  0.8339166E-01
       -2   -1    0    0    0  501  0.00000000000E+00  0.00000000000E+00  0.79276283475E+03  0.79276283475E+03  0.25500000920E-02 0.  1.
        2   -1    0    0  501    0  0.00000000000E+00  0.00000000000E+00 -0.22771955035E+04  0.22771955035E+04  0.25500000920E-02 0. -1.
    10030    2    1    2    0    0  0.00000000000E+00  0.00000000000E+00 -0.14844326688E+04  0.30699583383E+04  0.26872111660E+04 0.  0.
        4    1    3    3  502    0 -0.93508375795E+03 -0.83334838932E+03 -0.18672701727E+03  0.12663805764E+04  0.12699999809E+01 0.  1.
       -4    1    3    3    0  502  0.93508375795E+03  0.83334838932E+03 -0.12977056515E+04  0.18035777619E+04  0.12699999809E+01 0. -1.
</event>
<event>
 5   0  0.7768032E-07  0.2702154E+04  0.7818609E-02  0.8334307E-01
       -1   -1    0    0    0  501  0.00000000000E+00  0.00000000000E+00  0.86215143933E+03  0.86215143935E+03  0.50400001928E-02 0.  1.
        1   -1    0    0  501    0  0.00000000000E+00  0.00000000000E+00 -0.21172715061E+04  0.21172715061E+04  0.50400001928E-02 0. -1.
    10030    2    1    2    0    0  0.00000000000E+00  0.00000000000E+00 -0.12551200668E+04  0.29794229454E+04  0.27021537162E+04 0.  0.
        4    1    3    3  502    0 -0.68122225266E+03  0.49909135510E+03  0.53528952984E+03  0.99984620413E+03  0.12699999809E+01 0.  1.
       -4    1    3    3    0  502  0.68122225266E+03 -0.49909135510E+03 -0.17904095966E+04  0.19795767413E+04  0.12699999809E+01 0. -1.
</event>
<event>
 5   0  0.7436613E-07  0.2698774E+04  0.7818609E-02  0.8335403E-01
       -1   -1    0    0    0  501  0.00000000000E+00  0.00000000000E+00  0.18386280887E+04  0.18386280887E+04  0.50400001928E-02 0.  1.
        1   -1    0    0  501    0  0.00000000000E+00  0.00000000000E+00 -0.99032849160E+03  0.99032849161E+03  0.50400001928E-02 0. -1.
    10030    2    1    2    0    0  0.00000000000E+00  0.00000000000E+00  0.84829959707E+03  0.28289565803E+04  0.26987743749E+04 0.  0.
        2    1    3    3  502    0 -0.35214086500E+03  0.11590301679E+04  0.10473811490E+04  0.16013623545E+04  0.25500000920E-02 0.  1.
       -2    1    3    3    0  502  0.35214086500E+03 -0.11590301679E+04 -0.19908155195E+03  0.12275942258E+04  0.25500000920E-02 0. -1.
</event>
<event>
 5   0  0.7436613E-07  0.2707982E+04  0.7818609E-02  0.8332420E-01
        1   -1    0    0  501    0  0.00000000000E+00  0.00000000000E+00  0.19037234739E+04  0.19037234739E+04  0.50400001928E-02 0. -1.
       -1   -1    0    0    0  501  0.00000000000E+00  0.00000000000E+00 -0.96300317552E+03  0.96300317554E+03  0.50400001928E-02 0.  1.
    10030    2    1    2    0    0  0.00000000000E+00  0.00000000000E+00  0.94072029836E+03  0.28667266494E+04  0.27079820906E+04 0.  0.
        2    1    3    3  502    0 -0.28225220012E+03  0.98626439046E+02  0.18683405074E+04  0.18921125047E+04  0.25500000920E-02 0. -1.
       -2    1    3    3    0  502  0.28225220012E+03 -0.98626439046E+02 -0.92762020900E+03  0.97461414473E+03  0.25500000920E-02 0.  1.
</event>
<event>
 5   0  0.1932012E-06  0.2707579E+04  0.7818609E-02  0.8332550E-01
       -2   -1    0    0    0  501  0.00000000000E+00  0.00000000000E+00  0.85025415265E+03  0.85025415266E+03  0.25500000920E-02 0.  1.
        2   -1    0    0  501    0  0.00000000000E+00  0.00000000000E+00 -0.21555275076E+04  0.21555275076E+04  0.25500000920E-02 0. -1.
    10030    2    1    2    0    0  0.00000000000E+00  0.00000000000E+00 -0.13052733550E+04  0.30057816603E+04  0.27075791508E+04 0.  0.
        2    1    3    3  502    0 -0.15326313465E+03 -0.41802560333E+03  0.76665031396E+03  0.88655947199E+03  0.25500000920E-02 0.  1.
       -2    1    3    3    0  502  0.15326313465E+03  0.41802560333E+03 -0.20719236689E+04  0.21192221883E+04  0.25500000920E-02 0. -1.
</event>
<event>
 5   0  0.7566905E-07  0.2702024E+04  0.7818609E-02  0.8334349E-01
        1   -1    0    0  501    0  0.00000000000E+00  0.00000000000E+00  0.17937941772E+04  0.17937941772E+04  0.50400001928E-02 0.  1.
       -1   -1    0    0    0  501  0.00000000000E+00  0.00000000000E+00 -0.10175263471E+04  0.10175263471E+04  0.50400001928E-02 0. -1.
    10030    2    1    2    0    0  0.00000000000E+00  0.00000000000E+00  0.77626783009E+03  0.28113205243E+04  0.27020235651E+04 0.  0.
        1    1    3    3  502    0 -0.10944493802E+04 -0.36466626180E+03 -0.34346739755E+03  0.12036489445E+04  0.50400001928E-02 0. -1.
       -1    1    3    3    0  502  0.10944493802E+04  0.36466626180E+03  0.11197352276E+04  0.16076715798E+04  0.50400001928E-02 0.  1.
</event>
<event>
 5   0  0.7768032E-07  0.2677268E+04  0.7818609E-02  0.8342419E-01
       -1   -1    0    0    0  501  0.00000000000E+00  0.00000000000E+00  0.70304111786E+03  0.70304111788E+03  0.50400001928E-02 0.  1.
        1   -1    0    0  501    0  0.00000000000E+00  0.00000000000E+00 -0.25488415409E+04  0.25488415409E+04  0.50400001928E-02 0. -1.
    10030    2    1    2    0    0  0.00000000000E+00  0.00000000000E+00 -0.18458004230E+04  0.32518826588E+04  0.26772675669E+04 0.  0.
        4    1    3    3  502    0  0.34687049102E+03 -0.50564861509E+03 -0.23682247686E+04  0.24463216932E+04  0.12699999809E+01 0. -1.
       -4    1    3    3    0  502 -0.34687049102E+03  0.50564861509E+03  0.52242434554E+03  0.80556096553E+03  0.12699999809E+01 0.  1.
</event>
<event>
 5   0  0.7335091E-07  0.2699883E+04  0.7818609E-02  0.8335043E-01
       -1   -1    0    0    0  501  0.00000000000E+00  0.00000000000E+00  0.96549984003E+03  0.96549984004E+03  0.50400001928E-02 0. -1.
        1   -1    0    0  501    0  0.00000000000E+00  0.00000000000E+00 -0.18874595672E+04  0.18874595672E+04  0.50400001928E-02 0.  1.
    10030    2    1    2    0    0  0.00000000000E+00  0.00000000000E+00 -0.92195972713E+03  0.28529594072E+04  0.26998828939E+04 0.  0.
        3    1    3    3  502    0 -0.13103089018E+04  0.24621535074E+03 -0.23729300126E+03  0.13541932638E+04  0.10100000352E+00 0.  1.
       -3    1    3    3    0  502  0.13103089018E+04 -0.24621535074E+03 -0.68466672587E+03  0.14987661434E+04  0.10100000352E+00 0. -1.
</event>
<event>
 5   0  0.7768032E-07  0.2696321E+04  0.7818609E-02  0.8336200E-01
       -1   -1    0    0    0  501  0.00000000000E+00  0.00000000000E+00  0.81644014659E+03  0.81644014660E+03  0.50400001928E-02 0.  1.
        1   -1    0    0  501    0  0.00000000000E+00  0.00000000000E+00 -0.22261730825E+04  0.22261730825E+04  0.50400001928E-02 0. -1.
    10030    2    1    2    0    0  0.00000000000E+00  0.00000000000E+00 -0.14097329359E+04  0.30426132291E+04  0.26963212552E+04 0.  0.
        4    1    3    3  502    0  0.44703745059E+03 -0.12619803110E+04 -0.88363889313E+03  0.16041371805E+04  0.12699999809E+01 0. -1.
       -4    1    3    3    0  502 -0.44703745059E+03  0.12619803110E+04 -0.52609404282E+03  0.14384760486E+04  0.12699999809E+01 0.  1.
</event>
<event>
 5   0  0.1999104E-06  0.2698676E+04  0.7818609E-02  0.8335435E-01
        2   -1    0    0  501    0  0.00000000000E+00  0.00000000000E+00  0.21627962708E+04  0.21627962708E+04  0.25500000920E-02 0.  1.
       -2   -1    0    0    0  501  0.00000000000E+00  0.00000000000E+00 -0.84183271587E+03  0.84183271587E+03  0.25500000920E-02 0. -1.
    10030    2    1    2    0    0  0.00000000000E+00  0.00000000000E+00  0.13209635549E+04  0.30046289866E+04  0.26986757186E+04 0.  0.
        4    1    3    3  502    0  0.34012521125E+03 -0.27852979982E+03 -0.75986236049E+03  0.87787039391E+03  0.12699999809E+01 0. -1.
       -4    1    3    3    0  502 -0.34012521125E+03  0.27852979982E+03  0.20808259154E+04  0.21267585927E+04  0.12699999809E+01 0.  1.
</event>
<event>
 5   0  0.1932012E-06  0.2703766E+04  0.7818609E-02  0.8333784E-01
       -2   -1    0    0    0  501  0.00000000000E+00  0.00000000000E+00  0.73789758861E+03  0.73789758862E+03  0.25500000920E-02 0. -1.
        2   -1    0    0  501    0  0.00000000000E+00  0.00000000000E+00 -0.24767492927E+04  0.24767492927E+04  0.25500000920E-02 0.  1.
    10030    2    1    2    0    0  0.00000000000E+00  0.00000000000E+00 -0.17388517041E+04  0.32146468813E+04  0.27037657670E+04 0.  0.
        2    1    3    3  502    0 -0.24891280412E+03 -0.72857274496E+03 -0.21906136136E+04  0.23219741241E+04  0.25500000920E-02 0.  1.
       -2    1    3    3    0  502  0.24891280412E+03  0.72857274496E+03  0.45176190947E+03  0.89267275729E+03  0.25500000920E-02 0. -1.
</event>
<event>
 5   0  0.1991277E-06  0.2701236E+04  0.7818609E-02  0.8334604E-01
       -2   -1    0    0    0  501  0.00000000000E+00  0.00000000000E+00  0.13749501330E+04  0.13749501330E+04  0.25500000920E-02 0.  1.
        2   -1    0    0  501    0  0.00000000000E+00  0.00000000000E+00 -0.13267168056E+04  0.13267168056E+04  0.25500000920E-02 0. -1.
    10030    2    1    2    0    0  0.00000000000E+00  0.00000000000E+00  0.48233327438E+02  0.27016669386E+04  0.27012363453E+04 0.  0.
        5    1    3    3  502    0 -0.40342911863E+03 -0.33224685756E+02 -0.12646105327E+04  0.13278255996E+04  0.46999998093E+01 0. -1.
       -5    1    3    3    0  502  0.40342911863E+03  0.33224685756E+02  0.13128438602E+04  0.13738413390E+04  0.46999998093E+01 0.  1.
</event>
<event>
 5   0  0.2063087E-06  0.2702158E+04  0.7818609E-02  0.8334305E-01
       -2   -1    0    0    0  501  0.00000000000E+00  0.00000000000E+00  0.82750476257E+03  0.82750476258E+03  0.25500000920E-02 0. -1.
        2   -1    0    0  501    0  0.00000000000E+00  0.00000000000E+00 -0.22059262030E+04  0.22059262030E+04  0.25500000920E-02 0.  1.
    10030    2    1    2    0    0  0.00000000000E+00  0.00000000000E+00 -0.13784214404E+04  0.30334309656E+04  0.27021579812E+04 0.  0.
        3    1    3    3  502    0  0.11750317667E+04  0.66603859798E+03 -0.65185404738E+03  0.14997402362E+04  0.10100000352E+00 0. -1.
       -3    1    3    3    0  502 -0.11750317667E+04 -0.66603859798E+03 -0.72656739306E+03  0.15336907294E+04  0.10100000352E+00 0.  1.
</event>
<event>
 5   0  0.2030645E-06  0.2691403E+04  0.7818609E-02  0.8337800E-01
       -2   -1    0    0    0  501  0.00000000000E+00  0.00000000000E+00  0.86111843115E+03  0.86111843116E+03  0.25500000920E-02 0.  1.
        2   -1    0    0  501    0  0.00000000000E+00  0.00000000000E+00 -0.21029772771E+04  0.21029772771E+04  0.25500000920E-02 0. -1.
    10030    2    1    2    0    0  0.00000000000E+00  0.00000000000E+00 -0.12418588460E+04  0.29640957083E+04  0.26914029751E+04 0.  0.
        1    1    3    3  502    0 -0.11064399002E+04 -0.56700367307E+03 -0.11880932235E+04  0.17196708772E+04  0.50400001928E-02 0. -1.
       -1    1    3    3    0  502  0.11064399002E+04  0.56700367307E+03 -0.53765622488E+02  0.12444248311E+04  0.50400001928E-02 0.  1.
</event>
<event>
 5   0  0.7335091E-07  0.2722736E+04  0.7818609E-02  0.8327666E-01
        1   -1    0    0  501    0  0.00000000000E+00  0.00000000000E+00  0.18553201268E+04  0.18553201268E+04  0.50400001928E-02 0. -1.
       -1   -1    0    0    0  501  0.00000000000E+00  0.00000000000E+00 -0.99892313863E+03  0.99892313865E+03  0.50400001928E-02 0.  1.
    10030    2    1    2    0    0  0.00000000000E+00  0.00000000000E+00  0.85639698815E+03  0.28542432654E+04  0.27227355393E+04 0.  0.
        3    1    3    3  502    0  0.18593369153E+02 -0.34007853615E+03 -0.95353987711E+03  0.10125400889E+04  0.10100000352E+00 0.  1.
       -3    1    3    3    0  502 -0.18593369153E+02  0.34007853615E+03  0.18099368653E+04  0.18417031766E+04  0.10100000352E+00 0. -1.
</event>
<event>
 5   0  0.7335091E-07  0.2708811E+04  0.7818609E-02  0.8332152E-01
       -1   -1    0    0    0  501  0.00000000000E+00  0.00000000000E+00  0.10488447206E+04  0.10488447207E+04  0.50400001928E-02 0.  1.
        1   -1    0    0  501    0  0.00000000000E+00  0.00000000000E+00 -0.17489858663E+04  0.17489858663E+04  0.50400001928E-02 0. -1.
    10030    2    1    2    0    0  0.00000000000E+00  0.00000000000E+00 -0.70014114570E+03  0.27978305870E+04  0.27088112466E+04 0.  0.
        3    1    3    3  502    0 -0.20268622122E+03 -0.10918643069E+04  0.45075805680E+03  0.11985124968E+04  0.10100000352E+00 0.  1.
       -3    1    3    3    0  502  0.20268622122E+03  0.10918643069E+04 -0.11508992025E+04  0.15993180902E+04  0.10100000352E+00 0. -1.
</event>
<event>
 5   0  0.1991277E-06  0.2697823E+04  0.7818609E-02  0.8335712E-01
       -2   -1    0    0    0  501  0.00000000000E+00  0.00000000000E+00  0.98338554055E+03  0.98338554055E+03  0.25500000920E-02 0. -1.
        2   -1    0    0  501    0  0.00000000000E+00  0.00000000000E+00 -0.18503044136E+04  0.18503044136E+04  0.25500000920E-02 0.  1.
    10030    2    1    2    0    0  0.00000000000E+00  0.00000000000E+00 -0.86691887306E+03  0.28336899542E+04  0.26978232751E+04 0.  0.
        5    1    3    3  502    0 -0.64389629362E+03  0.21908913633E+03  0.79008244695E+03  0.10425233089E+04  0.46999998093E+01 0. -1.
       -5    1    3    3    0  502  0.64389629362E+03 -0.21908913633E+03 -0.16570013200E+04  0.17911666453E+04  0.46999998093E+01 0.  1.
</event>
<event>
 5   0  0.7768032E-07  0.2701225E+04  0.7818609E-02  0.8334607E-01
        1   -1    0    0  501    0  0.00000000000E+00  0.00000000000E+00  0.57119236074E+03  0.57119236076E+03  0.50400001928E-02 0. -1.
       -1   -1    0    0    0  501  0.00000000000E+00  0.00000000000E+00 -0.31935906799E+04  0.31935906799E+04  0.50400001928E-02 0.  1.
    10030    2    1    2    0    0  0.00000000000E+00  0.00000000000E+00 -0.26223983191E+04  0.37647830406E+04  0.27012253514E+04 0.  0.
        4    1    3    3  502    0  0.56946700732E+02  0.33907425676E+03  0.50917578080E+03  0.61439064689E+03  0.12699999809E+01 0. -1.
       -4    1    3    3    0  502 -0.56946700732E+02 -0.33907425676E+03 -0.31315740999E+04  0.31503923938E+04  0.12699999809E+01 0.  1.
</event>
<event>
 5   0  0.2030645E-06  0.2702689E+04  0.7818609E-02  0.8334133E-01
       -2   -1    0    0    0  501  0.00000000000E+00  0.00000000000E+00  0.20499753813E+04  0.20499753813E+04  0.25500000920E-02 0.  1.
        2   -1    0    0  501    0  0.00000000000E+00  0.00000000000E+00 -0.89080653827E+03  0.89080653827E+03  0.25500000920E-02 0. -1.
    10030    2    1    2    0    0  0.00000000000E+00  0.00000000000E+00  0.11591688430E+04  0.29407819196E+04  0.27026886413E+04 0.  0.
        1    1    3    3  502    0 -0.24346294597E+03 -0.83028003796E+03  0.17090523303E+04  0.19155936456E+04  0.50400001928E-02 0.  1.
       -1    1    3    3    0  502  0.24346294597E+03  0.83028003796E+03 -0.54988348725E+03  0.10251882740E+04  0.50400001928E-02 0. -1.
</event>
<event>
 5   0  0.2063087E-06  0.2704757E+04  0.7818609E-02  0.8333463E-01
       -2   -1    0    0    0  501  0.00000000000E+00  0.00000000000E+00  0.12557362089E+04  0.12557362089E+04  0.25500000920E-02 0. -1.
        2   -1    0    0  501    0  0.00000000000E+00  0.00000000000E+00 -0.14564582931E+04  0.14564582931E+04  0.25500000920E-02 0.  1.
    10030    2    1    2    0    0  0.00000000000E+00  0.00000000000E+00 -0.20072208422E+03  0.27121945020E+04  0.27047568581E+04 0.  0.
        3    1    3    3  502    0 -0.12696042558E+04  0.46020408297E+03 -0.17298007855E+03  0.13614715869E+04  0.10100000352E+00 0. -1.
       -3    1    3    3    0  502  0.12696042558E+04 -0.46020408297E+03 -0.27742005675E+02  0.13507229151E+04  0.10100000352E+00 0.  1.
</event>
<event>
 5   0  0.7335091E-07  0.2709979E+04  0.7818609E-02  0.8331774E-01
        1   -1    0    0  501    0  0.00000000000E+00  0.00000000000E+00  0.11441927864E+04  0.11441927864E+04  0.50400001928E-02 0. -1.
       -1   -1    0    0    0  501  0.00000000000E+00  0.00000000000E+00 -0.16046219157E+04  0.16046219157E+04  0.50400001928E-02 0.  1.
    10030    2    1    2    0    0  0.00000000000E+00  0.00000000000E+00 -0.46042912932E+03  0.27488147021E+04  0.27099792035E+04 0.  0.
        3    1    3    3  502    0 -0.10749150411E+04 -0.62025487911E+03  0.32149021018E+03  0.12819962661E+04  0.10100000352E+00 0. -1.
       -3    1    3    3    0  502  0.10749150411E+04  0.62025487911E+03 -0.78191933950E+03  0.14668184361E+04  0.10100000352E+00 0.  1.
</event>
<event>
 5   0  0.2063087E-06  0.2699200E+04  0.7818609E-02  0.8335265E-01
       -2   -1    0    0    0  501  0.00000000000E+00  0.00000000000E+00  0.12434706675E+04  0.12434706675E+04  0.25500000920E-02 0.  1.
        2   -1    0    0  501    0  0.00000000000E+00  0.00000000000E+00 -0.14647869013E+04  0.14647869013E+04  0.25500000920E-02 0. -1.
    10030    2    1    2    0    0  0.00000000000E+00  0.00000000000E+00 -0.22131623372E+03  0.27082575688E+04  0.26991995450E+04 0.  0.
        3    1    3    3  502    0 -0.55684519226E+03 -0.90661963050E+03 -0.94373582668E+03  0.14222071028E+04  0.10100000352E+00 0. -1.
       -3    1    3    3    0  502  0.55684519226E+03  0.90661963050E+03  0.72241959296E+03  0.12860504660E+04  0.10100000352E+00 0.  1.
</event>
<event>
 5   0  0.2030645E-06  0.2668940E+04  0.7818609E-02  0.8345154E-01
        2   -1    0    0  501    0  0.00000000000E+00  0.00000000000E+00  0.19344712064E+04  0.19344712064E+04  0.25500000920E-02 0. -1.
       -2   -1    0    0    0  501  0.00000000000E+00  0.00000000000E+00 -0.92056698405E+03  0.92056698406E+03  0.25500000920E-02 0.  1.
    10030    2    1    2    0    0  0.00000000000E+00  0.00000000000E+00  0.10139042224E+04  0.28550381905E+04  0.26689401074E+04 0.  0.
        1    1    3    3  502    0  0.42108749309E+03  0.45076108120E+01 -0.84762656614E+03  0.94647017441E+03  0.50400001928E-02 0.  1.
       -1    1    3    3    0  502 -0.42108749309E+03 -0.45076108120E+01  0.18615307885E+04  0.19085680161E+04  0.50400001928E-02 0. -1.
</event>
<event>
 5   0  0.7768032E-07  0.2702614E+04  0.7818609E-02  0.8334157E-01
        1   -1    0    0  501    0  0.00000000000E+00  0.00000000000E+00  0.17561830059E+04  0.17561830059E+04  0.50400001928E-02 0.  1.
       -1   -1    0    0    0  501  0.00000000000E+00  0.00000000000E+00 -0.10397726747E+04  0.10397726747E+04  0.50400001928E-02 0. -1.
    10030    2    1    2    0    0  0.00000000000E+00  0.00000000000E+00  0.71641033122E+03  0.27959556805E+04  0.27026143648E+04 0.  0.
        4    1    3    3  502    0 -0.12411030631E+04  0.48476869112E+03  0.59113004420E+03  0.14576603991E+04  0.12699999809E+01 0.  1.
       -4    1    3    3    0  502  0.12411030631E+04 -0.48476869112E+03  0.12528028702E+03  0.13382952814E+04  0.12699999809E+01 0. -1.
</event>
<event>
 5   0  0.1999104E-06  0.2701483E+04  0.7818609E-02  0.8334524E-01
       -2   -1    0    0    0  501  0.00000000000E+00  0.00000000000E+00  0.92916453891E+03  0.92916453891E+03  0.25500000920E-02 0.  1.
        2   -1    0    0  501    0  0.00000000000E+00  0.00000000000E+00 -0.19635953663E+04  0.19635953663E+04  0.25500000920E-02 0. -1.
    10030    2    1    2    0    0  0.00000000000E+00  0.00000000000E+00 -0.10344308274E+04  0.28927599052E+04  0.27014834318E+04 0.  0.
        4    1    3    3  502    0 -0.12623402910E+04  0.32007996330E+03 -0.13329457042E+03  0.13090925286E+04  0.12699999809E+01 0.  1.
       -4    1    3    3    0  502  0.12623402910E+04 -0.32007996330E+03 -0.90113625694E+03  0.15836673766E+04  0.12699999809E+01 0. -1.
</event>
<event>
 5   0  0.1932012E-06  0.2699295E+04  0.7818609E-02  0.8335234E-01
        2   -1    0    0  501    0  0.00000000000E+00  0.00000000000E+00  0.15747306496E+04  0.15747306496E+04  0.25500000920E-02 0.  1.
       -2   -1    0    0    0  501  0.00000000000E+00  0.00000000000E+00 -0.11567364071E+04  0.11567364071E+04  0.25500000920E-02 0. -1.
    10030    2    1    2    0    0  0.00000000000E+00  0.00000000000E+00  0.41799424247E+03  0.27314670568E+04  0.26992949256E+04 0.  0.
        2    1    3    3  502    0 -0.98640368704E+03  0.29602687282E+03 -0.67370934322E+03  0.12306536565E+04  0.25500000920E-02 0.  1.
       -2    1    3    3    0  502  0.98640368704E+03 -0.29602687282E+03  0.10917035857E+04  0.15008134002E+04  0.25500000920E-02 0. -1.
</event>
<event>
 5   0  0.7335091E-07  0.2696103E+04  0.7818609E-02  0.8336270E-01
       -1   -1    0    0    0  501  0.00000000000E+00  0.00000000000E+00  0.11062514519E+04  0.11062514519E+04  0.50400001928E-02 0. -1.
        1   -1    0    0  501    0  0.00000000000E+00  0.00000000000E+00 -0.16427036504E+04  0.16427036504E+04  0.50400001928E-02 0.  1.
    10030    2    1    2    0    0  0.00000000000E+00  0.00000000000E+00 -0.53645219850E+03  0.27489551023E+04  0.26961033350E+04 0.  0.
        3    1    3    3  502    0  0.56462964809E+03 -0.12147068229E+03 -0.15101685075E+04  0.16168397253E+04  0.10100000352E+00 0.  1.
       -3    1    3    3    0  502 -0.56462964809E+03  0.12147068229E+03  0.97371630900E+03  0.11321153770E+04  0.10100000352E+00 0. -1.
</event>
<event>
 5   0  0.7768032E-07  0.2701847E+04  0.7818609E-02  0.8334406E-01
        1   -1    0    0  501    0  0.00000000000E+00  0.00000000000E+00  0.11482522514E+04  0.11482522515E+04  0.50400001928E-02 0. -1.
       -1   -1    0    0    0  501  0.00000000000E+00  0.00000000000E+00 -0.15893664896E+04  0.15893664896E+04  0.50400001928E-02 0.  1.
    10030    2    1    2    0    0  0.00000000000E+00  0.00000000000E+00 -0.44111423817E+03  0.27376187411E+04  0.27018465168E+04 0.  0.
        4    1    3    3  502    0  0.23696138704E+03  0.11625945195E+04 -0.87503114464E+03  0.14742651840E+04  0.12699999809E+01 0.  1.
       -4    1    3    3    0  502 -0.23696138704E+03 -0.11625945195E+04  0.43391690648E+03  0.12633535571E+04  0.12699999809E+01 0. -1.
</event>
<event>
 5   0  0.7806808E-07  0.2714947E+04  0.7818609E-02  0.8330172E-01
       -1   -1    0    0    0  501  0.00000000000E+00  0.00000000000E+00  0.20588409101E+04  0.20588409101E+04  0.50400001928E-02 0.  1.
        1   -1    0    0  501    0  0.00000000000E+00  0.00000000000E+00 -0.89503455428E+03  0.89503455430E+03  0.50400001928E-02 0. -1.
    10030    2    1    2    0    0  0.00000000000E+00  0.00000000000E+00  0.11638063558E+04  0.29538754644E+04  0.27149465971E+04 0.  0.
        5    1    3    3  502    0  0.52148562445E+03  0.55510327239E+02  0.19441632145E+04  0.20136586969E+04  0.46999998093E+01 0.  1.
       -5    1    3    3    0  502 -0.52148562445E+03 -0.55510327239E+02 -0.78035685871E+03  0.94021676749E+03  0.46999998093E+01 0. -1.
</event>
<event>
 5   0  0.7768032E-07  0.2691954E+04  0.7818609E-02  0.8337620E-01
       -1   -1    0    0    0  501  0.00000000000E+00  0.00000000000E+00  0.10917053132E+04  0.10917053132E+04  0.50400001928E-02 0.  1.
        1   -1    0    0  501    0  0.00000000000E+00  0.00000000000E+00 -0.16594723236E+04  0.16594723236E+04  0.50400001928E-02 0. -1.
    10030    2    1    2    0    0  0.00000000000E+00  0.00000000000E+00 -0.56776701040E+03  0.27511776368E+04  0.26919544965E+04 0.  0.
        4    1    3    3  502    0  0.28212261540E+02 -0.58612370471E+03 -0.15218610748E+04  0.16310731660E+04  0.12699999809E+01 0. -1.
       -4    1    3    3    0  502 -0.28212261540E+02  0.58612370471E+03  0.95409406438E+03  0.11201044708E+04  0.12699999809E+01 0.  1.
</event>
<event>
 5   0  0.7566905E-07  0.2697027E+04  0.7818609E-02  0.8335970E-01
        1   -1    0    0  501    0  0.00000000000E+00  0.00000000000E+00  0.77008802214E+03  0.77008802215E+03  0.50400001928E-02 0. -1.
       -1   -1    0    0    0  501  0.00000000000E+00  0.00000000000E+00 -0.23614029101E+04  0.23614029101E+04  0.50400001928E-02 0.  1.
    10030    2    1    2    0    0  0.00000000000E+00  0.00000000000E+00 -0.15913148880E+04  0.31314909323E+04  0.26970265824E+04 0.  0.
        1    1    3    3  502    0 -0.46691087920E+03 -0.11598832169E+04 -0.13821553748E+04  0.18637833367E+04  0.50400001928E-02 0.  1.
       -1    1    3    3    0  502  0.46691087920E+03  0.11598832169E+04 -0.20915951318E+03  0.12677075956E+04  0.50400001928E-02 0. -1.
</event>
<event>
 5   0  0.1991277E-06  0.2697140E+04  0.7818609E-02  0.8335934E-01
        2   -1    0    0  501    0  0.00000000000E+00  0.00000000000E+00  0.29721157471E+04  0.29721157471E+04  0.25500000920E-02 0. -1.
       -2   -1    0    0    0  501  0.00000000000E+00  0.00000000000E+00 -0.61190099785E+03  0.61190099786E+03  0.25500000920E-02 0.  1.
    10030    2    1    2    0    0  0.00000000000E+00  0.00000000000E+00  0.23602147492E+04  0.35840167449E+04  0.26971396637E+04 0.  0.
        5    1    3    3  502    0  0.70888736282E+03 -0.11438988033E+03 -0.33673631533E+03  0.79310766858E+03  0.46999998093E+01 0.  1.
       -5    1    3    3    0  502 -0.70888736282E+03  0.11438988033E+03  0.26969510645E+04  0.27909090763E+04  0.46999998093E+01 0. -1.
</event>
<event>
 5   0  0.7768032E-07  0.2703059E+04  0.7818609E-02  0.8334013E-01
       -1   -1    0    0    0  501  0.00000000000E+00  0.00000000000E+00  0.12032220553E+04  0.12032220553E+04  0.50400001928E-02 0.  1.
        1   -1    0    0  501    0  0.00000000000E+00  0.00000000000E+00 -0.15181168995E+04  0.15181168995E+04  0.50400001928E-02 0. -1.
    10030    2    1    2    0    0  0.00000000000E+00  0.00000000000E+00 -0.31489484425E+03  0.27213389548E+04  0.27030588125E+04 0.  0.
        4    1    3    3  502    0 -0.95716184005E+03 -0.39858095034E+03 -0.10302617096E+04  0.14616656134E+04  0.12699999809E+01 0. -1.
       -4    1    3    3    0  502  0.95716184005E+03  0.39858095034E+03  0.71536686540E+03  0.12596733414E+04  0.12699999809E+01 0.  1.
</event>
<event>
 5   0  0.7436613E-07  0.2699872E+04  0.7818609E-02  0.8335047E-01
       -1   -1    0    0    0  501  0.00000000000E+00  0.00000000000E+00  0.95440217698E+03  0.95440217700E+03  0.50400001928E-02 0.  1.
        1   -1    0    0  501    0  0.00000000000E+00  0.00000000000E+00 -0.19093911916E+04  0.19093911916E+04  0.50400001928E-02 0. -1.
    10030    2    1    2    0    0  0.00000000000E+00  0.00000000000E+00 -0.95498901460E+03  0.28637933686E+04  0.26998719303E+04 0.  0.
        2    1    3    3  502    0  0.12241848488E+04 -0.56248899959E+03 -0.56815111151E+03  0.14621279370E+04  0.25500000920E-02 0.  1.
       -2    1    3    3    0  502 -0.12241848488E+04  0.56248899959E+03 -0.38683790309E+03  0.14016654316E+04  0.25500000920E-02 0. -1.
</event>
<event>
 5   0  0.2063087E-06  0.2618881E+04  0.7818609E-02  0.8361816E-01
       -2   -1    0    0    0  501  0.00000000000E+00  0.00000000000E+00  0.62807019813E+03  0.62807019814E+03  0.25500000920E-02 0.  1.
        2   -1    0    0  501    0  0.00000000000E+00  0.00000000000E+00 -0.27300038901E+04  0.27300038901E+04  0.25500000920E-02 0. -1.
    10030    2    1    2    0    0  0.00000000000E+00  0.00000000000E+00 -0.21019336920E+04  0.33580740883E+04  0.26188807412E+04 0.  0.
        3    1    3    3  502    0  0.11759378532E+04  0.47260834297E+03 -0.14732273940E+04  0.19433443969E+04  0.10100000352E+00 0. -1.
       -3    1    3    3    0  502 -0.11759378532E+04 -0.47260834297E+03 -0.62870629804E+03  0.14147296914E+04  0.10100000352E+00 0.  1.
</event>
<event>
 5   0  0.2063087E-06  0.2704065E+04  0.7818609E-02  0.8333687E-01
       -2   -1    0    0    0  501  0.00000000000E+00  0.00000000000E+00  0.11310208802E+04  0.11310208802E+04  0.25500000920E-02 0. -1.
        2   -1    0    0  501    0  0.00000000000E+00  0.00000000000E+00 -0.16162321617E+04  0.16162321617E+04  0.25500000920E-02 0.  1.
    10030    2    1    2    0    0  0.00000000000E+00  0.00000000000E+00 -0.48521128148E+03  0.27472530419E+04  0.27040653262E+04 0.  0.
        3    1    3    3  502    0  0.89582357704E+03 -0.27365092182E+03  0.74795741298E+03  0.11986763575E+04  0.10100000352E+00 0. -1.
       -3    1    3    3    0  502 -0.89582357704E+03  0.27365092182E+03 -0.12331686945E+04  0.15485766844E+04  0.10100000352E+00 0.  1.
</event>
<event>
 5   0  0.7806808E-07  0.2696885E+04  0.7818609E-02  0.8336016E-01
        1   -1    0    0  501    0  0.00000000000E+00  0.00000000000E+00  0.99761647806E+03  0.99761647808E+03  0.50400001928E-02 0. -1.
       -1   -1    0    0    0  501  0.00000000000E+00  0.00000000000E+00 -0.18226412204E+04  0.18226412204E+04  0.50400001928E-02 0.  1.
    10030    2    1    2    0    0  0.00000000000E+00  0.00000000000E+00 -0.82502474230E+03  0.28202576984E+04  0.26968848066E+04 0.  0.
        5    1    3    3  502    0  0.15163255356E+03 -0.13377342991E+04 -0.49180546140E+03  0.14333248718E+04  0.46999998093E+01 0.  1.
       -5    1    3    3    0  502 -0.15163255356E+03  0.13377342991E+04 -0.33321928089E+03  0.13869328266E+04  0.46999998093E+01 0. -1.
</event>
<event>
 5   0  0.1991277E-06  0.2698361E+04  0.7818609E-02  0.8335537E-01
        2   -1    0    0  501    0  0.00000000000E+00  0.00000000000E+00  0.14412340431E+04  0.14412340431E+04  0.25500000920E-02 0.  1.
       -2   -1    0    0    0  501  0.00000000000E+00  0.00000000000E+00 -0.12630060859E+04  0.12630060859E+04  0.25500000920E-02 0. -1.
    10030    2    1    2    0    0  0.00000000000E+00  0.00000000000E+00  0.17822795721E+03  0.27042401290E+04  0.26983605153E+04 0.  0.
        5    1    3    3  502    0  0.26294110850E+03  0.82948824047E+03  0.11224166231E+04  0.14202217902E+04  0.46999998093E+01 0.  1.
       -5    1    3    3    0  502 -0.26294110850E+03 -0.82948824047E+03 -0.94418866584E+03  0.12840183388E+04  0.46999998093E+01 0. -1.
</event>
<event>
 5   0  0.2063087E-06  0.2706614E+04  0.7818609E-02  0.8332862E-01
       -2   -1    0    0    0  501  0.00000000000E+00  0.00000000000E+00  0.17081951245E+04  0.17081951245E+04  0.25500000920E-02 0.  1.
        2   -1    0    0  501    0  0.00000000000E+00  0.00000000000E+00 -0.10721491246E+04  0.10721491246E+04  0.25500000920E-02 0. -1.
    10030    2    1    2    0    0  0.00000000000E+00  0.00000000000E+00  0.63604599995E+03  0.27803442491E+04  0.27066140525E+04 0.  0.
        3    1    3    3  502    0  0.61232376838E+03 -0.83431583385E+03 -0.57775012924E+03  0.11852504081E+04  0.10100000352E+00 0. -1.
       -3    1    3    3    0  502 -0.61232376838E+03  0.83431583385E+03  0.12137961292E+04  0.15950938409E+04  0.10100000352E+00 0.  1.
</event>
<event>
 5   0  0.7335091E-07  0.2694910E+04  0.7818609E-02  0.8336658E-01
       -1   -1    0    0    0  501  0.00000000000E+00  0.00000000000E+00  0.89938727054E+03  0.89938727055E+03  0.50400001928E-02 0.  1.
        1   -1    0    0  501    0  0.00000000000E+00  0.00000000000E+00 -0.20187470047E+04  0.20187470047E+04  0.50400001928E-02 0. -1.
    10030    2    1    2    0    0  0.00000000000E+00  0.00000000000E+00 -0.11193597342E+04  0.29181342753E+04  0.26949102831E+04 0.  0.
        3    1    3    3  502    0 -0.17321349124E+03 -0.13358629482E+04 -0.52372368495E+03  0.14452747968E+04  0.10100000352E+00 0. -1.
       -3    1    3    3    0  502  0.17321349124E+03  0.13358629482E+04 -0.59563604921E+03  0.14728594784E+04  0.10100000352E+00 0.  1.
</event>
<event>
 5   0  0.7335091E-07  0.2694126E+04  0.7818609E-02  0.8336913E-01
        1   -1    0    0  501    0  0.00000000000E+00  0.00000000000E+00  0.19373840435E+04  0.19373840435E+04  0.50400001928E-02 0.  1.
       -1   -1    0    0    0  501  0.00000000000E+00  0.00000000000E+00 -0.93661309188E+03  0.93661309189E+03  0.50400001928E-02 0. -1.
    10030    2    1    2    0    0  0.00000000000E+00  0.00000000000E+00  0.10007709516E+04  0.28739971354E+04  0.26941263958E+04 0.  0.
        3    1    3    3  502    0 -0.80237320136E+03  0.10105256178E+04  0.87760830649E+02  0.12933161841E+04  0.10100000352E+00 0. -1.
       -3    1    3    3    0  502  0.80237320136E+03 -0.10105256178E+04  0.91301012099E+03  0.15806809513E+04  0.10100000352E+00 0.  1.
</event>
<event>
 5   0  0.7768032E-07  0.2688399E+04  0.7818609E-02  0.8338779E-01
        1   -1    0    0  501    0  0.00000000000E+00  0.00000000000E+00  0.10455332214E+04  0.10455332214E+04  0.50400001928E-02 0.  1.
       -1   -1    0    0    0  501  0.00000000000E+00  0.00000000000E+00 -0.17281830665E+04  0.17281830665E+04  0.50400001928E-02 0. -1.
    10030    2    1    2    0    0  0.00000000000E+00  0.00000000000E+00 -0.68264984517E+03  0.27737162879E+04  0.26883993815E+04 0.  0.
        4    1    3    3  502    0  0.19843836182E+03 -0.29745437894E+02  0.10299938546E+04  0.10493576739E+04  0.12699999809E+01 0.  1.
       -4    1    3    3    0  502 -0.19843836182E+03  0.29745437894E+02 -0.17126436997E+04  0.17243586140E+04  0.12699999809E+01 0. -1.
</event>
<event>
 5   0  0.2030645E-06  0.2704472E+04  0.7818609E-02  0.8333555E-01
        2   -1    0    0  501    0  0.00000000000E+00  0.00000000000E+00  0.13589033091E+04  0.13589033091E+04  0.25500000920E-02 0.  1.
       -2   -1    0    0    0  501  0.00000000000E+00  0.00000000000E+00 -0.13456013684E+04  0.13456013684E+04  0.25500000920E-02 0. -1.
    10030    2    1    2    0    0  0.00000000000E+00  0.00000000000E+00  0.13301940702E+02  0.27045046774E+04  0.27044719649E+04 0.  0.
        1    1    3    3  502    0 -0.78107780559E+03 -0.10429618056E+04  0.36816645741E+03  0.13540304305E+04  0.50400001928E-02 0.  1.
       -1    1    3    3    0  502  0.78107780559E+03  0.10429618056E+04 -0.35486451671E+03  0.13504742469E+04  0.50400001928E-02 0. -1.
</event>
<event>
 5   0  0.7436613E-07  0.2697344E+04  0.7818609E-02  0.8335867E-01
        1   -1    0    0  501    0  0.00000000000E+00  0.00000000000E+00  0.12326526212E+04  0.12326526212E+04  0.50400001928E-02 0.  1.
       -1   -1    0    0    0  501  0.00000000000E+00  0.00000000000E+00 -0.14756109916E+04  0.14756109916E+04  0.50400001928E-02 0. -1.
    10030    2    1    2    0    0  0.00000000000E+00  0.00000000000E+00 -0.24295837043E+03  0.27082636129E+04  0.26973436983E+04 0.  0.
        2    1    3    3  502    0  0.13347444674E+04  0.49547411908E+02  0.66140945842E+02  0.13373004016E+04  0.25500000920E-02 0.  1.
       -2    1    3    3    0  502 -0.13347444674E+04 -0.49547411908E+02 -0.30909931627E+03  0.13709632113E+04  0.25500000920E-02 0. -1.
</event>
<event>
 5   0  0.1932012E-06  0.2683844E+04  0.7818609E-02  0.8340266E-01
        2   -1    0    0  501    0  0.00000000000E+00  0.00000000000E+00  0.17924558463E+04  0.17924558463E+04  0.25500000920E-02 0.  1.
       -2   -1    0    0    0  501  0.00000000000E+00  0.00000000000E+00 -0.10046301048E+04  0.10046301048E+04  0.25500000920E-02 0. -1.
    10030    2    1    2    0    0  0.00000000000E+00  0.00000000000E+00  0.78782574155E+03  0.27970859511E+04  0.26838443358E+04 0.  0.
        2    1    3    3  502    0 -0.29812587637E+03  0.84689181109E+03  0.14333152433E+04  0.16913004951E+04  0.25500000920E-02 0.  1.
       -2    1    3    3    0  502  0.29812587637E+03 -0.84689181109E+03 -0.64548950176E+03  0.11057854560E+04  0.25500000920E-02 0. -1.
</event>
<event>
 5   0  0.2063087E-06  0.2697195E+04  0.7818609E-02  0.8335916E-01
       -2   -1    0    0    0  501  0.00000000000E+00  0.00000000000E+00  0.11690687210E+04  0.11690687210E+04  0.25500000920E-02 0. -1.
        2   -1    0    0  501    0  0.00000000000E+00  0.00000000000E+00 -0.15556960873E+04  0.15556960873E+04  0.25500000920E-02 0.  1.
    10030    2    1    2    0    0  0.00000000000E+00  0.00000000000E+00 -0.38662736623E+03  0.27247648083E+04  0.26971953100E+04 0.  0.
        3    1    3    3  502    0 -0.72437098884E+03 -0.10627575231E+04 -0.60310609245E+03  0.14205294264E+04  0.10100000352E+00 0. -1.
       -3    1    3    3    0  502  0.72437098884E+03  0.10627575231E+04  0.21647872622E+03  0.13042353819E+04  0.10100000352E+00 0.  1.
</event>
<event>
 5   0  0.7768032E-07  0.2701162E+04  0.7818609E-02  0.8334628E-01
       -1   -1    0    0    0  501  0.00000000000E+00  0.00000000000E+00  0.11681500337E+04  0.11681500337E+04  0.50400001928E-02 0. -1.
        1   -1    0    0  501    0  0.00000000000E+00  0.00000000000E+00 -0.15615025837E+04  0.15615025837E+04  0.50400001928E-02 0.  1.
    10030    2    1    2    0    0  0.00000000000E+00  0.00000000000E+00 -0.39335255004E+03  0.27296526174E+04  0.27011621912E+04 0.  0.
        4    1    3    3  502    0  0.12742381316E+04 -0.99440763929E+02 -0.63773874673E+03  0.14283849633E+04  0.12699999809E+01 0.  1.
       -4    1    3    3    0  502 -0.12742381316E+04  0.99440763929E+02  0.24438619670E+03  0.13012676541E+04  0.12699999809E+01 0. -1.
</event>
<event>
 5   0  0.7566905E-07  0.2699353E+04  0.7818609E-02  0.8335215E-01
        1   -1    0    0  501    0  0.00000000000E+00  0.00000000000E+00  0.15514347799E+04  0.15514347799E+04  0.50400001928E-02 0. -1.
       -1   -1    0    0    0  501  0.00000000000E+00  0.00000000000E+00 -0.11741565494E+04  0.11741565494E+04  0.50400001928E-02 0.  1.
    10030    2    1    2    0    0  0.00000000000E+00  0.00000000000E+00  0.37727823050E+03  0.27255913292E+04  0.26993534839E+04 0.  0.
        1    1    3    3  502    0 -0.93464137256E+03  0.97071854753E+03  0.26539320809E+03  0.13734200191E+04  0.50400001928E-02 0.  1.
       -1    1    3    3    0  502  0.93464137256E+03 -0.97071854753E+03  0.11188502241E+03  0.13521713102E+04  0.50400001928E-02 0. -1.
</event>
<event>
 5   0  0.2063087E-06  0.2698362E+04  0.7818609E-02  0.8335537E-01
       -2   -1    0    0    0  501  0.00000000000E+00  0.00000000000E+00  0.16656999987E+04  0.16656999987E+04  0.25500000920E-02 0.  1.
        2   -1    0    0  501    0  0.00000000000E+00  0.00000000000E+00 -0.10928077672E+04  0.10928077672E+04  0.25500000920E-02 0. -1.
    10030    2    1    2    0    0  0.00000000000E+00  0.00000000000E+00  0.57289223151E+03  0.27585077659E+04  0.26983623896E+04 0.  0.
        3    1    3    3  502    0 -0.10780973140E+04  0.68357549503E+03  0.73289603629E+03  0.14719734665E+04  0.10100000352E+00 0.  1.
       -3    1    3    3    0  502  0.10780973140E+04 -0.68357549503E+03 -0.16000380478E+03  0.12865342994E+04  0.10100000352E+00 0. -1.
</event>
<event>
 5   0  0.1991277E-06  0.2757454E+04  0.7818609E-02  0.8316600E-01
        2   -1    0    0  501    0  0.00000000000E+00  0.00000000000E+00  0.18940544431E+04  0.18940544431E+04  0.25500000920E-02 0.  1.
       -2   -1    0    0    0  501  0.00000000000E+00  0.00000000000E+00 -0.10036082594E+04  0.10036082594E+04  0.25500000920E-02 0. -1.
    10030    2    1    2    0    0  0.00000000000E+00  0.00000000000E+00  0.89044618372E+03  0.28976627024E+04  0.27574543933E+04 0.  0.
        5    1    3    3  502    0 -0.46702790822E+02  0.98182012422E+03 -0.57074256056E+03  0.11366270573E+04  0.46999998093E+01 0. -1.
       -5    1    3    3    0  502  0.46702790822E+02 -0.98182012422E+03  0.14611887443E+04  0.17610356451E+04  0.46999998093E+01 0.  1.
</event>
<event>
 5   0  0.7335091E-07  0.2699334E+04  0.7818609E-02  0.8335221E-01
        1   -1    0    0  501    0  0.00000000000E+00  0.00000000000E+00  0.15798187947E+04  0.15798187947E+04  0.50400001928E-02 0. -1.
       -1   -1    0    0    0  501  0.00000000000E+00  0.00000000000E+00 -0.11530439227E+04  0.11530439227E+04  0.50400001928E-02 0.  1.
    10030    2    1    2    0    0  0.00000000000E+00  0.00000000000E+00  0.42677487201E+03  0.27328627174E+04  0.26993335919E+04 0.  0.
        3    1    3    3  502    0  0.10451142932E+03 -0.12182894091E+04 -0.36506645406E+03  0.12760976645E+04  0.10100000352E+00 0.  1.
       -3    1    3    3    0  502 -0.10451142932E+03  0.12182894091E+04  0.79184132608E+03  0.14567650528E+04  0.10100000352E+00 0. -1.
</event>
<event>
 5   0  0.7768032E-07  0.2694134E+04  0.7818609E-02  0.8336911E-01
        1   -1    0    0  501    0  0.00000000000E+00  0.00000000000E+00  0.14056181446E+04  0.14056181446E+04  0.50400001928E-02 0. -1.
       -1   -1    0    0    0  501  0.00000000000E+00  0.00000000000E+00 -0.12909547433E+04  0.12909547433E+04  0.50400001928E-02 0.  1.
    10030    2    1    2    0    0  0.00000000000E+00  0.00000000000E+00  0.11466340131E+03  0.26965728879E+04  0.26941339321E+04 0.  0.
        4    1    3    3  502    0  0.97096026016E+02  0.10915233507E+04  0.84145455453E+03  0.13816288371E+04  0.12699999809E+01 0. -1.
       -4    1    3    3    0  502 -0.97096026016E+02 -0.10915233507E+04 -0.72679115322E+03  0.13149440507E+04  0.12699999809E+01 0.  1.
</event>
<event>
 5   0  0.7436613E-07  0.2701323E+04  0.7818609E-02  0.8334576E-01
        1   -1    0    0  501    0  0.00000000000E+00  0.00000000000E+00  0.24373703472E+04  0.24373703472E+04  0.50400001928E-02 0. -1.
       -1   -1    0    0    0  501  0.00000000000E+00  0.00000000000E+00 -0.74846519480E+03  0.74846519482E+03  0.50400001928E-02 0.  1.
    10030    2    1    2    0    0  0.00000000000E+00  0.00000000000E+00  0.16889051524E+04  0.31858355420E+04  0.27013232844E+04 0.  0.
        2    1    3    3  502    0  0.70953470222E+03  0.12159497067E+02  0.21997942801E+04  0.23114242842E+04  0.25500000920E-02 0. -1.
       -2    1    3    3    0  502 -0.70953470222E+03 -0.12159497067E+02 -0.51088912767E+03  0.87441125782E+03  0.25500000920E-02 0.  1.
</event>
<event>
 5   0  0.1999104E-06  0.2696759E+04  0.7818609E-02  0.8336057E-01
        2   -1    0    0  501    0  0.00000000000E+00  0.00000000000E+00  0.17346211848E+04  0.17346211848E+04  0.25500000920E-02 0. -1.
       -2   -1    0    0    0  501  0.00000000000E+00  0.00000000000E+00 -0.10481405713E+04  0.10481405713E+04  0.25500000920E-02 0.  1.
    10030    2    1    2    0    0  0.00000000000E+00  0.00000000000E+00  0.68648061352E+03  0.27827617562E+04  0.26967586764E+04 0.  0.
        4    1    3    3  502    0 -0.79095881123E+03  0.28355193437E+03 -0.74495628825E+03  0.11229332237E+04  0.12699999809E+01 0.  1.
       -4    1    3    3    0  502  0.79095881123E+03 -0.28355193437E+03  0.14314369018E+04  0.16598285325E+04  0.12699999809E+01 0. -1.
</event>
<event>
 5   0  0.7806808E-07  0.2700203E+04  0.7818609E-02  0.8334939E-01
        1   -1    0    0  501    0  0.00000000000E+00  0.00000000000E+00  0.15678549752E+04  0.15678549752E+04  0.50400001928E-02 0.  1.
       -1   -1    0    0    0  501  0.00000000000E+00  0.00000000000E+00 -0.11625907609E+04  0.11625907609E+04  0.50400001928E-02 0. -1.
    10030    2    1    2    0    0  0.00000000000E+00  0.00000000000E+00  0.40526421433E+03  0.27304457361E+04  0.27002027395E+04 0.  0.
        5    1    3    3  502    0  0.11239517805E+04  0.30350109486E+03 -0.48867035404E+03  0.12626168557E+04  0.46999998093E+01 0. -1.
       -5    1    3    3    0  502 -0.11239517805E+04 -0.30350109486E+03  0.89393456838E+03  0.14678288804E+04  0.46999998093E+01 0.  1.
</event>
<event>
 5   0  0.1991277E-06  0.2696425E+04  0.7818609E-02  0.8336166E-01
       -2   -1    0    0    0  501  0.00000000000E+00  0.00000000000E+00  0.16676157845E+04  0.16676157845E+04  0.25500000920E-02 0. -1.
        2   -1    0    0  501    0  0.00000000000E+00  0.00000000000E+00 -0.10899853493E+04  0.10899853493E+04  0.25500000920E-02 0.  1.
    10030    2    1    2    0    0  0.00000000000E+00  0.00000000000E+00  0.57763043514E+03  0.27576011338E+04  0.26964248726E+04 0.  0.
        5    1    3    3  502    0 -0.63783167264E+03 -0.48508058077E+03  0.13976288459E+04  0.16110620389E+04  0.46999998093E+01 0. -1.
       -5    1    3    3    0  502  0.63783167264E+03  0.48508058077E+03 -0.81999841075E+03  0.11465390949E+04  0.46999998093E+01 0.  1.
</event>
<event>
 5   0  0.7436613E-07  0.2698022E+04  0.7818609E-02  0.8335647E-01
       -1   -1    0    0    0  501  0.00000000000E+00  0.00000000000E+00  0.14264269765E+04  0.14264269765E+04  0.50400001928E-02 0. -1.
        1   -1    0    0  501    0  0.00000000000E+00  0.00000000000E+00 -0.12757964195E+04  0.12757964195E+04  0.50400001928E-02 0.  1.
    10030    2    1    2    0    0  0.00000000000E+00  0.00000000000E+00  0.15063055694E+03  0.27022233960E+04  0.26980218156E+04 0.  0.
        2    1    3    3  502    0 -0.86782206987E+03 -0.94488140533E+03 -0.34236462710E+03  0.13278288869E+04  0.25500000920E-02 0.  1.
       -2    1    3    3    0  502  0.86782206987E+03  0.94488140533E+03  0.49299518404E+03  0.13743945091E+04  0.25500000920E-02 0. -1.
</event>
<event>
 5   0  0.2030645E-06  0.2693705E+04  0.7818609E-02  0.8337050E-01
        2   -1    0    0  501    0  0.00000000000E+00  0.00000000000E+00  0.15349546925E+04  0.15349546925E+04  0.25500000920E-02 0.  1.
       -2   -1    0    0    0  501  0.00000000000E+00  0.00000000000E+00 -0.11818014830E+04  0.11818014830E+04  0.25500000920E-02 0. -1.
    10030    2    1    2    0    0  0.00000000000E+00  0.00000000000E+00  0.35315320950E+03  0.27167561754E+04  0.26937050557E+04 0.  0.
        1    1    3    3  502    0 -0.25850340813E+03 -0.11303519729E+04 -0.51448184754E+03  0.12685468719E+04  0.50400001928E-02 0.  1.
       -1    1    3    3    0  502  0.25850340813E+03  0.11303519729E+04  0.86763505704E+03  0.14482093036E+04  0.50400001928E-02 0. -1.
</event>
<event>
 5   0  0.7806808E-07  0.2715574E+04  0.7818609E-02  0.8329969E-01
       -1   -1    0    0    0  501  0.00000000000E+00  0.00000000000E+00  0.13750158397E+04  0.13750158397E+04  0.50400001928E-02 0.  1.
        1   -1    0    0  501    0  0.00000000000E+00  0.00000000000E+00 -0.13407742956E+04  0.13407742956E+04  0.50400001928E-02 0. -1.
    10030    2    1    2    0    0  0.00000000000E+00  0.00000000000E+00  0.34241544061E+02  0.27157901353E+04  0.27155742626E+04 0.  0.
        5    1    3    3  502    0  0.95513014477E+03  0.96497091784E+03  0.28137007495E+02  0.13580339638E+04  0.46999998093E+01 0. -1.
       -5    1    3    3    0  502 -0.95513014477E+03 -0.96497091784E+03  0.61045365661E+01  0.13577561714E+04  0.46999998093E+01 0.  1.
</event>
<event>
 5   0  0.7436613E-07  0.2702798E+04  0.7818609E-02  0.8334098E-01
        1   -1    0    0  501    0  0.00000000000E+00  0.00000000000E+00  0.16639327002E+04  0.16639327002E+04  0.50400001928E-02 0. -1.
       -1   -1    0    0    0  501  0.00000000000E+00  0.00000000000E+00 -0.10975677208E+04  0.10975677208E+04  0.50400001928E-02 0.  1.
    10030    2    1    2    0    0  0.00000000000E+00  0.00000000000E+00  0.56636497945E+03  0.27615004210E+04  0.27027976775E+04 0.  0.
        2    1    3    3  502    0 -0.11428417129E+04  0.61590184991E+03  0.66664252063E+03  0.14593952583E+04  0.25500000920E-02 0. -1.
       -2    1    3    3    0  502  0.11428417129E+04 -0.61590184991E+03 -0.10027754118E+03  0.13021051627E+04  0.25500000920E-02 0.  1.
</event>
<event>
 5   0  0.1932012E-06  0.2710086E+04  0.7818609E-02  0.8331740E-01
       -2   -1    0    0    0  501  0.00000000000E+00  0.00000000000E+00  0.15728742722E+04  0.15728742722E+04  0.25500000920E-02 0.  1.
        2   -1    0    0  501    0  0.00000000000E+00  0.00000000000E+00 -0.11673795145E+04  0.11673795145E+04  0.25500000920E-02 0. -1.
    10030    2    1    2    0    0  0.00000000000E+00  0.00000000000E+00  0.40549475773E+03  0.27402537867E+04  0.27100857582E+04 0.  0.
        2    1    3    3  502    0  0.15363961960E+03 -0.49367773132E+02  0.15631231995E+04  0.15714313369E+04  0.25500000920E-02 0.  1.
       -2    1    3    3    0  502 -0.15363961960E+03  0.49367773132E+02 -0.11576284418E+04  0.11688224497E+04  0.25500000920E-02 0. -1.
</event>
<event>
 5   0  0.1932012E-06  0.2699483E+04  0.7818609E-02  0.8335173E-01
        2   -1    0    0  501    0  0.00000000000E+00  0.00000000000E+00  0.10750325553E+04  0.10750325553E+04  0.25500000920E-02 0.  1.
       -2   -1    0    0    0  501  0.00000000000E+00  0.00000000000E+00 -0.16946488119E+04  0.16946488119E+04  0.25500000920E-02 0. -1.
    10030    2    1    2    0    0  0.00000000000E+00  0.00000000000E+00 -0.61961625667E+03  0.27696813672E+04  0.26994833895E+04 0.  0.
        2    1    3    3  502    0 -0.10279194667E+04  0.13885988403E+03  0.57630685056E+03  0.11866044342E+04  0.25500000920E-02 0.  1.
       -2    1    3    3    0  502  0.10279194667E+04 -0.13885988403E+03 -0.11959231072E+04  0.15830769330E+04  0.25500000920E-02 0. -1.
</event>
<event>
 5   0  0.1999104E-06  0.2701090E+04  0.7818609E-02  0.8334651E-01
        2   -1    0    0  501    0  0.00000000000E+00  0.00000000000E+00  0.14985728385E+04  0.14985728385E+04  0.25500000920E-02 0.  1.
       -2   -1    0    0    0  501  0.00000000000E+00  0.00000000000E+00 -0.12171395681E+04  0.12171395681E+04  0.25500000920E-02 0. -1.
    10030    2    1    2    0    0  0.00000000000E+00  0.00000000000E+00  0.28143327040E+03  0.27157124067E+04  0.27010903706E+04 0.  0.
        4    1    3    3  502    0 -0.49004168300E+02  0.64471667905E+03  0.13328459630E+04  0.14813983187E+04  0.12699999809E+01 0.  1.
       -4    1    3    3    0  502  0.49004168300E+02 -0.64471667905E+03 -0.10514126926E+04  0.12343140880E+04  0.12699999809E+01 0. -1.
</event>
<event>
 5   0  0.1932012E-06  0.2706798E+04  0.7818609E-02  0.8332803E-01
       -2   -1    0    0    0  501  0.00000000000E+00  0.00000000000E+00  0.11512223554E+04  0.11512223554E+04  0.25500000920E-02 0. -1.
        2   -1    0    0  501    0  0.00000000000E+00  0.00000000000E+00 -0.15910819605E+04  0.15910819605E+04  0.25500000920E-02 0.  1.
    10030    2    1    2    0    0  0.00000000000E+00  0.00000000000E+00 -0.43985960517E+03  0.27423043159E+04  0.27067981987E+04 0.  0.
        2    1    3    3  502    0 -0.28040238061E+03 -0.10909269799E+04 -0.98006628283E+03  0.14930763843E+04  0.25500000920E-02 0.  1.
       -2    1    3    3    0  502  0.28040238061E+03  0.10909269799E+04  0.54020667766E+03  0.12492279316E+04  0.25500000920E-02 0. -1.
</event>
<event>
 5   0  0.1932012E-06  0.2698313E+04  0.7818609E-02  0.8335553E-01
        2   -1    0    0  501    0  0.00000000000E+00  0.00000000000E+00  0.12870125310E+04  0.12870125310E+04  0.25500000920E-02 0.  1.
       -2   -1    0    0    0  501  0.00000000000E+00  0.00000000000E+00 -0.14143010174E+04  0.14143010174E+04  0.25500000920E-02 0. -1.
    10030    2    1    2    0    0  0.00000000000E+00  0.00000000000E+00 -0.12728848647E+03  0.27013135484E+04  0.26983129040E+04 0.  0.
        2    1    3    3  502    0 -0.17621457877E+03 -0.16640543199E+03  0.12650395624E+04  0.12880479183E+04  0.25500000920E-02 0.  1.
       -2    1    3    3    0  502  0.17621457877E+03  0.16640543199E+03 -0.13923280488E+04  0.14132656301E+04  0.25500000920E-02 0. -1.
</event>
<event>
 5   0  0.2063087E-06  0.2699309E+04  0.7818609E-02  0.8335229E-01
       -2   -1    0    0    0  501  0.00000000000E+00  0.00000000000E+00  0.10694751338E+04  0.10694751338E+04  0.25500000920E-02 0.  1.
        2   -1    0    0  501    0  0.00000000000E+00  0.00000000000E+00 -0.17032348779E+04  0.17032348779E+04  0.25500000920E-02 0. -1.
    10030    2    1    2    0    0  0.00000000000E+00  0.00000000000E+00 -0.63375974414E+03  0.27727100117E+04  0.26993090590E+04 0.  0.
        3    1    3    3  502    0  0.21066359707E+03  0.10976452238E+04 -0.10939991293E+04  0.15639815516E+04  0.10100000352E+00 0. -1.
       -3    1    3    3    0  502 -0.21066359707E+03 -0.10976452238E+04  0.46023938520E+03  0.12087284602E+04  0.10100000352E+00 0.  1.
</event>
<event>
 5   0  0.7768032E-07  0.2623801E+04  0.7818609E-02  0.8360161E-01
        1   -1    0    0  501    0  0.00000000000E+00  0.00000000000E+00  0.16140532733E+04  0.16140532733E+04  0.50400001928E-02 0. -1.
       -1   -1    0    0    0  501  0.00000000000E+00  0.00000000000E+00 -0.10663113966E+04  0.10663113966E+04  0.50400001928E-02 0.  1.
    10030    2    1    2    0    0  0.00000000000E+00  0.00000000000E+00  0.54774187670E+03  0.26803646698E+04  0.26238013644E+04 0.  0.
        4    1    3    3  502    0 -0.86049980296E+03  0.44395725436E+03  0.11781220196E+04  0.15249691999E+04  0.12699999809E+01 0. -1.
       -4    1    3    3    0  502  0.86049980296E+03 -0.44395725436E+03 -0.63038014289E+03  0.11553954700E+04  0.12699999809E+01 0.  1.
</event>
<event>
 5   0  0.7566905E-07  0.2697995E+04  0.7818609E-02  0.8335656E-01
        1   -1    0    0  501    0  0.00000000000E+00  0.00000000000E+00  0.23797065449E+04  0.23797065449E+04  0.50400001928E-02 0. -1.
       -1   -1    0    0    0  501  0.00000000000E+00  0.00000000000E+00 -0.76471379503E+03  0.76471379505E+03  0.50400001928E-02 0.  1.
    10030    2    1    2    0    0  0.00000000000E+00  0.00000000000E+00  0.16149927498E+04  0.31444203399E+04  0.26979951246E+04 0.  0.
        1    1    3    3  502    0  0.13477528820E+04  0.50447017298E+02  0.77429204751E+03  0.15551562324E+04  0.50400001928E-02 0.  1.
       -1    1    3    3    0  502 -0.13477528820E+04 -0.50447017298E+02  0.84070070233E+03  0.15892641075E+04  0.50400001928E-02 0. -1.
</event>
<event>
 5   0  0.7335091E-07  0.2693697E+04  0.7818609E-02  0.8337053E-01
        1   -1    0    0  501    0  0.00000000000E+00  0.00000000000E+00  0.18796613032E+04  0.18796613032E+04  0.50400001928E-02 0. -1.
       -1   -1    0    0    0  501  0.00000000000E+00  0.00000000000E+00 -0.96506825763E+03  0.96506825764E+03  0.50400001928E-02 0.  1.
    10030    2    1    2    0    0  0.00000000000E+00  0.00000000000E+00  0.91459304556E+03  0.28447295608E+04  0.26936974283E+04 0.  0.
        3    1    3    3  502    0  0.13100727598E+04 -0.73125663825E+02  0.13634292582E+03  0.13191767896E+04  0.10100000352E+00 0.  1.
       -3    1    3    3    0  502 -0.13100727598E+04  0.73125663825E+02  0.77825011974E+03  0.15255527712E+04  0.10100000352E+00 0. -1.
</event>
<event>
 5   0  0.7436613E-07  0.2645616E+04  0.7818609E-02  0.8352870E-01
        1   -1    0    0  501    0  0.00000000000E+00  0.00000000000E+00  0.11205928541E+04  0.11205928541E+04  0.50400001928E-02 0.  1.
       -1   -1    0    0    0  501  0.00000000000E+00  0.00000000000E+00 -0.15615135003E+04  0.15615135003E+04  0.50400001928E-02 0. -1.
    10030    2    1    2    0    0  0.00000000000E+00  0.00000000000E+00 -0.44092064613E+03  0.26821063544E+04  0.26456158981E+04 0.  0.
        2    1    3    3  502    0  0.10523342345E+03 -0.12795010303E+04 -0.54364231530E+03  0.13941821714E+04  0.25500000920E-02 0. -1.
       -2    1    3    3    0  502 -0.10523342345E+03  0.12795010303E+04  0.10272166917E+03  0.12879241830E+04  0.25500000920E-02 0.  1.
</event>
<event>
 5   0  0.7335091E-07  0.2696413E+04  0.7818609E-02  0.8336170E-01
        1   -1    0    0  501    0  0.00000000000E+00  0.00000000000E+00  0.14764693350E+04  0.14764693350E+04  0.50400001928E-02 0. -1.
       -1   -1    0    0    0  501  0.00000000000E+00  0.00000000000E+00 -0.12310858262E+04  0.12310858262E+04  0.50400001928E-02 0.  1.
    10030    2    1    2    0    0  0.00000000000E+00  0.00000000000E+00  0.24538350886E+03  0.27075551612E+04  0.26964127808E+04 0.  0.
        3    1    3    3  502    0  0.10946896167E+04  0.54398350754E+03  0.69372180245E+03  0.14055295666E+04  0.10100000352E+00 0. -1.
       -3    1    3    3    0  502 -0.10946896167E+04 -0.54398350754E+03 -0.44833829359E+03  0.13020255946E+04  0.10100000352E+00 0.  1.
</event>
<event>
 5   0  0.1999104E-06  0.2718816E+04  0.7818609E-02  0.8328926E-01
       -2   -1    0    0    0  501  0.00000000000E+00  0.00000000000E+00  0.12221297467E+04  0.12221297467E+04  0.25500000920E-02 0.  1.
        2   -1    0    0  501    0  0.00000000000E+00  0.00000000000E+00 -0.15121064459E+04  0.15121064459E+04  0.25500000920E-02 0. -1.
    10030    2    1    2    0    0  0.00000000000E+00  0.00000000000E+00 -0.28997669924E+03  0.27342361926E+04  0.27188161156E+04 0.  0.
        4    1    3    3  502    0  0.11135574166E+04  0.92743252221E+02  0.63359714815E+03  0.12845459859E+04  0.12699999809E+01 0.  1.
       -4    1    3    3    0  502 -0.11135574166E+04 -0.92743252221E+02 -0.92357384738E+03  0.14496902067E+04  0.12699999809E+01 0. -1.
</event>
<event>
 5   0  0.1999104E-06  0.2714266E+04  0.7818609E-02  0.8330391E-01
       -2   -1    0    0    0  501  0.00000000000E+00  0.00000000000E+00  0.77343793758E+03  0.77343793758E+03  0.25500000920E-02 0.  1.
        2   -1    0    0  501    0  0.00000000000E+00  0.00000000000E+00 -0.23813286661E+04  0.23813286661E+04  0.25500000920E-02 0. -1.
    10030    2    1    2    0    0  0.00000000000E+00  0.00000000000E+00 -0.16078907286E+04  0.31547666037E+04  0.27142659650E+04 0.  0.
        4    1    3    3  502    0  0.95220249564E+03  0.80561042254E+03 -0.14256466820E+04  0.18942459768E+04  0.12699999809E+01 0. -1.
       -4    1    3    3    0  502 -0.95220249564E+03 -0.80561042254E+03 -0.18224404655E+03  0.12605206270E+04  0.12699999809E+01 0.  1.
</event>
<event>
 5   0  0.1932012E-06  0.2693051E+04  0.7818609E-02  0.8337263E-01
       -2   -1    0    0    0  501  0.00000000000E+00  0.00000000000E+00  0.10766513217E+04  0.10766513217E+04  0.25500000920E-02 0.  1.
        2   -1    0    0  501    0  0.00000000000E+00  0.00000000000E+00 -0.16840468339E+04  0.16840468339E+04  0.25500000920E-02 0. -1.
    10030    2    1    2    0    0  0.00000000000E+00  0.00000000000E+00 -0.60739551217E+03  0.27606981556E+04  0.26930512431E+04 0.  0.
        2    1    3    3  502    0  0.81166316806E+03 -0.10522504081E+04 -0.52618220033E+03  0.14292990337E+04  0.25500000920E-02 0. -1.
       -2    1    3    3    0  502 -0.81166316806E+03  0.10522504081E+04 -0.81213311842E+02  0.13313991219E+04  0.25500000920E-02 0.  1.
</event>
<event>
 5   0  0.6561875E-07  0.2749144E+04  0.7818609E-02  0.8319233E-01
       -3   -1    0    0    0  501  0.00000000000E+00  0.00000000000E+00  0.14154624194E+04  0.14154624230E+04  0.10100000352E+00 0. -1.
        3   -1    0    0  501    0  0.00000000000E+00  0.00000000000E+00 -0.13348625682E+04  0.13348625721E+04  0.10100000352E+00 0.  1.
    10030    2    1    2    0    0  0.00000000000E+00  0.00000000000E+00  0.80599851164E+02  0.27503249950E+04  0.27491437289E+04 0.  0.
        3    1    3    3  502    0 -0.82234024191E+03 -0.10661912602E+04  0.31689751847E+03  0.13832683486E+04  0.10100000352E+00 0.  1.
       -3    1    3    3    0  502  0.82234024191E+03  0.10661912602E+04 -0.23629766731E+03  0.13670566464E+04  0.10100000352E+00 0. -1.
</event>
<event>
 5   0  0.7768032E-07  0.2710282E+04  0.7818609E-02  0.8331676E-01
       -1   -1    0    0    0  501  0.00000000000E+00  0.00000000000E+00  0.13623993412E+04  0.13623993412E+04  0.50400001928E-02 0. -1.
        1   -1    0    0  501    0  0.00000000000E+00  0.00000000000E+00 -0.13479217414E+04  0.13479217414E+04  0.50400001928E-02 0.  1.
    10030    2    1    2    0    0  0.00000000000E+00  0.00000000000E+00  0.14477599778E+02  0.27103210825E+04  0.27102824151E+04 0.  0.
        4    1    3    3  502    0  0.97290965846E+03 -0.90699501511E+03  0.26649704258E+03  0.13565454093E+04  0.12699999809E+01 0. -1.
       -4    1    3    3    0  502 -0.97290965846E+03  0.90699501511E+03 -0.25201944280E+03  0.13537756732E+04  0.12699999809E+01 0.  1.
</event>
<event>
 5   0  0.7335091E-07  0.2684230E+04  0.7818609E-02  0.8340140E-01
        1   -1    0    0  501    0  0.00000000000E+00  0.00000000000E+00  0.11825902921E+04  0.11825902921E+04  0.50400001928E-02 0. -1.
       -1   -1    0    0    0  501  0.00000000000E+00  0.00000000000E+00 -0.15231585328E+04  0.15231585328E+04  0.50400001928E-02 0.  1.
    10030    2    1    2    0    0  0.00000000000E+00  0.00000000000E+00 -0.34056824064E+03  0.27057488249E+04  0.26842298667E+04 0.  0.
        3    1    3    3  502    0 -0.42647473438E+03 -0.75474024784E+03 -0.12030754083E+04  0.14828701861E+04  0.10100000352E+00 0.  1.
       -3    1    3    3    0  502  0.42647473438E+03  0.75474024784E+03  0.86250716763E+03  0.12228786388E+04  0.10100000352E+00 0. -1.
</event>
<event>
 5   0  0.7768032E-07  0.2684583E+04  0.7818609E-02  0.8340024E-01
       -1   -1    0    0    0  501  0.00000000000E+00  0.00000000000E+00  0.10750039322E+04  0.10750039322E+04  0.50400001928E-02 0. -1.
        1   -1    0    0  501    0  0.00000000000E+00  0.00000000000E+00 -0.16760375743E+04  0.16760375743E+04  0.50400001928E-02 0.  1.
    10030    2    1    2    0    0  0.00000000000E+00  0.00000000000E+00 -0.60103364209E+03  0.27510415064E+04  0.26845833813E+04 0.  0.
        4    1    3    3  502    0 -0.83299015376E+03 -0.10286757064E+04 -0.72065142335E+02  0.13256097853E+04  0.12699999809E+01 0. -1.
       -4    1    3    3    0  502  0.83299015376E+03  0.10286757064E+04 -0.52896849975E+03  0.14254317212E+04  0.12699999809E+01 0.  1.
</event>
<event>
 5   0  0.7768032E-07  0.2696147E+04  0.7818609E-02  0.8336256E-01
       -1   -1    0    0    0  501  0.00000000000E+00  0.00000000000E+00  0.23664643963E+04  0.23664643963E+04  0.50400001928E-02 0. -1.
        1   -1    0    0  501    0  0.00000000000E+00  0.00000000000E+00 -0.76794005576E+03  0.76794005578E+03  0.50400001928E-02 0.  1.
    10030    2    1    2    0    0  0.00000000000E+00  0.00000000000E+00  0.15985243405E+04  0.31344044521E+04  0.26961474741E+04 0.  0.
        4    1    3    3  502    0  0.11415035379E+04 -0.69029277457E+03  0.10251881505E+04  0.16824228953E+04  0.12699999809E+01 0. -1.
       -4    1    3    3    0  502 -0.11415035379E+04  0.69029277457E+03  0.57333618998E+03  0.14519815568E+04  0.12699999809E+01 0.  1.
</event>
<event>
 5   0  0.2030645E-06  0.2702619E+04  0.7818609E-02  0.8334156E-01
       -2   -1    0    0    0  501  0.00000000000E+00  0.00000000000E+00  0.11655306174E+04  0.11655306174E+04  0.25500000920E-02 0. -1.
        2   -1    0    0  501    0  0.00000000000E+00  0.00000000000E+00 -0.15667000707E+04  0.15667000707E+04  0.25500000920E-02 0.  1.
    10030    2    1    2    0    0  0.00000000000E+00  0.00000000000E+00 -0.40116945324E+03  0.27322306881E+04  0.27026186566E+04 0.  0.
        1    1    3    3  502    0  0.58307114615E+03  0.67399092018E+03  0.82632106772E+03  0.12153362617E+04  0.50400001928E-02 0. -1.
       -1    1    3    3    0  502 -0.58307114615E+03 -0.67399092018E+03 -0.12274905210E+04  0.15168944265E+04  0.50400001928E-02 0.  1.
</event>
<event>
 5   0  0.1932012E-06  0.2696048E+04  0.7818609E-02  0.8336289E-01
       -2   -1    0    0    0  501  0.00000000000E+00  0.00000000000E+00  0.95790936600E+03  0.95790936600E+03  0.25500000920E-02 0. -1.
        2   -1    0    0  501    0  0.00000000000E+00  0.00000000000E+00 -0.18970147644E+04  0.18970147644E+04  0.25500000920E-02 0.  1.
    10030    2    1    2    0    0  0.00000000000E+00  0.00000000000E+00 -0.93910539842E+03  0.28549241304E+04  0.26960476333E+04 0.  0.
        2    1    3    3  502    0 -0.10602950740E+04 -0.82448719550E+03 -0.59104578361E+03  0.14674262836E+04  0.25500000920E-02 0.  1.
       -2    1    3    3    0  502  0.10602950740E+04  0.82448719550E+03 -0.34805961481E+03  0.13874978468E+04  0.25500000920E-02 0. -1.
</event>
<event>
 5   0  0.2063087E-06  0.2698665E+04  0.7818609E-02  0.8335438E-01
        2   -1    0    0  501    0  0.00000000000E+00  0.00000000000E+00  0.14238033692E+04  0.14238033692E+04  0.25500000920E-02 0. -1.
       -2   -1    0    0    0  501  0.00000000000E+00  0.00000000000E+00 -0.12787570298E+04  0.12787570298E+04  0.25500000920E-02 0.  1.
    10030    2    1    2    0    0  0.00000000000E+00  0.00000000000E+00  0.14504633938E+03  0.27025603990E+04  0.26986652756E+04 0.  0.
        3    1    3    3  502    0 -0.10470229726E+04 -0.39091400138E+03  0.82967507395E+03  0.13919165206E+04  0.10100000352E+00 0. -1.
       -3    1    3    3    0  502  0.10470229726E+04  0.39091400138E+03 -0.68462873457E+03  0.13106438784E+04  0.10100000352E+00 0.  1.
</event>
<event>
 5   0  0.1991277E-06  0.2706731E+04  0.7818609E-02  0.8332824E-01
        2   -1    0    0  501    0  0.00000000000E+00  0.00000000000E+00  0.10986800664E+04  0.10986800664E+04  0.25500000920E-02 0.  1.
       -2   -1    0    0    0  501  0.00000000000E+00  0.00000000000E+00 -0.16670902704E+04  0.16670902704E+04  0.25500000920E-02 0. -1.
    10030    2    1    2    0    0  0.00000000000E+00  0.00000000000E+00 -0.56841020403E+03  0.27657703368E+04  0.27067314968E+04 0.  0.
        5    1    3    3  502    0  0.80586200095E+03 -0.10178879064E+04 -0.67472898032E+03  0.14631440946E+04  0.46999998093E+01 0. -1.
       -5    1    3    3    0  502 -0.80586200095E+03  0.10178879064E+04  0.10631877629E+03  0.13026262422E+04  0.46999998093E+01 0.  1.
</event>
<event>
 5   0  0.7806808E-07  0.2700993E+04  0.7818609E-02  0.8334683E-01
        1   -1    0    0  501    0  0.00000000000E+00  0.00000000000E+00  0.16254632705E+04  0.16254632705E+04  0.50400001928E-02 0. -1.
       -1   -1    0    0    0  501  0.00000000000E+00  0.00000000000E+00 -0.11220436254E+04  0.11220436254E+04  0.50400001928E-02 0.  1.
    10030    2    1    2    0    0  0.00000000000E+00  0.00000000000E+00  0.50341964509E+03  0.27475068959E+04  0.27009929292E+04 0.  0.
        5    1    3    3  502    0  0.36752173344E+03 -0.34381299750E+03 -0.10230832882E+04  0.11401759103E+04  0.46999998093E+01 0.  1.
       -5    1    3    3    0  502 -0.36752173344E+03  0.34381299750E+03  0.15265029333E+04  0.16073309856E+04  0.46999998093E+01 0. -1.
</event>
<event>
 5   0  0.7436613E-07  0.2699993E+04  0.7818609E-02  0.8335007E-01
       -1   -1    0    0    0  501  0.00000000000E+00  0.00000000000E+00  0.92529760051E+03  0.92529760052E+03  0.50400001928E-02 0. -1.
        1   -1    0    0  501    0  0.00000000000E+00  0.00000000000E+00 -0.19696262263E+04  0.19696262263E+04  0.50400001928E-02 0.  1.
    10030    2    1    2    0    0  0.00000000000E+00  0.00000000000E+00 -0.10443286258E+04  0.28949238269E+04  0.26999929046E+04 0.  0.
        2    1    3    3  502    0 -0.25103211679E+02 -0.11708656390E+04  0.19783314539E+03  0.11877265970E+04  0.25500000920E-02 0.  1.
       -2    1    3    3    0  502  0.25103211679E+02  0.11708656390E+04 -0.12421617712E+04  0.17071972299E+04  0.25500000920E-02 0. -1.
</event>
<event>
 5   0  0.7806808E-07  0.2698344E+04  0.7818609E-02  0.8335543E-01
       -1   -1    0    0    0  501  0.00000000000E+00  0.00000000000E+00  0.11491300344E+04  0.11491300344E+04  0.50400001928E-02 0.  1.
        1   -1    0    0  501    0  0.00000000000E+00  0.00000000000E+00 -0.15840370787E+04  0.15840370787E+04  0.50400001928E-02 0. -1.
    10030    2    1    2    0    0  0.00000000000E+00  0.00000000000E+00 -0.43490704435E+03  0.27331671131E+04  0.26983436273E+04 0.  0.
        5    1    3    3  502    0  0.33710250632E+03 -0.11742104276E+04  0.36250388938E+03  0.12742995676E+04  0.46999998093E+01 0.  1.
       -5    1    3    3    0  502 -0.33710250632E+03  0.11742104276E+04 -0.79741093373E+03  0.14588675455E+04  0.46999998093E+01 0. -1.
</event>
<event>
 5   0  0.1932012E-06  0.2703745E+04  0.7818609E-02  0.8333791E-01
        2   -1    0    0  501    0  0.00000000000E+00  0.00000000000E+00  0.18967867653E+04  0.18967867653E+04  0.25500000920E-02 0. -1.
       -2   -1    0    0    0  501  0.00000000000E+00  0.00000000000E+00 -0.96350307238E+03  0.96350307238E+03  0.25500000920E-02 0.  1.
    10030    2    1    2    0    0  0.00000000000E+00  0.00000000000E+00  0.93328369295E+03  0.28602898377E+04  0.27037454585E+04 0.  0.
        2    1    3    3  502    0  0.29695148948E+03 -0.60434871699E+03  0.17067515256E+04  0.18347801854E+04  0.25500000920E-02 0. -1.
       -2    1    3    3    0  502 -0.29695148948E+03  0.60434871699E+03 -0.77346783261E+03  0.10255096523E+04  0.25500000920E-02 0.  1.
</event>
<event>
 5   0  0.2030645E-06  0.2694382E+04  0.7818609E-02  0.8336830E-01
       -2   -1    0    0    0  501  0.00000000000E+00  0.00000000000E+00  0.10179855031E+04  0.10179855032E+04  0.25500000920E-02 0.  1.
        2   -1    0    0  501    0  0.00000000000E+00  0.00000000000E+00 -0.17828581392E+04  0.17828581392E+04  0.25500000920E-02 0. -1.
    10030    2    1    2    0    0  0.00000000000E+00  0.00000000000E+00 -0.76487263610E+03  0.28008436424E+04  0.26943821109E+04 0.  0.
        1    1    3    3  502    0 -0.11754084163E+04  0.34660934279E+03 -0.96419259910E+03  0.15592916180E+04  0.50400001928E-02 0. -1.
       -1    1    3    3    0  502  0.11754084163E+04 -0.34660934279E+03  0.19931996300E+03  0.12415520244E+04  0.50400001928E-02 0.  1.
</event>
<event>
 5   0  0.2030645E-06  0.2696971E+04  0.7818609E-02  0.8335988E-01
        2   -1    0    0  501    0  0.00000000000E+00  0.00000000000E+00  0.20192104912E+04  0.20192104912E+04  0.25500000920E-02 0.  1.
       -2   -1    0    0    0  501  0.00000000000E+00  0.00000000000E+00 -0.90055652685E+03  0.90055652685E+03  0.25500000920E-02 0. -1.
    10030    2    1    2    0    0  0.00000000000E+00  0.00000000000E+00  0.11186539643E+04  0.29197670181E+04  0.26969710321E+04 0.  0.
        1    1    3    3  502    0  0.63267411872E+03  0.66773765808E+02 -0.72787634207E+03  0.96671570054E+03  0.50400001928E-02 0. -1.
       -1    1    3    3    0  502 -0.63267411872E+03 -0.66773765808E+02  0.18465303064E+04  0.19530513175E+04  0.50400001928E-02 0.  1.
</event>
<event>
 5   0  0.2063087E-06  0.2703872E+04  0.7818609E-02  0.8333750E-01
       -2   -1    0    0    0  501  0.00000000000E+00  0.00000000000E+00  0.11262011571E+04  0.11262011571E+04  0.25500000920E-02 0.  1.
        2   -1    0    0  501    0  0.00000000000E+00  0.00000000000E+00 -0.16229170452E+04  0.16229170453E+04  0.25500000920E-02 0. -1.
    10030    2    1    2    0    0  0.00000000000E+00  0.00000000000E+00 -0.49671588816E+03  0.27491182023E+04  0.27038720785E+04 0.  0.
        3    1    3    3  502    0 -0.73297816753E+02 -0.12368068266E+04  0.30168222670E+03  0.12751768004E+04  0.10100000352E+00 0.  1.
       -3    1    3    3    0  502  0.73297816753E+02  0.12368068266E+04 -0.79839811486E+03  0.14739414019E+04  0.10100000352E+00 0. -1.
</event>
<event>
 5   0  0.7768032E-07  0.2693065E+04  0.7818609E-02  0.8337259E-01
       -1   -1    0    0    0  501  0.00000000000E+00  0.00000000000E+00  0.11805365921E+04  0.11805365921E+04  0.50400001928E-02 0.  1.
        1   -1    0    0  501    0  0.00000000000E+00  0.00000000000E+00 -0.15358693465E+04  0.15358693465E+04  0.50400001928E-02 0. -1.
    10030    2    1    2    0    0  0.00000000000E+00  0.00000000000E+00 -0.35533275446E+03  0.27164059386E+04  0.26930651416E+04 0.  0.
        4    1    3    3  502    0 -0.50757856220E+03 -0.12358382825E+04 -0.34709869782E+03  0.13803663921E+04  0.12699999809E+01 0. -1.
       -4    1    3    3    0  502  0.50757856220E+03  0.12358382825E+04 -0.82340566407E+01  0.13360395466E+04  0.12699999809E+01 0.  1.
</event>
<event>
 5   0  0.2063087E-06  0.2715336E+04  0.7818609E-02  0.8330046E-01
       -2   -1    0    0    0  501  0.00000000000E+00  0.00000000000E+00  0.12983203437E+04  0.12983203437E+04  0.25500000920E-02 0. -1.
        2   -1    0    0  501    0  0.00000000000E+00  0.00000000000E+00 -0.14197287353E+04  0.14197287353E+04  0.25500000920E-02 0.  1.
    10030    2    1    2    0    0  0.00000000000E+00  0.00000000000E+00 -0.12140839157E+03  0.27180490790E+04  0.27153362220E+04 0.  0.
        3    1    3    3  502    0 -0.74366745924E+03 -0.10689280316E+04 -0.44529406704E+03  0.13762031983E+04  0.10100000352E+00 0. -1.
       -3    1    3    3    0  502  0.74366745924E+03  0.10689280316E+04  0.32388567547E+03  0.13418458807E+04  0.10100000352E+00 0.  1.
</event>
<event>
 5   0  0.7436613E-07  0.2708769E+04  0.7818609E-02  0.8332165E-01
        1   -1    0    0  501    0  0.00000000000E+00  0.00000000000E+00  0.25809898463E+04  0.25809898463E+04  0.50400001928E-02 0.  1.
       -1   -1    0    0    0  501  0.00000000000E+00  0.00000000000E+00 -0.71071871098E+03  0.71071871100E+03  0.50400001928E-02 0. -1.
    10030    2    1    2    0    0  0.00000000000E+00  0.00000000000E+00  0.18702711353E+04  0.32917085573E+04  0.27087692974E+04 0.  0.
        2    1    3    3  502    0  0.78116060852E+03  0.48605992319E+03  0.21429605590E+04  0.23321119404E+04  0.25500000920E-02 0.  1.
       -2    1    3    3    0  502 -0.78116060852E+03 -0.48605992319E+03 -0.27268942371E+03  0.95959661684E+03  0.25500000920E-02 0. -1.
</event>
<event>
 5   0  0.7436613E-07  0.2702979E+04  0.7818609E-02  0.8334039E-01
        1   -1    0    0  501    0  0.00000000000E+00  0.00000000000E+00  0.23923507984E+04  0.23923507985E+04  0.50400001928E-02 0. -1.
       -1   -1    0    0    0  501  0.00000000000E+00  0.00000000000E+00 -0.76348474646E+03  0.76348474648E+03  0.50400001928E-02 0.  1.
    10030    2    1    2    0    0  0.00000000000E+00  0.00000000000E+00  0.16288660520E+04  0.31558355449E+04  0.27029786110E+04 0.  0.
        2    1    3    3  502    0 -0.52776667120E+03 -0.39319405519E+03 -0.56375090671E+03  0.86657619924E+03  0.25500000920E-02 0.  1.
       -2    1    3    3    0  502  0.52776667120E+03  0.39319405519E+03  0.21926169587E+04  0.22892593457E+04  0.25500000920E-02 0. -1.
</event>
<event>
 5   0  0.2063087E-06  0.2701143E+04  0.7818609E-02  0.8334634E-01
       -2   -1    0    0    0  501  0.00000000000E+00  0.00000000000E+00  0.18521670598E+04  0.18521670598E+04  0.25500000920E-02 0.  1.
        2   -1    0    0  501    0  0.00000000000E+00  0.00000000000E+00 -0.98481615145E+03  0.98481615145E+03  0.25500000920E-02 0. -1.
    10030    2    1    2    0    0  0.00000000000E+00  0.00000000000E+00  0.86735090836E+03  0.28369832113E+04  0.27011434880E+04 0.  0.
        3    1    3    3  502    0  0.98776676149E+03 -0.29676863286E+03 -0.48212009734E+03  0.11385054216E+04  0.10100000352E+00 0. -1.
       -3    1    3    3    0  502 -0.98776676149E+03  0.29676863286E+03  0.13494710057E+04  0.16984777897E+04  0.10100000352E+00 0.  1.
</event>
<event>
 5   0  0.7436613E-07  0.2715682E+04  0.7818609E-02  0.8329934E-01
       -1   -1    0    0    0  501  0.00000000000E+00  0.00000000000E+00  0.94564685939E+03  0.94564685940E+03  0.50400001928E-02 0.  1.
        1   -1    0    0  501    0  0.00000000000E+00  0.00000000000E+00 -0.19497052195E+04  0.19497052195E+04  0.50400001928E-02 0. -1.
    10030    2    1    2    0    0  0.00000000000E+00  0.00000000000E+00 -0.10040583601E+04  0.28953520789E+04  0.27156823213E+04 0.  0.
        2    1    3    3  502    0 -0.77828548689E+03 -0.62097582308E+03 -0.14863630802E+04  0.17890261256E+04  0.25500000920E-02 0. -1.
       -2    1    3    3    0  502  0.77828548689E+03  0.62097582308E+03  0.48230472007E+03  0.11063259533E+04  0.25500000920E-02 0.  1.
</event>
<event>
 5   0  0.7436613E-07  0.2699671E+04  0.7818609E-02  0.8335112E-01
        1   -1    0    0  501    0  0.00000000000E+00  0.00000000000E+00  0.21936464848E+04  0.21936464848E+04  0.50400001928E-02 0.  1.
       -1   -1    0    0    0  501  0.00000000000E+00  0.00000000000E+00 -0.83060610198E+03  0.83060610199E+03  0.50400001928E-02 0. -1.
    10030    2    1    2    0    0  0.00000000000E+00  0.00000000000E+00  0.13630403829E+04  0.30242525868E+04  0.26996712066E+04 0.  0.
        2    1    3    3  502    0  0.26799732936E+03  0.95492979437E+03 -0.34417418234E+03  0.10498425351E+04  0.25500000920E-02 0. -1.
       -2    1    3    3    0  502 -0.26799732936E+03 -0.95492979437E+03  0.17072145652E+04  0.19744100517E+04  0.25500000920E-02 0.  1.
</event>
<event>
 5   0  0.6561875E-07  0.2699448E+04  0.7818609E-02  0.8335184E-01
        3   -1    0    0  501    0  0.00000000000E+00  0.00000000000E+00  0.13870424847E+04  0.13870424884E+04  0.10100000352E+00 0. -1.
       -3   -1    0    0    0  501  0.00000000000E+00  0.00000000000E+00 -0.13134099292E+04  0.13134099331E+04  0.10100000352E+00 0.  1.
    10030    2    1    2    0    0  0.00000000000E+00  0.00000000000E+00  0.73632555449E+02  0.27004524215E+04  0.26994483747E+04 0.  0.
        2    1    3    3  502    0 -0.11537693900E+04  0.68898856664E+03  0.16282475584E+03  0.13536620522E+04  0.25500000920E-02 0.  1.
       -2    1    3    3    0  502  0.11537693900E+04 -0.68898856664E+03 -0.89192200396E+02  0.13467903693E+04  0.25500000920E-02 0. -1.
</event>
<event>
 5   0  0.1932012E-06  0.2698519E+04  0.7818609E-02  0.8335486E-01
        2   -1    0    0  501    0  0.00000000000E+00  0.00000000000E+00  0.10047346112E+04  0.10047346112E+04  0.25500000920E-02 0.  1.
       -2   -1    0    0    0  501  0.00000000000E+00  0.00000000000E+00 -0.18119221437E+04  0.18119221437E+04  0.25500000920E-02 0. -1.
    10030    2    1    2    0    0  0.00000000000E+00  0.00000000000E+00 -0.80718753241E+03  0.28166567549E+04  0.26985187719E+04 0.  0.
        2    1    3    3  502    0  0.12962359765E+04  0.37388019303E+03 -0.42662287132E+03  0.14149279770E+04  0.25500000920E-02 0.  1.
       -2    1    3    3    0  502 -0.12962359765E+04 -0.37388019303E+03 -0.38056466110E+03  0.14017287779E+04  0.25500000920E-02 0. -1.
</event>
<event>
 5   0  0.1932012E-06  0.2691376E+04  0.7818609E-02  0.8337808E-01
       -2   -1    0    0    0  501  0.00000000000E+00  0.00000000000E+00  0.81902417911E+03  0.81902417911E+03  0.25500000920E-02 0. -1.
        2   -1    0    0  501    0  0.00000000000E+00  0.00000000000E+00 -0.22110174908E+04  0.22110174908E+04  0.25500000920E-02 0.  1.
    10030    2    1    2    0    0  0.00000000000E+00  0.00000000000E+00 -0.13919933117E+04  0.30300416699E+04  0.26913764400E+04 0.  0.
        2    1    3    3  502    0 -0.10536591706E+04  0.66067337445E+03 -0.12746683008E+04  0.17808610930E+04  0.25500000920E-02 0.  1.
       -2    1    3    3    0  502  0.10536591706E+04 -0.66067337445E+03 -0.11732501087E+03  0.12491805769E+04  0.25500000920E-02 0. -1.
</event>
<event>
 5   0  0.7335091E-07  0.2700073E+04  0.7818609E-02  0.8334981E-01
        1   -1    0    0  501    0  0.00000000000E+00  0.00000000000E+00  0.12466369537E+04  0.12466369537E+04  0.50400001928E-02 0.  1.
       -1   -1    0    0    0  501  0.00000000000E+00  0.00000000000E+00 -0.14620123651E+04  0.14620123651E+04  0.50400001928E-02 0. -1.
    10030    2    1    2    0    0  0.00000000000E+00  0.00000000000E+00 -0.21537541134E+03  0.27086493188E+04  0.27000730665E+04 0.  0.
        3    1    3    3  502    0 -0.96589762939E+03 -0.56977869910E+03  0.64635971401E+03  0.12943673692E+04  0.10100000352E+00 0.  1.
       -3    1    3    3    0  502  0.96589762939E+03  0.56977869910E+03 -0.86173512535E+03  0.14142819496E+04  0.10100000352E+00 0. -1.
</event>
<event>
 5   0  0.1999104E-06  0.2698938E+04  0.7818609E-02  0.8335350E-01
        2   -1    0    0  501    0  0.00000000000E+00  0.00000000000E+00  0.16763030185E+04  0.16763030185E+04  0.25500000920E-02 0. -1.
       -2   -1    0    0    0  501  0.00000000000E+00  0.00000000000E+00 -0.10863588237E+04  0.10863588237E+04  0.25500000920E-02 0.  1.
    10030    2    1    2    0    0  0.00000000000E+00  0.00000000000E+00  0.58994419479E+03  0.27626618423E+04  0.26989379952E+04 0.  0.
        4    1    3    3  502    0 -0.11729797220E+04  0.42739486821E+03  0.81943366822E+03  0.14933254673E+04  0.12699999809E+01 0. -1.
       -4    1    3    3    0  502  0.11729797220E+04 -0.42739486821E+03 -0.22948947343E+03  0.12693363750E+04  0.12699999809E+01 0.  1.
</event>
<event>
 5   0  0.7566905E-07  0.2696021E+04  0.7818609E-02  0.8336297E-01
        1   -1    0    0  501    0  0.00000000000E+00  0.00000000000E+00  0.14715604906E+04  0.14715604906E+04  0.50400001928E-02 0. -1.
       -1   -1    0    0    0  501  0.00000000000E+00  0.00000000000E+00 -0.12348331409E+04  0.12348331410E+04  0.50400001928E-02 0.  1.
    10030    2    1    2    0    0  0.00000000000E+00  0.00000000000E+00  0.23672734961E+03  0.27063936315E+04  0.26960205212E+04 0.  0.
        1    1    3    3  502    0 -0.98159432113E+03  0.86321336877E+03  0.44897402538E+03  0.13821151930E+04  0.50400001928E-02 0. -1.
       -1    1    3    3    0  502  0.98159432113E+03 -0.86321336877E+03 -0.21224667577E+03  0.13242784385E+04  0.50400001928E-02 0.  1.
</event>
<event>
 5   0  0.1932012E-06  0.2699476E+04  0.7818609E-02  0.8335175E-01
        2   -1    0    0  501    0  0.00000000000E+00  0.00000000000E+00  0.14349346609E+04  0.14349346609E+04  0.25500000920E-02 0.  1.
       -2   -1    0    0    0  501  0.00000000000E+00  0.00000000000E+00 -0.12695994298E+04  0.12695994298E+04  0.25500000920E-02 0. -1.
    10030    2    1    2    0    0  0.00000000000E+00  0.00000000000E+00  0.16533523111E+03  0.27045340906E+04  0.26994756729E+04 0.  0.
        2    1    3    3  502    0  0.43109276670E+03 -0.30177331211E+03 -0.11625951336E+04  0.12761408818E+04  0.25500000920E-02 0. -1.
       -2    1    3    3    0  502 -0.43109276670E+03  0.30177331211E+03  0.13279303648E+04  0.14283932088E+04  0.25500000920E-02 0.  1.
</event>
<event>
 5   0  0.7806808E-07  0.2687691E+04  0.7818609E-02  0.8339010E-01
       -1   -1    0    0    0  501  0.00000000000E+00  0.00000000000E+00  0.11295867976E+04  0.11295867977E+04  0.50400001928E-02 0. -1.
        1   -1    0    0  501    0  0.00000000000E+00  0.00000000000E+00 -0.15987451080E+04  0.15987451080E+04  0.50400001928E-02 0.  1.
    10030    2    1    2    0    0  0.00000000000E+00  0.00000000000E+00 -0.46915831036E+03  0.27283319057E+04  0.26876914755E+04 0.  0.
        5    1    3    3  502    0 -0.62578756028E+03  0.12614149411E+02  0.97257426584E+03  0.11565863478E+04  0.46999998093E+01 0. -1.
       -5    1    3    3    0  502  0.62578756028E+03 -0.12614149411E+02 -0.14417325762E+04  0.15717455579E+04  0.46999998093E+01 0.  1.
</event>
<event>
 5   0  0.2030645E-06  0.2700027E+04  0.7818609E-02  0.8334996E-01
       -2   -1    0    0    0  501  0.00000000000E+00  0.00000000000E+00  0.25258791621E+04  0.25258791621E+04  0.25500000920E-02 0. -1.
        2   -1    0    0  501    0  0.00000000000E+00  0.00000000000E+00 -0.72154560823E+03  0.72154560824E+03  0.25500000920E-02 0.  1.
    10030    2    1    2    0    0  0.00000000000E+00  0.00000000000E+00  0.18043335538E+04  0.32474247703E+04  0.27000274194E+04 0.  0.
        1    1    3    3  502    0  0.56996483846E+03 -0.35526344042E+03  0.23106876487E+04  0.24063144930E+04  0.50400001928E-02 0. -1.
       -1    1    3    3    0  502 -0.56996483846E+03  0.35526344042E+03 -0.50635409489E+03  0.84111027732E+03  0.50400001928E-02 0.  1.
</event>
<event>
 5   0  0.7436613E-07  0.2709275E+04  0.7818609E-02  0.8332002E-01
        1   -1    0    0  501    0  0.00000000000E+00  0.00000000000E+00  0.16727362867E+04  0.16727362867E+04  0.50400001928E-02 0.  1.
       -1   -1    0    0    0  501  0.00000000000E+00  0.00000000000E+00 -0.10970307157E+04  0.10970307157E+04  0.50400001928E-02 0. -1.
    10030    2    1    2    0    0  0.00000000000E+00  0.00000000000E+00  0.57570557098E+03  0.27697670024E+04  0.27092752431E+04 0.  0.
        2    1    3    3  502    0 -0.28035483418E+03  0.23641239843E+03  0.16210219171E+04  0.16619872776E+04  0.25500000920E-02 0.  1.
       -2    1    3    3    0  502  0.28035483418E+03 -0.23641239843E+03 -0.10453163461E+04  0.11077797248E+04  0.25500000920E-02 0. -1.
</event>
<event>
 5   0  0.7566905E-07  0.2689409E+04  0.7818609E-02  0.8338450E-01
       -1   -1    0    0    0  501  0.00000000000E+00  0.00000000000E+00  0.11649434930E+04  0.11649434930E+04  0.50400001928E-02 0. -1.
        1   -1    0    0  501    0  0.00000000000E+00  0.00000000000E+00 -0.15522039634E+04  0.15522039634E+04  0.50400001928E-02 0.  1.
    10030    2    1    2    0    0  0.00000000000E+00  0.00000000000E+00 -0.38726047043E+03  0.27171474564E+04  0.26894087878E+04 0.  0.
        1    1    3    3  502    0  0.12207517792E+04 -0.55859175672E+03 -0.11556590424E+03  0.13474476373E+04  0.50400001928E-02 0.  1.
       -1    1    3    3    0  502 -0.12207517792E+04  0.55859175672E+03 -0.27169456619E+03  0.13696998191E+04  0.50400001928E-02 0. -1.
</event>
<event>
 5   0  0.7768032E-07  0.2701289E+04  0.7818609E-02  0.8334587E-01
       -1   -1    0    0    0  501  0.00000000000E+00  0.00000000000E+00  0.70092026369E+03  0.70092026370E+03  0.50400001928E-02 0. -1.
        1   -1    0    0  501    0  0.00000000000E+00  0.00000000000E+00 -0.26026368258E+04  0.26026368258E+04  0.50400001928E-02 0.  1.
    10030    2    1    2    0    0  0.00000000000E+00  0.00000000000E+00 -0.19017165621E+04  0.33035570895E+04  0.27012892405E+04 0.  0.
        4    1    3    3  502    0  0.12882547116E+04  0.58520505281E+02 -0.45982302209E+03  0.13691105420E+04  0.12699999809E+01 0. -1.
       -4    1    3    3    0  502 -0.12882547116E+04 -0.58520505281E+02 -0.14418935400E+04  0.19344465475E+04  0.12699999809E+01 0.  1.
</event>
<event>
 5   0  0.7768032E-07  0.2702445E+04  0.7818609E-02  0.8334212E-01
        1   -1    0    0  501    0  0.00000000000E+00  0.00000000000E+00  0.21481254888E+04  0.21481254888E+04  0.50400001928E-02 0. -1.
       -1   -1    0    0    0  501  0.00000000000E+00  0.00000000000E+00 -0.84995164631E+03  0.84995164633E+03  0.50400001928E-02 0.  1.
    10030    2    1    2    0    0  0.00000000000E+00  0.00000000000E+00  0.12981738425E+04  0.29980771352E+04  0.27024454080E+04 0.  0.
        4    1    3    3  502    0 -0.17494923386E+03 -0.91549359835E+03 -0.43623027729E+03  0.10290938882E+04  0.12699999809E+01 0.  1.
       -4    1    3    3    0  502  0.17494923386E+03  0.91549359835E+03  0.17344041198E+04  0.19689832470E+04  0.12699999809E+01 0. -1.
</event>
<event>
 5   0  0.1932012E-06  0.2699026E+04  0.7818609E-02  0.8335321E-01
       -2   -1    0    0    0  501  0.00000000000E+00  0.00000000000E+00  0.66864964707E+03  0.66864964708E+03  0.25500000920E-02 0. -1.
        2   -1    0    0  501    0  0.00000000000E+00  0.00000000000E+00 -0.27236764191E+04  0.27236764191E+04  0.25500000920E-02 0.  1.
    10030    2    1    2    0    0  0.00000000000E+00  0.00000000000E+00 -0.20550267721E+04  0.33923260662E+04  0.26990259550E+04 0.  0.
        2    1    3    3  502    0  0.40080711712E+02 -0.12932056851E+04 -0.54529774833E+03  0.14040431054E+04  0.25500000920E-02 0.  1.
       -2    1    3    3    0  502 -0.40080711712E+02  0.12932056851E+04 -0.15097290237E+04  0.19882829609E+04  0.25500000920E-02 0. -1.
</event>
<event>
 5   0  0.1932012E-06  0.2689052E+04  0.7818609E-02  0.8338566E-01
        2   -1    0    0  501    0  0.00000000000E+00  0.00000000000E+00  0.15172664976E+04  0.15172664976E+04  0.25500000920E-02 0. -1.
       -2   -1    0    0    0  501  0.00000000000E+00  0.00000000000E+00 -0.11914522580E+04  0.11914522580E+04  0.25500000920E-02 0.  1.
    10030    2    1    2    0    0  0.00000000000E+00  0.00000000000E+00  0.32581423966E+03  0.27087187556E+04  0.26890523197E+04 0.  0.
        2    1    3    3  502    0 -0.74097038773E+03  0.10549711230E+04  0.54747062131E+03  0.14006160313E+04  0.25500000920E-02 0.  1.
       -2    1    3    3    0  502  0.74097038773E+03 -0.10549711230E+04 -0.22165638164E+03  0.13081027243E+04  0.25500000920E-02 0. -1.
</event>
<event>
 5   0  0.1999104E-06  0.2700283E+04  0.7818609E-02  0.8334913E-01
       -2   -1    0    0    0  501  0.00000000000E+00  0.00000000000E+00  0.11127747095E+04  0.11127747095E+04  0.25500000920E-02 0.  1.
        2   -1    0    0  501    0  0.00000000000E+00  0.00000000000E+00 -0.16381412321E+04  0.16381412321E+04  0.25500000920E-02 0. -1.
    10030    2    1    2    0    0  0.00000000000E+00  0.00000000000E+00 -0.52536652259E+03  0.27509159417E+04  0.27002830472E+04 0.  0.
        4    1    3    3  502    0  0.12309346126E+04  0.46720066682E+03 -0.56729497187E+03  0.14336323384E+04  0.12699999809E+01 0. -1.
       -4    1    3    3    0  502 -0.12309346126E+04 -0.46720066682E+03  0.41928449280E+02  0.13172836033E+04  0.12699999809E+01 0.  1.
</event>
<event>
 5   0  0.1991277E-06  0.2717033E+04  0.7818609E-02  0.8329499E-01
       -2   -1    0    0    0  501  0.00000000000E+00  0.00000000000E+00  0.86904150350E+03  0.86904150351E+03  0.25500000920E-02 0. -1.
        2   -1    0    0  501    0  0.00000000000E+00  0.00000000000E+00 -0.21236817241E+04  0.21236817241E+04  0.25500000920E-02 0.  1.
    10030    2    1    2    0    0  0.00000000000E+00  0.00000000000E+00 -0.12546402206E+04  0.29927232276E+04  0.27170333516E+04 0.  0.
        5    1    3    3  502    0 -0.69758866565E+02  0.22936776721E+03  0.84554777992E+03  0.87889078401E+03  0.46999998093E+01 0. -1.
       -5    1    3    3    0  502  0.69758866565E+02 -0.22936776721E+03 -0.21001880005E+04  0.21138324436E+04  0.46999998093E+01 0.  1.
</event>
<event>
 5   0  0.1932012E-06  0.2696474E+04  0.7818609E-02  0.8336150E-01
       -2   -1    0    0    0  501  0.00000000000E+00  0.00000000000E+00  0.68755311686E+03  0.68755311687E+03  0.25500000920E-02 0. -1.
        2   -1    0    0  501    0  0.00000000000E+00  0.00000000000E+00 -0.26437862134E+04  0.26437862134E+04  0.25500000920E-02 0.  1.
    10030    2    1    2    0    0  0.00000000000E+00  0.00000000000E+00 -0.19562330965E+04  0.33313393302E+04  0.26964743287E+04 0.  0.
        2    1    3    3  502    0 -0.69998002479E+02  0.83761652434E+03 -0.22804642932E+04  0.24304358775E+04  0.25500000920E-02 0.  1.
       -2    1    3    3    0  502  0.69998002479E+02 -0.83761652434E+03  0.32423119670E+03  0.90090345271E+03  0.25500000920E-02 0. -1.
</event>
<event>
 5   0  0.2030645E-06  0.2698934E+04  0.7818609E-02  0.8335351E-01
       -2   -1    0    0    0  501  0.00000000000E+00  0.00000000000E+00  0.23298206082E+04  0.23298206082E+04  0.25500000920E-02 0.  1.
        2   -1    0    0  501    0  0.00000000000E+00  0.00000000000E+00 -0.78163144901E+03  0.78163144901E+03  0.25500000920E-02 0. -1.
    10030    2    1    2    0    0  0.00000000000E+00  0.00000000000E+00  0.15481891592E+04  0.31114520572E+04  0.26989339065E+04 0.  0.
        1    1    3    3  502    0  0.28521624340E+03  0.86746795646E+03 -0.37135531971E+03  0.98577570191E+03  0.50400001928E-02 0. -1.
       -1    1    3    3    0  502 -0.28521624340E+03 -0.86746795646E+03  0.19195444789E+04  0.21256763553E+04  0.50400001928E-02 0.  1.
</event>
<event>
 5   0  0.1999104E-06  0.2697563E+04  0.7818609E-02  0.8335796E-01
        2   -1    0    0  501    0  0.00000000000E+00  0.00000000000E+00  0.12268225908E+04  0.12268225908E+04  0.25500000920E-02 0. -1.
       -2   -1    0    0    0  501  0.00000000000E+00  0.00000000000E+00 -0.14828642036E+04  0.14828642036E+04  0.25500000920E-02 0.  1.
    10030    2    1    2    0    0  0.00000000000E+00  0.00000000000E+00 -0.25604161285E+03  0.27096867944E+04  0.26975628290E+04 0.  0.
        4    1    3    3  502    0  0.16724321302E+03 -0.10239126338E+04  0.73773585966E+03  0.12730369930E+04  0.12699999809E+01 0. -1.
       -4    1    3    3    0  502 -0.16724321302E+03  0.10239126338E+04 -0.99377747251E+03  0.14366498014E+04  0.12699999809E+01 0.  1.
</event>
<event>
 5   0  0.1999104E-06  0.2697316E+04  0.7818609E-02  0.8335876E-01
       -2   -1    0    0    0  501  0.00000000000E+00  0.00000000000E+00  0.66141780485E+03  0.66141780485E+03  0.25500000920E-02 0. -1.
        2   -1    0    0  501    0  0.00000000000E+00  0.00000000000E+00 -0.27499691705E+04  0.27499691706E+04  0.25500000920E-02 0.  1.
    10030    2    1    2    0    0  0.00000000000E+00  0.00000000000E+00 -0.20885513657E+04  0.34113869754E+04  0.26973161270E+04 0.  0.
        4    1    3    3  502    0 -0.59532276869E+03 -0.58398941759E+03 -0.23847886213E+04  0.25263949058E+04  0.12699999809E+01 0.  1.
       -4    1    3    3    0  502  0.59532276869E+03  0.58398941759E+03  0.29623725560E+03  0.88499206962E+03  0.12699999809E+01 0. -1.
</event>
<event>
 5   0  0.1991277E-06  0.2707588E+04  0.7818609E-02  0.8332547E-01
       -2   -1    0    0    0  501  0.00000000000E+00  0.00000000000E+00  0.15261268510E+04  0.15261268510E+04  0.25500000920E-02 0.  1.
        2   -1    0    0  501    0  0.00000000000E+00  0.00000000000E+00 -0.12009212622E+04  0.12009212622E+04  0.25500000920E-02 0. -1.
    10030    2    1    2    0    0  0.00000000000E+00  0.00000000000E+00  0.32520558875E+03  0.27270481132E+04  0.27075879925E+04 0.  0.
        5    1    3    3  502    0  0.36804195378E+02  0.20878752249E+03  0.15092951336E+04  0.15241196372E+04  0.46999998093E+01 0.  1.
       -5    1    3    3    0  502 -0.36804195378E+02 -0.20878752249E+03 -0.11840895448E+04  0.12029284760E+04  0.46999998093E+01 0. -1.
</event>
<event>
 5   0  0.7768032E-07  0.2699900E+04  0.7818609E-02  0.8335037E-01
        1   -1    0    0  501    0  0.00000000000E+00  0.00000000000E+00  0.15243781758E+04  0.15243781758E+04  0.50400001928E-02 0. -1.
       -1   -1    0    0    0  501  0.00000000000E+00  0.00000000000E+00 -0.11954811787E+04  0.11954811787E+04  0.50400001928E-02 0.  1.
    10030    2    1    2    0    0  0.00000000000E+00  0.00000000000E+00  0.32889699710E+03  0.27198593545E+04  0.26999003081E+04 0.  0.
        4    1    3    3  502    0 -0.37249537866E+03  0.29005028346E+03 -0.11096070812E+04  0.12058654409E+04  0.12699999809E+01 0.  1.
       -4    1    3    3    0  502  0.37249537866E+03 -0.29005028346E+03  0.14385040783E+04  0.15139939135E+04  0.12699999809E+01 0. -1.
</event>
<event>
 5   0  0.1991277E-06  0.2695035E+04  0.7818609E-02  0.8336618E-01
       -2   -1    0    0    0  501  0.00000000000E+00  0.00000000000E+00  0.83285535012E+03  0.83285535012E+03  0.25500000920E-02 0.  1.
        2   -1    0    0  501    0  0.00000000000E+00  0.00000000000E+00 -0.21802140980E+04  0.21802140980E+04  0.25500000920E-02 0. -1.
    10030    2    1    2    0    0  0.00000000000E+00  0.00000000000E+00 -0.13473587479E+04  0.30130694481E+04  0.26950346758E+04 0.  0.
        5    1    3    3  502    0  0.23755785404E+03  0.38667334429E+03 -0.20921975693E+04  0.21408556159E+04  0.46999998093E+01 0. -1.
       -5    1    3    3    0  502 -0.23755785404E+03 -0.38667334429E+03  0.74483882142E+03  0.87221383221E+03  0.46999998093E+01 0.  1.
</event>
<event>
 5   0  0.2063087E-06  0.2699376E+04  0.7818609E-02  0.8335207E-01
       -2   -1    0    0    0  501  0.00000000000E+00  0.00000000000E+00  0.96610999693E+03  0.96610999693E+03  0.25500000920E-02 0.  1.
        2   -1    0    0  501    0  0.00000000000E+00  0.00000000000E+00 -0.18855597222E+04  0.18855597222E+04  0.25500000920E-02 0. -1.
    10030    2    1    2    0    0  0.00000000000E+00  0.00000000000E+00 -0.91944972528E+03  0.28516697191E+04  0.26993762964E+04 0.  0.
        3    1    3    3  502    0 -0.54210029946E+03 -0.60501628554E+03 -0.15983752190E+04  0.17929642471E+04  0.10100000352E+00 0. -1.
       -3    1    3    3    0  502  0.54210029946E+03  0.60501628554E+03  0.67892549368E+03  0.10587054721E+04  0.10100000352E+00 0.  1.
</event>
<event>
 5   0  0.7436613E-07  0.2701274E+04  0.7818609E-02  0.8334592E-01
        1   -1    0    0  501    0  0.00000000000E+00  0.00000000000E+00  0.14862282042E+04  0.14862282042E+04  0.50400001928E-02 0. -1.
       -1   -1    0    0    0  501  0.00000000000E+00  0.00000000000E+00 -0.12274156845E+04  0.12274156845E+04  0.50400001928E-02 0.  1.
    10030    2    1    2    0    0  0.00000000000E+00  0.00000000000E+00  0.25881251966E+03  0.27136438887E+04  0.27012736319E+04 0.  0.
        2    1    3    3  502    0 -0.14337518144E+03  0.12019031494E+04 -0.47258093372E+03  0.12994076967E+04  0.25500000920E-02 0.  1.
       -2    1    3    3    0  502  0.14337518144E+03 -0.12019031494E+04  0.73139345338E+03  0.14142361920E+04  0.25500000920E-02 0. -1.
</event>
<event>
 5   0  0.7566905E-07  0.2699277E+04  0.7818609E-02  0.8335240E-01
       -1   -1    0    0    0  501  0.00000000000E+00  0.00000000000E+00  0.89505374201E+03  0.89505374203E+03  0.50400001928E-02 0. -1.
        1   -1    0    0  501    0  0.00000000000E+00  0.00000000000E+00 -0.20350997875E+04  0.20350997875E+04  0.50400001928E-02 0.  1.
    10030    2    1    2    0    0  0.00000000000E+00  0.00000000000E+00 -0.11400460455E+04  0.29301535295E+04  0.26992767033E+04 0.  0.
        1    1    3    3  502    0  0.98975084931E+03 -0.52455565452E+03 -0.13872485333E+04  0.17830378211E+04  0.50400001928E-02 0. -1.
       -1    1    3    3    0  502 -0.98975084931E+03  0.52455565452E+03  0.24720248783E+03  0.11471157084E+04  0.50400001928E-02 0.  1.
</event>
<event>
 5   0  0.7806808E-07  0.2695904E+04  0.7818609E-02  0.8336335E-01
       -1   -1    0    0    0  501  0.00000000000E+00  0.00000000000E+00  0.15159846679E+04  0.15159846679E+04  0.50400001928E-02 0. -1.
        1   -1    0    0  501    0  0.00000000000E+00  0.00000000000E+00 -0.11985441238E+04  0.11985441238E+04  0.50400001928E-02 0.  1.
    10030    2    1    2    0    0  0.00000000000E+00  0.00000000000E+00  0.31744054410E+03  0.27145287918E+04  0.26959039416E+04 0.  0.
        5    1    3    3  502    0 -0.44254775223E+03  0.48621074539E+03  0.13435838752E+04  0.14958238940E+04  0.46999998093E+01 0. -1.
       -5    1    3    3    0  502  0.44254775223E+03 -0.48621074539E+03 -0.10261433311E+04  0.12187048978E+04  0.46999998093E+01 0.  1.
</event>
<event>
 5   0  0.7806808E-07  0.2696431E+04  0.7818609E-02  0.8336164E-01
       -1   -1    0    0    0  501  0.00000000000E+00  0.00000000000E+00  0.11239019006E+04  0.11239019006E+04  0.50400001928E-02 0. -1.
        1   -1    0    0  501    0  0.00000000000E+00  0.00000000000E+00 -0.16172988913E+04  0.16172988913E+04  0.50400001928E-02 0.  1.
    10030    2    1    2    0    0  0.00000000000E+00  0.00000000000E+00 -0.49339699070E+03  0.27412007919E+04  0.26964311953E+04 0.  0.
        5    1    3    3  502    0  0.33848964008E+03 -0.58092275040E+03 -0.14346970709E+04  0.15844318394E+04  0.46999998093E+01 0.  1.
       -5    1    3    3    0  502 -0.33848964008E+03  0.58092275040E+03  0.94130008024E+03  0.11567689525E+04  0.46999998093E+01 0. -1.
</event>
<event>
 5   0  0.2030645E-06  0.2701552E+04  0.7818609E-02  0.8334501E-01
       -2   -1    0    0    0  501  0.00000000000E+00  0.00000000000E+00  0.12780159806E+04  0.12780159806E+04  0.25500000920E-02 0. -1.
        2   -1    0    0  501    0  0.00000000000E+00  0.00000000000E+00 -0.14276786572E+04  0.14276786572E+04  0.25500000920E-02 0.  1.
    10030    2    1    2    0    0  0.00000000000E+00  0.00000000000E+00 -0.14966267653E+03  0.27056946378E+04  0.27015522494E+04 0.  0.
        1    1    3    3  502    0 -0.12734328828E+04 -0.21729268805E+03  0.32042391648E+03  0.13309841868E+04  0.50400001928E-02 0. -1.
       -1    1    3    3    0  502  0.12734328828E+04  0.21729268805E+03 -0.47008659300E+03  0.13747104510E+04  0.50400001928E-02 0.  1.
</event>
<event>
 5   0  0.2030645E-06  0.2704487E+04  0.7818609E-02  0.8333550E-01
       -2   -1    0    0    0  501  0.00000000000E+00  0.00000000000E+00  0.11697928275E+04  0.11697928275E+04  0.25500000920E-02 0. -1.
        2   -1    0    0  501    0  0.00000000000E+00  0.00000000000E+00 -0.15631510160E+04  0.15631510160E+04  0.25500000920E-02 0.  1.
    10030    2    1    2    0    0  0.00000000000E+00  0.00000000000E+00 -0.39335818853E+03  0.27329438435E+04  0.27044872688E+04 0.  0.
        1    1    3    3  502    0 -0.61683609491E+02 -0.13257299041E+04  0.65274636459E+02  0.13287683863E+04  0.50400001928E-02 0. -1.
       -1    1    3    3    0  502  0.61683609491E+02  0.13257299041E+04 -0.45863282499E+03  0.14041754571E+04  0.50400001928E-02 0.  1.
</event>
<event>
 5   0  0.7566905E-07  0.2727082E+04  0.7818609E-02  0.8326271E-01
       -1   -1    0    0    0  501  0.00000000000E+00  0.00000000000E+00  0.17113130435E+04  0.17113130435E+04  0.50400001928E-02 0. -1.
        1   -1    0    0  501    0  0.00000000000E+00  0.00000000000E+00 -0.10864433284E+04  0.10864433284E+04  0.50400001928E-02 0.  1.
    10030    2    1    2    0    0  0.00000000000E+00  0.00000000000E+00  0.62486971511E+03  0.27977563718E+04  0.27270824255E+04 0.  0.
        1    1    3    3  502    0 -0.36226263054E+03 -0.14444423681E+03  0.16528736810E+04  0.16982608034E+04  0.50400001928E-02 0. -1.
       -1    1    3    3    0  502  0.36226263054E+03  0.14444423681E+03 -0.10280039659E+04  0.10994955684E+04  0.50400001928E-02 0.  1.
</event>
<event>
 5   0  0.1932012E-06  0.2699472E+04  0.7818609E-02  0.8335176E-01
       -2   -1    0    0    0  501  0.00000000000E+00  0.00000000000E+00  0.81362237177E+03  0.81362237177E+03  0.25500000920E-02 0. -1.
        2   -1    0    0  501    0  0.00000000000E+00  0.00000000000E+00 -0.22391064300E+04  0.22391064300E+04  0.25500000920E-02 0.  1.
    10030    2    1    2    0    0  0.00000000000E+00  0.00000000000E+00 -0.14254840583E+04  0.30527288018E+04  0.26994718626E+04 0.  0.
        2    1    3    3  502    0  0.27855090191E+03 -0.10404890823E+04 -0.16325565429E+04  0.19558755075E+04  0.25500000920E-02 0.  1.
       -2    1    3    3    0  502 -0.27855090191E+03  0.10404890823E+04  0.20707248459E+03  0.10968532943E+04  0.25500000920E-02 0. -1.
</event>
<event>
 5   0  0.1991277E-06  0.2692663E+04  0.7818609E-02  0.8337389E-01
       -2   -1    0    0    0  501  0.00000000000E+00  0.00000000000E+00  0.24751607626E+04  0.24751607626E+04  0.25500000920E-02 0.  1.
        2   -1    0    0  501    0  0.00000000000E+00  0.00000000000E+00 -0.73231973022E+03  0.73231973022E+03  0.25500000920E-02 0. -1.
    10030    2    1    2    0    0  0.00000000000E+00  0.00000000000E+00  0.17428410324E+04  0.32074804928E+04  0.26926634115E+04 0.  0.
        5    1    3    3  502    0 -0.12227210256E+04 -0.47781682549E+03  0.51559205834E+03  0.14103945852E+04  0.46999998093E+01 0. -1.
       -5    1    3    3    0  502  0.12227210256E+04  0.47781682549E+03  0.12272489740E+04  0.17970859076E+04  0.46999998093E+01 0.  1.
</event>
<event>
 5   0  0.1991277E-06  0.2698132E+04  0.7818609E-02  0.8335611E-01
       -2   -1    0    0    0  501  0.00000000000E+00  0.00000000000E+00  0.16283389765E+04  0.16283389765E+04  0.25500000920E-02 0.  1.
        2   -1    0    0  501    0  0.00000000000E+00  0.00000000000E+00 -0.11176908088E+04  0.11176908088E+04  0.25500000920E-02 0. -1.
    10030    2    1    2    0    0  0.00000000000E+00  0.00000000000E+00  0.51064816766E+03  0.27460297853E+04  0.26981323226E+04 0.  0.
        5    1    3    3  502    0  0.89345502775E+03 -0.48846437499E+03 -0.64531352854E+03  0.12055334804E+04  0.46999998093E+01 0. -1.
       -5    1    3    3    0  502 -0.89345502775E+03  0.48846437499E+03  0.11559616962E+04  0.15404963049E+04  0.46999998093E+01 0.  1.
</event>
<event>
 5   0  0.7566905E-07  0.2701198E+04  0.7818609E-02  0.8334616E-01
       -1   -1    0    0    0  501  0.00000000000E+00  0.00000000000E+00  0.15370305674E+04  0.15370305674E+04  0.50400001928E-02 0. -1.
        1   -1    0    0  501    0  0.00000000000E+00  0.00000000000E+00 -0.11867801500E+04  0.11867801500E+04  0.50400001928E-02 0.  1.
    10030    2    1    2    0    0  0.00000000000E+00  0.00000000000E+00  0.35025041740E+03  0.27238107175E+04  0.27011977843E+04 0.  0.
        1    1    3    3  502    0 -0.10869300207E+04  0.20840685332E+03 -0.60547875176E+03  0.12615287572E+04  0.50400001928E-02 0.  1.
       -1    1    3    3    0  502  0.10869300207E+04 -0.20840685332E+03  0.95572916916E+03  0.14622819603E+04  0.50400001928E-02 0. -1.
</event>
<event>
 5   0  0.7768032E-07  0.2680267E+04  0.7818609E-02  0.8341436E-01
        1   -1    0    0  501    0  0.00000000000E+00  0.00000000000E+00  0.10317476577E+04  0.10317476577E+04  0.50400001928E-02 0. -1.
       -1   -1    0    0    0  501  0.00000000000E+00  0.00000000000E+00 -0.17406954607E+04  0.17406954607E+04  0.50400001928E-02 0.  1.
    10030    2    1    2    0    0  0.00000000000E+00  0.00000000000E+00 -0.70894780299E+03  0.27724431184E+04  0.26802674974E+04 0.  0.
        4    1    3    3  502    0  0.11134892576E+03 -0.11746570861E+04  0.30278254638E+03  0.12181530020E+04  0.12699999809E+01 0. -1.
       -4    1    3    3    0  502 -0.11134892576E+03  0.11746570861E+04 -0.10117303494E+04  0.15542901164E+04  0.12699999809E+01 0.  1.
</event>
<event>
 5   0  0.2063087E-06  0.2676888E+04  0.7818609E-02  0.8342543E-01
        2   -1    0    0  501    0  0.00000000000E+00  0.00000000000E+00  0.11436858070E+04  0.11436858070E+04  0.25500000920E-02 0.  1.
       -2   -1    0    0    0  501  0.00000000000E+00  0.00000000000E+00 -0.15663678892E+04  0.15663678892E+04  0.25500000920E-02 0. -1.
    10030    2    1    2    0    0  0.00000000000E+00  0.00000000000E+00 -0.42268208221E+03  0.27100536961E+04  0.26768882856E+04 0.  0.
        3    1    3    3  502    0  0.46801078377E+03  0.38766844254E+03  0.99595706253E+03  0.11667267871E+04  0.10100000352E+00 0.  1.
       -3    1    3    3    0  502 -0.46801078377E+03 -0.38766844254E+03 -0.14186391447E+04  0.15433269091E+04  0.10100000352E+00 0. -1.
</event>
<event>
 5   0  0.2030645E-06  0.2700023E+04  0.7818609E-02  0.8334998E-01
       -2   -1    0    0    0  501  0.00000000000E+00  0.00000000000E+00  0.11670991339E+04  0.11670991339E+04  0.25500000920E-02 0. -1.
        2   -1    0    0  501    0  0.00000000000E+00  0.00000000000E+00 -0.15615903963E+04  0.15615903963E+04  0.25500000920E-02 0.  1.
    10030    2    1    2    0    0  0.00000000000E+00  0.00000000000E+00 -0.39449126235E+03  0.27286895302E+04  0.27000228140E+04 0.  0.
        1    1    3    3  502    0 -0.22653344343E+03 -0.13019047934E+04 -0.47632480120E+03  0.14046917129E+04  0.50400001928E-02 0. -1.
       -1    1    3    3    0  502  0.22653344343E+03  0.13019047934E+04  0.81833538854E+02  0.13239978173E+04  0.50400001928E-02 0.  1.
</event>
<event>
 5   0  0.1991277E-06  0.2706054E+04  0.7818609E-02  0.8333043E-01
        2   -1    0    0  501    0  0.00000000000E+00  0.00000000000E+00  0.13673640702E+04  0.13673640702E+04  0.25500000920E-02 0. -1.
       -2   -1    0    0    0  501  0.00000000000E+00  0.00000000000E+00 -0.13388402320E+04  0.13388402320E+04  0.25500000920E-02 0.  1.
    10030    2    1    2    0    0  0.00000000000E+00  0.00000000000E+00  0.28523838240E+02  0.27062043022E+04  0.27060539750E+04 0.  0.
        5    1    3    3  502    0  0.12064636400E+04  0.48129783009E+03  0.39304122459E+03  0.13570945472E+04  0.46999998093E+01 0. -1.
       -5    1    3    3    0  502 -0.12064636400E+04 -0.48129783009E+03 -0.36451738635E+03  0.13491097549E+04  0.46999998093E+01 0.  1.
</event>
<event>
 5   0  0.7436613E-07  0.2700719E+04  0.7818609E-02  0.8334772E-01
        1   -1    0    0  501    0  0.00000000000E+00  0.00000000000E+00  0.12961953554E+04  0.12961953554E+04  0.50400001928E-02 0. -1.
       -1   -1    0    0    0  501  0.00000000000E+00  0.00000000000E+00 -0.14067874158E+04  0.14067874158E+04  0.50400001928E-02 0.  1.
    10030    2    1    2    0    0  0.00000000000E+00  0.00000000000E+00 -0.11059206036E+03  0.27029827712E+04  0.27007193964E+04 0.  0.
        2    1    3    3  502    0 -0.82286993589E+03  0.10181647980E+04 -0.38677871445E+03  0.13650539408E+04  0.25500000920E-02 0.  1.
       -2    1    3    3    0  502  0.82286993589E+03 -0.10181647980E+04  0.27618665409E+03  0.13379288304E+04  0.25500000920E-02 0. -1.
</event>
<event>
 5   0  0.2063087E-06  0.2700491E+04  0.7818609E-02  0.8334846E-01
        2   -1    0    0  501    0  0.00000000000E+00  0.00000000000E+00  0.12899218564E+04  0.12899218564E+04  0.25500000920E-02 0. -1.
       -2   -1    0    0    0  501  0.00000000000E+00  0.00000000000E+00 -0.14133903166E+04  0.14133903166E+04  0.25500000920E-02 0.  1.
    10030    2    1    2    0    0  0.00000000000E+00  0.00000000000E+00 -0.12346846028E+03  0.27033121730E+04  0.27004911116E+04 0.  0.
        3    1    3    3  502    0 -0.74838284578E+03 -0.38959840470E+03 -0.11170172703E+04  0.13998540613E+04  0.10100000352E+00 0.  1.
       -3    1    3    3    0  502  0.74838284578E+03  0.38959840470E+03  0.99354880998E+03  0.13034581116E+04  0.10100000352E+00 0. -1.
</event>
<event>
 5   0  0.1999104E-06  0.2696319E+04  0.7818609E-02  0.8336200E-01
        2   -1    0    0  501    0  0.00000000000E+00  0.00000000000E+00  0.26645443684E+04  0.26645443684E+04  0.25500000920E-02 0.  1.
       -2   -1    0    0    0  501  0.00000000000E+00  0.00000000000E+00 -0.68211836303E+03  0.68211836303E+03  0.25500000920E-02 0. -1.
    10030    2    1    2    0    0  0.00000000000E+00  0.00000000000E+00  0.19824260054E+04  0.33466627315E+04  0.26963194490E+04 0.  0.
        4    1    3    3  502    0  0.16490930625E+03  0.12922453962E+04  0.14219633058E+04  0.19284902124E+04  0.12699999809E+01 0. -1.
       -4    1    3    3    0  502 -0.16490930625E+03 -0.12922453962E+04  0.56046269955E+03  0.14181725190E+04  0.12699999809E+01 0.  1.
</event>
<event>
 5   0  0.6561875E-07  0.2699802E+04  0.7818609E-02  0.8335069E-01
       -3   -1    0    0    0  501  0.00000000000E+00  0.00000000000E+00  0.11160926200E+04  0.11160926246E+04  0.10100000352E+00 0.  1.
        3   -1    0    0  501    0  0.00000000000E+00  0.00000000000E+00 -0.16326898571E+04  0.16326898602E+04  0.10100000352E+00 0. -1.
    10030    2    1    2    0    0  0.00000000000E+00  0.00000000000E+00 -0.51659723709E+03  0.27487824848E+04  0.26998022971E+04 0.  0.
        1    1    3    3  502    0 -0.10010992891E+04 -0.22768945197E+02  0.66339554877E+03  0.12011710393E+04  0.50400001928E-02 0.  1.
       -1    1    3    3    0  502  0.10010992891E+04  0.22768945197E+02 -0.11799927859E+04  0.15476114455E+04  0.50400001928E-02 0. -1.
</event>
<event>
 5   0  0.2063087E-06  0.2700929E+04  0.7818609E-02  0.8334704E-01
        2   -1    0    0  501    0  0.00000000000E+00  0.00000000000E+00  0.15617080328E+04  0.15617080328E+04  0.25500000920E-02 0. -1.
       -2   -1    0    0    0  501  0.00000000000E+00  0.00000000000E+00 -0.11677944373E+04  0.11677944373E+04  0.25500000920E-02 0.  1.
    10030    2    1    2    0    0  0.00000000000E+00  0.00000000000E+00  0.39391359553E+03  0.27295024701E+04  0.27009286947E+04 0.  0.
        3    1    3    3  502    0 -0.95905115174E+03  0.22455849014E+03 -0.73669390355E+03  0.12300095711E+04  0.10100000352E+00 0.  1.
       -3    1    3    3    0  502  0.95905115174E+03 -0.22455849014E+03  0.11306074991E+04  0.14994928991E+04  0.10100000352E+00 0. -1.
</event>
<event>
 5   0  0.1999104E-06  0.2689735E+04  0.7818609E-02  0.8338343E-01
       -2   -1    0    0    0  501  0.00000000000E+00  0.00000000000E+00  0.60002626043E+03  0.60002626043E+03  0.25500000920E-02 0.  1.
        2   -1    0    0  501    0  0.00000000000E+00  0.00000000000E+00 -0.30143151623E+04  0.30143151623E+04  0.25500000920E-02 0. -1.
    10030    2    1    2    0    0  0.00000000000E+00  0.00000000000E+00 -0.24142889019E+04  0.36143414228E+04  0.26897347487E+04 0.  0.
        4    1    3    3  502    0  0.27970664331E+03 -0.12820770339E+04 -0.16028321942E+04  0.20714801430E+04  0.12699999809E+01 0.  1.
       -4    1    3    3    0  502 -0.27970664331E+03  0.12820770339E+04 -0.81145670764E+03  0.15428612797E+04  0.12699999809E+01 0. -1.
</event>
<event>
 5   0  0.2030645E-06  0.2704124E+04  0.7818609E-02  0.8333668E-01
       -2   -1    0    0    0  501  0.00000000000E+00  0.00000000000E+00  0.17644373098E+04  0.17644373098E+04  0.25500000920E-02 0.  1.
        2   -1    0    0  501    0  0.00000000000E+00  0.00000000000E+00 -0.10360649135E+04  0.10360649135E+04  0.25500000920E-02 0. -1.
    10030    2    1    2    0    0  0.00000000000E+00  0.00000000000E+00  0.72837239638E+03  0.28005022233E+04  0.27041239533E+04 0.  0.
        1    1    3    3  502    0 -0.19284256511E+03  0.18290921333E+03  0.17371150830E+04  0.17573311716E+04  0.50400001928E-02 0.  1.
       -1    1    3    3    0  502  0.19284256511E+03 -0.18290921333E+03 -0.10087426866E+04  0.10431710517E+04  0.50400001928E-02 0. -1.
</event>
<event>
 5   0  0.7768032E-07  0.2705409E+04  0.7818609E-02  0.8333252E-01
        1   -1    0    0  501    0  0.00000000000E+00  0.00000000000E+00  0.18473826446E+04  0.18473826446E+04  0.50400001928E-02 0.  1.
       -1   -1    0    0    0  501  0.00000000000E+00  0.00000000000E+00 -0.99048784698E+03  0.99048784699E+03  0.50400001928E-02 0. -1.
    10030    2    1    2    0    0  0.00000000000E+00  0.00000000000E+00  0.85689479761E+03  0.28378704916E+04  0.27054094390E+04 0.  0.
        4    1    3    3  502    0 -0.78195390277E+03 -0.29410701310E+02  0.15858715736E+04  0.17684193949E+04  0.12699999809E+01 0.  1.
       -4    1    3    3    0  502  0.78195390277E+03  0.29410701310E+02 -0.72897677598E+03  0.10694510967E+04  0.12699999809E+01 0. -1.
</event>
<event>
 5   0  0.2063087E-06  0.2685073E+04  0.7818609E-02  0.8339865E-01
        2   -1    0    0  501    0  0.00000000000E+00  0.00000000000E+00  0.20431672953E+04  0.20431672953E+04  0.25500000920E-02 0. -1.
       -2   -1    0    0    0  501  0.00000000000E+00  0.00000000000E+00 -0.88216167543E+03  0.88216167544E+03  0.25500000920E-02 0.  1.
    10030    2    1    2    0    0  0.00000000000E+00  0.00000000000E+00  0.11610056199E+04  0.29253289707E+04  0.26850727248E+04 0.  0.
        3    1    3    3  502    0 -0.12057897124E+03  0.61098536624E+03  0.18762777339E+04  0.19769321058E+04  0.10100000352E+00 0. -1.
       -3    1    3    3    0  502  0.12057897124E+03 -0.61098536624E+03 -0.71527211404E+03  0.94839686492E+03  0.10100000352E+00 0.  1.
</event>
<event>
 5   0  0.1991277E-06  0.2692931E+04  0.7818609E-02  0.8337302E-01
       -2   -1    0    0    0  501  0.00000000000E+00  0.00000000000E+00  0.30638277447E+04  0.30638277447E+04  0.25500000920E-02 0.  1.
        2   -1    0    0  501    0  0.00000000000E+00  0.00000000000E+00 -0.59173347794E+03  0.59173347795E+03  0.25500000920E-02 0. -1.
    10030    2    1    2    0    0  0.00000000000E+00  0.00000000000E+00  0.24720942667E+04  0.36555612226E+04  0.26929310776E+04 0.  0.
        5    1    3    3  502    0 -0.44596280858E+03  0.12639554933E+04  0.10617777284E+04  0.17099299256E+04  0.46999998093E+01 0. -1.
       -5    1    3    3    0  502  0.44596280858E+03 -0.12639554933E+04  0.14103165383E+04  0.19456312970E+04  0.46999998093E+01 0.  1.
</event>
<event>
 5   0  0.7335091E-07  0.2699181E+04  0.7818609E-02  0.8335271E-01
        1   -1    0    0  501    0  0.00000000000E+00  0.00000000000E+00  0.12584278272E+04  0.12584278272E+04  0.50400001928E-02 0.  1.
       -1   -1    0    0    0  501  0.00000000000E+00  0.00000000000E+00 -0.14473574163E+04  0.14473574163E+04  0.50400001928E-02 0. -1.
    10030    2    1    2    0    0  0.00000000000E+00  0.00000000000E+00 -0.18892958910E+03  0.27057852435E+04  0.26991812452E+04 0.  0.
        3    1    3    3  502    0 -0.43700347740E+03 -0.19479601115E+03 -0.13594862845E+04  0.14412218751E+04  0.10100000352E+00 0. -1.
       -3    1    3    3    0  502  0.43700347740E+03  0.19479601115E+03  0.11705566954E+04  0.12645633684E+04  0.10100000352E+00 0.  1.
</event>
<event>
 5   0  0.7768032E-07  0.2722785E+04  0.7818609E-02  0.8327650E-01
        1   -1    0    0  501    0  0.00000000000E+00  0.00000000000E+00  0.21946755345E+04  0.21946755345E+04  0.50400001928E-02 0.  1.
       -1   -1    0    0    0  501  0.00000000000E+00  0.00000000000E+00 -0.84449346330E+03  0.84449346332E+03  0.50400001928E-02 0. -1.
    10030    2    1    2    0    0  0.00000000000E+00  0.00000000000E+00  0.13501820712E+04  0.30391689978E+04  0.27227847091E+04 0.  0.
        4    1    3    3  502    0  0.70109931644E+03  0.44333575134E+02 -0.62655269268E+03  0.94131589119E+03  0.12699999809E+01 0. -1.
       -4    1    3    3    0  502 -0.70109931644E+03 -0.44333575134E+02  0.19767347639E+04  0.20978531067E+04  0.12699999809E+01 0.  1.
</event>
<event>
 5   0  0.1999104E-06  0.2699432E+04  0.7818609E-02  0.8335189E-01
       -2   -1    0    0    0  501  0.00000000000E+00  0.00000000000E+00  0.76736606522E+03  0.76736606523E+03  0.25500000920E-02 0.  1.
        2   -1    0    0  501    0  0.00000000000E+00  0.00000000000E+00 -0.23740080032E+04  0.23740080032E+04  0.25500000920E-02 0. -1.
    10030    2    1    2    0    0  0.00000000000E+00  0.00000000000E+00 -0.16066419380E+04  0.31413740685E+04  0.26994319256E+04 0.  0.
        4    1    3    3  502    0  0.78290201887E+03  0.10961063153E+04 -0.70357380090E+03  0.15196717842E+04  0.12699999809E+01 0.  1.
       -4    1    3    3    0  502 -0.78290201887E+03 -0.10961063153E+04 -0.90306813713E+03  0.16217022842E+04  0.12699999809E+01 0. -1.
</event>
<event>
 5   0  0.7335091E-07  0.2695136E+04  0.7818609E-02  0.8336585E-01
        1   -1    0    0  501    0  0.00000000000E+00  0.00000000000E+00  0.19173851449E+04  0.19173851449E+04  0.50400001928E-02 0.  1.
       -1   -1    0    0    0  501  0.00000000000E+00  0.00000000000E+00 -0.94709202238E+03  0.94709202239E+03  0.50400001928E-02 0. -1.
    10030    2    1    2    0    0  0.00000000000E+00  0.00000000000E+00  0.97029312255E+03  0.28644771673E+04  0.26951364898E+04 0.  0.
        3    1    3    3  502    0  0.59082550351E+03  0.95576642785E+03 -0.30548606313E+03  0.11644251737E+04  0.10100000352E+00 0. -1.
       -3    1    3    3    0  502 -0.59082550351E+03 -0.95576642785E+03  0.12757791857E+04  0.17000519936E+04  0.10100000352E+00 0.  1.
</event>
<event>
 5   0  0.1991277E-06  0.2688780E+04  0.7818609E-02  0.8338655E-01
       -2   -1    0    0    0  501  0.00000000000E+00  0.00000000000E+00  0.15170552678E+04  0.15170552678E+04  0.25500000920E-02 0. -1.
        2   -1    0    0  501    0  0.00000000000E+00  0.00000000000E+00 -0.11913768170E+04  0.11913768170E+04  0.25500000920E-02 0.  1.
    10030    2    1    2    0    0  0.00000000000E+00  0.00000000000E+00  0.32567845074E+03  0.27084320848E+04  0.26887800031E+04 0.  0.
        5    1    3    3  502    0 -0.12886980847E+04  0.87835116625E+01  0.54844582003E+03  0.14005837394E+04  0.46999998093E+01 0. -1.
       -5    1    3    3    0  502  0.12886980847E+04 -0.87835116625E+01 -0.22276736929E+03  0.13078483454E+04  0.46999998093E+01 0.  1.
</event>
<event>
 5   0  0.1932012E-06  0.2699264E+04  0.7818609E-02  0.8335244E-01
       -2   -1    0    0    0  501  0.00000000000E+00  0.00000000000E+00  0.65786091906E+03  0.65786091907E+03  0.25500000920E-02 0. -1.
        2   -1    0    0  501    0  0.00000000000E+00  0.00000000000E+00 -0.27688332741E+04  0.27688332741E+04  0.25500000920E-02 0.  1.
    10030    2    1    2    0    0  0.00000000000E+00  0.00000000000E+00 -0.21109723551E+04  0.34266941932E+04  0.26992644942E+04 0.  0.
        2    1    3    3  502    0  0.26535256262E+03 -0.59987836948E+03 -0.25528630319E+04  0.26357874914E+04  0.25500000920E-02 0.  1.
       -2    1    3    3    0  502 -0.26535256262E+03  0.59987836948E+03  0.44189067678E+03  0.79090670176E+03  0.25500000920E-02 0. -1.
</event>
<event>
 5   0  0.1991277E-06  0.2702009E+04  0.7818609E-02  0.8334353E-01
        2   -1    0    0  501    0  0.00000000000E+00  0.00000000000E+00  0.11736024579E+04  0.11736024579E+04  0.25500000920E-02 0.  1.
       -2   -1    0    0    0  501  0.00000000000E+00  0.00000000000E+00 -0.15552228221E+04  0.15552228221E+04  0.25500000920E-02 0. -1.
    10030    2    1    2    0    0  0.00000000000E+00  0.00000000000E+00 -0.38162036421E+03  0.27288252799E+04  0.27020091240E+04 0.  0.
        5    1    3    3  502    0  0.39680623176E+03 -0.99687449921E+03  0.63829866248E+03  0.12484635458E+04  0.46999998093E+01 0.  1.
       -5    1    3    3    0  502 -0.39680623176E+03  0.99687449921E+03 -0.10199190267E+04  0.14803617341E+04  0.46999998093E+01 0. -1.
</event>
<event>
 5   0  0.7806808E-07  0.2701040E+04  0.7818609E-02  0.8334668E-01
       -1   -1    0    0    0  501  0.00000000000E+00  0.00000000000E+00  0.20447484376E+04  0.20447484377E+04  0.50400001928E-02 0. -1.
        1   -1    0    0  501    0  0.00000000000E+00  0.00000000000E+00 -0.89199421591E+03  0.89199421592E+03  0.50400001928E-02 0.  1.
    10030    2    1    2    0    0  0.00000000000E+00  0.00000000000E+00  0.11527542217E+04  0.29367426536E+04  0.27010396364E+04 0.  0.
        5    1    3    3  502    0  0.44286254201E+03  0.22248077788E+03  0.19422923899E+04  0.20045315527E+04  0.46999998093E+01 0. -1.
       -5    1    3    3    0  502 -0.44286254201E+03 -0.22248077788E+03 -0.78953816819E+03  0.93221110091E+03  0.46999998093E+01 0.  1.
</event>
<event>
 5   0  0.7768032E-07  0.2702171E+04  0.7818609E-02  0.8334301E-01
        1   -1    0    0  501    0  0.00000000000E+00  0.00000000000E+00  0.14845015230E+04  0.14845015230E+04  0.50400001928E-02 0.  1.
       -1   -1    0    0    0  501  0.00000000000E+00  0.00000000000E+00 -0.12296597725E+04  0.12296597725E+04  0.50400001928E-02 0. -1.
    10030    2    1    2    0    0  0.00000000000E+00  0.00000000000E+00  0.25484175047E+03  0.27141612955E+04  0.27021708348E+04 0.  0.
        4    1    3    3  502    0  0.13487316941E+04 -0.79677213215E+02  0.12956367444E+03  0.13572818424E+04  0.12699999809E+01 0.  1.
       -4    1    3    3    0  502 -0.13487316941E+04  0.79677213215E+02  0.12527807603E+03  0.13568794531E+04  0.12699999809E+01 0. -1.
</event>
<event>
 5   0  0.2063087E-06  0.2660295E+04  0.7818609E-02  0.8348004E-01
        2   -1    0    0  501    0  0.00000000000E+00  0.00000000000E+00  0.15014283178E+04  0.15014283178E+04  0.25500000920E-02 0. -1.
       -2   -1    0    0    0  501  0.00000000000E+00  0.00000000000E+00 -0.11784059029E+04  0.11784059029E+04  0.25500000920E-02 0.  1.
    10030    2    1    2    0    0  0.00000000000E+00  0.00000000000E+00  0.32302241496E+03  0.26798342207E+04  0.26602947149E+04 0.  0.
        3    1    3    3  502    0 -0.78203211475E+03  0.38629770457E+03 -0.85010172019E+03  0.12179791008E+04  0.10100000352E+00 0.  1.
       -3    1    3    3    0  502  0.78203211475E+03 -0.38629770457E+03  0.11731241351E+04  0.14618551199E+04  0.10100000352E+00 0. -1.
</event>
<event>
 5   0  0.7436613E-07  0.2704493E+04  0.7818609E-02  0.8333549E-01
       -1   -1    0    0    0  501  0.00000000000E+00  0.00000000000E+00  0.11842396509E+04  0.11842396509E+04  0.50400001928E-02 0. -1.
        1   -1    0    0  501    0  0.00000000000E+00  0.00000000000E+00 -0.15440881280E+04  0.15440881280E+04  0.50400001928E-02 0.  1.
    10030    2    1    2    0    0  0.00000000000E+00  0.00000000000E+00 -0.35984847715E+03  0.27283277789E+04  0.27044928439E+04 0.  0.
        2    1    3    3  502    0 -0.69878681213E+03 -0.10855709801E+04 -0.58571674731E+03  0.14176852506E+04  0.25500000920E-02 0.  1.
       -2    1    3    3    0  502  0.69878681213E+03  0.10855709801E+04  0.22586827016E+03  0.13106425283E+04  0.25500000920E-02 0. -1.
</event>
<event>
 5   0  0.1999104E-06  0.2698021E+04  0.7818609E-02  0.8335647E-01
        2   -1    0    0  501    0  0.00000000000E+00  0.00000000000E+00  0.15175930960E+04  0.15175930960E+04  0.25500000920E-02 0. -1.
       -2   -1    0    0    0  501  0.00000000000E+00  0.00000000000E+00 -0.11991546680E+04  0.11991546680E+04  0.25500000920E-02 0.  1.
    10030    2    1    2    0    0  0.00000000000E+00  0.00000000000E+00  0.31843842799E+03  0.27167477639E+04  0.26980206412E+04 0.  0.
        4    1    3    3  502    0 -0.54758306759E+03  0.10163216528E+04 -0.54352921114E+03  0.12760025604E+04  0.12699999809E+01 0. -1.
       -4    1    3    3    0  502  0.54758306759E+03 -0.10163216528E+04  0.86196763913E+03  0.14407452036E+04  0.12699999809E+01 0.  1.
</event>
<event>
 5   0  0.7768032E-07  0.2707315E+04  0.7818609E-02  0.8332635E-01
        1   -1    0    0  501    0  0.00000000000E+00  0.00000000000E+00  0.24017850591E+04  0.24017850591E+04  0.50400001928E-02 0.  1.
       -1   -1    0    0    0  501  0.00000000000E+00  0.00000000000E+00 -0.76292804726E+03  0.76292804727E+03  0.50400001928E-02 0. -1.
    10030    2    1    2    0    0  0.00000000000E+00  0.00000000000E+00  0.16388570119E+04  0.31647131064E+04  0.27073154121E+04 0.  0.
        4    1    3    3  502    0 -0.69862302152E+02 -0.11473267915E+04 -0.16306994072E+02  0.11495681967E+04  0.12699999809E+01 0. -1.
       -4    1    3    3    0  502  0.69862302152E+02  0.11473267915E+04  0.16551640059E+04  0.20151449097E+04  0.12699999809E+01 0.  1.
</event>
<event>
 5   0  0.7566905E-07  0.2698221E+04  0.7818609E-02  0.8335582E-01
       -1   -1    0    0    0  501  0.00000000000E+00  0.00000000000E+00  0.11555108053E+04  0.11555108053E+04  0.50400001928E-02 0. -1.
        1   -1    0    0  501    0  0.00000000000E+00  0.00000000000E+00 -0.15751469568E+04  0.15751469568E+04  0.50400001928E-02 0.  1.
    10030    2    1    2    0    0  0.00000000000E+00  0.00000000000E+00 -0.41963615152E+03  0.27306577620E+04  0.26982211388E+04 0.  0.
        1    1    3    3  502    0  0.87126914683E+03  0.15667827540E+03 -0.12401142608E+04  0.15236605226E+04  0.50400001928E-02 0.  1.
       -1    1    3    3    0  502 -0.87126914683E+03 -0.15667827540E+03  0.82047810929E+03  0.12069972395E+04  0.50400001928E-02 0. -1.
</event>
<event>
 5   0  0.7806808E-07  0.2700050E+04  0.7818609E-02  0.8334989E-01
        1   -1    0    0  501    0  0.00000000000E+00  0.00000000000E+00  0.16794835223E+04  0.16794835223E+04  0.50400001928E-02 0.  1.
       -1   -1    0    0    0  501  0.00000000000E+00  0.00000000000E+00 -0.10851952501E+04  0.10851952501E+04  0.50400001928E-02 0. -1.
    10030    2    1    2    0    0  0.00000000000E+00  0.00000000000E+00  0.59428827224E+03  0.27646787724E+04  0.27000500299E+04 0.  0.
        5    1    3    3  502    0 -0.66348201299E+03 -0.58902894127E+03 -0.74474897557E+03  0.11583767098E+04  0.46999998093E+01 0. -1.
       -5    1    3    3    0  502  0.66348201299E+03  0.58902894127E+03  0.13390372478E+04  0.16063020626E+04  0.46999998093E+01 0.  1.
</event>
<event>
 5   0  0.7335091E-07  0.2694213E+04  0.7818609E-02  0.8336885E-01
        1   -1    0    0  501    0  0.00000000000E+00  0.00000000000E+00  0.14447022975E+04  0.14447022976E+04  0.50400001928E-02 0. -1.
       -1   -1    0    0    0  501  0.00000000000E+00  0.00000000000E+00 -0.12561035952E+04  0.12561035952E+04  0.50400001928E-02 0.  1.
    10030    2    1    2    0    0  0.00000000000E+00  0.00000000000E+00  0.18859870233E+03  0.27008058928E+04  0.26942128721E+04 0.  0.
        3    1    3    3  502    0 -0.79203746778E+03  0.10739905740E+04 -0.90316018356E+02  0.13375111576E+04  0.10100000352E+00 0. -1.
       -3    1    3    3    0  502  0.79203746778E+03 -0.10739905740E+04  0.27891472069E+03  0.13632947352E+04  0.10100000352E+00 0.  1.
</event>
<event>
 5   0  0.1932012E-06  0.2703248E+04  0.7818609E-02  0.8333952E-01
       -2   -1    0    0    0  501  0.00000000000E+00  0.00000000000E+00  0.68626395480E+03  0.68626395481E+03  0.25500000920E-02 0.  1.
        2   -1    0    0  501    0  0.00000000000E+00  0.00000000000E+00 -0.26620765947E+04  0.26620765947E+04  0.25500000920E-02 0. -1.
    10030    2    1    2    0    0  0.00000000000E+00  0.00000000000E+00 -0.19758126399E+04  0.33483405495E+04  0.27032478332E+04 0.  0.
        2    1    3    3  502    0  0.97095260185E+03 -0.63129050066E+03 -0.12475324864E+03  0.11648347627E+04  0.25500000920E-02 0.  1.
       -2    1    3    3    0  502 -0.97095260185E+03  0.63129050066E+03 -0.18510593913E+04  0.21835057869E+04  0.25500000920E-02 0. -1.
</event>
<event>
 5   0  0.7768032E-07  0.2689325E+04  0.7818609E-02  0.8338477E-01
        1   -1    0    0  501    0  0.00000000000E+00  0.00000000000E+00  0.20744880298E+04  0.20744880298E+04  0.50400001928E-02 0. -1.
       -1   -1    0    0    0  501  0.00000000000E+00  0.00000000000E+00 -0.87159696156E+03  0.87159696157E+03  0.50400001928E-02 0.  1.
    10030    2    1    2    0    0  0.00000000000E+00  0.00000000000E+00  0.12028910683E+04  0.29460849914E+04  0.26893251671E+04 0.  0.
        4    1    3    3  502    0 -0.10180716118E+04  0.19717787250E+03  0.15391908129E+04  0.18559253465E+04  0.12699999809E+01 0.  1.
       -4    1    3    3    0  502  0.10180716118E+04 -0.19717787250E+03 -0.33629974467E+03  0.10901596449E+04  0.12699999809E+01 0. -1.
</event>
<event>
 5   0  0.1991277E-06  0.2696514E+04  0.7818609E-02  0.8336137E-01
        2   -1    0    0  501    0  0.00000000000E+00  0.00000000000E+00  0.12826337312E+04  0.12826337312E+04  0.25500000920E-02 0.  1.
       -2   -1    0    0    0  501  0.00000000000E+00  0.00000000000E+00 -0.14172382225E+04  0.14172382225E+04  0.25500000920E-02 0. -1.
    10030    2    1    2    0    0  0.00000000000E+00  0.00000000000E+00 -0.13460449131E+03  0.26998719537E+04  0.26965144534E+04 0.  0.
        5    1    3    3  502    0  0.10024948876E+04  0.17962427126E+03  0.81726514515E+03  0.13058350914E+04  0.46999998093E+01 0.  1.
       -5    1    3    3    0  502 -0.10024948876E+04 -0.17962427126E+03 -0.95186963646E+03  0.13940368623E+04  0.46999998093E+01 0. -1.
</event>
<event>
 5   0  0.1999104E-06  0.2700763E+04  0.7818609E-02  0.8334757E-01
       -2   -1    0    0    0  501  0.00000000000E+00  0.00000000000E+00  0.10072934678E+04  0.10072934678E+04  0.25500000920E-02 0. -1.
        2   -1    0    0  501    0  0.00000000000E+00  0.00000000000E+00 -0.18103270984E+04  0.18103270984E+04  0.25500000920E-02 0.  1.
    10030    2    1    2    0    0  0.00000000000E+00  0.00000000000E+00 -0.80303363056E+03  0.28176205662E+04  0.27007633445E+04 0.  0.
        4    1    3    3  502    0 -0.21611276836E+03 -0.10685427256E+04 -0.12328914683E+04  0.16457555318E+04  0.12699999809E+01 0.  1.
       -4    1    3    3    0  502  0.21611276836E+03  0.10685427256E+04  0.42985783774E+03  0.11718650343E+04  0.12699999809E+01 0. -1.
</event>
<event>
 5   0  0.7566905E-07  0.2702215E+04  0.7818609E-02  0.8334287E-01
        1   -1    0    0  501    0  0.00000000000E+00  0.00000000000E+00  0.13991934819E+04  0.13991934819E+04  0.50400001928E-02 0.  1.
       -1   -1    0    0    0  501  0.00000000000E+00  0.00000000000E+00 -0.13046744146E+04  0.13046744146E+04  0.50400001928E-02 0. -1.
    10030    2    1    2    0    0  0.00000000000E+00  0.00000000000E+00  0.94519067322E+02  0.27038678965E+04  0.27022153407E+04 0.  0.
        1    1    3    3  502    0  0.11627116213E+04  0.84616790918E+02 -0.63611759226E+03  0.13280451449E+04  0.50400001928E-02 0. -1.
       -1    1    3    3    0  502 -0.11627116213E+04 -0.84616790918E+02  0.73063665958E+03  0.13758227516E+04  0.50400001928E-02 0.  1.
</event>
<event>
 5   0  0.1991277E-06  0.2700261E+04  0.7818609E-02  0.8334920E-01
       -2   -1    0    0    0  501  0.00000000000E+00  0.00000000000E+00  0.12800157581E+04  0.12800157581E+04  0.25500000920E-02 0. -1.
        2   -1    0    0  501    0  0.00000000000E+00  0.00000000000E+00 -0.14240858492E+04  0.14240858492E+04  0.25500000920E-02 0.  1.
    10030    2    1    2    0    0  0.00000000000E+00  0.00000000000E+00 -0.14407009112E+03  0.27041016072E+04  0.27002609709E+04 0.  0.
        5    1    3    3  502    0 -0.61665167460E+03 -0.11998730354E+04 -0.18333695552E+02  0.13491896839E+04  0.46999998093E+01 0.  1.
       -5    1    3    3    0  502  0.61665167460E+03  0.11998730354E+04 -0.12573639556E+03  0.13549119233E+04  0.46999998093E+01 0. -1.
</event>
<event>
 5   0  0.2030645E-06  0.2699101E+04  0.7818609E-02  0.8335297E-01
       -2   -1    0    0    0  501  0.00000000000E+00  0.00000000000E+00  0.79642274973E+03  0.79642274974E+03  0.25500000920E-02 0.  1.
        2   -1    0    0  501    0  0.00000000000E+00  0.00000000000E+00 -0.22868337554E+04  0.22868337554E+04  0.25500000920E-02 0. -1.
    10030    2    1    2    0    0  0.00000000000E+00  0.00000000000E+00 -0.14904110057E+04  0.30832565051E+04  0.26991009078E+04 0.  0.
        1    1    3    3  502    0 -0.11088792185E+04 -0.27685580701E+03  0.74587750729E+02  0.11453495500E+04  0.50400001928E-02 0.  1.
       -1    1    3    3    0  502  0.11088792185E+04  0.27685580701E+03 -0.15649987564E+04  0.19379069551E+04  0.50400001928E-02 0. -1.
</event>
<event>
 5   0  0.2063087E-06  0.2711552E+04  0.7818609E-02  0.8331266E-01
        2   -1    0    0  501    0  0.00000000000E+00  0.00000000000E+00  0.12959561822E+04  0.12959561822E+04  0.25500000920E-02 0. -1.
       -2   -1    0    0    0  501  0.00000000000E+00  0.00000000000E+00 -0.14183574823E+04  0.14183574823E+04  0.25500000920E-02 0.  1.
    10030    2    1    2    0    0  0.00000000000E+00  0.00000000000E+00 -0.12240130013E+03  0.27143136646E+04  0.27115524320E+04 0.  0.
        3    1    3    3  502    0 -0.90130754073E+03 -0.69194060986E+03  0.67914159648E+03  0.13237712827E+04  0.10100000352E+00 0. -1.
       -3    1    3    3    0  502  0.90130754073E+03  0.69194060986E+03 -0.80154289661E+03  0.13905423819E+04  0.10100000352E+00 0.  1.
</event>
<event>
 5   0  0.7566905E-07  0.2705024E+04  0.7818609E-02  0.8333377E-01
        1   -1    0    0  501    0  0.00000000000E+00  0.00000000000E+00  0.92514641111E+03  0.92514641112E+03  0.50400001928E-02 0.  1.
       -1   -1    0    0    0  501  0.00000000000E+00  0.00000000000E+00 -0.19772968980E+04  0.19772968980E+04  0.50400001928E-02 0. -1.
    10030    2    1    2    0    0  0.00000000000E+00  0.00000000000E+00 -0.10521504868E+04  0.29024433091E+04  0.27050243096E+04 0.  0.
        1    1    3    3  502    0 -0.74975902460E+03  0.38178707669E+03 -0.16623170135E+04  0.18631150851E+04  0.50400001928E-02 0. -1.
       -1    1    3    3    0  502  0.74975902460E+03 -0.38178707669E+03  0.61016652666E+03  0.10393282240E+04  0.50400001928E-02 0.  1.
</event>
<event>
 5   0  0.7436613E-07  0.2698828E+04  0.7818609E-02  0.8335385E-01
        1   -1    0    0  501    0  0.00000000000E+00  0.00000000000E+00  0.19696262389E+04  0.19696262389E+04  0.50400001928E-02 0. -1.
       -1   -1    0    0    0  501  0.00000000000E+00  0.00000000000E+00 -0.92449907083E+03  0.92449907085E+03  0.50400001928E-02 0.  1.
    10030    2    1    2    0    0  0.00000000000E+00  0.00000000000E+00  0.10451271681E+04  0.28941253098E+04  0.26988276179E+04 0.  0.
        2    1    3    3  502    0  0.31620410898E+03  0.66044430214E+03  0.17380519543E+04  0.18860000824E+04  0.25500000920E-02 0. -1.
       -2    1    3    3    0  502 -0.31620410898E+03 -0.66044430214E+03 -0.69292478623E+03  0.10081252274E+04  0.25500000920E-02 0.  1.
</event>
<event>
 5   0  0.2030645E-06  0.2691604E+04  0.7818609E-02  0.8337734E-01
        2   -1    0    0  501    0  0.00000000000E+00  0.00000000000E+00  0.20207321580E+04  0.20207321580E+04  0.25500000920E-02 0. -1.
       -2   -1    0    0    0  501  0.00000000000E+00  0.00000000000E+00 -0.89630032929E+03  0.89630032930E+03  0.25500000920E-02 0.  1.
    10030    2    1    2    0    0  0.00000000000E+00  0.00000000000E+00  0.11244318287E+04  0.29170324873E+04  0.26916039075E+04 0.  0.
        1    1    3    3  502    0 -0.11040741763E+03 -0.10327378705E+04  0.14897242056E+04  0.18160439190E+04  0.50400001928E-02 0. -1.
       -1    1    3    3    0  502  0.11040741763E+03  0.10327378705E+04 -0.36529237682E+03  0.11009885683E+04  0.50400001928E-02 0.  1.
</event>
<event>
 5   0  0.2063087E-06  0.2697058E+04  0.7818609E-02  0.8335960E-01
        2   -1    0    0  501    0  0.00000000000E+00  0.00000000000E+00  0.84148231520E+03  0.84148231520E+03  0.25500000920E-02 0. -1.
       -2   -1    0    0    0  501  0.00000000000E+00  0.00000000000E+00 -0.21611030503E+04  0.21611030503E+04  0.25500000920E-02 0.  1.
    10030    2    1    2    0    0  0.00000000000E+00  0.00000000000E+00 -0.13196207351E+04  0.30025853655E+04  0.26970576547E+04 0.  0.
        3    1    3    3  502    0 -0.44111170034E+03  0.93684941030E+03  0.30191544737E+03  0.10786191623E+04  0.10100000352E+00 0. -1.
       -3    1    3    3    0  502  0.44111170034E+03 -0.93684941030E+03 -0.16215361825E+04  0.19239662032E+04  0.10100000352E+00 0.  1.
</event>
<event>
 5   0  0.7806808E-07  0.2702161E+04  0.7818609E-02  0.8334304E-01
        1   -1    0    0  501    0  0.00000000000E+00  0.00000000000E+00  0.14413720497E+04  0.14413720497E+04  0.50400001928E-02 0. -1.
       -1   -1    0    0    0  501  0.00000000000E+00  0.00000000000E+00 -0.12664453615E+04  0.12664453615E+04  0.50400001928E-02 0.  1.
    10030    2    1    2    0    0  0.00000000000E+00  0.00000000000E+00  0.17492668817E+03  0.27078174112E+04  0.27021613176E+04 0.  0.
        5    1    3    3  502    0  0.11436742181E+03 -0.11514599868E+04 -0.61146115621E+03  0.13087577484E+04  0.46999998093E+01 0.  1.
       -5    1    3    3    0  502 -0.11436742181E+03  0.11514599868E+04  0.78638784438E+03  0.13990596628E+04  0.46999998093E+01 0. -1.
</event>
<event>
 5   0  0.2063087E-06  0.2697943E+04  0.7818609E-02  0.8335673E-01
        2   -1    0    0  501    0  0.00000000000E+00  0.00000000000E+00  0.24249203912E+04  0.24249203912E+04  0.25500000920E-02 0.  1.
       -2   -1    0    0    0  501  0.00000000000E+00  0.00000000000E+00 -0.75042635096E+03  0.75042635096E+03  0.25500000920E-02 0. -1.
    10030    2    1    2    0    0  0.00000000000E+00  0.00000000000E+00  0.16744940403E+04  0.31753467422E+04  0.26979430391E+04 0.  0.
        3    1    3    3  502    0 -0.45825401830E+03  0.53786140733E+03 -0.51518823872E+03  0.87447731263E+03  0.10100000352E+00 0. -1.
       -3    1    3    3    0  502  0.45825401830E+03 -0.53786140733E+03  0.21896822790E+04  0.23008694296E+04  0.10100000352E+00 0.  1.
</event>
<event>
 5   0  0.7768032E-07  0.2701089E+04  0.7818609E-02  0.8334652E-01
       -1   -1    0    0    0  501  0.00000000000E+00  0.00000000000E+00  0.10013341583E+04  0.10013341584E+04  0.50400001928E-02 0. -1.
        1   -1    0    0  501    0  0.00000000000E+00  0.00000000000E+00 -0.18215395707E+04  0.18215395707E+04  0.50400001928E-02 0.  1.
    10030    2    1    2    0    0  0.00000000000E+00  0.00000000000E+00 -0.82020541240E+03  0.28228737291E+04  0.27010885161E+04 0.  0.
        4    1    3    3  502    0  0.54806389163E+03  0.60034102358E+03 -0.15372404575E+04  0.17389345045E+04  0.12699999809E+01 0.  1.
       -4    1    3    3    0  502 -0.54806389163E+03 -0.60034102358E+03  0.71703504507E+03  0.10839392246E+04  0.12699999809E+01 0. -1.
</event>
<event>
 5   0  0.7768032E-07  0.2698394E+04  0.7818609E-02  0.8335526E-01
        1   -1    0    0  501    0  0.00000000000E+00  0.00000000000E+00  0.19344224832E+04  0.19344224832E+04  0.50400001928E-02 0. -1.
       -1   -1    0    0    0  501  0.00000000000E+00  0.00000000000E+00 -0.94102105580E+03  0.94102105582E+03  0.50400001928E-02 0.  1.
    10030    2    1    2    0    0  0.00000000000E+00  0.00000000000E+00  0.99340142738E+03  0.28754435390E+04  0.26983938093E+04 0.  0.
        4    1    3    3  502    0  0.72261243006E+03  0.43192542154E+03 -0.62680231293E+03  0.10495766033E+04  0.12699999809E+01 0.  1.
       -4    1    3    3    0  502 -0.72261243006E+03 -0.43192542154E+03  0.16202037403E+04  0.18258669357E+04  0.12699999809E+01 0. -1.
</event>
<event>
 5   0  0.2063087E-06  0.2703903E+04  0.7818609E-02  0.8333740E-01
        2   -1    0    0  501    0  0.00000000000E+00  0.00000000000E+00  0.98297747877E+03  0.98297747877E+03  0.25500000920E-02 0.  1.
       -2   -1    0    0    0  501  0.00000000000E+00  0.00000000000E+00 -0.18594252611E+04  0.18594252611E+04  0.25500000920E-02 0. -1.
    10030    2    1    2    0    0  0.00000000000E+00  0.00000000000E+00 -0.87644778236E+03  0.28424027399E+04  0.27039032195E+04 0.  0.
        3    1    3    3  502    0  0.71593720259E+03  0.10343939795E+04  0.82355205595E+02  0.12606821063E+04  0.10100000352E+00 0.  1.
       -3    1    3    3    0  502 -0.71593720259E+03 -0.10343939795E+04 -0.95880298795E+03  0.15817206336E+04  0.10100000352E+00 0. -1.
</event>
<event>
 5   0  0.7806808E-07  0.2698731E+04  0.7818609E-02  0.8335417E-01
       -1   -1    0    0    0  501  0.00000000000E+00  0.00000000000E+00  0.60290225751E+03  0.60290225753E+03  0.50400001928E-02 0.  1.
        1   -1    0    0  501    0  0.00000000000E+00  0.00000000000E+00 -0.30200365263E+04  0.30200365263E+04  0.50400001928E-02 0. -1.
    10030    2    1    2    0    0  0.00000000000E+00  0.00000000000E+00 -0.24171342688E+04  0.36229387839E+04  0.26987306939E+04 0.  0.
        5    1    3    3  502    0 -0.58559260987E+03  0.19206689052E+02  0.42321372117E+03  0.72278596101E+03  0.46999998093E+01 0.  1.
       -5    1    3    3    0  502  0.58559260987E+03 -0.19206689052E+02 -0.28403479900E+04  0.29001528229E+04  0.46999998093E+01 0. -1.
</event>
<event>
 5   0  0.7566905E-07  0.2698803E+04  0.7818609E-02  0.8335393E-01
        1   -1    0    0  501    0  0.00000000000E+00  0.00000000000E+00  0.18198014003E+04  0.18198014003E+04  0.50400001928E-02 0.  1.
       -1   -1    0    0    0  501  0.00000000000E+00  0.00000000000E+00 -0.10005950319E+04  0.10005950319E+04  0.50400001928E-02 0. -1.
    10030    2    1    2    0    0  0.00000000000E+00  0.00000000000E+00  0.81920636838E+03  0.28203964322E+04  0.26988028755E+04 0.  0.
        1    1    3    3  502    0  0.98663357110E+03 -0.28640434262E+03 -0.50469180368E+03  0.11446340323E+04  0.50400001928E-02 0. -1.
       -1    1    3    3    0  502 -0.98663357110E+03  0.28640434262E+03  0.13238981721E+04  0.16757624000E+04  0.50400001928E-02 0.  1.
</event>
<event>
 5   0  0.7768032E-07  0.2703959E+04  0.7818609E-02  0.8333721E-01
       -1   -1    0    0    0  501  0.00000000000E+00  0.00000000000E+00  0.16495923308E+04  0.16495923308E+04  0.50400001928E-02 0.  1.
        1   -1    0    0  501    0  0.00000000000E+00  0.00000000000E+00 -0.11080610354E+04  0.11080610354E+04  0.50400001928E-02 0. -1.
    10030    2    1    2    0    0  0.00000000000E+00  0.00000000000E+00  0.54153129540E+03  0.27576533661E+04  0.27039593089E+04 0.  0.
        4    1    3    3  502    0  0.10325416804E+04 -0.49557168089E+03  0.10034421144E+04  0.15227052579E+04  0.12699999809E+01 0.  1.
       -4    1    3    3    0  502 -0.10325416804E+04  0.49557168089E+03 -0.46191081896E+03  0.12349481083E+04  0.12699999809E+01 0. -1.
</event>
<event>
 5   0  0.1932012E-06  0.2702071E+04  0.7818609E-02  0.8334333E-01
       -2   -1    0    0    0  501  0.00000000000E+00  0.00000000000E+00  0.70759843527E+03  0.70759843527E+03  0.25500000920E-02 0.  1.
        2   -1    0    0  501    0  0.00000000000E+00  0.00000000000E+00 -0.25795656213E+04  0.25795656213E+04  0.25500000920E-02 0. -1.
    10030    2    1    2    0    0  0.00000000000E+00  0.00000000000E+00 -0.18719671860E+04  0.32871640566E+04  0.27020707595E+04 0.  0.
        2    1    3    3  502    0  0.47540667796E+03  0.41486574670E+03  0.51734140580E+03  0.81594560321E+03  0.25500000920E-02 0.  1.
       -2    1    3    3    0  502 -0.47540667796E+03 -0.41486574670E+03 -0.23893085918E+04  0.24712184534E+04  0.25500000920E-02 0. -1.
</event>
<event>
 5   0  0.1932012E-06  0.2703516E+04  0.7818609E-02  0.8333865E-01
       -2   -1    0    0    0  501  0.00000000000E+00  0.00000000000E+00  0.91960157704E+03  0.91960157704E+03  0.25500000920E-02 0. -1.
        2   -1    0    0  501    0  0.00000000000E+00  0.00000000000E+00 -0.19870021803E+04  0.19870021803E+04  0.25500000920E-02 0.  1.
    10030    2    1    2    0    0  0.00000000000E+00  0.00000000000E+00 -0.10674006032E+04  0.29066037573E+04  0.27035164794E+04 0.  0.
        2    1    3    3  502    0  0.12057273041E+04 -0.46887987072E+03 -0.11230869352E+03  0.12985530053E+04  0.25500000920E-02 0. -1.
       -2    1    3    3    0  502 -0.12057273041E+04  0.46887987072E+03 -0.95509190971E+03  0.16080507520E+04  0.25500000920E-02 0.  1.
</event>
<event>
 5   0  0.1932012E-06  0.2703850E+04  0.7818609E-02  0.8333757E-01
        2   -1    0    0  501    0  0.00000000000E+00  0.00000000000E+00  0.21999542840E+04  0.21999542840E+04  0.25500000920E-02 0.  1.
       -2   -1    0    0    0  501  0.00000000000E+00  0.00000000000E+00 -0.83079029802E+03  0.83079029803E+03  0.25500000920E-02 0. -1.
    10030    2    1    2    0    0  0.00000000000E+00  0.00000000000E+00  0.13691639860E+04  0.30307445820E+04  0.27038496077E+04 0.  0.
        2    1    3    3  502    0 -0.90822849935E+03 -0.98283600271E+03  0.46939532203E+03  0.14181599288E+04  0.25500000920E-02 0. -1.
       -2    1    3    3    0  502  0.90822849935E+03  0.98283600271E+03  0.89976866395E+03  0.16125846533E+04  0.25500000920E-02 0.  1.
</event>
<event>
 5   0  0.7436613E-07  0.2704463E+04  0.7818609E-02  0.8333558E-01
       -1   -1    0    0    0  501  0.00000000000E+00  0.00000000000E+00  0.10936480229E+04  0.10936480229E+04  0.50400001928E-02 0. -1.
        1   -1    0    0  501    0  0.00000000000E+00  0.00000000000E+00 -0.16719550098E+04  0.16719550098E+04  0.50400001928E-02 0.  1.
    10030    2    1    2    0    0  0.00000000000E+00  0.00000000000E+00 -0.57830698691E+03  0.27656030327E+04  0.27044631932E+04 0.  0.
        2    1    3    3  502    0  0.40587177625E+03  0.31102298640E+03  0.99097041509E+03  0.11151186306E+04  0.25500000920E-02 0. -1.
       -2    1    3    3    0  502 -0.40587177625E+03 -0.31102298640E+03 -0.15692774020E+04  0.16504844020E+04  0.25500000920E-02 0.  1.
</event>
<event>
 5   0  0.7768032E-07  0.2695820E+04  0.7818609E-02  0.8336362E-01
        1   -1    0    0  501    0  0.00000000000E+00  0.00000000000E+00  0.19887463723E+04  0.19887463723E+04  0.50400001928E-02 0. -1.
       -1   -1    0    0    0  501  0.00000000000E+00  0.00000000000E+00 -0.91357127365E+03  0.91357127366E+03  0.50400001928E-02 0.  1.
    10030    2    1    2    0    0  0.00000000000E+00  0.00000000000E+00  0.10751750987E+04  0.29023176460E+04  0.26958201397E+04 0.  0.
        4    1    3    3  502    0 -0.20478954356E+03  0.13275407234E+04  0.41694687335E+03  0.14064670054E+04  0.12699999809E+01 0.  1.
       -4    1    3    3    0  502  0.20478954356E+03 -0.13275407234E+04  0.65822822533E+03  0.14958506405E+04  0.12699999809E+01 0. -1.
</event>
<event>
 5   0  0.7335091E-07  0.2704586E+04  0.7818609E-02  0.8333519E-01
       -1   -1    0    0    0  501  0.00000000000E+00  0.00000000000E+00  0.97814254558E+03  0.97814254559E+03  0.50400001928E-02 0.  1.
        1   -1    0    0  501    0  0.00000000000E+00  0.00000000000E+00 -0.18695596581E+04  0.18695596581E+04  0.50400001928E-02 0. -1.
    10030    2    1    2    0    0  0.00000000000E+00  0.00000000000E+00 -0.89141711253E+03  0.28477022037E+04  0.27045856194E+04 0.  0.
        3    1    3    3  502    0 -0.45729522601E+03  0.22116361336E+03 -0.17652876355E+04  0.18369193542E+04  0.10100000352E+00 0. -1.
       -3    1    3    3    0  502  0.45729522601E+03 -0.22116361336E+03  0.87387052300E+03  0.10107828495E+04  0.10100000352E+00 0.  1.
</event>
<event>
 5   0  0.1991277E-06  0.2697891E+04  0.7818609E-02  0.8335690E-01
        2   -1    0    0  501    0  0.00000000000E+00  0.00000000000E+00  0.19591875206E+04  0.19591875206E+04  0.25500000920E-02 0.  1.
       -2   -1    0    0    0  501  0.00000000000E+00  0.00000000000E+00 -0.92878005993E+03  0.92878005993E+03  0.25500000920E-02 0. -1.
    10030    2    1    2    0    0  0.00000000000E+00  0.00000000000E+00  0.10304074606E+04  0.28879675805E+04  0.26978912526E+04 0.  0.
        5    1    3    3  502    0  0.13479156232E+04 -0.38357297223E+02  0.55356726124E+03  0.14576716407E+04  0.46999998093E+01 0. -1.
       -5    1    3    3    0  502 -0.13479156232E+04  0.38357297223E+02  0.47684019939E+03  0.14302959397E+04  0.46999998093E+01 0.  1.
</event>
<event>
 5   0  0.7768032E-07  0.2701527E+04  0.7818609E-02  0.8334510E-01
        1   -1    0    0  501    0  0.00000000000E+00  0.00000000000E+00  0.16716762044E+04  0.16716762044E+04  0.50400001928E-02 0.  1.
       -1   -1    0    0    0  501  0.00000000000E+00  0.00000000000E+00 -0.10914567543E+04  0.10914567544E+04  0.50400001928E-02 0. -1.
    10030    2    1    2    0    0  0.00000000000E+00  0.00000000000E+00  0.58021945007E+03  0.27631329588E+04  0.27015271862E+04 0.  0.
        4    1    3    3  502    0 -0.67453517821E+03  0.72723156262E+03  0.12279140824E+04  0.15784923373E+04  0.12699999809E+01 0.  1.
       -4    1    3    3    0  502  0.67453517821E+03 -0.72723156262E+03 -0.64769463235E+03  0.11846406215E+04  0.12699999809E+01 0. -1.
</event>
<event>
 5   0  0.1991277E-06  0.2739182E+04  0.7818609E-02  0.8322402E-01
       -2   -1    0    0    0  501  0.00000000000E+00  0.00000000000E+00  0.85297815174E+03  0.85297815175E+03  0.25500000920E-02 0.  1.
        2   -1    0    0  501    0  0.00000000000E+00  0.00000000000E+00 -0.21990951802E+04  0.21990951802E+04  0.25500000920E-02 0. -1.
    10030    2    1    2    0    0  0.00000000000E+00  0.00000000000E+00 -0.13461170284E+04  0.30520733319E+04  0.27391824637E+04 0.  0.
        5    1    3    3  502    0 -0.90431450749E+02  0.69779703456E+03 -0.19822925737E+04  0.21034743845E+04  0.46999998093E+01 0. -1.
       -5    1    3    3    0  502  0.90431450749E+02 -0.69779703456E+03  0.63617554522E+03  0.94859894742E+03  0.46999998093E+01 0.  1.
</event>
<event>
 5   0  0.7768032E-07  0.2697838E+04  0.7818609E-02  0.8335707E-01
       -1   -1    0    0    0  501  0.00000000000E+00  0.00000000000E+00  0.98083300930E+03  0.98083300931E+03  0.50400001928E-02 0. -1.
        1   -1    0    0  501    0  0.00000000000E+00  0.00000000000E+00 -0.18551398306E+04  0.18551398307E+04  0.50400001928E-02 0.  1.
    10030    2    1    2    0    0  0.00000000000E+00  0.00000000000E+00 -0.87430682135E+03  0.28359728400E+04  0.26978379364E+04 0.  0.
        4    1    3    3  502    0  0.26828735362E+03  0.47759573306E+03 -0.17329513175E+04  0.18174701291E+04  0.12699999809E+01 0.  1.
       -4    1    3    3    0  502 -0.26828735362E+03 -0.47759573306E+03  0.85864449617E+03  0.10185027109E+04  0.12699999809E+01 0. -1.
</event>
<event>
 5   0  0.6561875E-07  0.2697015E+04  0.7818609E-02  0.8335974E-01
       -3   -1    0    0    0  501  0.00000000000E+00  0.00000000000E+00  0.13889583061E+04  0.13889583098E+04  0.10100000352E+00 0.  1.
        3   -1    0    0  501    0  0.00000000000E+00  0.00000000000E+00 -0.13092343051E+04  0.13092343090E+04  0.10100000352E+00 0. -1.
    10030    2    1    2    0    0  0.00000000000E+00  0.00000000000E+00  0.79724001047E+02  0.26981926187E+04  0.26970145516E+04 0.  0.
        2    1    3    3  502    0 -0.29999188091E+03 -0.64665997838E+02 -0.12738357350E+04  0.13102802371E+04  0.25500000920E-02 0. -1.
       -2    1    3    3    0  502  0.29999188091E+03  0.64665997838E+02  0.13535597361E+04  0.13879123816E+04  0.25500000920E-02 0.  1.
</event>
<event>
 5   0  0.7335091E-07  0.2693658E+04  0.7818609E-02  0.8337066E-01
        1   -1    0    0  501    0  0.00000000000E+00  0.00000000000E+00  0.23287673220E+04  0.23287673220E+04  0.50400001928E-02 0. -1.
       -1   -1    0    0    0  501  0.00000000000E+00  0.00000000000E+00 -0.77893057626E+03  0.77893057628E+03  0.50400001928E-02 0.  1.
    10030    2    1    2    0    0  0.00000000000E+00  0.00000000000E+00  0.15498367457E+04  0.31076978983E+04  0.26936577898E+04 0.  0.
        3    1    3    3  502    0  0.61402018571E+03 -0.47618240211E+03  0.20440916726E+04  0.21867970287E+04  0.10100000352E+00 0. -1.
       -3    1    3    3    0  502 -0.61402018571E+03  0.47618240211E+03 -0.49425492691E+03  0.92090086954E+03  0.10100000352E+00 0.  1.
</event>
<event>
 5   0  0.7335091E-07  0.2698145E+04  0.7818609E-02  0.8335607E-01
        1   -1    0    0  501    0  0.00000000000E+00  0.00000000000E+00  0.15974731009E+04  0.15974731009E+04  0.50400001928E-02 0. -1.
       -1   -1    0    0    0  501  0.00000000000E+00  0.00000000000E+00 -0.11392970452E+04  0.11392970452E+04  0.50400001928E-02 0.  1.
    10030    2    1    2    0    0  0.00000000000E+00  0.00000000000E+00  0.45817605570E+03  0.27367701461E+04  0.26981448320E+04 0.  0.
        3    1    3    3  502    0 -0.10771083466E+03 -0.11425056950E+04  0.94851984940E+03  0.14888286678E+04  0.10100000352E+00 0. -1.
       -3    1    3    3    0  502  0.10771083466E+03  0.11425056950E+04 -0.49034379370E+03  0.12479414783E+04  0.10100000352E+00 0.  1.
</event>
<event>
 5   0  0.1999104E-06  0.2699228E+04  0.7818609E-02  0.8335256E-01
       -2   -1    0    0    0  501  0.00000000000E+00  0.00000000000E+00  0.10097190121E+04  0.10097190121E+04  0.25500000920E-02 0. -1.
        2   -1    0    0  501    0  0.00000000000E+00  0.00000000000E+00 -0.18039255360E+04  0.18039255360E+04  0.25500000920E-02 0.  1.
    10030    2    1    2    0    0  0.00000000000E+00  0.00000000000E+00 -0.79420652391E+03  0.28136445481E+04  0.26992279712E+04 0.  0.
        4    1    3    3  502    0 -0.39461734103E+03 -0.12260167528E+04  0.23247463573E+02  0.12881700126E+04  0.12699999809E+01 0. -1.
       -4    1    3    3    0  502  0.39461734103E+03  0.12260167528E+04 -0.81745398748E+03  0.15254745355E+04  0.12699999809E+01 0.  1.
</event>
<event>
 5   0  0.1932012E-06  0.2701223E+04  0.7818609E-02  0.8334608E-01
        2   -1    0    0  501    0  0.00000000000E+00  0.00000000000E+00  0.15850654134E+04  0.15850654134E+04  0.25500000920E-02 0.  1.
       -2   -1    0    0    0  501  0.00000000000E+00  0.00000000000E+00 -0.11508363412E+04  0.11508363412E+04  0.25500000920E-02 0. -1.
    10030    2    1    2    0    0  0.00000000000E+00  0.00000000000E+00  0.43422907224E+03  0.27359017546E+04  0.27012225980E+04 0.  0.
        2    1    3    3  502    0 -0.93565853956E+03 -0.20756725936E+03 -0.74673819679E+03  0.12149728410E+04  0.25500000920E-02 0. -1.
       -2    1    3    3    0  502  0.93565853956E+03  0.20756725936E+03  0.11809672690E+04  0.15209289136E+04  0.25500000920E-02 0.  1.
</event>
<event>
 5   0  0.7335091E-07  0.2699792E+04  0.7818609E-02  0.8335072E-01
        1   -1    0    0  501    0  0.00000000000E+00  0.00000000000E+00  0.13941461481E+04  0.13941461481E+04  0.50400001928E-02 0.  1.
       -1   -1    0    0    0  501  0.00000000000E+00  0.00000000000E+00 -0.13070502449E+04  0.13070502449E+04  0.50400001928E-02 0. -1.
    10030    2    1    2    0    0  0.00000000000E+00  0.00000000000E+00  0.87095903172E+02  0.27011963930E+04  0.26997918914E+04 0.  0.
        3    1    3    3  502    0 -0.94535491837E+03  0.49644247835E+03 -0.78275577070E+03  0.13239553100E+04  0.10100000352E+00 0. -1.
       -3    1    3    3    0  502  0.94535491837E+03 -0.49644247835E+03  0.86985167387E+03  0.13772410830E+04  0.10100000352E+00 0.  1.
</event>
<event>
 5   0  0.2063087E-06  0.2699885E+04  0.7818609E-02  0.8335042E-01
        2   -1    0    0  501    0  0.00000000000E+00  0.00000000000E+00  0.12361756395E+04  0.12361756395E+04  0.25500000920E-02 0. -1.
       -2   -1    0    0    0  501  0.00000000000E+00  0.00000000000E+00 -0.14741790373E+04  0.14741790373E+04  0.25500000920E-02 0.  1.
    10030    2    1    2    0    0  0.00000000000E+00  0.00000000000E+00 -0.23800339779E+03  0.27103546767E+04  0.26998846006E+04 0.  0.
        3    1    3    3  502    0  0.71659259304E+03  0.10759222272E+04  0.27139019529E+03  0.13208959958E+04  0.10100000352E+00 0. -1.
       -3    1    3    3    0  502 -0.71659259304E+03 -0.10759222272E+04 -0.50939359308E+03  0.13894586810E+04  0.10100000352E+00 0.  1.
</event>
<event>
 5   0  0.7566905E-07  0.2702099E+04  0.7818609E-02  0.8334324E-01
        1   -1    0    0  501    0  0.00000000000E+00  0.00000000000E+00  0.11772728361E+04  0.11772728361E+04  0.50400001928E-02 0.  1.
       -1   -1    0    0    0  501  0.00000000000E+00  0.00000000000E+00 -0.15504770994E+04  0.15504770994E+04  0.50400001928E-02 0. -1.
    10030    2    1    2    0    0  0.00000000000E+00  0.00000000000E+00 -0.37320426336E+03  0.27277499355E+04  0.27020988673E+04 0.  0.
        1    1    3    3  502    0  0.10224872493E+04  0.70089075893E+02  0.70206249943E+03  0.12422899850E+04  0.50400001928E-02 0.  1.
       -1    1    3    3    0  502 -0.10224872493E+04 -0.70089075893E+02 -0.10752667628E+04  0.14854599506E+04  0.50400001928E-02 0. -1.
</event>
<event>
 5   0  0.7768032E-07  0.2701918E+04  0.7818609E-02  0.8334383E-01
        1   -1    0    0  501    0  0.00000000000E+00  0.00000000000E+00  0.21756452243E+04  0.21756452243E+04  0.50400001928E-02 0. -1.
       -1   -1    0    0    0  501  0.00000000000E+00  0.00000000000E+00 -0.83887331189E+03  0.83887331191E+03  0.50400001928E-02 0.  1.
    10030    2    1    2    0    0  0.00000000000E+00  0.00000000000E+00  0.13367719124E+04  0.30145185362E+04  0.27019183665E+04 0.  0.
        4    1    3    3  502    0  0.41226552881E+03  0.11325546834E+04 -0.12504842267E+02  0.12053219325E+04  0.12699999809E+01 0.  1.
       -4    1    3    3    0  502 -0.41226552881E+03 -0.11325546834E+04  0.13492767547E+04  0.18091966037E+04  0.12699999809E+01 0. -1.
</event>
<event>
 5   0  0.7806808E-07  0.2699630E+04  0.7818609E-02  0.8335125E-01
        1   -1    0    0  501    0  0.00000000000E+00  0.00000000000E+00  0.13983546104E+04  0.13983546104E+04  0.50400001928E-02 0.  1.
       -1   -1    0    0    0  501  0.00000000000E+00  0.00000000000E+00 -0.13029600470E+04  0.13029600470E+04  0.50400001928E-02 0. -1.
    10030    2    1    2    0    0  0.00000000000E+00  0.00000000000E+00  0.95394563430E+02  0.27013146575E+04  0.26996297442E+04 0.  0.
        5    1    3    3  502    0  0.23097543833E+03  0.12952230063E+04 -0.25419585930E+03  0.13399962366E+04  0.46999998093E+01 0.  1.
       -5    1    3    3    0  502 -0.23097543833E+03 -0.12952230063E+04  0.34959042274E+03  0.13613184208E+04  0.46999998093E+01 0. -1.
</event>
<event>
 5   0  0.2063087E-06  0.2698927E+04  0.7818609E-02  0.8335353E-01
       -2   -1    0    0    0  501  0.00000000000E+00  0.00000000000E+00  0.74103655802E+03  0.74103655803E+03  0.25500000920E-02 0.  1.
        2   -1    0    0  501    0  0.00000000000E+00  0.00000000000E+00 -0.24574378995E+04  0.24574378995E+04  0.25500000920E-02 0. -1.
    10030    2    1    2    0    0  0.00000000000E+00  0.00000000000E+00 -0.17164013414E+04  0.31984744575E+04  0.26989266923E+04 0.  0.
        3    1    3    3  502    0  0.18172823299E+03 -0.34731327456E+03  0.67208196925E+03  0.77803974509E+03  0.10100000352E+00 0.  1.
       -3    1    3    3    0  502 -0.18172823299E+03  0.34731327456E+03 -0.23884833107E+04  0.24204347124E+04  0.10100000352E+00 0. -1.
</event>
<event>
 5   0  0.7566905E-07  0.2696764E+04  0.7818609E-02  0.8336056E-01
       -1   -1    0    0    0  501  0.00000000000E+00  0.00000000000E+00  0.11835837073E+04  0.11835837073E+04  0.50400001928E-02 0.  1.
        1   -1    0    0  501    0  0.00000000000E+00  0.00000000000E+00 -0.15361265019E+04  0.15361265019E+04  0.50400001928E-02 0. -1.
    10030    2    1    2    0    0  0.00000000000E+00  0.00000000000E+00 -0.35254279458E+03  0.27197102092E+04  0.26967642092E+04 0.  0.
        1    1    3    3  502    0  0.27901195607E+03  0.17455675748E+01 -0.15066941614E+04  0.15323113309E+04  0.50400001928E-02 0. -1.
       -1    1    3    3    0  502 -0.27901195607E+03 -0.17455675748E+01  0.11541513668E+04  0.11873988783E+04  0.50400001928E-02 0.  1.
</event>
<event>
 5   0  0.2030645E-06  0.2701939E+04  0.7818609E-02  0.8334376E-01
        2   -1    0    0  501    0  0.00000000000E+00  0.00000000000E+00  0.14304231920E+04  0.14304231920E+04  0.25500000920E-02 0.  1.
       -2   -1    0    0    0  501  0.00000000000E+00  0.00000000000E+00 -0.12759287544E+04  0.12759287545E+04  0.25500000920E-02 0. -1.
    10030    2    1    2    0    0  0.00000000000E+00  0.00000000000E+00  0.15449443753E+03  0.27063519464E+04  0.27019386238E+04 0.  0.
        1    1    3    3  502    0  0.10310821183E+04 -0.86942033790E+03 -0.95734455755E+00  0.13487115982E+04  0.50400001928E-02 0. -1.
       -1    1    3    3    0  502 -0.10310821183E+04  0.86942033790E+03  0.15545178209E+03  0.13576403482E+04  0.50400001928E-02 0.  1.
</event>
<event>
 5   0  0.7768032E-07  0.2699647E+04  0.7818609E-02  0.8335120E-01
       -1   -1    0    0    0  501  0.00000000000E+00  0.00000000000E+00  0.10066549709E+04  0.10066549709E+04  0.50400001928E-02 0.  1.
        1   -1    0    0  501    0  0.00000000000E+00  0.00000000000E+00 -0.18099775215E+04  0.18099775215E+04  0.50400001928E-02 0. -1.
    10030    2    1    2    0    0  0.00000000000E+00  0.00000000000E+00 -0.80332255067E+03  0.28166324924E+04  0.26996465467E+04 0.  0.
        4    1    3    3  502    0  0.11745774175E+04 -0.84992676618E+02 -0.10899179817E+04  0.16046116928E+04  0.12699999809E+01 0. -1.
       -4    1    3    3    0  502 -0.11745774175E+04  0.84992676618E+02  0.28659543103E+03  0.12120207997E+04  0.12699999809E+01 0.  1.
</event>
<event>
 5   0  0.7806808E-07  0.2698648E+04  0.7818609E-02  0.8335444E-01
        1   -1    0    0  501    0  0.00000000000E+00  0.00000000000E+00  0.20263455446E+04  0.20263455446E+04  0.50400001928E-02 0.  1.
       -1   -1    0    0    0  501  0.00000000000E+00  0.00000000000E+00 -0.89850197127E+03  0.89850197129E+03  0.50400001928E-02 0. -1.
    10030    2    1    2    0    0  0.00000000000E+00  0.00000000000E+00  0.11278435734E+04  0.29248475159E+04  0.26986481552E+04 0.  0.
        5    1    3    3  502    0 -0.34912616391E+03  0.63937197881E+03  0.17948887391E+04  0.19370940301E+04  0.46999998093E+01 0.  1.
       -5    1    3    3    0  502  0.34912616391E+03 -0.63937197881E+03 -0.66704516576E+03  0.98775348583E+03  0.46999998093E+01 0. -1.
</event>
<event>
 5   0  0.7436613E-07  0.2697811E+04  0.7818609E-02  0.8335716E-01
        1   -1    0    0  501    0  0.00000000000E+00  0.00000000000E+00  0.16477021537E+04  0.16477021537E+04  0.50400001928E-02 0.  1.
       -1   -1    0    0    0  501  0.00000000000E+00  0.00000000000E+00 -0.11042928547E+04  0.11042928547E+04  0.50400001928E-02 0. -1.
    10030    2    1    2    0    0  0.00000000000E+00  0.00000000000E+00  0.54340929902E+03  0.27519950084E+04  0.26978107532E+04 0.  0.
        2    1    3    3  502    0 -0.66927671054E+03 -0.11611675891E+04  0.11598137172E+03  0.13452483651E+04  0.25500000920E-02 0. -1.
       -2    1    3    3    0  502  0.66927671054E+03  0.11611675891E+04  0.42742792731E+03  0.14067466433E+04  0.25500000920E-02 0.  1.
</event>
<event>
 5   0  0.7768032E-07  0.2699011E+04  0.7818609E-02  0.8335326E-01
       -1   -1    0    0    0  501  0.00000000000E+00  0.00000000000E+00  0.17424472278E+04  0.17424472279E+04  0.50400001928E-02 0.  1.
        1   -1    0    0  501    0  0.00000000000E+00  0.00000000000E+00 -0.10451767784E+04  0.10451767784E+04  0.50400001928E-02 0. -1.
    10030    2    1    2    0    0  0.00000000000E+00  0.00000000000E+00  0.69727044942E+03  0.27876240063E+04  0.26990112117E+04 0.  0.
        4    1    3    3  502    0 -0.40960243242E+03 -0.10862114396E+04  0.10593661928E+04  0.15715876646E+04  0.12699999809E+01 0.  1.
       -4    1    3    3    0  502  0.40960243242E+03  0.10862114396E+04 -0.36209574342E+03  0.12160363417E+04  0.12699999809E+01 0. -1.
</event>
<event>
 5   0  0.7806808E-07  0.2698619E+04  0.7818609E-02  0.8335453E-01
        1   -1    0    0  501    0  0.00000000000E+00  0.00000000000E+00  0.21369500158E+04  0.21369500158E+04  0.50400001928E-02 0.  1.
       -1   -1    0    0    0  501  0.00000000000E+00  0.00000000000E+00 -0.85197874279E+03  0.85197874281E+03  0.50400001928E-02 0. -1.
    10030    2    1    2    0    0  0.00000000000E+00  0.00000000000E+00  0.12849712730E+04  0.29889287587E+04  0.26986188971E+04 0.  0.
        5    1    3    3  502    0  0.10458885264E+04  0.84181222918E+03  0.49354528995E+03  0.14304333896E+04  0.46999998093E+01 0.  1.
       -5    1    3    3    0  502 -0.10458885264E+04 -0.84181222918E+03  0.79142598310E+03  0.15584953691E+04  0.46999998093E+01 0. -1.
</event>
<event>
 5   0  0.1932012E-06  0.2699047E+04  0.7818609E-02  0.8335314E-01
       -2   -1    0    0    0  501  0.00000000000E+00  0.00000000000E+00  0.16450546253E+04  0.16450546253E+04  0.25500000920E-02 0.  1.
        2   -1    0    0  501    0  0.00000000000E+00  0.00000000000E+00 -0.11070842847E+04  0.11070842847E+04  0.25500000920E-02 0. -1.
    10030    2    1    2    0    0  0.00000000000E+00  0.00000000000E+00  0.53797034057E+03  0.27521389100E+04  0.26990473306E+04 0.  0.
        2    1    3    3  502    0  0.55094719098E+03 -0.96586241174E+03 -0.51076687123E+03  0.12236485616E+04  0.25500000920E-02 0. -1.
       -2    1    3    3    0  502 -0.55094719098E+03  0.96586241174E+03  0.10487372118E+04  0.15284903484E+04  0.25500000920E-02 0.  1.
</event>
<event>
 5   0  0.7566905E-07  0.2700939E+04  0.7818609E-02  0.8334700E-01
       -1   -1    0    0    0  501  0.00000000000E+00  0.00000000000E+00  0.77295700194E+03  0.77295700196E+03  0.50400001928E-02 0.  1.
        1   -1    0    0  501    0  0.00000000000E+00  0.00000000000E+00 -0.23594683603E+04  0.23594683603E+04  0.50400001928E-02 0. -1.
    10030    2    1    2    0    0  0.00000000000E+00  0.00000000000E+00 -0.15865113584E+04  0.31324253623E+04  0.27009387924E+04 0.  0.
        1    1    3    3  502    0 -0.11550826201E+03 -0.62447884787E+03 -0.21754821611E+04  0.22662829972E+04  0.50400001928E-02 0. -1.
       -1    1    3    3    0  502  0.11550826201E+03  0.62447884787E+03  0.58897080276E+03  0.86614236507E+03  0.50400001928E-02 0.  1.
</event>
<event>
 5   0  0.7566905E-07  0.2693815E+04  0.7818609E-02  0.8337015E-01
       -1   -1    0    0    0  501  0.00000000000E+00  0.00000000000E+00  0.11519559461E+04  0.11519559461E+04  0.50400001928E-02 0.  1.
        1   -1    0    0  501    0  0.00000000000E+00  0.00000000000E+00 -0.15748513156E+04  0.15748513156E+04  0.50400001928E-02 0. -1.
    10030    2    1    2    0    0  0.00000000000E+00  0.00000000000E+00 -0.42289536948E+03  0.27268072617E+04  0.26938146464E+04 0.  0.
        1    1    3    3  502    0  0.38870838646E+03 -0.43027338255E+03 -0.14420384627E+04  0.15542536220E+04  0.50400001928E-02 0. -1.
       -1    1    3    3    0  502 -0.38870838646E+03  0.43027338255E+03  0.10191430933E+04  0.11725536397E+04  0.50400001928E-02 0.  1.
</event>
<event>
 5   0  0.7566905E-07  0.2679830E+04  0.7818609E-02  0.8341579E-01
        1   -1    0    0  501    0  0.00000000000E+00  0.00000000000E+00  0.16973380368E+04  0.16973380368E+04  0.50400001928E-02 0.  1.
       -1   -1    0    0    0  501  0.00000000000E+00  0.00000000000E+00 -0.10577572784E+04  0.10577572784E+04  0.50400001928E-02 0. -1.
    10030    2    1    2    0    0  0.00000000000E+00  0.00000000000E+00  0.63958075838E+03  0.27550953153E+04  0.26798295934E+04 0.  0.
        1    1    3    3  502    0  0.96666700013E+03 -0.85864434161E+02 -0.63003751145E+03  0.11570501528E+04  0.50400001928E-02 0. -1.
       -1    1    3    3    0  502 -0.96666700013E+03  0.85864434161E+02  0.12696182698E+04  0.15980451625E+04  0.50400001928E-02 0.  1.
</event>
<event>
 5   0  0.1999104E-06  0.2699141E+04  0.7818609E-02  0.8335284E-01
       -2   -1    0    0    0  501  0.00000000000E+00  0.00000000000E+00  0.10702503561E+04  0.10702503561E+04  0.25500000920E-02 0. -1.
        2   -1    0    0  501    0  0.00000000000E+00  0.00000000000E+00 -0.17017895886E+04  0.17017895886E+04  0.25500000920E-02 0.  1.
    10030    2    1    2    0    0  0.00000000000E+00  0.00000000000E+00 -0.63153923252E+03  0.27720399447E+04  0.26991412806E+04 0.  0.
        4    1    3    3  502    0 -0.59379919610E+03 -0.12088119012E+04 -0.40480359266E+03  0.14063041133E+04  0.12699999809E+01 0. -1.
       -4    1    3    3    0  502  0.59379919610E+03  0.12088119012E+04 -0.22673563986E+03  0.13657358313E+04  0.12699999809E+01 0.  1.
</event>
<event>
 5   0  0.7335091E-07  0.2710779E+04  0.7818609E-02  0.8331516E-01
       -1   -1    0    0    0  501  0.00000000000E+00  0.00000000000E+00  0.17548627806E+04  0.17548627806E+04  0.50400001928E-02 0.  1.
        1   -1    0    0  501    0  0.00000000000E+00  0.00000000000E+00 -0.10468513270E+04  0.10468513270E+04  0.50400001928E-02 0. -1.
    10030    2    1    2    0    0  0.00000000000E+00  0.00000000000E+00  0.70801145356E+03  0.28017141076E+04  0.27107788037E+04 0.  0.
        3    1    3    3  502    0  0.12941968149E+04  0.40095275875E+03  0.31572391195E+03  0.13911829892E+04  0.10100000352E+00 0.  1.
       -3    1    3    3    0  502 -0.12941968149E+04 -0.40095275875E+03  0.39228754161E+03  0.14105311184E+04  0.10100000352E+00 0. -1.
</event>
<event>
 5   0  0.1999104E-06  0.2705408E+04  0.7818609E-02  0.8333252E-01
       -2   -1    0    0    0  501  0.00000000000E+00  0.00000000000E+00  0.13304830377E+04  0.13304830377E+04  0.25500000920E-02 0. -1.
        2   -1    0    0  501    0  0.00000000000E+00  0.00000000000E+00 -0.13752958076E+04  0.13752958076E+04  0.25500000920E-02 0.  1.
    10030    2    1    2    0    0  0.00000000000E+00  0.00000000000E+00 -0.44812769935E+02  0.27057788453E+04  0.27054077281E+04 0.  0.
        4    1    3    3  502    0  0.32805104750E+03 -0.14908922667E+03  0.12815980106E+04  0.13312926654E+04  0.12699999809E+01 0. -1.
       -4    1    3    3    0  502 -0.32805104750E+03  0.14908922667E+03 -0.13264107805E+04  0.13744861799E+04  0.12699999809E+01 0.  1.
</event>
<event>
 5   0  0.2063087E-06  0.2699134E+04  0.7818609E-02  0.8335286E-01
       -2   -1    0    0    0  501  0.00000000000E+00  0.00000000000E+00  0.96112679388E+03  0.96112679389E+03  0.25500000920E-02 0.  1.
        2   -1    0    0  501    0  0.00000000000E+00  0.00000000000E+00 -0.18949961373E+04  0.18949961373E+04  0.25500000920E-02 0. -1.
    10030    2    1    2    0    0  0.00000000000E+00  0.00000000000E+00 -0.93386934342E+03  0.28561229312E+04  0.26991343515E+04 0.  0.
        3    1    3    3  502    0  0.43857704049E+03 -0.87245824862E+02  0.88045572115E+03  0.98750389443E+03  0.10100000352E+00 0.  1.
       -3    1    3    3    0  502 -0.43857704049E+03  0.87245824862E+02 -0.18143250646E+04  0.18686190368E+04  0.10100000352E+00 0. -1.
</event>
<event>
 5   0  0.2030645E-06  0.2697174E+04  0.7818609E-02  0.8335922E-01
       -2   -1    0    0    0  501  0.00000000000E+00  0.00000000000E+00  0.19065037174E+04  0.19065037174E+04  0.25500000920E-02 0. -1.
        2   -1    0    0  501    0  0.00000000000E+00  0.00000000000E+00 -0.95393842734E+03  0.95393842735E+03  0.25500000920E-02 0.  1.
    10030    2    1    2    0    0  0.00000000000E+00  0.00000000000E+00  0.95256529007E+03  0.28604421448E+04  0.26971741938E+04 0.  0.
        1    1    3    3  502    0  0.17105637290E+03 -0.13096230328E+04  0.18717430322E+03  0.13339441482E+04  0.50400001928E-02 0.  1.
       -1    1    3    3    0  502 -0.17105637290E+03  0.13096230328E+04  0.76539098684E+03  0.15264979966E+04  0.50400001928E-02 0. -1.
</event>
<event>
 5   0  0.1999104E-06  0.2695962E+04  0.7818609E-02  0.8336316E-01
       -2   -1    0    0    0  501  0.00000000000E+00  0.00000000000E+00  0.16986566678E+04  0.16986566678E+04  0.25500000920E-02 0.  1.
        2   -1    0    0  501    0  0.00000000000E+00  0.00000000000E+00 -0.10696997244E+04  0.10696997244E+04  0.25500000920E-02 0. -1.
    10030    2    1    2    0    0  0.00000000000E+00  0.00000000000E+00  0.62895694340E+03  0.27683563922E+04  0.26959618464E+04 0.  0.
        4    1    3    3  502    0 -0.85235785259E+03  0.34328372625E+03  0.13272144219E+04  0.16142668182E+04  0.12699999809E+01 0.  1.
       -4    1    3    3    0  502  0.85235785259E+03 -0.34328372625E+03 -0.69825747852E+03  0.11540895740E+04  0.12699999809E+01 0. -1.
</event>
<event>
 5   0  0.7335091E-07  0.2693463E+04  0.7818609E-02  0.8337129E-01
       -1   -1    0    0    0  501  0.00000000000E+00  0.00000000000E+00  0.12169786659E+04  0.12169786659E+04  0.50400001928E-02 0. -1.
        1   -1    0    0  501    0  0.00000000000E+00  0.00000000000E+00 -0.14903188331E+04  0.14903188331E+04  0.50400001928E-02 0.  1.
    10030    2    1    2    0    0  0.00000000000E+00  0.00000000000E+00 -0.27334016725E+03  0.27072974990E+04  0.26934633655E+04 0.  0.
        3    1    3    3  502    0 -0.32190446211E+03 -0.12193961232E+04 -0.61146989285E+03  0.14015865396E+04  0.10100000352E+00 0.  1.
       -3    1    3    3    0  502  0.32190446211E+03  0.12193961232E+04  0.33812972560E+03  0.13057109594E+04  0.10100000352E+00 0. -1.
</event>
<event>
 5   0  0.2063087E-06  0.2703124E+04  0.7818609E-02  0.8333992E-01
        2   -1    0    0  501    0  0.00000000000E+00  0.00000000000E+00  0.18030217778E+04  0.18030217778E+04  0.25500000920E-02 0.  1.
       -2   -1    0    0    0  501  0.00000000000E+00  0.00000000000E+00 -0.10131437798E+04  0.10131437798E+04  0.25500000920E-02 0. -1.
    10030    2    1    2    0    0  0.00000000000E+00  0.00000000000E+00  0.78987799797E+03  0.28161655576E+04  0.27031243397E+04 0.  0.
        3    1    3    3  502    0  0.69798245943E+03 -0.90949753490E+03 -0.35078419818E+03  0.11989223676E+04  0.10100000352E+00 0. -1.
       -3    1    3    3    0  502 -0.69798245943E+03  0.90949753490E+03  0.11406621962E+04  0.16172431900E+04  0.10100000352E+00 0.  1.
</event>
<event>
 5   0  0.7335091E-07  0.2702828E+04  0.7818609E-02  0.8334088E-01
       -1   -1    0    0    0  501  0.00000000000E+00  0.00000000000E+00  0.13948757233E+04  0.13948757233E+04  0.50400001928E-02 0. -1.
        1   -1    0    0  501    0  0.00000000000E+00  0.00000000000E+00 -0.13093068283E+04  0.13093068283E+04  0.50400001928E-02 0.  1.
    10030    2    1    2    0    0  0.00000000000E+00  0.00000000000E+00  0.85568895052E+02  0.27041825516E+04  0.27028283772E+04 0.  0.
        3    1    3    3  502    0 -0.81218686072E+03  0.73498769612E+03  0.83467698537E+03  0.13771492622E+04  0.10100000352E+00 0. -1.
       -3    1    3    3    0  502  0.81218686072E+03 -0.73498769612E+03 -0.74910809032E+03  0.13270332895E+04  0.10100000352E+00 0.  1.
</event>
<event>
 5   0  0.1999104E-06  0.2708041E+04  0.7818609E-02  0.8332401E-01
       -2   -1    0    0    0  501  0.00000000000E+00  0.00000000000E+00  0.87724312586E+03  0.87724312586E+03  0.25500000920E-02 0.  1.
        2   -1    0    0  501    0  0.00000000000E+00  0.00000000000E+00 -0.20899236282E+04  0.20899236282E+04  0.25500000920E-02 0. -1.
    10030    2    1    2    0    0  0.00000000000E+00  0.00000000000E+00 -0.12126805024E+04  0.29671667541E+04  0.27080407208E+04 0.  0.
        4    1    3    3  502    0  0.78535422728E+03 -0.77564683545E+03  0.25289143693E+03  0.11324155454E+04  0.12699999809E+01 0.  1.
       -4    1    3    3    0  502 -0.78535422728E+03  0.77564683545E+03 -0.14655719393E+04  0.18347512087E+04  0.12699999809E+01 0. -1.
</event>
<event>
 5   0  0.1932012E-06  0.2701189E+04  0.7818609E-02  0.8334619E-01
       -2   -1    0    0    0  501  0.00000000000E+00  0.00000000000E+00  0.92332638653E+03  0.92332638653E+03  0.25500000920E-02 0.  1.
        2   -1    0    0  501    0  0.00000000000E+00  0.00000000000E+00 -0.19755809581E+04  0.19755809581E+04  0.25500000920E-02 0. -1.
    10030    2    1    2    0    0  0.00000000000E+00  0.00000000000E+00 -0.10522545716E+04  0.28989073447E+04  0.27011893879E+04 0.  0.
        2    1    3    3  502    0  0.11504576604E+04  0.73746707965E+02  0.22902088710E+03  0.11753475963E+04  0.25500000920E-02 0.  1.
       -2    1    3    3    0  502 -0.11504576604E+04 -0.73746707965E+02 -0.12812754587E+04  0.17235597484E+04  0.25500000920E-02 0. -1.
</event>
<event>
 5   0  0.2030645E-06  0.2698199E+04  0.7818609E-02  0.8335590E-01
        2   -1    0    0  501    0  0.00000000000E+00  0.00000000000E+00  0.20151433618E+04  0.20151433618E+04  0.25500000920E-02 0. -1.
       -2   -1    0    0    0  501  0.00000000000E+00  0.00000000000E+00 -0.90319610350E+03  0.90319610350E+03  0.25500000920E-02 0.  1.
    10030    2    1    2    0    0  0.00000000000E+00  0.00000000000E+00  0.11119472583E+04  0.29183394653E+04  0.26981991271E+04 0.  0.
        1    1    3    3  502    0 -0.66938169435E+03 -0.93467395800E+03  0.13195335901E+04  0.17501017559E+04  0.50400001928E-02 0.  1.
       -1    1    3    3    0  502  0.66938169435E+03  0.93467395800E+03 -0.20758633182E+03  0.11682377094E+04  0.50400001928E-02 0. -1.
</event>
<event>
 5   0  0.2063087E-06  0.2694937E+04  0.7818609E-02  0.8336650E-01
       -2   -1    0    0    0  501  0.00000000000E+00  0.00000000000E+00  0.10740207893E+04  0.10740207893E+04  0.25500000920E-02 0. -1.
        2   -1    0    0  501    0  0.00000000000E+00  0.00000000000E+00 -0.16905362521E+04  0.16905362521E+04  0.25500000920E-02 0.  1.
    10030    2    1    2    0    0  0.00000000000E+00  0.00000000000E+00 -0.61651546272E+03  0.27645570414E+04  0.26949367932E+04 0.  0.
        3    1    3    3  502    0  0.75758486635E+03  0.10110992937E+04  0.17226019282E+03  0.12751196790E+04  0.10100000352E+00 0.  1.
       -3    1    3    3    0  502 -0.75758486635E+03 -0.10110992937E+04 -0.78877565554E+03  0.14894373624E+04  0.10100000352E+00 0. -1.
</event>
<event>
 5   0  0.1932012E-06  0.2702974E+04  0.7818609E-02  0.8334041E-01
       -2   -1    0    0    0  501  0.00000000000E+00  0.00000000000E+00  0.14883406431E+04  0.14883406431E+04  0.25500000920E-02 0. -1.
        2   -1    0    0  501    0  0.00000000000E+00  0.00000000000E+00 -0.12272169434E+04  0.12272169434E+04  0.25500000920E-02 0.  1.
    10030    2    1    2    0    0  0.00000000000E+00  0.00000000000E+00  0.26112369963E+03  0.27155575865E+04  0.27029738103E+04 0.  0.
        2    1    3    3  502    0 -0.29775527747E+03 -0.94211352834E+03  0.10569614362E+04  0.14468599044E+04  0.25500000920E-02 0. -1.
       -2    1    3    3    0  502  0.29775527747E+03  0.94211352834E+03 -0.79583773653E+03  0.12686976821E+04  0.25500000920E-02 0.  1.
</event>
<event>
 5   0  0.7768032E-07  0.2699202E+04  0.7818609E-02  0.8335264E-01
        1   -1    0    0  501    0  0.00000000000E+00  0.00000000000E+00  0.21733586562E+04  0.21733586562E+04  0.50400001928E-02 0.  1.
       -1   -1    0    0    0  501  0.00000000000E+00  0.00000000000E+00 -0.83806848952E+03  0.83806848953E+03  0.50400001928E-02 0. -1.
    10030    2    1    2    0    0  0.00000000000E+00  0.00000000000E+00  0.13352901667E+04  0.30114271458E+04  0.26992024053E+04 0.  0.
        4    1    3    3  502    0 -0.42238461987E+03  0.35276375776E+03  0.20424922562E+04  0.21153314789E+04  0.12699999809E+01 0.  1.
       -4    1    3    3    0  502  0.42238461987E+03 -0.35276375776E+03 -0.70720208952E+03  0.89609566688E+03  0.12699999809E+01 0. -1.
</event>
<event>
 5   0  0.7436613E-07  0.2702815E+04  0.7818609E-02  0.8334092E-01
       -1   -1    0    0    0  501  0.00000000000E+00  0.00000000000E+00  0.88334633298E+03  0.88334633300E+03  0.50400001928E-02 0. -1.
        1   -1    0    0  501    0  0.00000000000E+00  0.00000000000E+00 -0.20674812264E+04  0.20674812264E+04  0.50400001928E-02 0.  1.
    10030    2    1    2    0    0  0.00000000000E+00  0.00000000000E+00 -0.11841348934E+04  0.29508275594E+04  0.27028147994E+04 0.  0.
        2    1    3    3  502    0 -0.13543466433E+03  0.13025514131E+04 -0.95632841287E+03  0.16215877298E+04  0.25500000920E-02 0. -1.
       -2    1    3    3    0  502  0.13543466433E+03 -0.13025514131E+04 -0.22780648056E+03  0.13292398296E+04  0.25500000920E-02 0.  1.
</event>
<event>
 5   0  0.7768032E-07  0.2702625E+04  0.7818609E-02  0.8334154E-01
       -1   -1    0    0    0  501  0.00000000000E+00  0.00000000000E+00  0.10778194114E+04  0.10778194114E+04  0.50400001928E-02 0. -1.
        1   -1    0    0  501    0  0.00000000000E+00  0.00000000000E+00 -0.16942034461E+04  0.16942034461E+04  0.50400001928E-02 0.  1.
    10030    2    1    2    0    0  0.00000000000E+00  0.00000000000E+00 -0.61638403468E+03  0.27720228576E+04  0.27026249175E+04 0.  0.
        4    1    3    3  502    0  0.24658349510E+03  0.12031029019E+04 -0.88639038807E+03  0.15145789994E+04  0.12699999809E+01 0. -1.
       -4    1    3    3    0  502 -0.24658349510E+03 -0.12031029019E+04  0.27000635339E+03  0.12574438581E+04  0.12699999809E+01 0.  1.
</event>
<event>
 5   0  0.7806808E-07  0.2704244E+04  0.7818609E-02  0.8333629E-01
       -1   -1    0    0    0  501  0.00000000000E+00  0.00000000000E+00  0.71743406179E+03  0.71743406181E+03  0.50400001928E-02 0. -1.
        1   -1    0    0  501    0  0.00000000000E+00  0.00000000000E+00 -0.25482945135E+04  0.25482945136E+04  0.50400001928E-02 0.  1.
    10030    2    1    2    0    0  0.00000000000E+00  0.00000000000E+00 -0.18308604518E+04  0.32657285754E+04  0.27042435419E+04 0.  0.
        5    1    3    3  502    0  0.28083682030E+03  0.63684500733E+02 -0.25108229508E+04  0.25272868882E+04  0.46999998093E+01 0.  1.
       -5    1    3    3    0  502 -0.28083682030E+03 -0.63684500733E+02  0.67996249901E+03  0.73844168715E+03  0.46999998093E+01 0. -1.
</event>
<event>
 5   0  0.7806808E-07  0.2699115E+04  0.7818609E-02  0.8335292E-01
        1   -1    0    0  501    0  0.00000000000E+00  0.00000000000E+00  0.99957617303E+03  0.99957617304E+03  0.50400001928E-02 0.  1.
       -1   -1    0    0    0  501  0.00000000000E+00  0.00000000000E+00 -0.18220782712E+04  0.18220782712E+04  0.50400001928E-02 0. -1.
    10030    2    1    2    0    0  0.00000000000E+00  0.00000000000E+00 -0.82250209815E+03  0.28216544442E+04  0.26991154294E+04 0.  0.
        5    1    3    3  502    0  0.51109897329E+03 -0.12488798882E+04 -0.43110813116E+03  0.14166154900E+04  0.46999998093E+01 0.  1.
       -5    1    3    3    0  502 -0.51109897329E+03  0.12488798882E+04 -0.39139396699E+03  0.14050389543E+04  0.46999998093E+01 0. -1.
</event>
<event>
 5   0  0.2063087E-06  0.2709732E+04  0.7818609E-02  0.8331854E-01
        2   -1    0    0  501    0  0.00000000000E+00  0.00000000000E+00  0.19162192328E+04  0.19162192328E+04  0.25500000920E-02 0. -1.
       -2   -1    0    0    0  501  0.00000000000E+00  0.00000000000E+00 -0.95796005050E+03  0.95796005051E+03  0.25500000920E-02 0.  1.
    10030    2    1    2    0    0  0.00000000000E+00  0.00000000000E+00  0.95825918231E+03  0.28741792833E+04  0.27097317011E+04 0.  0.
        3    1    3    3  502    0  0.89207795571E+02 -0.12555747931E+03 -0.94864391587E+03  0.96106607510E+03  0.10100000352E+00 0.  1.
       -3    1    3    3    0  502 -0.89207795571E+02  0.12555747931E+03  0.19069030982E+04  0.19131132082E+04  0.10100000352E+00 0. -1.
</event>
<event>
 5   0  0.2063087E-06  0.2704392E+04  0.7818609E-02  0.8333581E-01
        2   -1    0    0  501    0  0.00000000000E+00  0.00000000000E+00  0.11317706109E+04  0.11317706109E+04  0.25500000920E-02 0. -1.
       -2   -1    0    0    0  501  0.00000000000E+00  0.00000000000E+00 -0.16155518137E+04  0.16155518137E+04  0.25500000920E-02 0.  1.
    10030    2    1    2    0    0  0.00000000000E+00  0.00000000000E+00 -0.48378120281E+03  0.27473224246E+04  0.27043920301E+04 0.  0.
        3    1    3    3  502    0 -0.13094026078E+04 -0.25165772283E+03 -0.47033192590E+03  0.14138878773E+04  0.10100000352E+00 0.  1.
       -3    1    3    3    0  502  0.13094026078E+04  0.25165772283E+03 -0.13449276913E+02  0.13334345473E+04  0.10100000352E+00 0. -1.
</event>
<event>
 5   0  0.6561875E-07  0.2699716E+04  0.7818609E-02  0.8335097E-01
       -3   -1    0    0    0  501  0.00000000000E+00  0.00000000000E+00  0.89954114165E+03  0.89954114732E+03  0.10100000352E+00 0. -1.
        3   -1    0    0  501    0  0.00000000000E+00  0.00000000000E+00 -0.20256072948E+04  0.20256072973E+04  0.10100000352E+00 0.  1.
    10030    2    1    2    0    0  0.00000000000E+00  0.00000000000E+00 -0.11260661531E+04  0.29251484446E+04  0.26997163632E+04 0.  0.
        2    1    3    3  502    0  0.27702862697E+03  0.62243072073E+03 -0.18256512057E+04  0.19486321324E+04  0.25500000920E-02 0.  1.
       -2    1    3    3    0  502 -0.27702862697E+03 -0.62243072073E+03  0.69958505261E+03  0.97651631226E+03  0.25500000920E-02 0. -1.
</event>
<event>
 5   0  0.2030645E-06  0.2695937E+04  0.7818609E-02  0.8336324E-01
        2   -1    0    0  501    0  0.00000000000E+00  0.00000000000E+00  0.20819990609E+04  0.20819990609E+04  0.25500000920E-02 0. -1.
       -2   -1    0    0    0  501  0.00000000000E+00  0.00000000000E+00 -0.87272819177E+03  0.87272819177E+03  0.25500000920E-02 0.  1.
    10030    2    1    2    0    0  0.00000000000E+00  0.00000000000E+00  0.12092708692E+04  0.29547272527E+04  0.26959371474E+04 0.  0.
        1    1    3    3  502    0 -0.11883223370E+04 -0.58478979814E+03  0.87957494811E+03  0.15898871576E+04  0.50400001928E-02 0. -1.
       -1    1    3    3    0  502  0.11883223370E+04  0.58478979814E+03  0.32969592104E+03  0.13648400950E+04  0.50400001928E-02 0.  1.
</event>
<event>
 5   0  0.7436613E-07  0.2701617E+04  0.7818609E-02  0.8334481E-01
       -1   -1    0    0    0  501  0.00000000000E+00  0.00000000000E+00  0.98339892099E+03  0.98339892101E+03  0.50400001928E-02 0.  1.
        1   -1    0    0  501    0  0.00000000000E+00  0.00000000000E+00 -0.18554865593E+04  0.18554865593E+04  0.50400001928E-02 0. -1.
    10030    2    1    2    0    0  0.00000000000E+00  0.00000000000E+00 -0.87208763832E+03  0.28388854803E+04  0.27016169087E+04 0.  0.
        2    1    3    3  502    0 -0.96980140429E+03 -0.59698850455E+03  0.32734865471E+03  0.11849334074E+04  0.25500000920E-02 0.  1.
       -2    1    3    3    0  502  0.96980140429E+03  0.59698850455E+03 -0.11994362930E+04  0.16539520729E+04  0.25500000920E-02 0. -1.
</event>
<event>
 5   0  0.2063087E-06  0.2697448E+04  0.7818609E-02  0.8335833E-01
        2   -1    0    0  501    0  0.00000000000E+00  0.00000000000E+00  0.14520251605E+04  0.14520251605E+04  0.25500000920E-02 0. -1.
       -2   -1    0    0    0  501  0.00000000000E+00  0.00000000000E+00 -0.12527723341E+04  0.12527723341E+04  0.25500000920E-02 0.  1.
    10030    2    1    2    0    0  0.00000000000E+00  0.00000000000E+00  0.19925282640E+03  0.27047974945E+04  0.26974483864E+04 0.  0.
        3    1    3    3  502    0  0.22170891678E+03 -0.27163385023E+01  0.14336248736E+04  0.14506696767E+04  0.10100000352E+00 0. -1.
       -3    1    3    3    0  502 -0.22170891678E+03  0.27163385023E+01 -0.12343720472E+04  0.12541278178E+04  0.10100000352E+00 0.  1.
</event>
<event>
 5   0  0.1999104E-06  0.2694071E+04  0.7818609E-02  0.8336931E-01
       -2   -1    0    0    0  501  0.00000000000E+00  0.00000000000E+00  0.15151595231E+04  0.15151595231E+04  0.25500000920E-02 0.  1.
        2   -1    0    0  501    0  0.00000000000E+00  0.00000000000E+00 -0.11975671705E+04  0.11975671705E+04  0.25500000920E-02 0. -1.
    10030    2    1    2    0    0  0.00000000000E+00  0.00000000000E+00  0.31759235256E+03  0.27127266936E+04  0.26940714934E+04 0.  0.
        4    1    3    3  502    0 -0.32281420094E+03 -0.51240229278E+03  0.13703480040E+04  0.14982057211E+04  0.12699999809E+01 0.  1.
       -4    1    3    3    0  502  0.32281420094E+03  0.51240229278E+03 -0.10527556514E+04  0.12145209724E+04  0.12699999809E+01 0. -1.
</event>
<event>
 5   0  0.1991277E-06  0.2699600E+04  0.7818609E-02  0.8335135E-01
       -2   -1    0    0    0  501  0.00000000000E+00  0.00000000000E+00  0.11521969256E+04  0.11521969256E+04  0.25500000920E-02 0.  1.
        2   -1    0    0  501    0  0.00000000000E+00  0.00000000000E+00 -0.15812926053E+04  0.15812926053E+04  0.25500000920E-02 0. -1.
    10030    2    1    2    0    0  0.00000000000E+00  0.00000000000E+00 -0.42909567967E+03  0.27334895309E+04  0.26996003247E+04 0.  0.
        5    1    3    3  502    0 -0.57431520296E+03 -0.84936708521E+03 -0.11034497876E+04  0.15062821520E+04  0.46999998093E+01 0. -1.
       -5    1    3    3    0  502  0.57431520296E+03  0.84936708521E+03  0.67435410793E+03  0.12272073788E+04  0.46999998093E+01 0.  1.
</event>
<event>
 5   0  0.7566905E-07  0.2700232E+04  0.7818609E-02  0.8334930E-01
       -1   -1    0    0    0  501  0.00000000000E+00  0.00000000000E+00  0.12608314084E+04  0.12608314084E+04  0.50400001928E-02 0. -1.
        1   -1    0    0  501    0  0.00000000000E+00  0.00000000000E+00 -0.14457233947E+04  0.14457233948E+04  0.50400001928E-02 0.  1.
    10030    2    1    2    0    0  0.00000000000E+00  0.00000000000E+00 -0.18489198637E+03  0.27065548031E+04  0.27002321855E+04 0.  0.
        1    1    3    3  502    0 -0.12382610698E+01  0.11115643827E+04  0.67566195012E+03  0.13008058967E+04  0.50400001928E-02 0. -1.
       -1    1    3    3    0  502  0.12382610698E+01 -0.11115643827E+04 -0.86055393649E+03  0.14057489064E+04  0.50400001928E-02 0.  1.
</event>
<event>
 5   0  0.7335091E-07  0.2697755E+04  0.7818609E-02  0.8335734E-01
        1   -1    0    0  501    0  0.00000000000E+00  0.00000000000E+00  0.10418084135E+04  0.10418084135E+04  0.50400001928E-02 0.  1.
       -1   -1    0    0    0  501  0.00000000000E+00  0.00000000000E+00 -0.17464546123E+04  0.17464546123E+04  0.50400001928E-02 0. -1.
    10030    2    1    2    0    0  0.00000000000E+00  0.00000000000E+00 -0.70464619875E+03  0.27882630258E+04  0.26977554440E+04 0.  0.
        3    1    3    3  502    0  0.16757293613E+03  0.96125206143E+03 -0.13149036601E+04  0.16373936180E+04  0.10100000352E+00 0. -1.
       -3    1    3    3    0  502 -0.16757293613E+03 -0.96125206143E+03  0.61025746138E+03  0.11508694078E+04  0.10100000352E+00 0.  1.
</event>
<event>
 5   0  0.7768032E-07  0.2697737E+04  0.7818609E-02  0.8335740E-01
        1   -1    0    0  501    0  0.00000000000E+00  0.00000000000E+00  0.27396712489E+04  0.27396712489E+04  0.50400001928E-02 0.  1.
       -1   -1    0    0    0  501  0.00000000000E+00  0.00000000000E+00 -0.66411120108E+03  0.66411120110E+03  0.50400001928E-02 0. -1.
    10030    2    1    2    0    0  0.00000000000E+00  0.00000000000E+00  0.20755600478E+04  0.34037824500E+04  0.26977370989E+04 0.  0.
        4    1    3    3  502    0  0.12410203761E+04 -0.19431559307E+03  0.16578916176E+04  0.20800231614E+04  0.12699999809E+01 0.  1.
       -4    1    3    3    0  502 -0.12410203761E+04  0.19431559307E+03  0.41766843024E+03  0.13237592886E+04  0.12699999809E+01 0. -1.
</event>
<event>
 5   0  0.7806808E-07  0.2698331E+04  0.7818609E-02  0.8335547E-01
       -1   -1    0    0    0  501  0.00000000000E+00  0.00000000000E+00  0.13166727137E+04  0.13166727137E+04  0.50400001928E-02 0.  1.
        1   -1    0    0  501    0  0.00000000000E+00  0.00000000000E+00 -0.13824604973E+04  0.13824604974E+04  0.50400001928E-02 0. -1.
    10030    2    1    2    0    0  0.00000000000E+00  0.00000000000E+00 -0.65787783646E+02  0.26991332111E+04  0.26983313471E+04 0.  0.
        5    1    3    3  502    0 -0.65224743498E+03 -0.64316289689E+03 -0.10237137113E+04  0.13737165214E+04  0.46999998093E+01 0. -1.
       -5    1    3    3    0  502  0.65224743498E+03  0.64316289689E+03  0.95792592767E+03  0.13254166897E+04  0.46999998093E+01 0.  1.
</event>
<event>
 5   0  0.2063087E-06  0.2701633E+04  0.7818609E-02  0.8334475E-01
       -2   -1    0    0    0  501  0.00000000000E+00  0.00000000000E+00  0.10513007902E+04  0.10513007902E+04  0.25500000920E-02 0. -1.
        2   -1    0    0  501    0  0.00000000000E+00  0.00000000000E+00 -0.17356641927E+04  0.17356641927E+04  0.25500000920E-02 0.  1.
    10030    2    1    2    0    0  0.00000000000E+00  0.00000000000E+00 -0.68436340254E+03  0.27869649829E+04  0.27016329412E+04 0.  0.
        3    1    3    3  502    0 -0.66018590134E+03  0.38338866873E+01 -0.15578974968E+04  0.16920120400E+04  0.10100000352E+00 0.  1.
       -3    1    3    3    0  502  0.66018590134E+03 -0.38338866873E+01  0.87353409423E+03  0.10949529428E+04  0.10100000352E+00 0. -1.
</event>
<event>
 5   0  0.7436613E-07  0.2702905E+04  0.7818609E-02  0.8334063E-01
       -1   -1    0    0    0  501  0.00000000000E+00  0.00000000000E+00  0.19796033436E+04  0.19796033436E+04  0.50400001928E-02 0.  1.
        1   -1    0    0  501    0  0.00000000000E+00  0.00000000000E+00 -0.92262078867E+03  0.92262078868E+03  0.50400001928E-02 0. -1.
    10030    2    1    2    0    0  0.00000000000E+00  0.00000000000E+00  0.10569825549E+04  0.29022241323E+04  0.27029045104E+04 0.  0.
        2    1    3    3  502    0 -0.48911549861E+03 -0.11842388597E+04  0.99003526355E+03  0.16192051973E+04  0.25500000920E-02 0. -1.
       -2    1    3    3    0  502  0.48911549861E+03  0.11842388597E+04  0.66947291363E+02  0.12830189350E+04  0.25500000920E-02 0.  1.
</event>
<event>
 5   0  0.7768032E-07  0.2698258E+04  0.7818609E-02  0.8335571E-01
        1   -1    0    0  501    0  0.00000000000E+00  0.00000000000E+00  0.24875311779E+04  0.24875311779E+04  0.50400001928E-02 0. -1.
       -1   -1    0    0    0  501  0.00000000000E+00  0.00000000000E+00 -0.73170878977E+03  0.73170878979E+03  0.50400001928E-02 0.  1.
    10030    2    1    2    0    0  0.00000000000E+00  0.00000000000E+00  0.17558223882E+04  0.32192399677E+04  0.26982575324E+04 0.  0.
        4    1    3    3  502    0  0.71016511341E+02  0.22805132919E+03 -0.70628126060E+03  0.74557735052E+03  0.12699999809E+01 0.  1.
       -4    1    3    3    0  502 -0.71016511341E+02 -0.22805132919E+03  0.24621036488E+04  0.24736626172E+04  0.12699999809E+01 0. -1.
</event>
<event>
 5   0  0.7335091E-07  0.2697343E+04  0.7818609E-02  0.8335868E-01
       -1   -1    0    0    0  501  0.00000000000E+00  0.00000000000E+00  0.67769835287E+03  0.67769835289E+03  0.50400001928E-02 0. -1.
        1   -1    0    0  501    0  0.00000000000E+00  0.00000000000E+00 -0.26839586599E+04  0.26839586599E+04  0.50400001928E-02 0.  1.
    10030    2    1    2    0    0  0.00000000000E+00  0.00000000000E+00 -0.20062603071E+04  0.33616570128E+04  0.26973426650E+04 0.  0.
        3    1    3    3  502    0 -0.11356703014E+04  0.60334763014E+03 -0.15095865339E+04  0.19830851999E+04  0.10100000352E+00 0.  1.
       -3    1    3    3    0  502  0.11356703014E+04 -0.60334763014E+03 -0.49667377315E+03  0.13785718130E+04  0.10100000352E+00 0. -1.
</event>
<event>
 5   0  0.7768032E-07  0.2696144E+04  0.7818609E-02  0.8336257E-01
       -1   -1    0    0    0  501  0.00000000000E+00  0.00000000000E+00  0.15812551474E+04  0.15812551474E+04  0.50400001928E-02 0.  1.
        1   -1    0    0  501    0  0.00000000000E+00  0.00000000000E+00 -0.11492759425E+04  0.11492759426E+04  0.50400001928E-02 0. -1.
    10030    2    1    2    0    0  0.00000000000E+00  0.00000000000E+00  0.43197920486E+03  0.27305310900E+04  0.26961442839E+04 0.  0.
        4    1    3    3  502    0  0.57669168029E+03  0.61056290957E+03  0.12839225722E+04  0.15342161337E+04  0.12699999809E+01 0.  1.
       -4    1    3    3    0  502 -0.57669168029E+03 -0.61056290957E+03 -0.85194336729E+03  0.11963149563E+04  0.12699999809E+01 0. -1.
</event>
<event>
 5   0  0.1932012E-06  0.2707675E+04  0.7818609E-02  0.8332519E-01
       -2   -1    0    0    0  501  0.00000000000E+00  0.00000000000E+00  0.13994280464E+04  0.13994280464E+04  0.25500000920E-02 0.  1.
        2   -1    0    0  501    0  0.00000000000E+00  0.00000000000E+00 -0.13097320673E+04  0.13097320673E+04  0.25500000920E-02 0. -1.
    10030    2    1    2    0    0  0.00000000000E+00  0.00000000000E+00  0.89695979171E+02  0.27091601137E+04  0.27076748610E+04 0.  0.
        2    1    3    3  502    0 -0.97396068621E+03 -0.52458880832E+02 -0.89456235415E+03  0.13234776756E+04  0.25500000920E-02 0. -1.
       -2    1    3    3    0  502  0.97396068621E+03  0.52458880832E+02  0.98425833332E+03  0.13856824381E+04  0.25500000920E-02 0.  1.
</event>
<event>
 5   0  0.1991277E-06  0.2696021E+04  0.7818609E-02  0.8336297E-01
        2   -1    0    0  501    0  0.00000000000E+00  0.00000000000E+00  0.19845909118E+04  0.19845909118E+04  0.25500000920E-02 0. -1.
       -2   -1    0    0    0  501  0.00000000000E+00  0.00000000000E+00 -0.91562049323E+03  0.91562049323E+03  0.25500000920E-02 0.  1.
    10030    2    1    2    0    0  0.00000000000E+00  0.00000000000E+00  0.10689704186E+04  0.29002114051E+04  0.26960208527E+04 0.  0.
        5    1    3    3  502    0 -0.40611499957E+03  0.29332812832E+03  0.18807224309E+04  0.19463066911E+04  0.46999998093E+01 0. -1.
       -5    1    3    3    0  502  0.40611499957E+03 -0.29332812832E+03 -0.81175201233E+03  0.95390471393E+03  0.46999998093E+01 0.  1.
</event>
<event>
 5   0  0.2063087E-06  0.2699911E+04  0.7818609E-02  0.8335034E-01
        2   -1    0    0  501    0  0.00000000000E+00  0.00000000000E+00  0.20391350230E+04  0.20391350230E+04  0.25500000920E-02 0.  1.
       -2   -1    0    0    0  501  0.00000000000E+00  0.00000000000E+00 -0.89370238435E+03  0.89370238435E+03  0.25500000920E-02 0. -1.
    10030    2    1    2    0    0  0.00000000000E+00  0.00000000000E+00  0.11454326387E+04  0.29328374074E+04  0.26999109853E+04 0.  0.
        3    1    3    3  502    0  0.26164666619E+03  0.48794398687E+03  0.19101245952E+04  0.19887494290E+04  0.10100000352E+00 0.  1.
       -3    1    3    3    0  502 -0.26164666619E+03 -0.48794398687E+03 -0.76469195651E+03  0.94408797832E+03  0.10100000352E+00 0. -1.
</event>
<event>
 5   0  0.1991277E-06  0.2698317E+04  0.7818609E-02  0.8335551E-01
       -2   -1    0    0    0  501  0.00000000000E+00  0.00000000000E+00  0.14124169537E+04  0.14124169537E+04  0.25500000920E-02 0.  1.
        2   -1    0    0  501    0  0.00000000000E+00  0.00000000000E+00 -0.12887334656E+04  0.12887334656E+04  0.25500000920E-02 0. -1.
    10030    2    1    2    0    0  0.00000000000E+00  0.00000000000E+00  0.12368348817E+03  0.27011504193E+04  0.26983172501E+04 0.  0.
        5    1    3    3  502    0 -0.43294846979E+03  0.12665766041E+04 -0.10729196447E+03  0.13428307142E+04  0.46999998093E+01 0. -1.
       -5    1    3    3    0  502  0.43294846979E+03 -0.12665766041E+04  0.23097545264E+03  0.13583197051E+04  0.46999998093E+01 0.  1.
</event>
<event>
 5   0  0.7768032E-07  0.2702599E+04  0.7818609E-02  0.8334162E-01
        1   -1    0    0  501    0  0.00000000000E+00  0.00000000000E+00  0.95105095864E+03  0.95105095865E+03  0.50400001928E-02 0.  1.
       -1   -1    0    0    0  501  0.00000000000E+00  0.00000000000E+00 -0.19199919061E+04  0.19199919061E+04  0.50400001928E-02 0. -1.
    10030    2    1    2    0    0  0.00000000000E+00  0.00000000000E+00 -0.96894094750E+03  0.28710428648E+04  0.27025988551E+04 0.  0.
        4    1    3    3  502    0 -0.32638167545E+03  0.20768393123E+03  0.89096606177E+03  0.97132885754E+03  0.12699999809E+01 0.  1.
       -4    1    3    3    0  502  0.32638167545E+03 -0.20768393123E+03 -0.18599070093E+04  0.18997140073E+04  0.12699999809E+01 0. -1.
</event>
<event>
 5   0  0.7806808E-07  0.2701791E+04  0.7818609E-02  0.8334424E-01
       -1   -1    0    0    0  501  0.00000000000E+00  0.00000000000E+00  0.96361463562E+03  0.96361463563E+03  0.50400001928E-02 0. -1.
        1   -1    0    0  501    0  0.00000000000E+00  0.00000000000E+00 -0.18938267750E+04  0.18938267750E+04  0.50400001928E-02 0.  1.
    10030    2    1    2    0    0  0.00000000000E+00  0.00000000000E+00 -0.93021213935E+03  0.28574414106E+04  0.27017914040E+04 0.  0.
        5    1    3    3  502    0 -0.64101591005E+02 -0.11079167188E+04  0.34953416215E+03  0.11635225353E+04  0.46999998093E+01 0. -1.
       -5    1    3    3    0  502  0.64101591005E+02  0.11079167188E+04 -0.12797463015E+04  0.16939188753E+04  0.46999998093E+01 0.  1.
</event>
<event>
 5   0  0.7335091E-07  0.2704783E+04  0.7818609E-02  0.8333455E-01
        1   -1    0    0  501    0  0.00000000000E+00  0.00000000000E+00  0.17192656929E+04  0.17192656929E+04  0.50400001928E-02 0.  1.
       -1   -1    0    0    0  501  0.00000000000E+00  0.00000000000E+00 -0.10638042576E+04  0.10638042576E+04  0.50400001928E-02 0. -1.
    10030    2    1    2    0    0  0.00000000000E+00  0.00000000000E+00  0.65546143534E+03  0.27830699505E+04  0.27047825525E+04 0.  0.
        3    1    3    3  502    0  0.10303502760E+04 -0.86764825327E+03  0.45174717034E+03  0.14207430094E+04  0.10100000352E+00 0. -1.
       -3    1    3    3    0  502 -0.10303502760E+04  0.86764825327E+03  0.20371426500E+03  0.13623269411E+04  0.10100000352E+00 0.  1.
</event>
<event>
 5   0  0.7806808E-07  0.2698376E+04  0.7818609E-02  0.8335532E-01
        1   -1    0    0  501    0  0.00000000000E+00  0.00000000000E+00  0.11041551200E+04  0.11041551200E+04  0.50400001928E-02 0.  1.
       -1   -1    0    0    0  501  0.00000000000E+00  0.00000000000E+00 -0.16485977265E+04  0.16485977265E+04  0.50400001928E-02 0. -1.
    10030    2    1    2    0    0  0.00000000000E+00  0.00000000000E+00 -0.54444260645E+03  0.27527528465E+04  0.26983755266E+04 0.  0.
        5    1    3    3  502    0  0.22109183121E+03 -0.10311189144E+04 -0.11307248473E+04  0.15461722361E+04  0.46999998093E+01 0. -1.
       -5    1    3    3    0  502 -0.22109183121E+03  0.10311189144E+04  0.58628224081E+03  0.12065806104E+04  0.46999998093E+01 0.  1.
</event>
<event>
 5   0  0.1932012E-06  0.2705800E+04  0.7818609E-02  0.8333126E-01
       -2   -1    0    0    0  501  0.00000000000E+00  0.00000000000E+00  0.90260455623E+03  0.90260455623E+03  0.25500000920E-02 0.  1.
        2   -1    0    0  501    0  0.00000000000E+00  0.00000000000E+00 -0.20278406009E+04  0.20278406009E+04  0.25500000920E-02 0. -1.
    10030    2    1    2    0    0  0.00000000000E+00  0.00000000000E+00 -0.11252360447E+04  0.29304451571E+04  0.27057998194E+04 0.  0.
        2    1    3    3  502    0  0.63933514723E+03  0.95064121458E+03 -0.13419963373E+04  0.17644892515E+04  0.25500000920E-02 0. -1.
       -2    1    3    3    0  502 -0.63933514723E+03 -0.95064121458E+03  0.21676029265E+03  0.11659559056E+04  0.25500000920E-02 0.  1.
</event>
<event>
 5   0  0.2063087E-06  0.2711152E+04  0.7818609E-02  0.8331396E-01
        2   -1    0    0  501    0  0.00000000000E+00  0.00000000000E+00  0.13356253041E+04  0.13356253041E+04  0.25500000920E-02 0.  1.
       -2   -1    0    0    0  501  0.00000000000E+00  0.00000000000E+00 -0.13758244506E+04  0.13758244506E+04  0.25500000920E-02 0. -1.
    10030    2    1    2    0    0  0.00000000000E+00  0.00000000000E+00 -0.40199146542E+02  0.27114497547E+04  0.27111517480E+04 0.  0.
        3    1    3    3  502    0  0.77736626565E+03  0.47789038712E+03 -0.10226609608E+04  0.13705885539E+04  0.10100000352E+00 0. -1.
       -3    1    3    3    0  502 -0.77736626565E+03 -0.47789038712E+03  0.98246181429E+03  0.13408612008E+04  0.10100000352E+00 0.  1.
</event>
<event>
 5   0  0.2063087E-06  0.2705631E+04  0.7818609E-02  0.8333180E-01
       -2   -1    0    0    0  501  0.00000000000E+00  0.00000000000E+00  0.69835773791E+03  0.69835773791E+03  0.25500000920E-02 0. -1.
        2   -1    0    0  501    0  0.00000000000E+00  0.00000000000E+00 -0.26205903776E+04  0.26205903776E+04  0.25500000920E-02 0.  1.
    10030    2    1    2    0    0  0.00000000000E+00  0.00000000000E+00 -0.19222326397E+04  0.33189481155E+04  0.27056308456E+04 0.  0.
        3    1    3    3  502    0 -0.37318391857E+03  0.66162892356E+03 -0.23342826261E+04  0.24547697363E+04  0.10100000352E+00 0.  1.
       -3    1    3    3    0  502  0.37318391857E+03 -0.66162892356E+03  0.41204998641E+03  0.86417837920E+03  0.10100000352E+00 0. -1.
</event>
<event>
 5   0  0.7436613E-07  0.2697823E+04  0.7818609E-02  0.8335712E-01
        1   -1    0    0  501    0  0.00000000000E+00  0.00000000000E+00  0.13074655066E+04  0.13074655066E+04  0.50400001928E-02 0. -1.
       -1   -1    0    0    0  501  0.00000000000E+00  0.00000000000E+00 -0.13916712063E+04  0.13916712063E+04  0.50400001928E-02 0.  1.
    10030    2    1    2    0    0  0.00000000000E+00  0.00000000000E+00 -0.84205699678E+02  0.26991367130E+04  0.26978228992E+04 0.  0.
        2    1    3    3  502    0  0.53056697162E+03 -0.81072501667E+03  0.89685604812E+03  0.13202754012E+04  0.25500000920E-02 0. -1.
       -2    1    3    3    0  502 -0.53056697162E+03  0.81072501667E+03 -0.98106174780E+03  0.13788613117E+04  0.25500000920E-02 0.  1.
</event>
<event>
 5   0  0.1999104E-06  0.2696125E+04  0.7818609E-02  0.8336263E-01
       -2   -1    0    0    0  501  0.00000000000E+00  0.00000000000E+00  0.93299368436E+03  0.93299368436E+03  0.25500000920E-02 0.  1.
        2   -1    0    0  501    0  0.00000000000E+00  0.00000000000E+00 -0.19477864776E+04  0.19477864776E+04  0.25500000920E-02 0. -1.
    10030    2    1    2    0    0  0.00000000000E+00  0.00000000000E+00 -0.10147927933E+04  0.28807801620E+04  0.26961249838E+04 0.  0.
        4    1    3    3  502    0 -0.96765612980E+03 -0.43488021110E+03 -0.13961016878E+04  0.17534482368E+04  0.12699999809E+01 0. -1.
       -4    1    3    3    0  502  0.96765612980E+03  0.43488021110E+03  0.38130889455E+03  0.11273319252E+04  0.12699999809E+01 0.  1.
</event>
<event>
 5   0  0.2063087E-06  0.2700404E+04  0.7818609E-02  0.8334874E-01
       -2   -1    0    0    0  501  0.00000000000E+00  0.00000000000E+00  0.13949092666E+04  0.13949092666E+04  0.25500000920E-02 0.  1.
        2   -1    0    0  501    0  0.00000000000E+00  0.00000000000E+00 -0.13069279431E+04  0.13069279431E+04  0.25500000920E-02 0. -1.
    10030    2    1    2    0    0  0.00000000000E+00  0.00000000000E+00  0.87981323474E+02  0.27018372097E+04  0.27004043390E+04 0.  0.
        3    1    3    3  502    0 -0.91041396703E+03  0.29882533722E+03  0.99575547993E+03  0.13819114152E+04  0.10100000352E+00 0.  1.
       -3    1    3    3    0  502  0.91041396703E+03 -0.29882533722E+03 -0.90777415646E+03  0.13199257945E+04  0.10100000352E+00 0. -1.
</event>
<event>
 5   0  0.2063087E-06  0.2687736E+04  0.7818609E-02  0.8338995E-01
       -2   -1    0    0    0  501  0.00000000000E+00  0.00000000000E+00  0.98290851984E+03  0.98290851984E+03  0.25500000920E-02 0.  1.
        2   -1    0    0  501    0  0.00000000000E+00  0.00000000000E+00 -0.18373846951E+04  0.18373846951E+04  0.25500000920E-02 0. -1.
    10030    2    1    2    0    0  0.00000000000E+00  0.00000000000E+00 -0.85447617529E+03  0.28202932150E+04  0.26877359030E+04 0.  0.
        3    1    3    3  502    0  0.11318299074E+03 -0.12392605586E+03  0.97186820277E+03  0.98625345144E+03  0.10100000352E+00 0.  1.
       -3    1    3    3    0  502 -0.11318299074E+03  0.12392605586E+03 -0.18263443781E+04  0.18340397635E+04  0.10100000352E+00 0. -1.
</event>
<event>
 5   0  0.2063087E-06  0.2700429E+04  0.7818609E-02  0.8334866E-01
       -2   -1    0    0    0  501  0.00000000000E+00  0.00000000000E+00  0.85165439754E+03  0.85165439754E+03  0.25500000920E-02 0.  1.
        2   -1    0    0  501    0  0.00000000000E+00  0.00000000000E+00 -0.21406323011E+04  0.21406323011E+04  0.25500000920E-02 0. -1.
    10030    2    1    2    0    0  0.00000000000E+00  0.00000000000E+00 -0.12889779036E+04  0.29922866987E+04  0.27004287902E+04 0.  0.
        3    1    3    3  502    0  0.88615827896E+03  0.95864032066E+03 -0.26254550835E+03  0.13316147768E+04  0.10100000352E+00 0.  1.
       -3    1    3    3    0  502 -0.88615827896E+03 -0.95864032066E+03 -0.10264323952E+04  0.16606719218E+04  0.10100000352E+00 0. -1.
</event>
<event>
 5   0  0.1991277E-06  0.2701635E+04  0.7818609E-02  0.8334475E-01
       -2   -1    0    0    0  501  0.00000000000E+00  0.00000000000E+00  0.14209569210E+04  0.14209569210E+04  0.25500000920E-02 0. -1.
        2   -1    0    0  501    0  0.00000000000E+00  0.00000000000E+00 -0.12841405121E+04  0.12841405121E+04  0.25500000920E-02 0.  1.
    10030    2    1    2    0    0  0.00000000000E+00  0.00000000000E+00  0.13681640892E+03  0.27050974331E+04  0.27016353183E+04 0.  0.
        5    1    3    3  502    0 -0.69556226765E+02  0.96084382316E+03 -0.87970932249E+03  0.13045955324E+04  0.46999998093E+01 0.  1.
       -5    1    3    3    0  502  0.69556226765E+02 -0.96084382316E+03  0.10165257314E+04  0.14005019007E+04  0.46999998093E+01 0. -1.
</event>
<event>
 5   0  0.7335091E-07  0.2698309E+04  0.7818609E-02  0.8335554E-01
        1   -1    0    0  501    0  0.00000000000E+00  0.00000000000E+00  0.19444744811E+04  0.19444744811E+04  0.50400001928E-02 0.  1.
       -1   -1    0    0    0  501  0.00000000000E+00  0.00000000000E+00 -0.93609724063E+03  0.93609724064E+03  0.50400001928E-02 0. -1.
    10030    2    1    2    0    0  0.00000000000E+00  0.00000000000E+00  0.10083772405E+04  0.28805717217E+04  0.26983085044E+04 0.  0.
        3    1    3    3  502    0  0.38759232808E+03  0.83538728602E+03  0.15567476505E+04  0.18087462475E+04  0.10100000352E+00 0.  1.
       -3    1    3    3    0  502 -0.38759232808E+03 -0.83538728602E+03 -0.54837041001E+03  0.10718254742E+04  0.10100000352E+00 0. -1.
</event>
<event>
 5   0  0.7436613E-07  0.2709046E+04  0.7818609E-02  0.8332076E-01
       -1   -1    0    0    0  501  0.00000000000E+00  0.00000000000E+00  0.10800639939E+04  0.10800639940E+04  0.50400001928E-02 0. -1.
        1   -1    0    0  501    0  0.00000000000E+00  0.00000000000E+00 -0.16987262541E+04  0.16987262541E+04  0.50400001928E-02 0.  1.
    10030    2    1    2    0    0  0.00000000000E+00  0.00000000000E+00 -0.61866226016E+03  0.27787902481E+04  0.27090463729E+04 0.  0.
        2    1    3    3  502    0  0.95859763881E+03  0.24553912687E+03  0.63943245163E+03  0.11781649953E+04  0.25500000920E-02 0. -1.
       -2    1    3    3    0  502 -0.95859763881E+03 -0.24553912687E+03 -0.12580947118E+04  0.16006252528E+04  0.25500000920E-02 0.  1.
</event>
<event>
 5   0  0.7768032E-07  0.2675959E+04  0.7818609E-02  0.8342848E-01
       -1   -1    0    0    0  501  0.00000000000E+00  0.00000000000E+00  0.11143793239E+04  0.11143793239E+04  0.50400001928E-02 0.  1.
        1   -1    0    0  501    0  0.00000000000E+00  0.00000000000E+00 -0.16064446835E+04  0.16064446835E+04  0.50400001928E-02 0. -1.
    10030    2    1    2    0    0  0.00000000000E+00  0.00000000000E+00 -0.49206535958E+03  0.27208240074E+04  0.26759586994E+04 0.  0.
        4    1    3    3  502    0  0.34083296437E+03  0.12204524046E+04  0.19072243185E+03  0.12814241454E+04  0.12699999809E+01 0.  1.
       -4    1    3    3    0  502 -0.34083296437E+03 -0.12204524046E+04 -0.68278779143E+03  0.14393998620E+04  0.12699999809E+01 0. -1.
</event>
<event>
 5   0  0.2063087E-06  0.2700857E+04  0.7818609E-02  0.8334727E-01
        2   -1    0    0  501    0  0.00000000000E+00  0.00000000000E+00  0.13329899715E+04  0.13329899715E+04  0.25500000920E-02 0. -1.
       -2   -1    0    0    0  501  0.00000000000E+00  0.00000000000E+00 -0.13680949197E+04  0.13680949197E+04  0.25500000920E-02 0.  1.
    10030    2    1    2    0    0  0.00000000000E+00  0.00000000000E+00 -0.35104948232E+02  0.27010848912E+04  0.27008567589E+04 0.  0.
        3    1    3    3  502    0  0.18463463947E+03 -0.62453522336E+03  0.11655616533E+04  0.13351659721E+04  0.10100000352E+00 0. -1.
       -3    1    3    3    0  502 -0.18463463947E+03  0.62453522336E+03 -0.12006666015E+04  0.13659189191E+04  0.10100000352E+00 0.  1.
</event>
<event>
 5   0  0.2063087E-06  0.2698906E+04  0.7818609E-02  0.8335360E-01
        2   -1    0    0  501    0  0.00000000000E+00  0.00000000000E+00  0.12928993566E+04  0.12928993566E+04  0.25500000920E-02 0.  1.
       -2   -1    0    0    0  501  0.00000000000E+00  0.00000000000E+00 -0.14084804879E+04  0.14084804879E+04  0.25500000920E-02 0. -1.
    10030    2    1    2    0    0  0.00000000000E+00  0.00000000000E+00 -0.11558113131E+03  0.27013798444E+04  0.26989060869E+04 0.  0.
        3    1    3    3  502    0 -0.16040298431E+03  0.94817378560E+03  0.88978771601E+03  0.13101468753E+04  0.10100000352E+00 0. -1.
       -3    1    3    3    0  502  0.16040298431E+03 -0.94817378560E+03 -0.10053688473E+04  0.13912329691E+04  0.10100000352E+00 0.  1.
</event>
<event>
 5   0  0.2030645E-06  0.2691619E+04  0.7818609E-02  0.8337729E-01
       -2   -1    0    0    0  501  0.00000000000E+00  0.00000000000E+00  0.88863329007E+03  0.88863329007E+03  0.25500000920E-02 0.  1.
        2   -1    0    0  501    0  0.00000000000E+00  0.00000000000E+00 -0.20381898272E+04  0.20381898272E+04  0.25500000920E-02 0. -1.
    10030    2    1    2    0    0  0.00000000000E+00  0.00000000000E+00 -0.11495565371E+04  0.29268231173E+04  0.26916190904E+04 0.  0.
        1    1    3    3  502    0 -0.29951407105E+03 -0.88352101430E+03  0.47997580557E+03  0.10491400457E+04  0.50400001928E-02 0.  1.
       -1    1    3    3    0  502  0.29951407105E+03  0.88352101430E+03 -0.16295323427E+04  0.18776830716E+04  0.50400001928E-02 0. -1.
</event>
<event>
 5   0  0.7566905E-07  0.2705539E+04  0.7818609E-02  0.8333210E-01
       -1   -1    0    0    0  501  0.00000000000E+00  0.00000000000E+00  0.11279038516E+04  0.11279038516E+04  0.50400001928E-02 0. -1.
        1   -1    0    0  501    0  0.00000000000E+00  0.00000000000E+00 -0.16224659517E+04  0.16224659518E+04  0.50400001928E-02 0.  1.
    10030    2    1    2    0    0  0.00000000000E+00  0.00000000000E+00 -0.49456210014E+03  0.27503698034E+04  0.27055392040E+04 0.  0.
        1    1    3    3  502    0  0.58334921881E+03 -0.21207799014E+03 -0.14691592927E+04  0.15948988722E+04  0.50400001928E-02 0.  1.
       -1    1    3    3    0  502 -0.58334921881E+03  0.21207799014E+03  0.97459719260E+03  0.11554709312E+04  0.50400001928E-02 0. -1.
</event>
<event>
 5   0  0.1932012E-06  0.2698703E+04  0.7818609E-02  0.8335426E-01
        2   -1    0    0  501    0  0.00000000000E+00  0.00000000000E+00  0.12949001500E+04  0.12949001500E+04  0.25500000920E-02 0. -1.
       -2   -1    0    0    0  501  0.00000000000E+00  0.00000000000E+00 -0.14060922511E+04  0.14060922511E+04  0.25500000920E-02 0.  1.
    10030    2    1    2    0    0  0.00000000000E+00  0.00000000000E+00 -0.11119210112E+03  0.27009924011E+04  0.26987027008E+04 0.  0.
        2    1    3    3  502    0  0.75410833952E+03  0.54046032858E+03 -0.10362091090E+04  0.13908652243E+04  0.25500000920E-02 0.  1.
       -2    1    3    3    0  502 -0.75410833952E+03 -0.54046032858E+03  0.92501700790E+03  0.13101271768E+04  0.25500000920E-02 0. -1.
</event>
<event>
 5   0  0.2063087E-06  0.2701013E+04  0.7818609E-02  0.8334676E-01
       -2   -1    0    0    0  501  0.00000000000E+00  0.00000000000E+00  0.12649919349E+04  0.12649919349E+04  0.25500000920E-02 0.  1.
        2   -1    0    0  501    0  0.00000000000E+00  0.00000000000E+00 -0.14418023364E+04  0.14418023364E+04  0.25500000920E-02 0. -1.
    10030    2    1    2    0    0  0.00000000000E+00  0.00000000000E+00 -0.17681040145E+03  0.27067942713E+04  0.27010133856E+04 0.  0.
        3    1    3    3  502    0 -0.12559731237E+04  0.45192894169E+03  0.11736341187E+03  0.13399561322E+04  0.10100000352E+00 0. -1.
       -3    1    3    3    0  502  0.12559731237E+04 -0.45192894169E+03 -0.29417381333E+03  0.13668381390E+04  0.10100000352E+00 0.  1.
</event>
<event>
 5   0  0.7566905E-07  0.2696933E+04  0.7818609E-02  0.8336001E-01
        1   -1    0    0  501    0  0.00000000000E+00  0.00000000000E+00  0.12457108552E+04  0.12457108552E+04  0.50400001928E-02 0. -1.
       -1   -1    0    0    0  501  0.00000000000E+00  0.00000000000E+00 -0.14596979016E+04  0.14596979016E+04  0.50400001928E-02 0.  1.
    10030    2    1    2    0    0  0.00000000000E+00  0.00000000000E+00 -0.21398704641E+03  0.27054087568E+04  0.26969327180E+04 0.  0.
        1    1    3    3  502    0 -0.47346920193E+03  0.69631768482E+03  0.94956408447E+03  0.12691348840E+04  0.50400001928E-02 0. -1.
       -1    1    3    3    0  502  0.47346920193E+03 -0.69631768482E+03 -0.11635511309E+04  0.14362738728E+04  0.50400001928E-02 0.  1.
</event>
<event>
 5   0  0.1999104E-06  0.2698482E+04  0.7818609E-02  0.8335498E-01
        2   -1    0    0  501    0  0.00000000000E+00  0.00000000000E+00  0.10703392965E+04  0.10703392965E+04  0.25500000920E-02 0.  1.
       -2   -1    0    0    0  501  0.00000000000E+00  0.00000000000E+00 -0.17008166278E+04  0.17008166278E+04  0.25500000920E-02 0. -1.
    10030    2    1    2    0    0  0.00000000000E+00  0.00000000000E+00 -0.63047733126E+03  0.27711559243E+04  0.26984817012E+04 0.  0.
        4    1    3    3  502    0 -0.32643988932E+03 -0.84230964735E+03  0.71394999460E+03  0.11514229245E+04  0.12699999809E+01 0.  1.
       -4    1    3    3    0  502  0.32643988932E+03  0.84230964735E+03 -0.13444273259E+04  0.16197329998E+04  0.12699999809E+01 0. -1.
</event>
<event>
 5   0  0.6561875E-07  0.2699977E+04  0.7818609E-02  0.8335012E-01
        3   -1    0    0  501    0  0.00000000000E+00  0.00000000000E+00  0.95003092545E+03  0.95003093082E+03  0.10100000352E+00 0.  1.
       -3   -1    0    0    0  501  0.00000000000E+00  0.00000000000E+00 -0.19183260523E+04  0.19183260550E+04  0.10100000352E+00 0. -1.
    10030    2    1    2    0    0  0.00000000000E+00  0.00000000000E+00 -0.96829512685E+03  0.28683569858E+04  0.26999771009E+04 0.  0.
        4    1    3    3  502    0 -0.29143100248E+03 -0.98506963297E+03  0.44635987563E+03  0.11200593567E+04  0.12699999809E+01 0.  1.
       -4    1    3    3    0  502  0.29143100248E+03  0.98506963297E+03 -0.14146550025E+04  0.17482976291E+04  0.12699999809E+01 0. -1.
</event>
<event>
 5   0  0.1991277E-06  0.2715593E+04  0.7818609E-02  0.8329963E-01
       -2   -1    0    0    0  501  0.00000000000E+00  0.00000000000E+00  0.12416203709E+04  0.12416203709E+04  0.25500000920E-02 0. -1.
        2   -1    0    0  501    0  0.00000000000E+00  0.00000000000E+00 -0.14848432406E+04  0.14848432406E+04  0.25500000920E-02 0.  1.
    10030    2    1    2    0    0  0.00000000000E+00  0.00000000000E+00 -0.24322286966E+03  0.27264636115E+04  0.27155932060E+04 0.  0.
        5    1    3    3  502    0  0.93458008494E+03 -0.93487744936E+03 -0.43293937146E+03  0.13910048058E+04  0.46999998093E+01 0. -1.
       -5    1    3    3    0  502 -0.93458008494E+03  0.93487744936E+03  0.18971650180E+03  0.13354588056E+04  0.46999998093E+01 0.  1.
</event>
<event>
 5   0  0.1999104E-06  0.2696120E+04  0.7818609E-02  0.8336265E-01
        2   -1    0    0  501    0  0.00000000000E+00  0.00000000000E+00  0.25303703126E+04  0.25303703126E+04  0.25500000920E-02 0.  1.
       -2   -1    0    0    0  501  0.00000000000E+00  0.00000000000E+00 -0.71818152315E+03  0.71818152315E+03  0.25500000920E-02 0. -1.
    10030    2    1    2    0    0  0.00000000000E+00  0.00000000000E+00  0.18121887895E+04  0.32485518358E+04  0.26961195858E+04 0.  0.
        4    1    3    3  502    0  0.51232468434E+03  0.60397175165E+03 -0.40829808944E+03  0.89104848449E+03  0.12699999809E+01 0. -1.
       -4    1    3    3    0  502 -0.51232468434E+03 -0.60397175165E+03  0.22204868789E+04  0.23575033513E+04  0.12699999809E+01 0.  1.
</event>
<event>
 5   0  0.2063087E-06  0.2701274E+04  0.7818609E-02  0.8334592E-01
        2   -1    0    0  501    0  0.00000000000E+00  0.00000000000E+00  0.16832626959E+04  0.16832626959E+04  0.25500000920E-02 0. -1.
       -2   -1    0    0    0  501  0.00000000000E+00  0.00000000000E+00 -0.10837403906E+04  0.10837403906E+04  0.25500000920E-02 0.  1.
    10030    2    1    2    0    0  0.00000000000E+00  0.00000000000E+00  0.59952230530E+03  0.27670030865E+04  0.27012736044E+04 0.  0.
        3    1    3    3  502    0  0.10620031596E+04 -0.57935111031E+03 -0.31545394861E+03  0.12502038329E+04  0.10100000352E+00 0.  1.
       -3    1    3    3    0  502 -0.10620031596E+04  0.57935111031E+03  0.91497625390E+03  0.15167992535E+04  0.10100000352E+00 0. -1.
</event>
<event>
 5   0  0.1991277E-06  0.2697836E+04  0.7818609E-02  0.8335707E-01
        2   -1    0    0  501    0  0.00000000000E+00  0.00000000000E+00  0.14790034945E+04  0.14790034945E+04  0.25500000920E-02 0. -1.
       -2   -1    0    0    0  501  0.00000000000E+00  0.00000000000E+00 -0.12302740445E+04  0.12302740445E+04  0.25500000920E-02 0.  1.
    10030    2    1    2    0    0  0.00000000000E+00  0.00000000000E+00  0.24872945006E+03  0.27092775390E+04  0.26978358816E+04 0.  0.
        5    1    3    3  502    0 -0.78547738424E+03  0.10212705662E+04 -0.27681572410E+03  0.13178077727E+04  0.46999998093E+01 0. -1.
       -5    1    3    3    0  502  0.78547738424E+03 -0.10212705662E+04  0.52554517416E+03  0.13914697664E+04  0.46999998093E+01 0.  1.
</event>
<event>
 5   0  0.1999104E-06  0.2695047E+04  0.7818609E-02  0.8336614E-01
       -2   -1    0    0    0  501  0.00000000000E+00  0.00000000000E+00  0.95440195823E+03  0.95440195824E+03  0.25500000920E-02 0.  1.
        2   -1    0    0  501    0  0.00000000000E+00  0.00000000000E+00 -0.19025727391E+04  0.19025727391E+04  0.25500000920E-02 0. -1.
    10030    2    1    2    0    0  0.00000000000E+00  0.00000000000E+00 -0.94817078087E+03  0.28569746973E+04  0.26950466771E+04 0.  0.
        4    1    3    3  502    0  0.11437127664E+04 -0.55214359141E+03 -0.95156578476E+03  0.15869532107E+04  0.12699999809E+01 0. -1.
       -4    1    3    3    0  502 -0.11437127664E+04  0.55214359141E+03  0.33950038874E+01  0.12700214866E+04  0.12699999809E+01 0.  1.
</event>
<event>
 5   0  0.2063087E-06  0.2702920E+04  0.7818609E-02  0.8334058E-01
       -2   -1    0    0    0  501  0.00000000000E+00  0.00000000000E+00  0.16721861962E+04  0.16721861962E+04  0.25500000920E-02 0.  1.
        2   -1    0    0  501    0  0.00000000000E+00  0.00000000000E+00 -0.10922496494E+04  0.10922496494E+04  0.25500000920E-02 0. -1.
    10030    2    1    2    0    0  0.00000000000E+00  0.00000000000E+00  0.57993654678E+03  0.27644358456E+04  0.27029204846E+04 0.  0.
        3    1    3    3  502    0  0.10080147350E+04  0.43919047381E+03  0.10936399154E+04  0.15508159959E+04  0.10100000352E+00 0.  1.
       -3    1    3    3    0  502 -0.10080147350E+04 -0.43919047381E+03 -0.51370336864E+03  0.12136198497E+04  0.10100000352E+00 0. -1.
</event>
<event>
 5   0  0.7806808E-07  0.2700377E+04  0.7818609E-02  0.8334883E-01
       -1   -1    0    0    0  501  0.00000000000E+00  0.00000000000E+00  0.16194813375E+04  0.16194813376E+04  0.50400001928E-02 0. -1.
        1   -1    0    0  501    0  0.00000000000E+00  0.00000000000E+00 -0.11256743767E+04  0.11256743767E+04  0.50400001928E-02 0.  1.
    10030    2    1    2    0    0  0.00000000000E+00  0.00000000000E+00  0.49380696087E+03  0.27451557142E+04  0.27003767479E+04 0.  0.
        5    1    3    3  502    0 -0.54855744564E+03 -0.12315971188E+04  0.32049043774E+03  0.13858149029E+04  0.46999998093E+01 0.  1.
       -5    1    3    3    0  502  0.54855744564E+03  0.12315971188E+04  0.17331652314E+03  0.13593408114E+04  0.46999998093E+01 0. -1.
</event>
<event>
 5   0  0.2030645E-06  0.2718336E+04  0.7818609E-02  0.8329080E-01
        2   -1    0    0  501    0  0.00000000000E+00  0.00000000000E+00  0.14093247149E+04  0.14093247149E+04  0.25500000920E-02 0. -1.
       -2   -1    0    0    0  501  0.00000000000E+00  0.00000000000E+00 -0.13107965055E+04  0.13107965055E+04  0.25500000920E-02 0.  1.
    10030    2    1    2    0    0  0.00000000000E+00  0.00000000000E+00  0.98528209348E+02  0.27201212204E+04  0.27183361907E+04 0.  0.
        1    1    3    3  502    0  0.81127913281E+03  0.85290863721E+03 -0.63067523995E+03  0.13354318527E+04  0.50400001928E-02 0.  1.
       -1    1    3    3    0  502 -0.81127913281E+03 -0.85290863721E+03  0.72920344930E+03  0.13846893678E+04  0.50400001928E-02 0. -1.
</event>
<event>
 5   0  0.7335091E-07  0.2698389E+04  0.7818609E-02  0.8335528E-01
       -1   -1    0    0    0  501  0.00000000000E+00  0.00000000000E+00  0.12697102032E+04  0.12697102032E+04  0.50400001928E-02 0.  1.
        1   -1    0    0  501    0  0.00000000000E+00  0.00000000000E+00 -0.14336541866E+04  0.14336541866E+04  0.50400001928E-02 0. -1.
    10030    2    1    2    0    0  0.00000000000E+00  0.00000000000E+00 -0.16394398342E+03  0.27033643898E+04  0.26983886663E+04 0.  0.
        3    1    3    3  502    0 -0.28047161039E+03  0.56857186715E+03  0.11111846492E+04  0.12793238945E+04  0.10100000352E+00 0.  1.
       -3    1    3    3    0  502  0.28047161039E+03 -0.56857186715E+03 -0.12751286326E+04  0.14240404953E+04  0.10100000352E+00 0. -1.
</event>
<event>
 5   0  0.1999104E-06  0.2700934E+04  0.7818609E-02  0.8334702E-01
        2   -1    0    0  501    0  0.00000000000E+00  0.00000000000E+00  0.10316472744E+04  0.10316472744E+04  0.25500000920E-02 0. -1.
       -2   -1    0    0    0  501  0.00000000000E+00  0.00000000000E+00 -0.17678150879E+04  0.17678150879E+04  0.25500000920E-02 0.  1.
    10030    2    1    2    0    0  0.00000000000E+00  0.00000000000E+00 -0.73616781351E+03  0.27994623623E+04  0.27009343695E+04 0.  0.
        4    1    3    3  502    0  0.72003261899E+03  0.11267148448E+04 -0.17189974372E+03  0.13481411086E+04  0.12699999809E+01 0. -1.
       -4    1    3    3    0  502 -0.72003261899E+03 -0.11267148448E+04 -0.56426806979E+03  0.14513212537E+04  0.12699999809E+01 0.  1.
</event>
<event>
 5   0  0.1999104E-06  0.2697585E+04  0.7818609E-02  0.8335789E-01
        2   -1    0    0  501    0  0.00000000000E+00  0.00000000000E+00  0.13598748769E+04  0.13598748769E+04  0.25500000920E-02 0.  1.
       -2   -1    0    0    0  501  0.00000000000E+00  0.00000000000E+00 -0.13378002915E+04  0.13378002915E+04  0.25500000920E-02 0. -1.
    10030    2    1    2    0    0  0.00000000000E+00  0.00000000000E+00  0.22074585374E+02  0.26976751684E+04  0.26975848507E+04 0.  0.
        4    1    3    3  502    0  0.28643913466E+03 -0.67036587116E+03  0.11458887586E+04  0.13581238674E+04  0.12699999809E+01 0.  1.
       -4    1    3    3    0  502 -0.28643913466E+03  0.67036587116E+03 -0.11238141733E+04  0.13395513010E+04  0.12699999809E+01 0. -1.
</event>
<event>
 5   0  0.1999104E-06  0.2697639E+04  0.7818609E-02  0.8335772E-01
        2   -1    0    0  501    0  0.00000000000E+00  0.00000000000E+00  0.29125405314E+04  0.29125405314E+04  0.25500000920E-02 0. -1.
       -2   -1    0    0    0  501  0.00000000000E+00  0.00000000000E+00 -0.62464827479E+03  0.62464827480E+03  0.25500000920E-02 0.  1.
    10030    2    1    2    0    0  0.00000000000E+00  0.00000000000E+00  0.22878922566E+04  0.35371888062E+04  0.26976385364E+04 0.  0.
        4    1    3    3  502    0 -0.72707220011E+03 -0.20180081337E+03 -0.32201192707E+03  0.82039676165E+03  0.12699999809E+01 0.  1.
       -4    1    3    3    0  502  0.72707220011E+03  0.20180081337E+03  0.26099041837E+04  0.27167920446E+04  0.12699999809E+01 0. -1.
</event>
<event>
 5   0  0.2030645E-06  0.2700642E+04  0.7818609E-02  0.8334797E-01
        2   -1    0    0  501    0  0.00000000000E+00  0.00000000000E+00  0.15348214413E+04  0.15348214413E+04  0.25500000920E-02 0.  1.
       -2   -1    0    0    0  501  0.00000000000E+00  0.00000000000E+00 -0.11879994479E+04  0.11879994479E+04  0.25500000920E-02 0. -1.
    10030    2    1    2    0    0  0.00000000000E+00  0.00000000000E+00  0.34682199336E+03  0.27228208892E+04  0.27006421643E+04 0.  0.
        1    1    3    3  502    0  0.30605674353E+02  0.62972931949E+03  0.13773159297E+04  0.15147590216E+04  0.50400001928E-02 0.  1.
       -1    1    3    3    0  502 -0.30605674353E+02 -0.62972931949E+03 -0.10304939364E+04  0.12080618676E+04  0.50400001928E-02 0. -1.
</event>
<event>
 5   0  0.7768032E-07  0.2702727E+04  0.7818609E-02  0.8334121E-01
        1   -1    0    0  501    0  0.00000000000E+00  0.00000000000E+00  0.24318881329E+04  0.24318881329E+04  0.50400001928E-02 0.  1.
       -1   -1    0    0    0  501  0.00000000000E+00  0.00000000000E+00 -0.75093255517E+03  0.75093255519E+03  0.50400001928E-02 0. -1.
    10030    2    1    2    0    0  0.00000000000E+00  0.00000000000E+00  0.16809555777E+04  0.31828206881E+04  0.27027274887E+04 0.  0.
        4    1    3    3  502    0 -0.33243269272E+03  0.10451218602E+04 -0.89323690595E+02  0.11003506406E+04  0.12699999809E+01 0. -1.
       -4    1    3    3    0  502  0.33243269272E+03 -0.10451218602E+04  0.17702792683E+04  0.20824700474E+04  0.12699999809E+01 0.  1.
</event>
<event>
 5   0  0.7806808E-07  0.2699973E+04  0.7818609E-02  0.8335014E-01
        1   -1    0    0  501    0  0.00000000000E+00  0.00000000000E+00  0.23879231068E+04  0.23879231068E+04  0.50400001928E-02 0. -1.
       -1   -1    0    0    0  501  0.00000000000E+00  0.00000000000E+00 -0.76320052135E+03  0.76320052137E+03  0.50400001928E-02 0.  1.
    10030    2    1    2    0    0  0.00000000000E+00  0.00000000000E+00  0.16247225855E+04  0.31511236282E+04  0.26999734518E+04 0.  0.
        5    1    3    3  502    0  0.35185541487E+02 -0.88444111175E+02  0.23839922007E+04  0.23858963276E+04  0.46999998093E+01 0. -1.
       -5    1    3    3    0  502 -0.35185541487E+02  0.88444111175E+02 -0.75926961517E+03  0.76522730064E+03  0.46999998093E+01 0.  1.
</event>
<event>
 5   0  0.1999104E-06  0.2699158E+04  0.7818609E-02  0.8335278E-01
        2   -1    0    0  501    0  0.00000000000E+00  0.00000000000E+00  0.14376768011E+04  0.14376768011E+04  0.25500000920E-02 0. -1.
       -2   -1    0    0    0  501  0.00000000000E+00  0.00000000000E+00 -0.12668798611E+04  0.12668798611E+04  0.25500000920E-02 0.  1.
    10030    2    1    2    0    0  0.00000000000E+00  0.00000000000E+00  0.17079694000E+03  0.27045566623E+04  0.26991582289E+04 0.  0.
        4    1    3    3  502    0 -0.95894830531E+03 -0.88297154021E+03 -0.26478811692E+03  0.13301635061E+04  0.12699999809E+01 0.  1.
       -4    1    3    3    0  502  0.95894830531E+03  0.88297154021E+03  0.43558505693E+03  0.13743931562E+04  0.12699999809E+01 0. -1.
</event>
<event>
 5   0  0.2030645E-06  0.2696892E+04  0.7818609E-02  0.8336014E-01
       -2   -1    0    0    0  501  0.00000000000E+00  0.00000000000E+00  0.69573539402E+03  0.69573539402E+03  0.25500000920E-02 0. -1.
        2   -1    0    0  501    0  0.00000000000E+00  0.00000000000E+00 -0.26135033246E+04  0.26135033246E+04  0.25500000920E-02 0.  1.
    10030    2    1    2    0    0  0.00000000000E+00  0.00000000000E+00 -0.19177679305E+04  0.33092387186E+04  0.26968921115E+04 0.  0.
        1    1    3    3  502    0  0.57061054431E+03 -0.45383854646E+03  0.43302260392E+03  0.84798254408E+03  0.50400001928E-02 0. -1.
       -1    1    3    3    0  502 -0.57061054431E+03  0.45383854646E+03 -0.23507905345E+04  0.24612561745E+04  0.50400001928E-02 0.  1.
</event>
<event>
 5   0  0.1932012E-06  0.2701731E+04  0.7818609E-02  0.8334443E-01
       -2   -1    0    0    0  501  0.00000000000E+00  0.00000000000E+00  0.81938044783E+03  0.81938044783E+03  0.25500000920E-02 0.  1.
        2   -1    0    0  501    0  0.00000000000E+00  0.00000000000E+00 -0.22270949556E+04  0.22270949556E+04  0.25500000920E-02 0. -1.
    10030    2    1    2    0    0  0.00000000000E+00  0.00000000000E+00 -0.14077145078E+04  0.30464754035E+04  0.27017313428E+04 0.  0.
        2    1    3    3  502    0  0.10345760182E+04  0.86302648659E+03 -0.81477451518E+03  0.15744903190E+04  0.25500000920E-02 0. -1.
       -2    1    3    3    0  502 -0.10345760182E+04 -0.86302648659E+03 -0.59293999263E+03  0.14719850845E+04  0.25500000920E-02 0.  1.
</event>
<event>
 5   0  0.1991277E-06  0.2699279E+04  0.7818609E-02  0.8335239E-01
        2   -1    0    0  501    0  0.00000000000E+00  0.00000000000E+00  0.70597413453E+03  0.70597413454E+03  0.25500000920E-02 0.  1.
       -2   -1    0    0    0  501  0.00000000000E+00  0.00000000000E+00 -0.25801616505E+04  0.25801616505E+04  0.25500000920E-02 0. -1.
    10030    2    1    2    0    0  0.00000000000E+00  0.00000000000E+00 -0.18741875159E+04  0.32861357850E+04  0.26992794506E+04 0.  0.
        5    1    3    3  502    0  0.62127503320E+03  0.80284011210E+03  0.14563025327E+03  0.10255560312E+04  0.46999998093E+01 0.  1.
       -5    1    3    3    0  502 -0.62127503320E+03 -0.80284011210E+03 -0.20198177692E+04  0.22605797538E+04  0.46999998093E+01 0. -1.
</event>
<event>
 5   0  0.1932012E-06  0.2712829E+04  0.7818609E-02  0.8330854E-01
       -2   -1    0    0    0  501  0.00000000000E+00  0.00000000000E+00  0.15144700099E+04  0.15144700099E+04  0.25500000920E-02 0. -1.
        2   -1    0    0  501    0  0.00000000000E+00  0.00000000000E+00 -0.12148544796E+04  0.12148544796E+04  0.25500000920E-02 0.  1.
    10030    2    1    2    0    0  0.00000000000E+00  0.00000000000E+00  0.29961553039E+03  0.27293244895E+04  0.27128292801E+04 0.  0.
        2    1    3    3  502    0  0.36883662585E+02  0.11601537144E+04  0.85588963678E+03  0.14421734001E+04  0.25500000920E-02 0. -1.
       -2    1    3    3    0  502 -0.36883662585E+02 -0.11601537144E+04 -0.55627410639E+03  0.12871510894E+04  0.25500000920E-02 0.  1.
</event>
<event>
 5   0  0.7335091E-07  0.2698656E+04  0.7818609E-02  0.8335441E-01
        1   -1    0    0  501    0  0.00000000000E+00  0.00000000000E+00  0.19873306200E+04  0.19873306201E+04  0.50400001928E-02 0.  1.
       -1   -1    0    0    0  501  0.00000000000E+00  0.00000000000E+00 -0.91614670453E+03  0.91614670454E+03  0.50400001928E-02 0. -1.
    10030    2    1    2    0    0  0.00000000000E+00  0.00000000000E+00  0.10711839155E+04  0.29034773246E+04  0.26986562570E+04 0.  0.
        3    1    3    3  502    0 -0.69759815308E+03 -0.37471375980E+03 -0.63986367609E+03  0.10180761853E+04  0.10100000352E+00 0. -1.
       -3    1    3    3    0  502  0.69759815308E+03  0.37471375980E+03  0.17110475916E+04  0.18854011393E+04  0.10100000352E+00 0.  1.
</event>
<event>
 5   0  0.2030645E-06  0.2697969E+04  0.7818609E-02  0.8335664E-01
       -2   -1    0    0    0  501  0.00000000000E+00  0.00000000000E+00  0.11294904471E+04  0.11294904471E+04  0.25500000920E-02 0.  1.
        2   -1    0    0  501    0  0.00000000000E+00  0.00000000000E+00 -0.16111323493E+04  0.16111323493E+04  0.25500000920E-02 0. -1.
    10030    2    1    2    0    0  0.00000000000E+00  0.00000000000E+00 -0.48164190219E+03  0.27406227964E+04  0.26979685673E+04 0.  0.
        1    1    3    3  502    0  0.83973281047E+02 -0.44259432604E+03  0.10508231368E+04  0.11433155795E+04  0.50400001928E-02 0.  1.
       -1    1    3    3    0  502 -0.83973281047E+02  0.44259432604E+03 -0.15324650390E+04  0.15973072169E+04  0.50400001928E-02 0. -1.
</event>
<event>
 5   0  0.7768032E-07  0.2700828E+04  0.7818609E-02  0.8334736E-01
        1   -1    0    0  501    0  0.00000000000E+00  0.00000000000E+00  0.12715133908E+04  0.12715133909E+04  0.50400001928E-02 0. -1.
       -1   -1    0    0    0  501  0.00000000000E+00  0.00000000000E+00 -0.14342110432E+04  0.14342110432E+04  0.50400001928E-02 0.  1.
    10030    2    1    2    0    0  0.00000000000E+00  0.00000000000E+00 -0.16269765234E+03  0.27057244340E+04  0.27008284260E+04 0.  0.
        4    1    3    3  502    0  0.14092670125E+03 -0.11828492187E+04 -0.71860281314E+03  0.13911808744E+04  0.12699999809E+01 0.  1.
       -4    1    3    3    0  502 -0.14092670125E+03  0.11828492187E+04  0.55590516080E+03  0.13145435596E+04  0.12699999809E+01 0. -1.
</event>
<event>
 5   0  0.7768032E-07  0.2705531E+04  0.7818609E-02  0.8333213E-01
        1   -1    0    0  501    0  0.00000000000E+00  0.00000000000E+00  0.13611940532E+04  0.13611940532E+04  0.50400001928E-02 0. -1.
       -1   -1    0    0    0  501  0.00000000000E+00  0.00000000000E+00 -0.13443887548E+04  0.13443887549E+04  0.50400001928E-02 0.  1.
    10030    2    1    2    0    0  0.00000000000E+00  0.00000000000E+00  0.16805298385E+02  0.27055828081E+04  0.27055306159E+04 0.  0.
        4    1    3    3  502    0 -0.22925000483E+03 -0.24234843973E+03 -0.13026085427E+04  0.13446482660E+04  0.12699999809E+01 0.  1.
       -4    1    3    3    0  502  0.22925000483E+03  0.24234843973E+03  0.13194138411E+04  0.13609345421E+04  0.12699999809E+01 0. -1.
</event>
<event>
 5   0  0.2063087E-06  0.2697383E+04  0.7818609E-02  0.8335855E-01
       -2   -1    0    0    0  501  0.00000000000E+00  0.00000000000E+00  0.22280433555E+04  0.22280433555E+04  0.25500000920E-02 0.  1.
        2   -1    0    0  501    0  0.00000000000E+00  0.00000000000E+00 -0.81639741450E+03  0.81639741450E+03  0.25500000920E-02 0. -1.
    10030    2    1    2    0    0  0.00000000000E+00  0.00000000000E+00  0.14116459410E+04  0.30444407700E+04  0.26973830539E+04 0.  0.
        3    1    3    3  502    0 -0.87280003177E+03 -0.29155350648E+03 -0.40703430680E+03  0.10062108525E+04  0.10100000352E+00 0. -1.
       -3    1    3    3    0  502  0.87280003177E+03  0.29155350648E+03  0.18186802478E+04  0.20382299175E+04  0.10100000352E+00 0.  1.
</event>
<event>
 5   0  0.1991277E-06  0.2702614E+04  0.7818609E-02  0.8334157E-01
        2   -1    0    0  501    0  0.00000000000E+00  0.00000000000E+00  0.26716786931E+04  0.26716786931E+04  0.25500000920E-02 0. -1.
       -2   -1    0    0    0  501  0.00000000000E+00  0.00000000000E+00 -0.68347678213E+03  0.68347678214E+03  0.25500000920E-02 0.  1.
    10030    2    1    2    0    0  0.00000000000E+00  0.00000000000E+00  0.19882019110E+04  0.33551554752E+04  0.27026138134E+04 0.  0.
        5    1    3    3  502    0 -0.13178712093E+04  0.29474698036E+03  0.93394564920E+03  0.16419308367E+04  0.46999998093E+01 0.  1.
       -5    1    3    3    0  502  0.13178712093E+04 -0.29474698036E+03  0.10542562618E+04  0.17132246386E+04  0.46999998093E+01 0. -1.
</event>
<event>
 5   0  0.1991277E-06  0.2700333E+04  0.7818609E-02  0.8334897E-01
        2   -1    0    0  501    0  0.00000000000E+00  0.00000000000E+00  0.16744546423E+04  0.16744546423E+04  0.25500000920E-02 0.  1.
       -2   -1    0    0    0  501  0.00000000000E+00  0.00000000000E+00 -0.10886824682E+04  0.10886824682E+04  0.25500000920E-02 0. -1.
    10030    2    1    2    0    0  0.00000000000E+00  0.00000000000E+00  0.58577217405E+03  0.27631371105E+04  0.27003328779E+04 0.  0.
        5    1    3    3  502    0 -0.12809721778E+04 -0.41313043997E+03  0.18381983413E+03  0.13584470186E+04  0.46999998093E+01 0.  1.
       -5    1    3    3    0  502  0.12809721778E+04  0.41313043997E+03  0.40195233993E+03  0.14046900919E+04  0.46999998093E+01 0. -1.
</event>
<event>
 5   0  0.2030645E-06  0.2687758E+04  0.7818609E-02  0.8338988E-01
        2   -1    0    0  501    0  0.00000000000E+00  0.00000000000E+00  0.26269304905E+04  0.26269304905E+04  0.25500000920E-02 0.  1.
       -2   -1    0    0    0  501  0.00000000000E+00  0.00000000000E+00 -0.68749846100E+03  0.68749846101E+03  0.25500000920E-02 0. -1.
    10030    2    1    2    0    0  0.00000000000E+00  0.00000000000E+00  0.19394320295E+04  0.33144289515E+04  0.26877579276E+04 0.  0.
        1    1    3    3  502    0 -0.33703819936E+03  0.10895084196E+04  0.93056934899E+02  0.11442390211E+04  0.50400001928E-02 0. -1.
       -1    1    3    3    0  502  0.33703819936E+03 -0.10895084196E+04  0.18463750946E+04  0.21701899304E+04  0.50400001928E-02 0.  1.
</event>
<event>
 5   0  0.7566905E-07  0.2698670E+04  0.7818609E-02  0.8335437E-01
       -1   -1    0    0    0  501  0.00000000000E+00  0.00000000000E+00  0.11011313503E+04  0.11011313503E+04  0.50400001928E-02 0.  1.
        1   -1    0    0  501    0  0.00000000000E+00  0.00000000000E+00 -0.16534859719E+04  0.16534859720E+04  0.50400001928E-02 0. -1.
    10030    2    1    2    0    0  0.00000000000E+00  0.00000000000E+00 -0.55235462162E+03  0.27546173223E+04  0.26986702215E+04 0.  0.
        1    1    3    3  502    0 -0.64664850062E+03 -0.22277639168E+03  0.91108799909E+03  0.11392387573E+04  0.50400001928E-02 0.  1.
       -1    1    3    3    0  502  0.64664850062E+03  0.22277639168E+03 -0.14634426207E+04  0.16153785650E+04  0.50400001928E-02 0. -1.
</event>
<event>
 5   0  0.6561875E-07  0.2696889E+04  0.7818609E-02  0.8336015E-01
        3   -1    0    0  501    0  0.00000000000E+00  0.00000000000E+00  0.18263899133E+04  0.18263899161E+04  0.10100000352E+00 0. -1.
       -3   -1    0    0    0  501  0.00000000000E+00  0.00000000000E+00 -0.99557211743E+03  0.99557212255E+03  0.10100000352E+00 0.  1.
    10030    2    1    2    0    0  0.00000000000E+00  0.00000000000E+00  0.83081779586E+03  0.28219620386E+04  0.26968892335E+04 0.  0.
        4    1    3    3  502    0  0.40542443172E+03 -0.12608193693E+04  0.68067482068E+03  0.14890783311E+04  0.12699999809E+01 0. -1.
       -4    1    3    3    0  502 -0.40542443172E+03  0.12608193693E+04  0.15014297517E+03  0.13328837075E+04  0.12699999809E+01 0.  1.
</event>
<event>
 5   0  0.1991277E-06  0.2695735E+04  0.7818609E-02  0.8336390E-01
       -2   -1    0    0    0  501  0.00000000000E+00  0.00000000000E+00  0.12617761812E+04  0.12617761812E+04  0.25500000920E-02 0.  1.
        2   -1    0    0  501    0  0.00000000000E+00  0.00000000000E+00 -0.14398333308E+04  0.14398333308E+04  0.25500000920E-02 0. -1.
    10030    2    1    2    0    0  0.00000000000E+00  0.00000000000E+00 -0.17805714960E+03  0.27016095120E+04  0.26957354483E+04 0.  0.
        5    1    3    3  502    0 -0.91019569631E+03  0.96957243066E+03  0.13099116842E+03  0.13363037380E+04  0.46999998093E+01 0.  1.
       -5    1    3    3    0  502  0.91019569631E+03 -0.96957243066E+03 -0.30904831802E+03  0.13653057741E+04  0.46999998093E+01 0. -1.
</event>
<event>
 5   0  0.1932012E-06  0.2692373E+04  0.7818609E-02  0.8337484E-01
       -2   -1    0    0    0  501  0.00000000000E+00  0.00000000000E+00  0.15294323964E+04  0.15294323964E+04  0.25500000920E-02 0.  1.
        2   -1    0    0  501    0  0.00000000000E+00  0.00000000000E+00 -0.11848957297E+04  0.11848957297E+04  0.25500000920E-02 0. -1.
    10030    2    1    2    0    0  0.00000000000E+00  0.00000000000E+00  0.34453666666E+03  0.27143281261E+04  0.26923728682E+04 0.  0.
        2    1    3    3  502    0  0.11232187758E+04 -0.41505974245E+03 -0.44782699679E+03  0.12784537642E+04  0.25500000920E-02 0. -1.
       -2    1    3    3    0  502 -0.11232187758E+04  0.41505974245E+03  0.79236366346E+03  0.14358743619E+04  0.25500000920E-02 0.  1.
</event>
<event>
 5   0  0.2063087E-06  0.2701800E+04  0.7818609E-02  0.8334421E-01
        2   -1    0    0  501    0  0.00000000000E+00  0.00000000000E+00  0.21996702928E+04  0.21996702928E+04  0.25500000920E-02 0. -1.
       -2   -1    0    0    0  501  0.00000000000E+00  0.00000000000E+00 -0.82963846034E+03  0.82963846034E+03  0.25500000920E-02 0.  1.
    10030    2    1    2    0    0  0.00000000000E+00  0.00000000000E+00  0.13700318325E+04  0.30293087531E+04  0.27018001961E+04 0.  0.
        3    1    3    3  502    0  0.38650624151E+02  0.77778321917E+02  0.21965366411E+04  0.21982530709E+04  0.10100000352E+00 0. -1.
       -3    1    3    3    0  502 -0.38650624151E+02 -0.77778321917E+02 -0.82650480860E+03  0.83105568222E+03  0.10100000352E+00 0.  1.
</event>
<event>
 5   0  0.7566905E-07  0.2701757E+04  0.7818609E-02  0.8334435E-01
        1   -1    0    0  501    0  0.00000000000E+00  0.00000000000E+00  0.18449716672E+04  0.18449716672E+04  0.50400001928E-02 0.  1.
       -1   -1    0    0    0  501  0.00000000000E+00  0.00000000000E+00 -0.98910625741E+03  0.98910625742E+03  0.50400001928E-02 0. -1.
    10030    2    1    2    0    0  0.00000000000E+00  0.00000000000E+00  0.85586540975E+03  0.28340779246E+04  0.27017572213E+04 0.  0.
        1    1    3    3  502    0  0.91163143180E+03 -0.60720741293E+03  0.12572874309E+04  0.16674964449E+04  0.50400001928E-02 0.  1.
       -1    1    3    3    0  502 -0.91163143180E+03  0.60720741293E+03 -0.40142202112E+03  0.11665814797E+04  0.50400001928E-02 0. -1.
</event>
<event>
 5   0  0.2063087E-06  0.2720673E+04  0.7818609E-02  0.8328328E-01
        2   -1    0    0  501    0  0.00000000000E+00  0.00000000000E+00  0.15221779554E+04  0.15221779554E+04  0.25500000920E-02 0.  1.
       -2   -1    0    0    0  501  0.00000000000E+00  0.00000000000E+00 -0.12157020530E+04  0.12157020530E+04  0.25500000920E-02 0. -1.
    10030    2    1    2    0    0  0.00000000000E+00  0.00000000000E+00  0.30647590242E+03  0.27378800085E+04  0.27206726121E+04 0.  0.
        3    1    3    3  502    0 -0.52231457023E+03  0.29955519714E+03  0.13807763090E+04  0.15063495784E+04  0.10100000352E+00 0.  1.
       -3    1    3    3    0  502  0.52231457023E+03 -0.29955519714E+03 -0.10743004066E+04  0.12315304301E+04  0.10100000352E+00 0. -1.
</event>
<event>
 5   0  0.6561875E-07  0.2704730E+04  0.7818609E-02  0.8333472E-01
       -4   -1    0    0    0  501  0.00000000000E+00  0.00000000000E+00  0.12879554790E+04  0.12879561051E+04  0.12699999809E+01 0.  1.
        4   -1    0    0  501    0  0.00000000000E+00  0.00000000000E+00 -0.14199946562E+04  0.14199952242E+04  0.12699999809E+01 0. -1.
    10030    2    1    2    0    0  0.00000000000E+00  0.00000000000E+00 -0.13203917730E+03  0.27079513293E+04  0.27047303114E+04 0.  0.
        4    1    3    3  502    0 -0.59273588208E+03  0.12124492147E+04  0.20807257872E+02  0.13497420046E+04  0.12699999809E+01 0. -1.
       -4    1    3    3    0  502  0.59273588208E+03 -0.12124492147E+04 -0.15284643517E+03  0.13582093247E+04  0.12699999809E+01 0.  1.
</event>
<event>
 5   0  0.7566905E-07  0.2699029E+04  0.7818609E-02  0.8335320E-01
       -1   -1    0    0    0  501  0.00000000000E+00  0.00000000000E+00  0.16500325720E+04  0.16500325720E+04  0.50400001928E-02 0. -1.
        1   -1    0    0  501    0  0.00000000000E+00  0.00000000000E+00 -0.11037297247E+04  0.11037297247E+04  0.50400001928E-02 0.  1.
    10030    2    1    2    0    0  0.00000000000E+00  0.00000000000E+00  0.54630284729E+03  0.27537622968E+04  0.26990294526E+04 0.  0.
        1    1    3    3  502    0 -0.31281522402E+03 -0.11110063277E+04 -0.44031567957E+03  0.12353405694E+04  0.50400001928E-02 0.  1.
       -1    1    3    3    0  502  0.31281522402E+03  0.11110063277E+04  0.98661852686E+03  0.15184217274E+04  0.50400001928E-02 0. -1.
</event>
<event>
 5   0  0.7436613E-07  0.2710194E+04  0.7818609E-02  0.8331705E-01
       -1   -1    0    0    0  501  0.00000000000E+00  0.00000000000E+00  0.99488842968E+03  0.99488842969E+03  0.50400001928E-02 0.  1.
        1   -1    0    0  501    0  0.00000000000E+00  0.00000000000E+00 -0.18457225040E+04  0.18457225040E+04  0.50400001928E-02 0. -1.
    10030    2    1    2    0    0  0.00000000000E+00  0.00000000000E+00 -0.85083407427E+03  0.28406109337E+04  0.27101940621E+04 0.  0.
        2    1    3    3  502    0 -0.43168730834E+03 -0.62147124630E+03  0.75282537092E+03  0.10673923746E+04  0.25500000920E-02 0.  1.
       -2    1    3    3    0  502  0.43168730834E+03  0.62147124630E+03 -0.16036594452E+04  0.17732185591E+04  0.25500000920E-02 0. -1.
</event>
<event>
 5   0  0.1999104E-06  0.2705158E+04  0.7818609E-02  0.8333333E-01
        2   -1    0    0  501    0  0.00000000000E+00  0.00000000000E+00  0.13569794477E+04  0.13569794477E+04  0.25500000920E-02 0.  1.
       -2   -1    0    0    0  501  0.00000000000E+00  0.00000000000E+00 -0.13481932749E+04  0.13481932749E+04  0.25500000920E-02 0. -1.
    10030    2    1    2    0    0  0.00000000000E+00  0.00000000000E+00  0.87861727766E+01  0.27051727227E+04  0.27051584543E+04 0.  0.
        4    1    3    3  502    0 -0.11068648868E+04  0.27327719799E+03 -0.72337352137E+03  0.13502226368E+04  0.12699999809E+01 0. -1.
       -4    1    3    3    0  502  0.11068648868E+04 -0.27327719799E+03  0.73215969415E+03  0.13549500859E+04  0.12699999809E+01 0.  1.
</event>
<event>
 5   0  0.1999104E-06  0.2700162E+04  0.7818609E-02  0.8334952E-01
        2   -1    0    0  501    0  0.00000000000E+00  0.00000000000E+00  0.19593570636E+04  0.19593570636E+04  0.25500000920E-02 0. -1.
       -2   -1    0    0    0  501  0.00000000000E+00  0.00000000000E+00 -0.93026401438E+03  0.93026401438E+03  0.25500000920E-02 0.  1.
    10030    2    1    2    0    0  0.00000000000E+00  0.00000000000E+00  0.10290930492E+04  0.28896210779E+04  0.27001624896E+04 0.  0.
        4    1    3    3  502    0 -0.78255521292E+03  0.10015298959E+04  0.27341402069E+02  0.12713001057E+04  0.12699999809E+01 0.  1.
       -4    1    3    3    0  502  0.78255521292E+03 -0.10015298959E+04  0.10017516471E+04  0.16183209722E+04  0.12699999809E+01 0. -1.
</event>
<event>
 5   0  0.1932012E-06  0.2701858E+04  0.7818609E-02  0.8334403E-01
        2   -1    0    0  501    0  0.00000000000E+00  0.00000000000E+00  0.11226974481E+04  0.11226974481E+04  0.25500000920E-02 0. -1.
       -2   -1    0    0    0  501  0.00000000000E+00  0.00000000000E+00 -0.16255568977E+04  0.16255568977E+04  0.25500000920E-02 0.  1.
    10030    2    1    2    0    0  0.00000000000E+00  0.00000000000E+00 -0.50285944962E+03  0.27482543457E+04  0.27018575689E+04 0.  0.
        2    1    3    3  502    0  0.83264052676E+03  0.70722799254E+03  0.55691624310E+03  0.12262207722E+04  0.25500000920E-02 0. -1.
       -2    1    3    3    0  502 -0.83264052676E+03 -0.70722799254E+03 -0.10597756927E+04  0.15220335736E+04  0.25500000920E-02 0.  1.
</event>
<event>
 5   0  0.2030645E-06  0.2699542E+04  0.7818609E-02  0.8335154E-01
       -2   -1    0    0    0  501  0.00000000000E+00  0.00000000000E+00  0.98221839653E+03  0.98221839653E+03  0.25500000920E-02 0. -1.
        2   -1    0    0  501    0  0.00000000000E+00  0.00000000000E+00 -0.18548635663E+04  0.18548635663E+04  0.25500000920E-02 0.  1.
    10030    2    1    2    0    0  0.00000000000E+00  0.00000000000E+00 -0.87264516976E+03  0.28370819628E+04  0.26995415299E+04 0.  0.
        1    1    3    3  502    0 -0.51817829310E+03  0.52824231138E+03 -0.16227010043E+04  0.17834537371E+04  0.50400001928E-02 0.  1.
       -1    1    3    3    0  502  0.51817829310E+03 -0.52824231138E+03  0.75005583458E+03  0.10536282257E+04  0.50400001928E-02 0. -1.
</event>
<event>
 5   0  0.1999104E-06  0.2727680E+04  0.7818609E-02  0.8326079E-01
       -2   -1    0    0    0  501  0.00000000000E+00  0.00000000000E+00  0.13109408870E+04  0.13109408870E+04  0.25500000920E-02 0. -1.
        2   -1    0    0  501    0  0.00000000000E+00  0.00000000000E+00 -0.14188739630E+04  0.14188739630E+04  0.25500000920E-02 0.  1.
    10030    2    1    2    0    0  0.00000000000E+00  0.00000000000E+00 -0.10793307604E+03  0.27298148500E+04  0.27276802537E+04 0.  0.
        4    1    3    3  502    0  0.36565963852E+03  0.63223159634E+03  0.10987310341E+04  0.13193313689E+04  0.12699999809E+01 0. -1.
       -4    1    3    3    0  502 -0.36565963852E+03 -0.63223159634E+03 -0.12066641102E+04  0.14104834811E+04  0.12699999809E+01 0.  1.
</event>
<event>
 5   0  0.1991277E-06  0.2696159E+04  0.7818609E-02  0.8336252E-01
        2   -1    0    0  501    0  0.00000000000E+00  0.00000000000E+00  0.19303807097E+04  0.19303807097E+04  0.25500000920E-02 0. -1.
       -2   -1    0    0    0  501  0.00000000000E+00  0.00000000000E+00 -0.94142978245E+03  0.94142978245E+03  0.25500000920E-02 0.  1.
    10030    2    1    2    0    0  0.00000000000E+00  0.00000000000E+00  0.98895092721E+03  0.28718104921E+04  0.26961586686E+04 0.  0.
        5    1    3    3  502    0  0.42047892660E+03 -0.12594357104E+04  0.24623642331E+03  0.13504204170E+04  0.46999998093E+01 0. -1.
       -5    1    3    3    0  502 -0.42047892660E+03  0.12594357104E+04  0.74271450390E+03  0.15213900751E+04  0.46999998093E+01 0.  1.
</event>
<event>
 5   0  0.7335091E-07  0.2697531E+04  0.7818609E-02  0.8335806E-01
       -1   -1    0    0    0  501  0.00000000000E+00  0.00000000000E+00  0.10682011581E+04  0.10682011581E+04  0.50400001928E-02 0. -1.
        1   -1    0    0  501    0  0.00000000000E+00  0.00000000000E+00 -0.17030205077E+04  0.17030205077E+04  0.50400001928E-02 0.  1.
    10030    2    1    2    0    0  0.00000000000E+00  0.00000000000E+00 -0.63481934958E+03  0.27712216659E+04  0.26975310776E+04 0.  0.
        3    1    3    3  502    0  0.84433622700E+03  0.47423870045E+03 -0.12818649282E+04  0.16065440279E+04  0.10100000352E+00 0.  1.
       -3    1    3    3    0  502 -0.84433622700E+03 -0.47423870045E+03  0.64704557867E+03  0.11646776379E+04  0.10100000352E+00 0. -1.
</event>
<event>
 5   0  0.7335091E-07  0.2694949E+04  0.7818609E-02  0.8336646E-01
        1   -1    0    0  501    0  0.00000000000E+00  0.00000000000E+00  0.14348403308E+04  0.14348403308E+04  0.50400001928E-02 0. -1.
       -1   -1    0    0    0  501  0.00000000000E+00  0.00000000000E+00 -0.12654283761E+04  0.12654283761E+04  0.50400001928E-02 0.  1.
    10030    2    1    2    0    0  0.00000000000E+00  0.00000000000E+00  0.16941195463E+03  0.27002687069E+04  0.26949491051E+04 0.  0.
        3    1    3    3  502    0  0.32016792315E+03 -0.82545871689E+03  0.11024856450E+04  0.14139887552E+04  0.10100000352E+00 0. -1.
       -3    1    3    3    0  502 -0.32016792315E+03  0.82545871689E+03 -0.93307369034E+03  0.12862799517E+04  0.10100000352E+00 0.  1.
</event>
<event>
 5   0  0.7768032E-07  0.2705251E+04  0.7818609E-02  0.8333303E-01
       -1   -1    0    0    0  501  0.00000000000E+00  0.00000000000E+00  0.17239637611E+04  0.17239637611E+04  0.50400001928E-02 0. -1.
        1   -1    0    0  501    0  0.00000000000E+00  0.00000000000E+00 -0.10612727712E+04  0.10612727712E+04  0.50400001928E-02 0.  1.
    10030    2    1    2    0    0  0.00000000000E+00  0.00000000000E+00  0.66269098992E+03  0.27852365323E+04  0.27052510406E+04 0.  0.
        4    1    3    3  502    0 -0.36655357399E+03  0.23378750461E+02  0.16716366248E+04  0.17115135719E+04  0.12699999809E+01 0. -1.
       -4    1    3    3    0  502  0.36655357399E+03 -0.23378750461E+02 -0.10089456349E+04  0.10737229604E+04  0.12699999809E+01 0.  1.
</event>
<event>
 5   0  0.7566905E-07  0.2698768E+04  0.7818609E-02  0.8335405E-01
       -1   -1    0    0    0  501  0.00000000000E+00  0.00000000000E+00  0.17591481250E+04  0.17591481250E+04  0.50400001928E-02 0.  1.
        1   -1    0    0  501    0  0.00000000000E+00  0.00000000000E+00 -0.10350675641E+04  0.10350675641E+04  0.50400001928E-02 0. -1.
    10030    2    1    2    0    0  0.00000000000E+00  0.00000000000E+00  0.72408056093E+03  0.27942156891E+04  0.26987679890E+04 0.  0.
        1    1    3    3  502    0  0.48548400148E+03  0.18981305069E+03 -0.92661272093E+03  0.10631720672E+04  0.50400001928E-02 0. -1.
       -1    1    3    3    0  502 -0.48548400148E+03 -0.18981305069E+03  0.16506932819E+04  0.17310436218E+04  0.50400001928E-02 0.  1.
</event>
<event>
 5   0  0.2030645E-06  0.2697088E+04  0.7818609E-02  0.8335950E-01
       -2   -1    0    0    0  501  0.00000000000E+00  0.00000000000E+00  0.28239808277E+04  0.28239808277E+04  0.25500000920E-02 0. -1.
        2   -1    0    0  501    0  0.00000000000E+00  0.00000000000E+00 -0.64397427705E+03  0.64397427706E+03  0.25500000920E-02 0.  1.
    10030    2    1    2    0    0  0.00000000000E+00  0.00000000000E+00  0.21800065506E+04  0.34679551048E+04  0.26970880682E+04 0.  0.
        1    1    3    3  502    0  0.79858969724E+03  0.66271137464E+03 -0.17320589995E+02  0.10378978146E+04  0.50400001928E-02 0.  1.
       -1    1    3    3    0  502 -0.79858969724E+03 -0.66271137464E+03  0.21973271406E+04  0.24300572902E+04  0.50400001928E-02 0. -1.
</event>
<event>
 5   0  0.1999104E-06  0.2700385E+04  0.7818609E-02  0.8334880E-01
        2   -1    0    0  501    0  0.00000000000E+00  0.00000000000E+00  0.12252051298E+04  0.12252051298E+04  0.25500000920E-02 0.  1.
       -2   -1    0    0    0  501  0.00000000000E+00  0.00000000000E+00 -0.14879300284E+04  0.14879300284E+04  0.25500000920E-02 0. -1.
    10030    2    1    2    0    0  0.00000000000E+00  0.00000000000E+00 -0.26272489857E+03  0.27131351582E+04  0.27003847900E+04 0.  0.
        4    1    3    3  502    0  0.24879499170E+03 -0.63333415408E+03  0.10403372399E+04  0.12431067067E+04  0.12699999809E+01 0.  1.
       -4    1    3    3    0  502 -0.24879499170E+03  0.63333415408E+03 -0.13030621385E+04  0.14700284515E+04  0.12699999809E+01 0. -1.
</event>
<event>
 5   0  0.1932012E-06  0.2704515E+04  0.7818609E-02  0.8333542E-01
       -2   -1    0    0    0  501  0.00000000000E+00  0.00000000000E+00  0.12443041621E+04  0.12443041621E+04  0.25500000920E-02 0.  1.
        2   -1    0    0  501    0  0.00000000000E+00  0.00000000000E+00 -0.14695766532E+04  0.14695766532E+04  0.25500000920E-02 0. -1.
    10030    2    1    2    0    0  0.00000000000E+00  0.00000000000E+00 -0.22527249115E+03  0.27138808153E+04  0.27045149998E+04 0.  0.
        2    1    3    3  502    0 -0.13030841447E+04  0.13774683729E+03 -0.44785578327E+03  0.13847661470E+04  0.25500000920E-02 0. -1.
       -2    1    3    3    0  502  0.13030841447E+04 -0.13774683729E+03  0.22258329212E+03  0.13291146682E+04  0.25500000920E-02 0.  1.
</event>
<event>
 5   0  0.7806808E-07  0.2690410E+04  0.7818609E-02  0.8338123E-01
       -1   -1    0    0    0  501  0.00000000000E+00  0.00000000000E+00  0.70921831541E+03  0.70921831543E+03  0.50400001928E-02 0.  1.
        1   -1    0    0  501    0  0.00000000000E+00  0.00000000000E+00 -0.25515083779E+04  0.25515083779E+04  0.50400001928E-02 0. -1.
    10030    2    1    2    0    0  0.00000000000E+00  0.00000000000E+00 -0.18422900625E+04  0.32607266934E+04  0.26904099863E+04 0.  0.
        5    1    3    3  502    0  0.18711106182E+03  0.70482034143E+03  0.44886149650E+03  0.85631827973E+03  0.46999998093E+01 0.  1.
       -5    1    3    3    0  502 -0.18711106182E+03 -0.70482034143E+03 -0.22911515590E+04  0.24044084136E+04  0.46999998093E+01 0. -1.
</event>
<event>
 5   0  0.7335091E-07  0.2694235E+04  0.7818609E-02  0.8336878E-01
        1   -1    0    0  501    0  0.00000000000E+00  0.00000000000E+00  0.11934587066E+04  0.11934587066E+04  0.50400001928E-02 0.  1.
       -1   -1    0    0    0  501  0.00000000000E+00  0.00000000000E+00 -0.15205596861E+04  0.15205596861E+04  0.50400001928E-02 0. -1.
    10030    2    1    2    0    0  0.00000000000E+00  0.00000000000E+00 -0.32710097947E+03  0.27140183927E+04  0.26942347309E+04 0.  0.
        3    1    3    3  502    0  0.12934245119E+03  0.36567732654E+03 -0.14630915517E+04  0.15136334681E+04  0.10100000352E+00 0. -1.
       -3    1    3    3    0  502 -0.12934245119E+03 -0.36567732654E+03  0.11359905722E+04  0.12003849246E+04  0.10100000352E+00 0.  1.
</event>
<event>
 5   0  0.2030645E-06  0.2688189E+04  0.7818609E-02  0.8338847E-01
       -2   -1    0    0    0  501  0.00000000000E+00  0.00000000000E+00  0.12812797505E+04  0.12812797505E+04  0.25500000920E-02 0. -1.
        2   -1    0    0  501    0  0.00000000000E+00  0.00000000000E+00 -0.14099891848E+04  0.14099891849E+04  0.25500000920E-02 0.  1.
    10030    2    1    2    0    0  0.00000000000E+00  0.00000000000E+00 -0.12870943439E+03  0.26912689353E+04  0.26881894211E+04 0.  0.
        1    1    3    3  502    0 -0.95878818250E+03 -0.17772359628E+02  0.87853094060E+03  0.13005411371E+04  0.50400001928E-02 0. -1.
       -1    1    3    3    0  502  0.95878818250E+03  0.17772359628E+02 -0.10072403750E+04  0.13907277982E+04  0.50400001928E-02 0.  1.
</event>
<event>
 5   0  0.7768032E-07  0.2709426E+04  0.7818609E-02  0.8331953E-01
        1   -1    0    0  501    0  0.00000000000E+00  0.00000000000E+00  0.12730740976E+04  0.12730740976E+04  0.50400001928E-02 0.  1.
       -1   -1    0    0    0  501  0.00000000000E+00  0.00000000000E+00 -0.14415875444E+04  0.14415875444E+04  0.50400001928E-02 0. -1.
    10030    2    1    2    0    0  0.00000000000E+00  0.00000000000E+00 -0.16851344679E+03  0.27146616421E+04  0.27094263321E+04 0.  0.
        4    1    3    3  502    0  0.10016948827E+04 -0.38883037294E+03  0.74236134564E+03  0.13060182531E+04  0.12699999809E+01 0.  1.
       -4    1    3    3    0  502 -0.10016948827E+04  0.38883037294E+03 -0.91087479243E+03  0.14086433890E+04  0.12699999809E+01 0. -1.
</event>
<event>
 5   0  0.7335091E-07  0.2701804E+04  0.7818609E-02  0.8334420E-01
       -1   -1    0    0    0  501  0.00000000000E+00  0.00000000000E+00  0.14347367105E+04  0.14347367105E+04  0.50400001928E-02 0.  1.
        1   -1    0    0  501    0  0.00000000000E+00  0.00000000000E+00 -0.12719663697E+04  0.12719663697E+04  0.50400001928E-02 0. -1.
    10030    2    1    2    0    0  0.00000000000E+00  0.00000000000E+00  0.16277034075E+03  0.27067030802E+04  0.27018044675E+04 0.  0.
        3    1    3    3  502    0  0.17339536101E+03  0.50521252697E+03 -0.11616833012E+04  0.12785983541E+04  0.10100000352E+00 0. -1.
       -3    1    3    3    0  502 -0.17339536101E+03 -0.50521252697E+03  0.13244536420E+04  0.14281047260E+04  0.10100000352E+00 0.  1.
</event>
<event>
 5   0  0.7566905E-07  0.2697893E+04  0.7818609E-02  0.8335689E-01
       -1   -1    0    0    0  501  0.00000000000E+00  0.00000000000E+00  0.12068745686E+04  0.12068745686E+04  0.50400001928E-02 0. -1.
        1   -1    0    0  501    0  0.00000000000E+00  0.00000000000E+00 -0.15077426754E+04  0.15077426754E+04  0.50400001928E-02 0.  1.
    10030    2    1    2    0    0  0.00000000000E+00  0.00000000000E+00 -0.30086810674E+03  0.27146172440E+04  0.26978927265E+04 0.  0.
        1    1    3    3  502    0  0.52749738211E+03 -0.11847912701E+03 -0.13939616121E+04  0.14951320235E+04  0.50400001928E-02 0.  1.
       -1    1    3    3    0  502 -0.52749738211E+03  0.11847912701E+03  0.10930935053E+04  0.12194852205E+04  0.50400001928E-02 0. -1.
</event>
<event>
 5   0  0.7806808E-07  0.2699690E+04  0.7818609E-02  0.8335106E-01
       -1   -1    0    0    0  501  0.00000000000E+00  0.00000000000E+00  0.11867727018E+04  0.11867727018E+04  0.50400001928E-02 0. -1.
        1   -1    0    0  501    0  0.00000000000E+00  0.00000000000E+00 -0.15353248389E+04  0.15353248389E+04  0.50400001928E-02 0.  1.
    10030    2    1    2    0    0  0.00000000000E+00  0.00000000000E+00 -0.34855213711E+03  0.27220975407E+04  0.26996900616E+04 0.  0.
        5    1    3    3  502    0 -0.22026097008E+02  0.62279546170E+03  0.10330343418E+04  0.12064581955E+04  0.46999998093E+01 0. -1.
       -5    1    3    3    0  502  0.22026097008E+02 -0.62279546170E+03 -0.13815864789E+04  0.15156393452E+04  0.46999998093E+01 0.  1.
</event>
<event>
 5   0  0.7335091E-07  0.2696526E+04  0.7818609E-02  0.8336133E-01
       -1   -1    0    0    0  501  0.00000000000E+00  0.00000000000E+00  0.14697280042E+04  0.14697280042E+04  0.50400001928E-02 0.  1.
        1   -1    0    0  501    0  0.00000000000E+00  0.00000000000E+00 -0.12368361303E+04  0.12368361303E+04  0.50400001928E-02 0. -1.
    10030    2    1    2    0    0  0.00000000000E+00  0.00000000000E+00  0.23289187386E+03  0.27065641345E+04  0.26965256886E+04 0.  0.
        3    1    3    3  502    0 -0.19411059837E+03 -0.13118981054E+04 -0.12747546483E+03  0.13322933489E+04  0.10100000352E+00 0. -1.
       -3    1    3    3    0  502  0.19411059837E+03  0.13118981054E+04  0.36036733869E+03  0.13742707856E+04  0.10100000352E+00 0.  1.
</event>
<event>
 5   0  0.1999104E-06  0.2703213E+04  0.7818609E-02  0.8333963E-01
       -2   -1    0    0    0  501  0.00000000000E+00  0.00000000000E+00  0.73556696293E+03  0.73556696293E+03  0.25500000920E-02 0.  1.
        2   -1    0    0  501    0  0.00000000000E+00  0.00000000000E+00 -0.24835819124E+04  0.24835819124E+04  0.25500000920E-02 0. -1.
    10030    2    1    2    0    0  0.00000000000E+00  0.00000000000E+00 -0.17480149495E+04  0.32191488754E+04  0.27032134984E+04 0.  0.
        4    1    3    3  502    0  0.75478200846E+03 -0.94562709334E+03 -0.15658699299E+03  0.12200113029E+04  0.12699999809E+01 0.  1.
       -4    1    3    3    0  502 -0.75478200846E+03  0.94562709334E+03 -0.15914279565E+04  0.19991375725E+04  0.12699999809E+01 0. -1.
</event>
<event>
 5   0  0.2030645E-06  0.2703041E+04  0.7818609E-02  0.8334019E-01
        2   -1    0    0  501    0  0.00000000000E+00  0.00000000000E+00  0.14959849251E+04  0.14959849251E+04  0.25500000920E-02 0. -1.
       -2   -1    0    0    0  501  0.00000000000E+00  0.00000000000E+00 -0.12210071305E+04  0.12210071305E+04  0.25500000920E-02 0.  1.
    10030    2    1    2    0    0  0.00000000000E+00  0.00000000000E+00  0.27497779456E+03  0.27169920556E+04  0.27030414430E+04 0.  0.
        1    1    3    3  502    0  0.22732248685E+03 -0.75267195574E+02  0.14744920337E+04  0.14938097005E+04  0.50400001928E-02 0. -1.
       -1    1    3    3    0  502 -0.22732248685E+03  0.75267195574E+02 -0.11995142392E+04  0.12231823551E+04  0.50400001928E-02 0.  1.
</event>
<event>
 5   0  0.7768032E-07  0.2764662E+04  0.7818609E-02  0.8314324E-01
        1   -1    0    0  501    0  0.00000000000E+00  0.00000000000E+00  0.13450155879E+04  0.13450155880E+04  0.50400001928E-02 0. -1.
       -1   -1    0    0    0  501  0.00000000000E+00  0.00000000000E+00 -0.14206819071E+04  0.14206819071E+04  0.50400001928E-02 0.  1.
    10030    2    1    2    0    0  0.00000000000E+00  0.00000000000E+00 -0.75666319185E+02  0.27656974951E+04  0.27646622294E+04 0.  0.
        4    1    3    3  502    0 -0.12686919519E+04  0.16112512863E+03  0.48705095904E+03  0.13684885186E+04  0.12699999809E+01 0.  1.
       -4    1    3    3    0  502  0.12686919519E+04 -0.16112512863E+03 -0.56271727823E+03  0.13972089765E+04  0.12699999809E+01 0. -1.
</event>
<event>
 5   0  0.1991277E-06  0.2702622E+04  0.7818609E-02  0.8334155E-01
       -2   -1    0    0    0  501  0.00000000000E+00  0.00000000000E+00  0.88762854767E+03  0.88762854767E+03  0.25500000920E-02 0. -1.
        2   -1    0    0  501    0  0.00000000000E+00  0.00000000000E+00 -0.20572131287E+04  0.20572131287E+04  0.25500000920E-02 0.  1.
    10030    2    1    2    0    0  0.00000000000E+00  0.00000000000E+00 -0.11695845810E+04  0.29448416764E+04  0.27026217654E+04 0.  0.
        5    1    3    3  502    0  0.13780847313E+03 -0.10983456349E+04  0.25969425888E+03  0.11370213310E+04  0.46999998093E+01 0. -1.
       -5    1    3    3    0  502 -0.13780847313E+03  0.10983456349E+04 -0.14292788399E+04  0.18078203454E+04  0.46999998093E+01 0.  1.
</event>
<event>
 5   0  0.7768032E-07  0.2701263E+04  0.7818609E-02  0.8334595E-01
        1   -1    0    0  501    0  0.00000000000E+00  0.00000000000E+00  0.10633614003E+04  0.10633614003E+04  0.50400001928E-02 0. -1.
       -1   -1    0    0    0  501  0.00000000000E+00  0.00000000000E+00 -0.17155084449E+04  0.17155084449E+04  0.50400001928E-02 0.  1.
    10030    2    1    2    0    0  0.00000000000E+00  0.00000000000E+00 -0.65214704459E+03  0.27788698453E+04  0.27012630100E+04 0.  0.
        4    1    3    3  502    0  0.36453544481E+03 -0.12027988443E+04 -0.83484537822E+03  0.15088338440E+04  0.12699999809E+01 0. -1.
       -4    1    3    3    0  502 -0.36453544481E+03  0.12027988443E+04  0.18269833363E+03  0.12700360012E+04  0.12699999809E+01 0.  1.
</event>
<event>
 5   0  0.7566905E-07  0.2699638E+04  0.7818609E-02  0.8335122E-01
       -1   -1    0    0    0  501  0.00000000000E+00  0.00000000000E+00  0.10055423835E+04  0.10055423835E+04  0.50400001928E-02 0.  1.
        1   -1    0    0  501    0  0.00000000000E+00  0.00000000000E+00 -0.18119693758E+04  0.18119693758E+04  0.50400001928E-02 0. -1.
    10030    2    1    2    0    0  0.00000000000E+00  0.00000000000E+00 -0.80642699230E+03  0.28175117593E+04  0.26996384980E+04 0.  0.
        1    1    3    3  502    0 -0.10983223017E+03 -0.88002668952E+03 -0.14652405429E+04  0.17127287998E+04  0.50400001928E-02 0.  1.
       -1    1    3    3    0  502  0.10983223017E+03  0.88002668952E+03  0.65881355060E+03  0.11047829595E+04  0.50400001928E-02 0. -1.
</event>
<event>
 5   0  0.7335091E-07  0.2637615E+04  0.7818609E-02  0.8355535E-01
       -1   -1    0    0    0  501  0.00000000000E+00  0.00000000000E+00  0.97373975076E+03  0.97373975078E+03  0.50400001928E-02 0. -1.
        1   -1    0    0  501    0  0.00000000000E+00  0.00000000000E+00 -0.17861585925E+04  0.17861585926E+04  0.50400001928E-02 0.  1.
    10030    2    1    2    0    0  0.00000000000E+00  0.00000000000E+00 -0.81241884178E+03  0.27598983433E+04  0.26376153038E+04 0.  0.
        3    1    3    3  502    0  0.10949697273E+04 -0.56920100461E+03  0.80438684363E+02  0.12366967613E+04  0.10100000352E+00 0.  1.
       -3    1    3    3    0  502 -0.10949697273E+04  0.56920100461E+03 -0.89285752615E+03  0.15232015820E+04  0.10100000352E+00 0. -1.
</event>
<event>
 5   0  0.7335091E-07  0.2700740E+04  0.7818609E-02  0.8334765E-01
        1   -1    0    0  501    0  0.00000000000E+00  0.00000000000E+00  0.98186308517E+03  0.98186308518E+03  0.50400001928E-02 0.  1.
       -1   -1    0    0    0  501  0.00000000000E+00  0.00000000000E+00 -0.18571833459E+04  0.18571833459E+04  0.50400001928E-02 0. -1.
    10030    2    1    2    0    0  0.00000000000E+00  0.00000000000E+00 -0.87532026070E+03  0.28390464311E+04  0.27007404686E+04 0.  0.
        3    1    3    3  502    0  0.89914023805E+03  0.60903377789E+03 -0.12813338775E+04  0.16796403859E+04  0.10100000352E+00 0. -1.
       -3    1    3    3    0  502 -0.89914023805E+03 -0.60903377789E+03  0.40601361676E+03  0.11594060451E+04  0.10100000352E+00 0.  1.
</event>
<event>
 5   0  0.1991277E-06  0.2698471E+04  0.7818609E-02  0.8335501E-01
       -2   -1    0    0    0  501  0.00000000000E+00  0.00000000000E+00  0.11411952856E+04  0.11411952856E+04  0.25500000920E-02 0.  1.
        2   -1    0    0  501    0  0.00000000000E+00  0.00000000000E+00 -0.15952009525E+04  0.15952009525E+04  0.25500000920E-02 0. -1.
    10030    2    1    2    0    0  0.00000000000E+00  0.00000000000E+00 -0.45400566682E+03  0.27363962381E+04  0.26984705347E+04 0.  0.
        5    1    3    3  502    0  0.69494007064E+03  0.97783027063E+03 -0.85319276926E+03  0.14720916179E+04  0.46999998093E+01 0. -1.
       -5    1    3    3    0  502 -0.69494007064E+03 -0.97783027063E+03  0.39918710244E+03  0.12643046202E+04  0.46999998093E+01 0.  1.
</event>
<event>
 5   0  0.2030645E-06  0.2700054E+04  0.7818609E-02  0.8334987E-01
        2   -1    0    0  501    0  0.00000000000E+00  0.00000000000E+00  0.23728362929E+04  0.23728362929E+04  0.25500000920E-02 0. -1.
       -2   -1    0    0    0  501  0.00000000000E+00  0.00000000000E+00 -0.76809896418E+03  0.76809896419E+03  0.25500000920E-02 0.  1.
    10030    2    1    2    0    0  0.00000000000E+00  0.00000000000E+00  0.16047373287E+04  0.31409352571E+04  0.27000541467E+04 0.  0.
        1    1    3    3  502    0 -0.88592311754E+03 -0.99546783486E+03  0.10539105890E+04  0.16989830812E+04  0.50400001928E-02 0. -1.
       -1    1    3    3    0  502  0.88592311754E+03  0.99546783486E+03  0.55082673972E+03  0.14419521759E+04  0.50400001928E-02 0.  1.
</event>
<event>
 5   0  0.7768032E-07  0.2715038E+04  0.7818609E-02  0.8330142E-01
        1   -1    0    0  501    0  0.00000000000E+00  0.00000000000E+00  0.13472639347E+04  0.13472639347E+04  0.50400001928E-02 0.  1.
       -1   -1    0    0    0  501  0.00000000000E+00  0.00000000000E+00 -0.13678518867E+04  0.13678518867E+04  0.50400001928E-02 0. -1.
    10030    2    1    2    0    0  0.00000000000E+00  0.00000000000E+00 -0.20587951944E+02  0.27151158214E+04  0.27150377640E+04 0.  0.
        4    1    3    3  502    0  0.20472038724E+03  0.10806042656E+04  0.78549261478E+03  0.13515236871E+04  0.12699999809E+01 0.  1.
       -4    1    3    3    0  502 -0.20472038724E+03 -0.10806042656E+04 -0.80608056673E+03  0.13635921343E+04  0.12699999809E+01 0. -1.
</event>
<event>
 5   0  0.7335091E-07  0.2724986E+04  0.7818609E-02  0.8326943E-01
        1   -1    0    0  501    0  0.00000000000E+00  0.00000000000E+00  0.14470921508E+04  0.14470921508E+04  0.50400001928E-02 0.  1.
       -1   -1    0    0    0  501  0.00000000000E+00  0.00000000000E+00 -0.12828397213E+04  0.12828397213E+04  0.50400001928E-02 0. -1.
    10030    2    1    2    0    0  0.00000000000E+00  0.00000000000E+00  0.16425242956E+03  0.27299318721E+04  0.27249860854E+04 0.  0.
        3    1    3    3  502    0  0.78200045910E+03  0.33803978885E+02  0.11993722023E+04  0.14321875286E+04  0.10100000352E+00 0.  1.
       -3    1    3    3    0  502 -0.78200045910E+03 -0.33803978885E+02 -0.10351197728E+04  0.12977443435E+04  0.10100000352E+00 0. -1.
</event>
<event>
 5   0  0.1991277E-06  0.2701944E+04  0.7818609E-02  0.8334374E-01
       -2   -1    0    0    0  501  0.00000000000E+00  0.00000000000E+00  0.13730690335E+04  0.13730690335E+04  0.25500000920E-02 0.  1.
        2   -1    0    0  501    0  0.00000000000E+00  0.00000000000E+00 -0.13292307979E+04  0.13292307979E+04  0.25500000920E-02 0. -1.
    10030    2    1    2    0    0  0.00000000000E+00  0.00000000000E+00  0.43838235644E+02  0.27022998314E+04  0.27019442236E+04 0.  0.
        5    1    3    3  502    0 -0.58148605318E+03 -0.91617812040E+03 -0.78291978041E+03  0.13380933640E+04  0.46999998093E+01 0. -1.
       -5    1    3    3    0  502  0.58148605318E+03  0.91617812040E+03  0.82675801605E+03  0.13642064673E+04  0.46999998093E+01 0.  1.
</event>
<event>
 5   0  0.7335091E-07  0.2698967E+04  0.7818609E-02  0.8335340E-01
       -1   -1    0    0    0  501  0.00000000000E+00  0.00000000000E+00  0.11423770694E+04  0.11423770694E+04  0.50400001928E-02 0.  1.
        1   -1    0    0  501    0  0.00000000000E+00  0.00000000000E+00 -0.15941374651E+04  0.15941374652E+04  0.50400001928E-02 0. -1.
    10030    2    1    2    0    0  0.00000000000E+00  0.00000000000E+00 -0.45176039573E+03  0.27365145346E+04  0.26989672734E+04 0.  0.
        3    1    3    3  502    0  0.93858909380E+03 -0.26624222523E+03 -0.11711981439E+04  0.15243160801E+04  0.10100000352E+00 0. -1.
       -3    1    3    3    0  502 -0.93858909380E+03  0.26624222523E+03  0.71943774815E+03  0.12121984545E+04  0.10100000352E+00 0.  1.
</event>
<event>
 5   0  0.7335091E-07  0.2701469E+04  0.7818609E-02  0.8334528E-01
        1   -1    0    0  501    0  0.00000000000E+00  0.00000000000E+00  0.19946180625E+04  0.19946180625E+04  0.50400001928E-02 0. -1.
       -1   -1    0    0    0  501  0.00000000000E+00  0.00000000000E+00 -0.91470361966E+03  0.91470361968E+03  0.50400001928E-02 0.  1.
    10030    2    1    2    0    0  0.00000000000E+00  0.00000000000E+00  0.10799144428E+04  0.29093216822E+04  0.27014694976E+04 0.  0.
        3    1    3    3  502    0 -0.20595171834E+03 -0.12864360181E+04  0.15593982088E+03  0.13121169830E+04  0.10100000352E+00 0.  1.
       -3    1    3    3    0  502  0.20595171834E+03  0.12864360181E+04  0.92397462193E+03  0.15972046992E+04  0.10100000352E+00 0. -1.
</event>
<event>
 5   0  0.1999104E-06  0.2699243E+04  0.7818609E-02  0.8335251E-01
        2   -1    0    0  501    0  0.00000000000E+00  0.00000000000E+00  0.13572739303E+04  0.13572739303E+04  0.25500000920E-02 0.  1.
       -2   -1    0    0    0  501  0.00000000000E+00  0.00000000000E+00 -0.13420122935E+04  0.13420122935E+04  0.25500000920E-02 0. -1.
    10030    2    1    2    0    0  0.00000000000E+00  0.00000000000E+00  0.15261636779E+02  0.26992862238E+04  0.26992430792E+04 0.  0.
        4    1    3    3  502    0 -0.11910766461E+04  0.61818002504E+03 -0.13613019042E+03  0.13488302940E+04  0.12699999809E+01 0.  1.
       -4    1    3    3    0  502  0.11910766461E+04 -0.61818002504E+03  0.15139182720E+03  0.13504559299E+04  0.12699999809E+01 0. -1.
</event>
<event>
 5   0  0.1932012E-06  0.2705162E+04  0.7818609E-02  0.8333332E-01
       -2   -1    0    0    0  501  0.00000000000E+00  0.00000000000E+00  0.11732742890E+04  0.11732742890E+04  0.25500000920E-02 0.  1.
        2   -1    0    0  501    0  0.00000000000E+00  0.00000000000E+00 -0.15592904740E+04  0.15592904740E+04  0.25500000920E-02 0. -1.
    10030    2    1    2    0    0  0.00000000000E+00  0.00000000000E+00 -0.38601618504E+03  0.27325647630E+04  0.27051620449E+04 0.  0.
        2    1    3    3  502    0  0.10124408885E+04  0.23698300655E+03  0.68078507546E+03  0.12428458541E+04  0.25500000920E-02 0.  1.
       -2    1    3    3    0  502 -0.10124408885E+04 -0.23698300655E+03 -0.10668012605E+04  0.14897189089E+04  0.25500000920E-02 0. -1.
</event>
<event>
 5   0  0.7436613E-07  0.2699231E+04  0.7818609E-02  0.8335255E-01
       -1   -1    0    0    0  501  0.00000000000E+00  0.00000000000E+00  0.74743741921E+03  0.74743741923E+03  0.50400001928E-02 0.  1.
        1   -1    0    0  501    0  0.00000000000E+00  0.00000000000E+00 -0.24369421004E+04  0.24369421004E+04  0.50400001928E-02 0. -1.
    10030    2    1    2    0    0  0.00000000000E+00  0.00000000000E+00 -0.16895046812E+04  0.31843795196E+04  0.26992307899E+04 0.  0.
        2    1    3    3  502    0  0.12223219478E+04  0.77151447005E+02 -0.17589469119E+03  0.12373205859E+04  0.25500000920E-02 0. -1.
       -2    1    3    3    0  502 -0.12223219478E+04 -0.77151447005E+02 -0.15136099900E+04  0.19470589338E+04  0.25500000920E-02 0.  1.
</event>
<event>
 5   0  0.1932012E-06  0.2699122E+04  0.7818609E-02  0.8335290E-01
       -2   -1    0    0    0  501  0.00000000000E+00  0.00000000000E+00  0.11227680115E+04  0.11227680115E+04  0.25500000920E-02 0. -1.
        2   -1    0    0  501    0  0.00000000000E+00  0.00000000000E+00 -0.16221654481E+04  0.16221654481E+04  0.25500000920E-02 0.  1.
    10030    2    1    2    0    0  0.00000000000E+00  0.00000000000E+00 -0.49939743661E+03  0.27449334597E+04  0.26991224311E+04 0.  0.
        2    1    3    3  502    0 -0.11329804794E+04 -0.73274268137E+03 -0.27771388015E+03  0.13775636476E+04  0.25500000920E-02 0.  1.
       -2    1    3    3    0  502  0.11329804794E+04  0.73274268137E+03 -0.22168355646E+03  0.13673698121E+04  0.25500000920E-02 0. -1.
</event>
<event>
 5   0  0.7436613E-07  0.2697550E+04  0.7818609E-02  0.8335800E-01
        1   -1    0    0  501    0  0.00000000000E+00  0.00000000000E+00  0.18525178601E+04  0.18525178601E+04  0.50400001928E-02 0. -1.
       -1   -1    0    0    0  501  0.00000000000E+00  0.00000000000E+00 -0.98201176000E+03  0.98201176002E+03  0.50400001928E-02 0.  1.
    10030    2    1    2    0    0  0.00000000000E+00  0.00000000000E+00  0.87050610007E+03  0.28345296201E+04  0.26975502399E+04 0.  0.
        2    1    3    3  502    0  0.12818380962E+04  0.32509250301E+03  0.15644926677E+03  0.13316419990E+04  0.25500000920E-02 0. -1.
       -2    1    3    3    0  502 -0.12818380962E+04 -0.32509250301E+03  0.71405683329E+03  0.15028876211E+04  0.25500000920E-02 0.  1.
</event>
<event>
 5   0  0.7566905E-07  0.2703077E+04  0.7818609E-02  0.8334007E-01
        1   -1    0    0  501    0  0.00000000000E+00  0.00000000000E+00  0.12658154253E+04  0.12658154253E+04  0.50400001928E-02 0.  1.
       -1   -1    0    0    0  501  0.00000000000E+00  0.00000000000E+00 -0.14430670017E+04  0.14430670017E+04  0.50400001928E-02 0. -1.
    10030    2    1    2    0    0  0.00000000000E+00  0.00000000000E+00 -0.17725157642E+03  0.27088824270E+04  0.27030771136E+04 0.  0.
        1    1    3    3  502    0 -0.95693927926E+03  0.69929261388E+03  0.56231793693E+03  0.13118477069E+04  0.50400001928E-02 0. -1.
       -1    1    3    3    0  502  0.95693927926E+03 -0.69929261388E+03 -0.73956951334E+03  0.13970347201E+04  0.50400001928E-02 0.  1.
</event>
<event>
 5   0  0.1932012E-06  0.2699659E+04  0.7818609E-02  0.8335116E-01
       -2   -1    0    0    0  501  0.00000000000E+00  0.00000000000E+00  0.24913793996E+04  0.24913793996E+04  0.25500000920E-02 0. -1.
        2   -1    0    0  501    0  0.00000000000E+00  0.00000000000E+00 -0.73133781157E+03  0.73133781158E+03  0.25500000920E-02 0.  1.
    10030    2    1    2    0    0  0.00000000000E+00  0.00000000000E+00  0.17600415880E+04  0.32227172111E+04  0.26996592066E+04 0.  0.
        2    1    3    3  502    0 -0.49166993264E+03  0.79399384562E+03  0.20434671074E+04  0.22467584135E+04  0.25500000920E-02 0. -1.
       -2    1    3    3    0  502  0.49166993264E+03 -0.79399384562E+03 -0.28342551945E+03  0.97595879761E+03  0.25500000920E-02 0.  1.
</event>
<event>
 5   0  0.1999104E-06  0.2700590E+04  0.7818609E-02  0.8334813E-01
       -2   -1    0    0    0  501  0.00000000000E+00  0.00000000000E+00  0.14716362132E+04  0.14716362132E+04  0.25500000920E-02 0. -1.
        2   -1    0    0  501    0  0.00000000000E+00  0.00000000000E+00 -0.12389592243E+04  0.12389592243E+04  0.25500000920E-02 0.  1.
    10030    2    1    2    0    0  0.00000000000E+00  0.00000000000E+00  0.23267698884E+03  0.27105954375E+04  0.27005904992E+04 0.  0.
        4    1    3    3  502    0 -0.21607460780E+03  0.14408464055E+03 -0.12136543549E+04  0.12411313894E+04  0.12699999809E+01 0.  1.
       -4    1    3    3    0  502  0.21607460780E+03 -0.14408464055E+03  0.14463313437E+04  0.14694640481E+04  0.12699999809E+01 0. -1.
</event>
<event>
 5   0  0.2030645E-06  0.2695508E+04  0.7818609E-02  0.8336464E-01
       -2   -1    0    0    0  501  0.00000000000E+00  0.00000000000E+00  0.63396169156E+03  0.63396169156E+03  0.25500000920E-02 0.  1.
        2   -1    0    0  501    0  0.00000000000E+00  0.00000000000E+00 -0.28652212847E+04  0.28652212847E+04  0.25500000920E-02 0. -1.
    10030    2    1    2    0    0  0.00000000000E+00  0.00000000000E+00 -0.22312595932E+04  0.34991829763E+04  0.26955077684E+04 0.  0.
        1    1    3    3  502    0  0.21222137439E+03  0.11808398690E+04 -0.19127212607E+04  0.22578581287E+04  0.50400001928E-02 0. -1.
       -1    1    3    3    0  502 -0.21222137439E+03 -0.11808398690E+04 -0.31853833245E+03  0.12413248476E+04  0.50400001928E-02 0.  1.
</event>
<event>
 5   0  0.2030645E-06  0.2696664E+04  0.7818609E-02  0.8336088E-01
        2   -1    0    0  501    0  0.00000000000E+00  0.00000000000E+00  0.15249408791E+04  0.15249408791E+04  0.25500000920E-02 0.  1.
       -2   -1    0    0    0  501  0.00000000000E+00  0.00000000000E+00 -0.11921765536E+04  0.11921765536E+04  0.25500000920E-02 0. -1.
    10030    2    1    2    0    0  0.00000000000E+00  0.00000000000E+00  0.33276432551E+03  0.27171174327E+04  0.26966636881E+04 0.  0.
        1    1    3    3  502    0 -0.41650342876E+03  0.98487491212E+03 -0.66115423707E+03  0.12572106522E+04  0.50400001928E-02 0. -1.
       -1    1    3    3    0  502  0.41650342876E+03 -0.98487491212E+03  0.99391856259E+03  0.14599067805E+04  0.50400001928E-02 0.  1.
</event>
<event>
 5   0  0.7436613E-07  0.2710720E+04  0.7818609E-02  0.8331535E-01
        1   -1    0    0  501    0  0.00000000000E+00  0.00000000000E+00  0.15231755559E+04  0.15231755559E+04  0.50400001928E-02 0. -1.
       -1   -1    0    0    0  501  0.00000000000E+00  0.00000000000E+00 -0.12060334105E+04  0.12060334105E+04  0.50400001928E-02 0.  1.
    10030    2    1    2    0    0  0.00000000000E+00  0.00000000000E+00  0.31714214533E+03  0.27292089664E+04  0.27107199121E+04 0.  0.
        2    1    3    3  502    0  0.44047632139E+03 -0.12294398391E+04 -0.20647454982E+03  0.13221851033E+04  0.25500000920E-02 0. -1.
       -2    1    3    3    0  502 -0.44047632139E+03  0.12294398391E+04  0.52361669516E+03  0.14070238631E+04  0.25500000920E-02 0.  1.
</event>
<event>
 5   0  0.7436613E-07  0.2692799E+04  0.7818609E-02  0.8337345E-01
        1   -1    0    0  501    0  0.00000000000E+00  0.00000000000E+00  0.96991978084E+03  0.96991978085E+03  0.50400001928E-02 0. -1.
       -1   -1    0    0    0  501  0.00000000000E+00  0.00000000000E+00 -0.18690113907E+04  0.18690113908E+04  0.50400001928E-02 0.  1.
    10030    2    1    2    0    0  0.00000000000E+00  0.00000000000E+00 -0.89909160991E+03  0.28389311716E+04  0.26927986323E+04 0.  0.
        2    1    3    3  502    0 -0.50643235939E+03 -0.11807324179E+03  0.85977517819E+03  0.10048026583E+04  0.25500000920E-02 0. -1.
       -2    1    3    3    0  502  0.50643235939E+03  0.11807324179E+03 -0.17588667881E+04  0.18341285133E+04  0.25500000920E-02 0.  1.
</event>
<event>
 5   0  0.2030645E-06  0.2700490E+04  0.7818609E-02  0.8334846E-01
        2   -1    0    0  501    0  0.00000000000E+00  0.00000000000E+00  0.35392887654E+04  0.35392887654E+04  0.25500000920E-02 0. -1.
       -2   -1    0    0    0  501  0.00000000000E+00  0.00000000000E+00 -0.51512080396E+03  0.51512080397E+03  0.25500000920E-02 0.  1.
    10030    2    1    2    0    0  0.00000000000E+00  0.00000000000E+00  0.30241679614E+04  0.40544095694E+04  0.27004897884E+04 0.  0.
        1    1    3    3  502    0  0.11270091550E+03  0.87586774114E+03  0.30456161970E+04  0.31710603614E+04  0.50400001928E-02 0. -1.
       -1    1    3    3    0  502 -0.11270091550E+03 -0.87586774114E+03 -0.21448235572E+02  0.88334920793E+03  0.50400001928E-02 0.  1.
</event>
<event>
 5   0  0.1991277E-06  0.2702464E+04  0.7818609E-02  0.8334206E-01
       -2   -1    0    0    0  501  0.00000000000E+00  0.00000000000E+00  0.14780429975E+04  0.14780429975E+04  0.25500000920E-02 0. -1.
        2   -1    0    0  501    0  0.00000000000E+00  0.00000000000E+00 -0.12353009665E+04  0.12353009665E+04  0.25500000920E-02 0.  1.
    10030    2    1    2    0    0  0.00000000000E+00  0.00000000000E+00  0.24274203098E+03  0.27133439639E+04  0.27024640188E+04 0.  0.
        5    1    3    3  502    0 -0.13315693914E+04 -0.21623885642E+03  0.43796992029E+02  0.13497320303E+04  0.46999998093E+01 0.  1.
       -5    1    3    3    0  502  0.13315693914E+04  0.21623885642E+03  0.19894503895E+03  0.13636119337E+04  0.46999998093E+01 0. -1.
</event>
<event>
 5   0  0.1999104E-06  0.2614363E+04  0.7818609E-02  0.8363339E-01
        2   -1    0    0  501    0  0.00000000000E+00  0.00000000000E+00  0.11154843554E+04  0.11154843554E+04  0.25500000920E-02 0. -1.
       -2   -1    0    0    0  501  0.00000000000E+00  0.00000000000E+00 -0.15318225342E+04  0.15318225342E+04  0.25500000920E-02 0.  1.
    10030    2    1    2    0    0  0.00000000000E+00  0.00000000000E+00 -0.41633817880E+03  0.26473068896E+04  0.26143634576E+04 0.  0.
        4    1    3    3  502    0  0.15110361508E+03  0.12809139787E+04 -0.42333079152E+03  0.13574916188E+04  0.12699999809E+01 0.  1.
       -4    1    3    3    0  502 -0.15110361508E+03 -0.12809139787E+04  0.69926127189E+01  0.12898152708E+04  0.12699999809E+01 0. -1.
</event>
<event>
 5   0  0.7566905E-07  0.2728388E+04  0.7818609E-02  0.8325852E-01
       -1   -1    0    0    0  501  0.00000000000E+00  0.00000000000E+00  0.86188691673E+03  0.86188691674E+03  0.50400001928E-02 0.  1.
        1   -1    0    0  501    0  0.00000000000E+00  0.00000000000E+00 -0.21592453951E+04  0.21592453951E+04  0.50400001928E-02 0. -1.
    10030    2    1    2    0    0  0.00000000000E+00  0.00000000000E+00 -0.12973584783E+04  0.30211323118E+04  0.27283880633E+04 0.  0.
        1    1    3    3  502    0 -0.88029689715E+03 -0.92820527716E+03 -0.12398266040E+03  0.12852468105E+04  0.50400001928E-02 0.  1.
       -1    1    3    3    0  502  0.88029689715E+03  0.92820527716E+03 -0.11733758179E+04  0.17358855014E+04  0.50400001928E-02 0. -1.
</event>
<event>
 5   0  0.2063087E-06  0.2695244E+04  0.7818609E-02  0.8336550E-01
       -2   -1    0    0    0  501  0.00000000000E+00  0.00000000000E+00  0.79794131999E+03  0.79794131999E+03  0.25500000920E-02 0. -1.
        2   -1    0    0  501    0  0.00000000000E+00  0.00000000000E+00 -0.22759632822E+04  0.22759632822E+04  0.25500000920E-02 0.  1.
    10030    2    1    2    0    0  0.00000000000E+00  0.00000000000E+00 -0.14780219622E+04  0.30739046022E+04  0.26952440673E+04 0.  0.
        3    1    3    3  502    0  0.44330553829E+03 -0.88146510552E+03  0.30787418420E+03  0.10335797289E+04  0.10100000352E+00 0. -1.
       -3    1    3    3    0  502 -0.44330553829E+03  0.88146510552E+03 -0.17858961464E+04  0.20403248733E+04  0.10100000352E+00 0.  1.
</event>
<event>
 5   0  0.2030645E-06  0.2701946E+04  0.7818609E-02  0.8334374E-01
        2   -1    0    0  501    0  0.00000000000E+00  0.00000000000E+00  0.26681187622E+04  0.26681187622E+04  0.25500000920E-02 0.  1.
       -2   -1    0    0    0  501  0.00000000000E+00  0.00000000000E+00 -0.68405076537E+03  0.68405076537E+03  0.25500000920E-02 0. -1.
    10030    2    1    2    0    0  0.00000000000E+00  0.00000000000E+00  0.19840679968E+04  0.33521695276E+04  0.27019464698E+04 0.  0.
        1    1    3    3  502    0  0.78182062398E+03  0.10916230945E+04  0.80699734977E+03  0.15665660507E+04  0.50400001928E-02 0. -1.
       -1    1    3    3    0  502 -0.78182062398E+03 -0.10916230945E+04  0.11770706470E+04  0.17856034769E+04  0.50400001928E-02 0.  1.
</event>
<event>
 5   0  0.7768032E-07  0.2702925E+04  0.7818609E-02  0.8334057E-01
       -1   -1    0    0    0  501  0.00000000000E+00  0.00000000000E+00  0.78711171314E+03  0.78711171315E+03  0.50400001928E-02 0. -1.
        1   -1    0    0  501    0  0.00000000000E+00  0.00000000000E+00 -0.23204466896E+04  0.23204466896E+04  0.50400001928E-02 0.  1.
    10030    2    1    2    0    0  0.00000000000E+00  0.00000000000E+00 -0.15333349764E+04  0.31075584027E+04  0.27029249114E+04 0.  0.
        4    1    3    3  502    0  0.64381753424E+03  0.77951974853E+03  0.26441537770E+03  0.10450211293E+04  0.12699999809E+01 0. -1.
       -4    1    3    3    0  502 -0.64381753424E+03 -0.77951974853E+03 -0.17977503541E+04  0.20625372735E+04  0.12699999809E+01 0.  1.
</event>
<event>
 5   0  0.2063087E-06  0.2676915E+04  0.7818609E-02  0.8342534E-01
        2   -1    0    0  501    0  0.00000000000E+00  0.00000000000E+00  0.18471368430E+04  0.18471368430E+04  0.25500000920E-02 0. -1.
       -2   -1    0    0    0  501  0.00000000000E+00  0.00000000000E+00 -0.96986239508E+03  0.96986239508E+03  0.25500000920E-02 0.  1.
    10030    2    1    2    0    0  0.00000000000E+00  0.00000000000E+00  0.87727444791E+03  0.28169992381E+04  0.26769150622E+04 0.  0.
        3    1    3    3  502    0 -0.10381749023E+04  0.22647673675E+03 -0.41781348049E+03  0.11417823588E+04  0.10100000352E+00 0.  1.
       -3    1    3    3    0  502  0.10381749023E+04 -0.22647673675E+03  0.12950879284E+04  0.16752168793E+04  0.10100000352E+00 0. -1.
</event>
<event>
 5   0  0.2030645E-06  0.2700154E+04  0.7818609E-02  0.8334955E-01
        2   -1    0    0  501    0  0.00000000000E+00  0.00000000000E+00  0.17539426703E+04  0.17539426703E+04  0.25500000920E-02 0. -1.
       -2   -1    0    0    0  501  0.00000000000E+00  0.00000000000E+00 -0.10392063170E+04  0.10392063170E+04  0.25500000920E-02 0.  1.
    10030    2    1    2    0    0  0.00000000000E+00  0.00000000000E+00  0.71473635333E+03  0.27931489873E+04  0.27001542938E+04 0.  0.
        1    1    3    3  502    0  0.98538440928E+03 -0.37024479267E+03 -0.51711326485E+03  0.11728042331E+04  0.50400001928E-02 0.  1.
       -1    1    3    3    0  502 -0.98538440928E+03  0.37024479267E+03  0.12318496182E+04  0.16203447542E+04  0.50400001928E-02 0. -1.
</event>
<event>
 5   0  0.7436613E-07  0.2695699E+04  0.7818609E-02  0.8336402E-01
        1   -1    0    0  501    0  0.00000000000E+00  0.00000000000E+00  0.13745614094E+04  0.13745614094E+04  0.50400001928E-02 0.  1.
       -1   -1    0    0    0  501  0.00000000000E+00  0.00000000000E+00 -0.13216570874E+04  0.13216570874E+04  0.50400001928E-02 0. -1.
    10030    2    1    2    0    0  0.00000000000E+00  0.00000000000E+00  0.52904322004E+02  0.26962184969E+04  0.26956994112E+04 0.  0.
        2    1    3    3  502    0 -0.84449442205E+03 -0.21352953394E+03  0.10552089884E+04  0.13682951801E+04  0.25500000920E-02 0.  1.
       -2    1    3    3    0  502  0.84449442205E+03  0.21352953394E+03 -0.10023046664E+04  0.13279233167E+04  0.25500000920E-02 0. -1.
</event>
<event>
 5   0  0.1991277E-06  0.2685964E+04  0.7818609E-02  0.8339574E-01
       -2   -1    0    0    0  501  0.00000000000E+00  0.00000000000E+00  0.17477263798E+04  0.17477263798E+04  0.25500000920E-02 0.  1.
        2   -1    0    0  501    0  0.00000000000E+00  0.00000000000E+00 -0.10319696798E+04  0.10319696798E+04  0.25500000920E-02 0. -1.
    10030    2    1    2    0    0  0.00000000000E+00  0.00000000000E+00  0.71575670000E+03  0.27796960596E+04  0.26859639852E+04 0.  0.
        5    1    3    3  502    0 -0.10995421552E+03  0.40396497208E+01 -0.10272887708E+04  0.10331749885E+04  0.46999998093E+01 0. -1.
       -5    1    3    3    0  502  0.10995421552E+03 -0.40396497208E+01  0.17430454708E+04  0.17465210711E+04  0.46999998093E+01 0.  1.
</event>
<event>
 5   0  0.7566905E-07  0.2712215E+04  0.7818609E-02  0.8331053E-01
       -1   -1    0    0    0  501  0.00000000000E+00  0.00000000000E+00  0.13021201198E+04  0.13021201198E+04  0.50400001928E-02 0. -1.
        1   -1    0    0  501    0  0.00000000000E+00  0.00000000000E+00 -0.14123330803E+04  0.14123330803E+04  0.50400001928E-02 0.  1.
    10030    2    1    2    0    0  0.00000000000E+00  0.00000000000E+00 -0.11021296054E+03  0.27144532001E+04  0.27122148291E+04 0.  0.
        1    1    3    3  502    0 -0.36378697345E+03 -0.10634703868E+04  0.70427995391E+03  0.13263937874E+04  0.50400001928E-02 0. -1.
       -1    1    3    3    0  502  0.36378697345E+03  0.10634703868E+04 -0.81449291445E+03  0.13880594128E+04  0.50400001928E-02 0.  1.
</event>
<event>
 5   0  0.2030645E-06  0.2703790E+04  0.7818609E-02  0.8333776E-01
        2   -1    0    0  501    0  0.00000000000E+00  0.00000000000E+00  0.69092421703E+03  0.69092421704E+03  0.25500000920E-02 0.  1.
       -2   -1    0    0    0  501  0.00000000000E+00  0.00000000000E+00 -0.26451820684E+04  0.26451820684E+04  0.25500000920E-02 0. -1.
    10030    2    1    2    0    0  0.00000000000E+00  0.00000000000E+00 -0.19542578514E+04  0.33361062854E+04  0.27037901912E+04 0.  0.
        1    1    3    3  502    0  0.11456391320E+04 -0.17704421495E+03 -0.18353394604E+04  0.21707843305E+04  0.50400001928E-02 0. -1.
       -1    1    3    3    0  502 -0.11456391320E+04  0.17704421495E+03 -0.11891839097E+03  0.11653219549E+04  0.50400001928E-02 0.  1.
</event>
<event>
 5   0  0.1932012E-06  0.2700040E+04  0.7818609E-02  0.8334992E-01
       -2   -1    0    0    0  501  0.00000000000E+00  0.00000000000E+00  0.94843226315E+03  0.94843226316E+03  0.25500000920E-02 0. -1.
        2   -1    0    0  501    0  0.00000000000E+00  0.00000000000E+00 -0.19216487835E+04  0.19216487835E+04  0.25500000920E-02 0.  1.
    10030    2    1    2    0    0  0.00000000000E+00  0.00000000000E+00 -0.97321652034E+03  0.28700810467E+04  0.27000397810E+04 0.  0.
        2    1    3    3  502    0 -0.40901982493E+03 -0.11054176550E+04 -0.11863253797E+04  0.16723077814E+04  0.25500000920E-02 0.  1.
       -2    1    3    3    0  502  0.40901982493E+03  0.11054176550E+04  0.21310885938E+03  0.11977732653E+04  0.25500000920E-02 0. -1.
</event>
<event>
 5   0  0.7806808E-07  0.2703562E+04  0.7818609E-02  0.8333850E-01
        1   -1    0    0  501    0  0.00000000000E+00  0.00000000000E+00  0.10686716396E+04  0.10686716396E+04  0.50400001928E-02 0.  1.
       -1   -1    0    0    0  501  0.00000000000E+00  0.00000000000E+00 -0.17098902443E+04  0.17098902443E+04  0.50400001928E-02 0. -1.
    10030    2    1    2    0    0  0.00000000000E+00  0.00000000000E+00 -0.64121860467E+03  0.27785618839E+04  0.27035615110E+04 0.  0.
        5    1    3    3  502    0 -0.86465712301E+03 -0.81251389049E+03 -0.98624805580E+03  0.15428927637E+04  0.46999998093E+01 0. -1.
       -5    1    3    3    0  502  0.86465712301E+03  0.81251389049E+03  0.34502945113E+03  0.12356691203E+04  0.46999998093E+01 0.  1.
</event>
<event>
 5   0  0.7335091E-07  0.2701630E+04  0.7818609E-02  0.8334476E-01
       -1   -1    0    0    0  501  0.00000000000E+00  0.00000000000E+00  0.15268329344E+04  0.15268329344E+04  0.50400001928E-02 0.  1.
        1   -1    0    0  501    0  0.00000000000E+00  0.00000000000E+00 -0.11950891447E+04  0.11950891448E+04  0.50400001928E-02 0. -1.
    10030    2    1    2    0    0  0.00000000000E+00  0.00000000000E+00  0.33174378970E+03  0.27219220792E+04  0.27016302233E+04 0.  0.
        3    1    3    3  502    0 -0.40878731014E+03  0.57886722909E+03  0.13245126268E+04  0.15021744381E+04  0.10100000352E+00 0.  1.
       -3    1    3    3    0  502  0.40878731014E+03 -0.57886722909E+03 -0.99276883708E+03  0.12197476411E+04  0.10100000352E+00 0. -1.
</event>
<event>
 5   0  0.2063087E-06  0.2699753E+04  0.7818609E-02  0.8335085E-01
       -2   -1    0    0    0  501  0.00000000000E+00  0.00000000000E+00  0.95717089435E+03  0.95717089435E+03  0.25500000920E-02 0.  1.
        2   -1    0    0  501    0  0.00000000000E+00  0.00000000000E+00 -0.19036996464E+04  0.19036996464E+04  0.25500000920E-02 0. -1.
    10030    2    1    2    0    0  0.00000000000E+00  0.00000000000E+00 -0.94652875210E+03  0.28608705408E+04  0.26997525021E+04 0.  0.
        3    1    3    3  502    0 -0.12732280822E+04 -0.44014594245E+03 -0.56397488138E+03  0.14604471497E+04  0.10100000352E+00 0. -1.
       -3    1    3    3    0  502  0.12732280822E+04  0.44014594245E+03 -0.38255387072E+03  0.14004233911E+04  0.10100000352E+00 0.  1.
</event>
<event>
 5   0  0.1991277E-06  0.2697096E+04  0.7818609E-02  0.8335948E-01
       -2   -1    0    0    0  501  0.00000000000E+00  0.00000000000E+00  0.92100775358E+03  0.92100775358E+03  0.25500000920E-02 0. -1.
        2   -1    0    0  501    0  0.00000000000E+00  0.00000000000E+00 -0.19745565151E+04  0.19745565151E+04  0.25500000920E-02 0.  1.
    10030    2    1    2    0    0  0.00000000000E+00  0.00000000000E+00 -0.10535487615E+04  0.28955642687E+04  0.26970961127E+04 0.  0.
        5    1    3    3  502    0  0.43125432043E+03 -0.32264928648E+03  0.80051685968E+03  0.96484826972E+03  0.46999998093E+01 0. -1.
       -5    1    3    3    0  502 -0.43125432043E+03  0.32264928648E+03 -0.18540656212E+04  0.19307159989E+04  0.46999998093E+01 0.  1.
</event>
<event>
 5   0  0.7806808E-07  0.2701434E+04  0.7818609E-02  0.8334540E-01
       -1   -1    0    0    0  501  0.00000000000E+00  0.00000000000E+00  0.10216934771E+04  0.10216934771E+04  0.50400001928E-02 0. -1.
        1   -1    0    0  501    0  0.00000000000E+00  0.00000000000E+00 -0.17856978690E+04  0.17856978690E+04  0.50400001928E-02 0.  1.
    10030    2    1    2    0    0  0.00000000000E+00  0.00000000000E+00 -0.76400439183E+03  0.28073913461E+04  0.27014335934E+04 0.  0.
        5    1    3    3  502    0  0.50447061302E+03 -0.11089878065E+04 -0.98802968446E+03  0.15686201904E+04  0.46999998093E+01 0.  1.
       -5    1    3    3    0  502 -0.50447061302E+03  0.11089878065E+04  0.22402529264E+03  0.12387711557E+04  0.46999998093E+01 0. -1.
</event>
<event>
 5   0  0.2030645E-06  0.2701187E+04  0.7818609E-02  0.8334620E-01
        2   -1    0    0  501    0  0.00000000000E+00  0.00000000000E+00  0.11961781349E+04  0.11961781349E+04  0.25500000920E-02 0.  1.
       -2   -1    0    0    0  501  0.00000000000E+00  0.00000000000E+00 -0.15249420926E+04  0.15249420926E+04  0.25500000920E-02 0. -1.
    10030    2    1    2    0    0  0.00000000000E+00  0.00000000000E+00 -0.32876395773E+03  0.27211202275E+04  0.27011866935E+04 0.  0.
        1    1    3    3  502    0  0.18630758651E+03 -0.58156642094E+01 -0.15119222556E+04  0.15233690445E+04  0.50400001928E-02 0. -1.
       -1    1    3    3    0  502 -0.18630758651E+03  0.58156642094E+01  0.11831582978E+04  0.11977511831E+04  0.50400001928E-02 0.  1.
</event>
<event>
 5   0  0.7566905E-07  0.2698764E+04  0.7818609E-02  0.8335406E-01
       -1   -1    0    0    0  501  0.00000000000E+00  0.00000000000E+00  0.96199575925E+03  0.96199575926E+03  0.50400001928E-02 0.  1.
        1   -1    0    0  501    0  0.00000000000E+00  0.00000000000E+00 -0.18927647411E+04  0.18927647411E+04  0.50400001928E-02 0. -1.
    10030    2    1    2    0    0  0.00000000000E+00  0.00000000000E+00 -0.93076898186E+03  0.28547605004E+04  0.26987639054E+04 0.  0.
        1    1    3    3  502    0 -0.91293868853E+03 -0.94005864062E+01 -0.15164416310E+04  0.17700679762E+04  0.50400001928E-02 0. -1.
       -1    1    3    3    0  502  0.91293868853E+03  0.94005864062E+01  0.58567264916E+03  0.10846925242E+04  0.50400001928E-02 0.  1.
</event>
<event>
 5   0  0.2063087E-06  0.2700879E+04  0.7818609E-02  0.8334720E-01
       -2   -1    0    0    0  501  0.00000000000E+00  0.00000000000E+00  0.82549040041E+03  0.82549040042E+03  0.25500000920E-02 0.  1.
        2   -1    0    0  501    0  0.00000000000E+00  0.00000000000E+00 -0.22092158915E+04  0.22092158915E+04  0.25500000920E-02 0. -1.
    10030    2    1    2    0    0  0.00000000000E+00  0.00000000000E+00 -0.13837254911E+04  0.30347062919E+04  0.27008787539E+04 0.  0.
        3    1    3    3  502    0 -0.10559836642E+04  0.44303520847E+03 -0.14960844531E+04  0.18840515906E+04  0.10100000352E+00 0. -1.
       -3    1    3    3    0  502  0.10559836642E+04 -0.44303520847E+03  0.11235896202E+03  0.11506547013E+04  0.10100000352E+00 0.  1.
</event>
<event>
 5   0  0.1999104E-06  0.2700951E+04  0.7818609E-02  0.8334696E-01
        2   -1    0    0  501    0  0.00000000000E+00  0.00000000000E+00  0.16108255882E+04  0.16108255882E+04  0.25500000920E-02 0.  1.
       -2   -1    0    0    0  501  0.00000000000E+00  0.00000000000E+00 -0.11322046031E+04  0.11322046031E+04  0.25500000920E-02 0. -1.
    10030    2    1    2    0    0  0.00000000000E+00  0.00000000000E+00  0.47862098514E+03  0.27430301913E+04  0.27009510515E+04 0.  0.
        4    1    3    3  502    0 -0.56278477902E+03 -0.12134101654E+04  0.42846905885E+03  0.14045206599E+04  0.12699999809E+01 0.  1.
       -4    1    3    3    0  502  0.56278477902E+03  0.12134101654E+04  0.50151926293E+02  0.13385095313E+04  0.12699999809E+01 0. -1.
</event>
<event>
 5   0  0.1932012E-06  0.2689882E+04  0.7818609E-02  0.8338295E-01
       -2   -1    0    0    0  501  0.00000000000E+00  0.00000000000E+00  0.89181282540E+03  0.89181282541E+03  0.25500000920E-02 0. -1.
        2   -1    0    0  501    0  0.00000000000E+00  0.00000000000E+00 -0.20283024464E+04  0.20283024464E+04  0.25500000920E-02 0.  1.
    10030    2    1    2    0    0  0.00000000000E+00  0.00000000000E+00 -0.11364896210E+04  0.29201152719E+04  0.26898818826E+04 0.  0.
        2    1    3    3  502    0  0.49859324437E+03  0.99239443382E+03  0.25524996284E+03  0.11395588967E+04  0.25500000920E-02 0. -1.
       -2    1    3    3    0  502 -0.49859324437E+03 -0.99239443382E+03 -0.13917395839E+04  0.17805563751E+04  0.25500000920E-02 0.  1.
</event>
<event>
 5   0  0.1932012E-06  0.2700418E+04  0.7818609E-02  0.8334869E-01
       -2   -1    0    0    0  501  0.00000000000E+00  0.00000000000E+00  0.11827949919E+04  0.11827949919E+04  0.25500000920E-02 0.  1.
        2   -1    0    0  501    0  0.00000000000E+00  0.00000000000E+00 -0.15413188629E+04  0.15413188629E+04  0.25500000920E-02 0. -1.
    10030    2    1    2    0    0  0.00000000000E+00  0.00000000000E+00 -0.35852387098E+03  0.27241138548E+04  0.27004179173E+04 0.  0.
        2    1    3    3  502    0  0.37709507548E+03  0.62373296628E+03  0.96729439799E+03  0.12111572819E+04  0.25500000920E-02 0.  1.
       -2    1    3    3    0  502 -0.37709507548E+03 -0.62373296628E+03 -0.13258182690E+04  0.15129565729E+04  0.25500000920E-02 0. -1.
</event>
<event>
 5   0  0.2030645E-06  0.2693497E+04  0.7818609E-02  0.8337118E-01
        2   -1    0    0  501    0  0.00000000000E+00  0.00000000000E+00  0.18247812640E+04  0.18247812640E+04  0.25500000920E-02 0. -1.
       -2   -1    0    0    0  501  0.00000000000E+00  0.00000000000E+00 -0.99394480087E+03  0.99394480087E+03  0.25500000920E-02 0.  1.
    10030    2    1    2    0    0  0.00000000000E+00  0.00000000000E+00  0.83083646312E+03  0.28187260649E+04  0.26934972434E+04 0.  0.
        1    1    3    3  502    0  0.23416190127E+03 -0.46628593763E+03  0.17147047374E+04  0.17923355456E+04  0.50400001928E-02 0. -1.
       -1    1    3    3    0  502 -0.23416190127E+03  0.46628593763E+03 -0.88386827429E+03  0.10263905192E+04  0.50400001928E-02 0.  1.
</event>
<event>
 5   0  0.7806808E-07  0.2692135E+04  0.7818609E-02  0.8337561E-01
        1   -1    0    0  501    0  0.00000000000E+00  0.00000000000E+00  0.20402345111E+04  0.20402345111E+04  0.50400001928E-02 0. -1.
       -1   -1    0    0    0  501  0.00000000000E+00  0.00000000000E+00 -0.88808332721E+03  0.88808332722E+03  0.50400001928E-02 0.  1.
    10030    2    1    2    0    0  0.00000000000E+00  0.00000000000E+00  0.11521511839E+04  0.29283178383E+04  0.26921353999E+04 0.  0.
        5    1    3    3  502    0  0.87934205732E+02 -0.78134871332E+03  0.17644618442E+04  0.19317313287E+04  0.46999998093E+01 0. -1.
       -5    1    3    3    0  502 -0.87934205732E+02  0.78134871332E+03 -0.61231066039E+03  0.99658650963E+03  0.46999998093E+01 0.  1.
</event>
<event>
 5   0  0.7566905E-07  0.2707129E+04  0.7818609E-02  0.8332696E-01
       -1   -1    0    0    0  501  0.00000000000E+00  0.00000000000E+00  0.16768271386E+04  0.16768271386E+04  0.50400001928E-02 0.  1.
        1   -1    0    0  501    0  0.00000000000E+00  0.00000000000E+00 -0.10926208469E+04  0.10926208469E+04  0.50400001928E-02 0. -1.
    10030    2    1    2    0    0  0.00000000000E+00  0.00000000000E+00  0.58420629169E+03  0.27694479854E+04  0.27071285808E+04 0.  0.
        1    1    3    3  502    0  0.90226883243E+03 -0.45541481844E+03  0.12131878534E+04  0.15790238980E+04  0.50400001928E-02 0.  1.
       -1    1    3    3    0  502 -0.90226883243E+03  0.45541481844E+03 -0.62898156175E+03  0.11904240874E+04  0.50400001928E-02 0. -1.
</event>
<event>
 5   0  0.2030645E-06  0.2698355E+04  0.7818609E-02  0.8335539E-01
       -2   -1    0    0    0  501  0.00000000000E+00  0.00000000000E+00  0.84551609902E+03  0.84551609902E+03  0.25500000920E-02 0. -1.
        2   -1    0    0  501    0  0.00000000000E+00  0.00000000000E+00 -0.21528620071E+04  0.21528620071E+04  0.25500000920E-02 0.  1.
    10030    2    1    2    0    0  0.00000000000E+00  0.00000000000E+00 -0.13073459081E+04  0.29983781062E+04  0.26983546735E+04 0.  0.
        1    1    3    3  502    0  0.74996254634E+03  0.10991732318E+04 -0.90128052674E+03  0.16071503360E+04  0.50400001928E-02 0. -1.
       -1    1    3    3    0  502 -0.74996254634E+03 -0.10991732318E+04 -0.40606538137E+03  0.13912277702E+04  0.50400001928E-02 0.  1.
</event>
<event>
 5   0  0.7436613E-07  0.2701471E+04  0.7818609E-02  0.8334528E-01
       -1   -1    0    0    0  501  0.00000000000E+00  0.00000000000E+00  0.51917206258E+03  0.51917206261E+03  0.50400001928E-02 0. -1.
        1   -1    0    0  501    0  0.00000000000E+00  0.00000000000E+00 -0.35142217701E+04  0.35142217701E+04  0.50400001928E-02 0.  1.
    10030    2    1    2    0    0  0.00000000000E+00  0.00000000000E+00 -0.29950497075E+04  0.40333938327E+04  0.27014705364E+04 0.  0.
        2    1    3    3  502    0  0.44757406806E+03  0.33922690134E+03 -0.33316447609E+04  0.33786468075E+04  0.25500000920E-02 0.  1.
       -2    1    3    3    0  502 -0.44757406806E+03 -0.33922690134E+03  0.33659505341E+03  0.65474702518E+03  0.25500000920E-02 0. -1.
</event>
<event>
 5   0  0.7335091E-07  0.2699067E+04  0.7818609E-02  0.8335308E-01
        1   -1    0    0  501    0  0.00000000000E+00  0.00000000000E+00  0.12386643655E+04  0.12386643655E+04  0.50400001928E-02 0.  1.
       -1   -1    0    0    0  501  0.00000000000E+00  0.00000000000E+00 -0.14703258689E+04  0.14703258689E+04  0.50400001928E-02 0. -1.
    10030    2    1    2    0    0  0.00000000000E+00  0.00000000000E+00 -0.23166150344E+03  0.27089902344E+04  0.26990666976E+04 0.  0.
        3    1    3    3  502    0  0.39413682169E+03 -0.87410517837E+03  0.83731153915E+03  0.12729863789E+04  0.10100000352E+00 0.  1.
       -3    1    3    3    0  502 -0.39413682169E+03  0.87410517837E+03 -0.10689730426E+04  0.14360038555E+04  0.10100000352E+00 0. -1.
</event>
<event>
 5   0  0.7768032E-07  0.2692055E+04  0.7818609E-02  0.8337587E-01
        1   -1    0    0  501    0  0.00000000000E+00  0.00000000000E+00  0.12713240561E+04  0.12713240561E+04  0.50400001928E-02 0. -1.
       -1   -1    0    0    0  501  0.00000000000E+00  0.00000000000E+00 -0.14251207465E+04  0.14251207465E+04  0.50400001928E-02 0.  1.
    10030    2    1    2    0    0  0.00000000000E+00  0.00000000000E+00 -0.15379669041E+03  0.26964448027E+04  0.26920551911E+04 0.  0.
        4    1    3    3  502    0  0.99939712985E+03 -0.20628273039E+02  0.82599733139E+03  0.12967240852E+04  0.12699999809E+01 0. -1.
       -4    1    3    3    0  502 -0.99939712985E+03  0.20628273039E+02 -0.97979402180E+03  0.13997207174E+04  0.12699999809E+01 0.  1.
</event>
<event>
 5   0  0.2030645E-06  0.2699582E+04  0.7818609E-02  0.8335141E-01
       -2   -1    0    0    0  501  0.00000000000E+00  0.00000000000E+00  0.63021097301E+03  0.63021097302E+03  0.25500000920E-02 0.  1.
        2   -1    0    0  501    0  0.00000000000E+00  0.00000000000E+00 -0.28909935335E+04  0.28909935335E+04  0.25500000920E-02 0. -1.
    10030    2    1    2    0    0  0.00000000000E+00  0.00000000000E+00 -0.22607825605E+04  0.35212045065E+04  0.26995820771E+04 0.  0.
        1    1    3    3  502    0  0.11116163915E+04 -0.12943932743E+03 -0.21147148420E+04  0.23925852972E+04  0.50400001928E-02 0. -1.
       -1    1    3    3    0  502 -0.11116163915E+04  0.12943932743E+03 -0.14606771846E+03  0.11286192093E+04  0.50400001928E-02 0.  1.
</event>
<event>
 5   0  0.7436613E-07  0.2702561E+04  0.7818609E-02  0.8334174E-01
       -1   -1    0    0    0  501  0.00000000000E+00  0.00000000000E+00  0.13723340583E+04  0.13723340583E+04  0.50400001928E-02 0. -1.
        1   -1    0    0  501    0  0.00000000000E+00  0.00000000000E+00 -0.13305500397E+04  0.13305500397E+04  0.50400001928E-02 0.  1.
    10030    2    1    2    0    0  0.00000000000E+00  0.00000000000E+00  0.41784018644E+02  0.27028840980E+04  0.27025611081E+04 0.  0.
        2    1    3    3  502    0  0.13842975343E+03 -0.46157060580E+03  0.12834805740E+04  0.13709604679E+04  0.25500000920E-02 0. -1.
       -2    1    3    3    0  502 -0.13842975343E+03  0.46157060580E+03 -0.12416965553E+04  0.13319236301E+04  0.25500000920E-02 0.  1.
</event>
<event>
 5   0  0.7806808E-07  0.2701819E+04  0.7818609E-02  0.8334415E-01
        1   -1    0    0  501    0  0.00000000000E+00  0.00000000000E+00  0.12768386592E+04  0.12768386593E+04  0.50400001928E-02 0.  1.
       -1   -1    0    0    0  501  0.00000000000E+00  0.00000000000E+00 -0.14292775882E+04  0.14292775883E+04  0.50400001928E-02 0. -1.
    10030    2    1    2    0    0  0.00000000000E+00  0.00000000000E+00 -0.15243892900E+03  0.27061162475E+04  0.27018192978E+04 0.  0.
        5    1    3    3  502    0 -0.65929766153E+02  0.57299985427E+03  0.11473039512E+04  0.12841355121E+04  0.46999998093E+01 0.  1.
       -5    1    3    3    0  502  0.65929766153E+02 -0.57299985427E+03 -0.12997428802E+04  0.14219807354E+04  0.46999998093E+01 0. -1.
</event>
<event>
 5   0  0.7806808E-07  0.2715875E+04  0.7818609E-02  0.8329873E-01
        1   -1    0    0  501    0  0.00000000000E+00  0.00000000000E+00  0.17244718375E+04  0.17244718375E+04  0.50400001928E-02 0.  1.
       -1   -1    0    0    0  501  0.00000000000E+00  0.00000000000E+00 -0.10693092050E+04  0.10693092051E+04  0.50400001928E-02 0. -1.
    10030    2    1    2    0    0  0.00000000000E+00  0.00000000000E+00  0.65516263241E+03  0.27937810425E+04  0.27158745256E+04 0.  0.
        5    1    3    3  502    0 -0.67671879532E+03  0.11766110736E+04  0.36885165378E+03  0.14065687253E+04  0.46999998093E+01 0. -1.
       -5    1    3    3    0  502  0.67671879532E+03 -0.11766110736E+04  0.28631097863E+03  0.13872123172E+04  0.46999998093E+01 0.  1.
</event>
<event>
 5   0  0.2030645E-06  0.2705550E+04  0.7818609E-02  0.8333207E-01
        2   -1    0    0  501    0  0.00000000000E+00  0.00000000000E+00  0.17934156221E+04  0.17934156221E+04  0.25500000920E-02 0. -1.
       -2   -1    0    0    0  501  0.00000000000E+00  0.00000000000E+00 -0.10203991177E+04  0.10203991177E+04  0.25500000920E-02 0.  1.
    10030    2    1    2    0    0  0.00000000000E+00  0.00000000000E+00  0.77301650447E+03  0.28138147398E+04  0.27055496436E+04 0.  0.
        1    1    3    3  502    0  0.19569104057E+02 -0.10843614323E+04  0.12274285389E+04  0.16379265807E+04  0.50400001928E-02 0. -1.
       -1    1    3    3    0  502 -0.19569104057E+02  0.10843614323E+04 -0.45441203440E+03  0.11758881591E+04  0.50400001928E-02 0.  1.
</event>
<event>
 5   0  0.7806808E-07  0.2700313E+04  0.7818609E-02  0.8334903E-01
        1   -1    0    0  501    0  0.00000000000E+00  0.00000000000E+00  0.10553035368E+04  0.10553035368E+04  0.50400001928E-02 0. -1.
       -1   -1    0    0    0  501  0.00000000000E+00  0.00000000000E+00 -0.17273914721E+04  0.17273914721E+04  0.50400001928E-02 0.  1.
    10030    2    1    2    0    0  0.00000000000E+00  0.00000000000E+00 -0.67208793539E+03  0.27826950089E+04  0.27003128189E+04 0.  0.
        5    1    3    3  502    0  0.95241268457E+03 -0.24855223762E+03 -0.12883765192E+04  0.16213587764E+04  0.46999998093E+01 0.  1.
       -5    1    3    3    0  502 -0.95241268457E+03  0.24855223762E+03  0.61628858377E+03  0.11613362326E+04  0.46999998093E+01 0. -1.
</event>
<event>
 5   0  0.1932012E-06  0.2704832E+04  0.7818609E-02  0.8333439E-01
       -2   -1    0    0    0  501  0.00000000000E+00  0.00000000000E+00  0.10059888071E+04  0.10059888071E+04  0.25500000920E-02 0. -1.
        2   -1    0    0  501    0  0.00000000000E+00  0.00000000000E+00 -0.18181403031E+04  0.18181403031E+04  0.25500000920E-02 0.  1.
    10030    2    1    2    0    0  0.00000000000E+00  0.00000000000E+00 -0.81215149598E+03  0.28241291102E+04  0.27048318208E+04 0.  0.
        2    1    3    3  502    0  0.50223393222E+03  0.26868665936E+03  0.87464494568E+03  0.10437601375E+04  0.25500000920E-02 0. -1.
       -2    1    3    3    0  502 -0.50223393222E+03 -0.26868665936E+03 -0.16867964417E+04  0.17803689728E+04  0.25500000920E-02 0.  1.
</event>
<event>
 5   0  0.7436613E-07  0.2703233E+04  0.7818609E-02  0.8333957E-01
       -1   -1    0    0    0  501  0.00000000000E+00  0.00000000000E+00  0.14992093235E+04  0.14992093235E+04  0.50400001928E-02 0.  1.
        1   -1    0    0  501    0  0.00000000000E+00  0.00000000000E+00 -0.12185542090E+04  0.12185542090E+04  0.50400001928E-02 0. -1.
    10030    2    1    2    0    0  0.00000000000E+00  0.00000000000E+00  0.28065511447E+03  0.27177635325E+04  0.27032334944E+04 0.  0.
        2    1    3    3  502    0 -0.23254744651E+03  0.11059025630E+04  0.88577708775E+03  0.14358620557E+04  0.25500000920E-02 0.  1.
       -2    1    3    3    0  502  0.23254744651E+03 -0.11059025630E+04 -0.60512197328E+03  0.12819014768E+04  0.25500000920E-02 0. -1.
</event>
<event>
 5   0  0.1991277E-06  0.2705213E+04  0.7818609E-02  0.8333315E-01
       -2   -1    0    0    0  501  0.00000000000E+00  0.00000000000E+00  0.12908516299E+04  0.12908516299E+04  0.25500000920E-02 0.  1.
        2   -1    0    0  501    0  0.00000000000E+00  0.00000000000E+00 -0.14173158961E+04  0.14173158961E+04  0.25500000920E-02 0. -1.
    10030    2    1    2    0    0  0.00000000000E+00  0.00000000000E+00 -0.12646426626E+03  0.27081675260E+04  0.27052131410E+04 0.  0.
        5    1    3    3  502    0 -0.48149405590E+03  0.76381206843E+03  0.94498096572E+03  0.13070028758E+04  0.46999998093E+01 0.  1.
       -5    1    3    3    0  502  0.48149405590E+03 -0.76381206843E+03 -0.10714452320E+04  0.14011646502E+04  0.46999998093E+01 0. -1.
</event>
<event>
 5   0  0.1999104E-06  0.2711081E+04  0.7818609E-02  0.8331419E-01
       -2   -1    0    0    0  501  0.00000000000E+00  0.00000000000E+00  0.12015277030E+04  0.12015277030E+04  0.25500000920E-02 0.  1.
        2   -1    0    0  501    0  0.00000000000E+00  0.00000000000E+00 -0.15292946370E+04  0.15292946370E+04  0.25500000920E-02 0. -1.
    10030    2    1    2    0    0  0.00000000000E+00  0.00000000000E+00 -0.32776693395E+03  0.27308223400E+04  0.27110808711E+04 0.  0.
        4    1    3    3  502    0  0.13502198335E+04 -0.10832393642E+03 -0.21583993245E+03  0.13716472444E+04  0.12699999809E+01 0. -1.
       -4    1    3    3    0  502 -0.13502198335E+04  0.10832393642E+03 -0.11192700151E+03  0.13591750956E+04  0.12699999809E+01 0.  1.
</event>
<event>
 5   0  0.1999104E-06  0.2701045E+04  0.7818609E-02  0.8334666E-01
       -2   -1    0    0    0  501  0.00000000000E+00  0.00000000000E+00  0.97894587263E+03  0.97894587263E+03  0.25500000920E-02 0.  1.
        2   -1    0    0  501    0  0.00000000000E+00  0.00000000000E+00 -0.18631373723E+04  0.18631373723E+04  0.25500000920E-02 0. -1.
    10030    2    1    2    0    0  0.00000000000E+00  0.00000000000E+00 -0.88419149963E+03  0.28420832449E+04  0.27010447169E+04 0.  0.
        4    1    3    3  502    0 -0.51180536404E+03 -0.89036818064E+03  0.48074580491E+03  0.11339393148E+04  0.12699999809E+01 0.  1.
       -4    1    3    3    0  502  0.51180536404E+03  0.89036818064E+03 -0.13649373045E+04  0.17081439301E+04  0.12699999809E+01 0. -1.
</event>
<event>
 5   0  0.6561875E-07  0.2691359E+04  0.7818609E-02  0.8337814E-01
        3   -1    0    0  501    0  0.00000000000E+00  0.00000000000E+00  0.17320966729E+04  0.17320966759E+04  0.10100000352E+00 0. -1.
       -3   -1    0    0    0  501  0.00000000000E+00  0.00000000000E+00 -0.10454687108E+04  0.10454687157E+04  0.10100000352E+00 0.  1.
    10030    2    1    2    0    0  0.00000000000E+00  0.00000000000E+00  0.68662796212E+03  0.27775653916E+04  0.26913586803E+04 0.  0.
        2    1    3    3  502    0  0.68142698723E+03 -0.69325708112E+03 -0.61703211887E+03  0.11513803695E+04  0.25500000920E-02 0.  1.
       -2    1    3    3    0  502 -0.68142698723E+03  0.69325708112E+03  0.13036600810E+04  0.16261850221E+04  0.25500000920E-02 0. -1.
</event>
<event>
 5   0  0.6561875E-07  0.2694580E+04  0.7818609E-02  0.8336766E-01
       -3   -1    0    0    0  501  0.00000000000E+00  0.00000000000E+00  0.99313506662E+03  0.99313507176E+03  0.10100000352E+00 0. -1.
        3   -1    0    0  501    0  0.00000000000E+00  0.00000000000E+00 -0.18277375200E+04  0.18277375228E+04  0.10100000352E+00 0.  1.
    10030    2    1    2    0    0  0.00000000000E+00  0.00000000000E+00 -0.83460245342E+03  0.28208725946E+04  0.26945799190E+04 0.  0.
        1    1    3    3  502    0  0.72522596963E+03 -0.68988786209E+03  0.52679383016E+03  0.11311099455E+04  0.50400001928E-02 0. -1.
       -1    1    3    3    0  502 -0.72522596963E+03  0.68988786209E+03 -0.13613962836E+04  0.16897626491E+04  0.50400001928E-02 0.  1.
</event>
<event>
 5   0  0.7806808E-07  0.2711450E+04  0.7818609E-02  0.8331299E-01
       -1   -1    0    0    0  501  0.00000000000E+00  0.00000000000E+00  0.71493700575E+03  0.71493700577E+03  0.50400001928E-02 0.  1.
        1   -1    0    0  501    0  0.00000000000E+00  0.00000000000E+00 -0.25708417399E+04  0.25708417399E+04  0.50400001928E-02 0. -1.
    10030    2    1    2    0    0  0.00000000000E+00  0.00000000000E+00 -0.18559047342E+04  0.32857787457E+04  0.27114497199E+04 0.  0.
        5    1    3    3  502    0  0.31138181482E+03 -0.79352917142E+03  0.34953451095E+03  0.92132711066E+03  0.46999998093E+01 0.  1.
       -5    1    3    3    0  502 -0.31138181482E+03  0.79352917142E+03 -0.22054392451E+04  0.23644516350E+04  0.46999998093E+01 0. -1.
</event>
<event>
 5   0  0.1999104E-06  0.2694132E+04  0.7818609E-02  0.8336911E-01
        2   -1    0    0  501    0  0.00000000000E+00  0.00000000000E+00  0.99135527747E+03  0.99135527747E+03  0.25500000920E-02 0.  1.
       -2   -1    0    0    0  501  0.00000000000E+00  0.00000000000E+00 -0.18304106200E+04  0.18304106200E+04  0.25500000920E-02 0. -1.
    10030    2    1    2    0    0  0.00000000000E+00  0.00000000000E+00 -0.83905534248E+03  0.28217658974E+04  0.26941323115E+04 0.  0.
        4    1    3    3  502    0 -0.11371662781E+04  0.66363842220E+03 -0.12139819204E+03  0.13222338044E+04  0.12699999809E+01 0.  1.
       -4    1    3    3    0  502  0.11371662781E+04 -0.66363842220E+03 -0.71765715044E+03  0.14995320930E+04  0.12699999809E+01 0. -1.
</event>
<event>
 5   0  0.1991277E-06  0.2704114E+04  0.7818609E-02  0.8333671E-01
       -2   -1    0    0    0  501  0.00000000000E+00  0.00000000000E+00  0.10690045113E+04  0.10690045113E+04  0.25500000920E-02 0. -1.
        2   -1    0    0  501    0  0.00000000000E+00  0.00000000000E+00 -0.17100560148E+04  0.17100560148E+04  0.25500000920E-02 0.  1.
    10030    2    1    2    0    0  0.00000000000E+00  0.00000000000E+00 -0.64105150343E+03  0.27790605261E+04  0.27041136029E+04 0.  0.
        5    1    3    3  502    0 -0.79626302769E+03  0.44249078560E+03 -0.13473176209E+04  0.16263824169E+04  0.46999998093E+01 0.  1.
       -5    1    3    3    0  502  0.79626302769E+03 -0.44249078560E+03  0.70626611745E+03  0.11526781091E+04  0.46999998093E+01 0. -1.
</event>
<event>
 5   0  0.7806808E-07  0.2705460E+04  0.7818609E-02  0.8333235E-01
        1   -1    0    0  501    0  0.00000000000E+00  0.00000000000E+00  0.18800358969E+04  0.18800358969E+04  0.50400001928E-02 0.  1.
       -1   -1    0    0    0  501  0.00000000000E+00  0.00000000000E+00 -0.97332125043E+03  0.97332125045E+03  0.50400001928E-02 0. -1.
    10030    2    1    2    0    0  0.00000000000E+00  0.00000000000E+00  0.90671464645E+03  0.28533571473E+04  0.27054603232E+04 0.  0.
        5    1    3    3  502    0 -0.13013344337E+04 -0.26763128647E+03  0.18496815371E+03  0.13413922326E+04  0.46999998093E+01 0. -1.
       -5    1    3    3    0  502  0.13013344337E+04  0.26763128647E+03  0.72174649274E+03  0.15119649148E+04  0.46999998093E+01 0.  1.
</event>
<event>
 5   0  0.1999104E-06  0.2699802E+04  0.7818609E-02  0.8335069E-01
       -2   -1    0    0    0  501  0.00000000000E+00  0.00000000000E+00  0.14544684690E+04  0.14544684690E+04  0.25500000920E-02 0. -1.
        2   -1    0    0  501    0  0.00000000000E+00  0.00000000000E+00 -0.12528514672E+04  0.12528514672E+04  0.25500000920E-02 0.  1.
    10030    2    1    2    0    0  0.00000000000E+00  0.00000000000E+00  0.20161700176E+03  0.27073199362E+04  0.26998021819E+04 0.  0.
        4    1    3    3  502    0 -0.35119105558E+03  0.16131053869E+03 -0.11961897642E+04  0.12570711246E+04  0.12699999809E+01 0.  1.
       -4    1    3    3    0  502  0.35119105558E+03 -0.16131053869E+03  0.13978067660E+04  0.14502488115E+04  0.12699999809E+01 0. -1.
</event>
<event>
 5   0  0.2030645E-06  0.2696006E+04  0.7818609E-02  0.8336302E-01
       -2   -1    0    0    0  501  0.00000000000E+00  0.00000000000E+00  0.73204327815E+03  0.73204327815E+03  0.25500000920E-02 0. -1.
        2   -1    0    0  501    0  0.00000000000E+00  0.00000000000E+00 -0.24822469851E+04  0.24822469851E+04  0.25500000920E-02 0.  1.
    10030    2    1    2    0    0  0.00000000000E+00  0.00000000000E+00 -0.17502037070E+04  0.32142902633E+04  0.26960060980E+04 0.  0.
        1    1    3    3  502    0  0.13474894497E+04 -0.21909968246E+02 -0.83924815199E+03  0.15876225384E+04  0.50400001928E-02 0.  1.
       -1    1    3    3    0  502 -0.13474894497E+04  0.21909968246E+02 -0.91095555496E+03  0.16266677248E+04  0.50400001928E-02 0. -1.
</event>
<event>
 5   0  0.7335091E-07  0.2696922E+04  0.7818609E-02  0.8336004E-01
        1   -1    0    0  501    0  0.00000000000E+00  0.00000000000E+00  0.12115945259E+04  0.12115945259E+04  0.50400001928E-02 0.  1.
       -1   -1    0    0    0  501  0.00000000000E+00  0.00000000000E+00 -0.15007882329E+04  0.15007882329E+04  0.50400001928E-02 0. -1.
    10030    2    1    2    0    0  0.00000000000E+00  0.00000000000E+00 -0.28919370700E+03  0.27123827588E+04  0.26969218065E+04 0.  0.
        3    1    3    3  502    0 -0.62588737440E+03  0.11122816473E+04 -0.58234063571E+03  0.14028635339E+04  0.10100000352E+00 0. -1.
       -3    1    3    3    0  502  0.62588737440E+03 -0.11122816473E+04  0.29314692871E+03  0.13095192249E+04  0.10100000352E+00 0.  1.
</event>
<event>
 5   0  0.2063087E-06  0.2695239E+04  0.7818609E-02  0.8336551E-01
        2   -1    0    0  501    0  0.00000000000E+00  0.00000000000E+00  0.12588128836E+04  0.12588128836E+04  0.25500000920E-02 0. -1.
       -2   -1    0    0    0  501  0.00000000000E+00  0.00000000000E+00 -0.14426915612E+04  0.14426915612E+04  0.25500000920E-02 0.  1.
    10030    2    1    2    0    0  0.00000000000E+00  0.00000000000E+00 -0.18387867764E+03  0.27015044448E+04  0.26952393024E+04 0.  0.
        3    1    3    3  502    0 -0.21726346991E+03 -0.38763797555E+02  0.12405766307E+04  0.12600541394E+04  0.10100000352E+00 0. -1.
       -3    1    3    3    0  502  0.21726346991E+03  0.38763797555E+02 -0.14244553083E+04  0.14414503054E+04  0.10100000352E+00 0.  1.
</event>
<event>
 5   0  0.7335091E-07  0.2702459E+04  0.7818609E-02  0.8334208E-01
        1   -1    0    0  501    0  0.00000000000E+00  0.00000000000E+00  0.15312747352E+04  0.15312747352E+04  0.50400001928E-02 0.  1.
       -1   -1    0    0    0  501  0.00000000000E+00  0.00000000000E+00 -0.11923538777E+04  0.11923538777E+04  0.50400001928E-02 0. -1.
    10030    2    1    2    0    0  0.00000000000E+00  0.00000000000E+00  0.33892085755E+03  0.27236286129E+04  0.27024591529E+04 0.  0.
        3    1    3    3  502    0 -0.10376009119E+04  0.59455175204E+03 -0.46452519998E+03  0.12829228776E+04  0.10100000352E+00 0. -1.
       -3    1    3    3    0  502  0.10376009119E+04 -0.59455175204E+03  0.80344605752E+03  0.14407057353E+04  0.10100000352E+00 0.  1.
</event>
<event>
 5   0  0.7806808E-07  0.2697812E+04  0.7818609E-02  0.8335715E-01
        1   -1    0    0  501    0  0.00000000000E+00  0.00000000000E+00  0.19805993607E+04  0.19805993607E+04  0.50400001928E-02 0.  1.
       -1   -1    0    0    0  501  0.00000000000E+00  0.00000000000E+00 -0.91868537876E+03  0.91868537877E+03  0.50400001928E-02 0. -1.
    10030    2    1    2    0    0  0.00000000000E+00  0.00000000000E+00  0.10619139820E+04  0.28992847395E+04  0.26978122054E+04 0.  0.
        5    1    3    3  502    0 -0.12518540680E+04 -0.30338895878E+03  0.96128831494E+03  0.16072587789E+04  0.46999998093E+01 0.  1.
       -5    1    3    3    0  502  0.12518540680E+04  0.30338895878E+03  0.10062566701E+03  0.12920259606E+04  0.46999998093E+01 0. -1.
</event>
<event>
 5   0  0.7566905E-07  0.2697882E+04  0.7818609E-02  0.8335693E-01
        1   -1    0    0  501    0  0.00000000000E+00  0.00000000000E+00  0.23092156990E+04  0.23092156990E+04  0.50400001928E-02 0. -1.
       -1   -1    0    0    0  501  0.00000000000E+00  0.00000000000E+00 -0.78799107209E+03  0.78799107210E+03  0.50400001928E-02 0.  1.
    10030    2    1    2    0    0  0.00000000000E+00  0.00000000000E+00  0.15212246269E+04  0.30972067711E+04  0.26978816537E+04 0.  0.
        1    1    3    3  502    0 -0.10677049828E+04 -0.68850661001E+03  0.12811656966E+04  0.18042784775E+04  0.50400001928E-02 0. -1.
       -1    1    3    3    0  502  0.10677049828E+04  0.68850661001E+03  0.24005893031E+03  0.12929282936E+04  0.50400001928E-02 0.  1.
</event>
<event>
 5   0  0.7566905E-07  0.2701434E+04  0.7818609E-02  0.8334540E-01
        1   -1    0    0  501    0  0.00000000000E+00  0.00000000000E+00  0.16918487299E+04  0.16918487299E+04  0.50400001928E-02 0. -1.
       -1   -1    0    0    0  501  0.00000000000E+00  0.00000000000E+00 -0.10783684994E+04  0.10783684994E+04  0.50400001928E-02 0.  1.
    10030    2    1    2    0    0  0.00000000000E+00  0.00000000000E+00  0.61348023053E+03  0.27702172293E+04  0.27014339718E+04 0.  0.
        1    1    3    3  502    0  0.23451423229E+03 -0.16590981088E+03  0.16601606055E+04  0.16848312160E+04  0.50400001928E-02 0. -1.
       -1    1    3    3    0  502 -0.23451423229E+03  0.16590981088E+03 -0.10466803749E+04  0.10853860133E+04  0.50400001928E-02 0.  1.
</event>
<event>
 5   0  0.2063087E-06  0.2704175E+04  0.7818609E-02  0.8333652E-01
       -2   -1    0    0    0  501  0.00000000000E+00  0.00000000000E+00  0.10319886293E+04  0.10319886293E+04  0.25500000920E-02 0. -1.
        2   -1    0    0  501    0  0.00000000000E+00  0.00000000000E+00 -0.17714739623E+04  0.17714739623E+04  0.25500000920E-02 0.  1.
    10030    2    1    2    0    0  0.00000000000E+00  0.00000000000E+00 -0.73948533299E+03  0.28034625916E+04  0.27041752800E+04 0.  0.
        3    1    3    3  502    0 -0.15625177831E+03 -0.64202187413E+03 -0.15926875386E+04  0.17243144466E+04  0.10100000352E+00 0.  1.
       -3    1    3    3    0  502  0.15625177831E+03  0.64202187413E+03  0.85320220558E+03  0.10791481450E+04  0.10100000352E+00 0. -1.
</event>
<event>
 5   0  0.7566905E-07  0.2706049E+04  0.7818609E-02  0.8333045E-01
        1   -1    0    0  501    0  0.00000000000E+00  0.00000000000E+00  0.13082927686E+04  0.13082927686E+04  0.50400001928E-02 0.  1.
       -1   -1    0    0    0  501  0.00000000000E+00  0.00000000000E+00 -0.13992857286E+04  0.13992857286E+04  0.50400001928E-02 0. -1.
    10030    2    1    2    0    0  0.00000000000E+00  0.00000000000E+00 -0.90992959988E+02  0.27075784972E+04  0.27060490757E+04 0.  0.
        1    1    3    3  502    0  0.13274456164E+04 -0.20578737825E+03  0.11650577797E+03  0.13483448765E+04  0.50400001928E-02 0. -1.
       -1    1    3    3    0  502 -0.13274456164E+04  0.20578737825E+03 -0.20749873796E+03  0.13592336208E+04  0.50400001928E-02 0.  1.
</event>
<event>
 5   0  0.7436613E-07  0.2697391E+04  0.7818609E-02  0.8335852E-01
        1   -1    0    0  501    0  0.00000000000E+00  0.00000000000E+00  0.12115614257E+04  0.12115614257E+04  0.50400001928E-02 0.  1.
       -1   -1    0    0    0  501  0.00000000000E+00  0.00000000000E+00 -0.15013515798E+04  0.15013515798E+04  0.50400001928E-02 0. -1.
    10030    2    1    2    0    0  0.00000000000E+00  0.00000000000E+00 -0.28979015403E+03  0.27129130055E+04  0.26973910807E+04 0.  0.
        2    1    3    3  502    0  0.11646964425E+03  0.88913517298E+03 -0.11580912658E+04  0.14646849196E+04  0.25500000920E-02 0. -1.
       -2    1    3    3    0  502 -0.11646964425E+03 -0.88913517298E+03  0.86830111173E+03  0.12482280859E+04  0.25500000920E-02 0.  1.
</event>
<event>
 5   0  0.7806808E-07  0.2697350E+04  0.7818609E-02  0.8335865E-01
        1   -1    0    0  501    0  0.00000000000E+00  0.00000000000E+00  0.12051052340E+04  0.12051052340E+04  0.50400001928E-02 0. -1.
       -1   -1    0    0    0  501  0.00000000000E+00  0.00000000000E+00 -0.15093486541E+04  0.15093486541E+04  0.50400001928E-02 0.  1.
    10030    2    1    2    0    0  0.00000000000E+00  0.00000000000E+00 -0.30424342008E+03  0.27144538881E+04  0.26973497830E+04 0.  0.
        5    1    3    3  502    0  0.79369534575E+03 -0.10879018695E+04 -0.78040422917E+02  0.13489237107E+04  0.46999998093E+01 0. -1.
       -5    1    3    3    0  502 -0.79369534575E+03  0.10879018695E+04 -0.22620299716E+03  0.13655301774E+04  0.46999998093E+01 0.  1.
</event>
<event>
 5   0  0.2030645E-06  0.2698405E+04  0.7818609E-02  0.8335523E-01
       -2   -1    0    0    0  501  0.00000000000E+00  0.00000000000E+00  0.12698835353E+04  0.12698835353E+04  0.25500000920E-02 0.  1.
        2   -1    0    0  501    0  0.00000000000E+00  0.00000000000E+00 -0.14334762074E+04  0.14334762074E+04  0.25500000920E-02 0. -1.
    10030    2    1    2    0    0  0.00000000000E+00  0.00000000000E+00 -0.16359267209E+03  0.27033597427E+04  0.26984053320E+04 0.  0.
        1    1    3    3  502    0  0.62355562839E+03  0.73947393819E+03 -0.10241106229E+04  0.14087036221E+04  0.50400001928E-02 0. -1.
       -1    1    3    3    0  502 -0.62355562839E+03 -0.73947393819E+03  0.86051795078E+03  0.12946561206E+04  0.50400001928E-02 0.  1.
</event>
<event>
 5   0  0.2063087E-06  0.2695482E+04  0.7818609E-02  0.8336472E-01
        2   -1    0    0  501    0  0.00000000000E+00  0.00000000000E+00  0.13438298259E+04  0.13438298259E+04  0.25500000920E-02 0.  1.
       -2   -1    0    0    0  501  0.00000000000E+00  0.00000000000E+00 -0.13516632905E+04  0.13516632905E+04  0.25500000920E-02 0. -1.
    10030    2    1    2    0    0  0.00000000000E+00  0.00000000000E+00 -0.78334646054E+01  0.26954931164E+04  0.26954817338E+04 0.  0.
        3    1    3    3  502    0  0.11657761553E+04  0.66861521998E+03  0.97696085764E+02  0.13474512577E+04  0.10100000352E+00 0.  1.
       -3    1    3    3    0  502 -0.11657761553E+04 -0.66861521998E+03 -0.10552955037E+03  0.13480418587E+04  0.10100000352E+00 0. -1.
</event>
<event>
 5   0  0.7566905E-07  0.2703194E+04  0.7818609E-02  0.8333969E-01
        1   -1    0    0  501    0  0.00000000000E+00  0.00000000000E+00  0.97773610200E+03  0.97773610201E+03  0.50400001928E-02 0.  1.
       -1   -1    0    0    0  501  0.00000000000E+00  0.00000000000E+00 -0.18684125793E+04  0.18684125793E+04  0.50400001928E-02 0. -1.
    10030    2    1    2    0    0  0.00000000000E+00  0.00000000000E+00 -0.89067647726E+03  0.28461486813E+04  0.27031939865E+04 0.  0.
        1    1    3    3  502    0 -0.48974124273E+02 -0.77593568293E+02 -0.18651295360E+04  0.18673851806E+04  0.50400001928E-02 0. -1.
       -1    1    3    3    0  502  0.48974124273E+02  0.77593568293E+02  0.97445305869E+03  0.97876350070E+03  0.50400001928E-02 0.  1.
</event>
<event>
 5   0  0.7436613E-07  0.2711369E+04  0.7818609E-02  0.8331326E-01
        1   -1    0    0  501    0  0.00000000000E+00  0.00000000000E+00  0.13170745345E+04  0.13170745345E+04  0.50400001928E-02 0. -1.
       -1   -1    0    0    0  501  0.00000000000E+00  0.00000000000E+00 -0.13954263501E+04  0.13954263501E+04  0.50400001928E-02 0.  1.
    10030    2    1    2    0    0  0.00000000000E+00  0.00000000000E+00 -0.78351815588E+02  0.27125008846E+04  0.27113690346E+04 0.  0.
        2    1    3    3  502    0  0.11799524161E+03  0.82099984431E+03  0.10336135150E+04  0.13252624343E+04  0.25500000920E-02 0. -1.
       -2    1    3    3    0  502 -0.11799524161E+03 -0.82099984431E+03 -0.11119653306E+04  0.13872384503E+04  0.25500000920E-02 0.  1.
</event>
<event>
 5   0  0.7768032E-07  0.2700901E+04  0.7818609E-02  0.8334713E-01
       -1   -1    0    0    0  501  0.00000000000E+00  0.00000000000E+00  0.11016855059E+04  0.11016855060E+04  0.50400001928E-02 0.  1.
        1   -1    0    0  501    0  0.00000000000E+00  0.00000000000E+00 -0.16553872818E+04  0.16553872818E+04  0.50400001928E-02 0. -1.
    10030    2    1    2    0    0  0.00000000000E+00  0.00000000000E+00 -0.55370177586E+03  0.27570727878E+04  0.27009007202E+04 0.  0.
        4    1    3    3  502    0 -0.42431273307E+03 -0.12559921296E+04 -0.14291449453E+02  0.13258066916E+04  0.12699999809E+01 0.  1.
       -4    1    3    3    0  502  0.42431273307E+03  0.12559921296E+04 -0.53941032641E+03  0.14312660962E+04  0.12699999809E+01 0. -1.
</event>
<event>
 5   0  0.7335091E-07  0.2653944E+04  0.7818609E-02  0.8350105E-01
       -1   -1    0    0    0  501  0.00000000000E+00  0.00000000000E+00  0.84355797131E+03  0.84355797133E+03  0.50400001928E-02 0.  1.
        1   -1    0    0  501    0  0.00000000000E+00  0.00000000000E+00 -0.20874132197E+04  0.20874132197E+04  0.50400001928E-02 0. -1.
    10030    2    1    2    0    0  0.00000000000E+00  0.00000000000E+00 -0.12438552484E+04  0.29309711911E+04  0.26539435269E+04 0.  0.
        3    1    3    3  502    0  0.57177884578E+03 -0.11960128643E+04 -0.68704159288E+03  0.14931188769E+04  0.10100000352E+00 0. -1.
       -3    1    3    3    0  502 -0.57177884578E+03  0.11960128643E+04 -0.55681365554E+03  0.14378523141E+04  0.10100000352E+00 0.  1.
</event>
<event>
 5   0  0.7566905E-07  0.2696175E+04  0.7818609E-02  0.8336247E-01
        1   -1    0    0  501    0  0.00000000000E+00  0.00000000000E+00  0.28722460228E+04  0.28722460228E+04  0.50400001928E-02 0.  1.
       -1   -1    0    0    0  501  0.00000000000E+00  0.00000000000E+00 -0.63272449686E+03  0.63272449688E+03  0.50400001928E-02 0. -1.
    10030    2    1    2    0    0  0.00000000000E+00  0.00000000000E+00  0.22395215260E+04  0.35049705197E+04  0.26961753798E+04 0.  0.
        1    1    3    3  502    0  0.12385629706E+04  0.48758143747E+03  0.13972583468E+04  0.19297939730E+04  0.50400001928E-02 0.  1.
       -1    1    3    3    0  502 -0.12385629706E+04 -0.48758143747E+03  0.84226317914E+03  0.15751765467E+04  0.50400001928E-02 0. -1.
</event>
<event>
 5   0  0.1999104E-06  0.2701129E+04  0.7818609E-02  0.8334639E-01
       -2   -1    0    0    0  501  0.00000000000E+00  0.00000000000E+00  0.68290580881E+03  0.68290580881E+03  0.25500000920E-02 0.  1.
        2   -1    0    0  501    0  0.00000000000E+00  0.00000000000E+00 -0.26709749634E+04  0.26709749634E+04  0.25500000920E-02 0. -1.
    10030    2    1    2    0    0  0.00000000000E+00  0.00000000000E+00 -0.19880691546E+04  0.33538807722E+04  0.27011288882E+04 0.  0.
        4    1    3    3  502    0 -0.42900177778E+03  0.33703140510E+03 -0.25280688755E+04  0.25862649798E+04  0.12699999809E+01 0. -1.
       -4    1    3    3    0  502  0.42900177778E+03 -0.33703140510E+03  0.53999972090E+03  0.76761579246E+03  0.12699999809E+01 0.  1.
</event>
<event>
 5   0  0.1999104E-06  0.2703801E+04  0.7818609E-02  0.8333773E-01
        2   -1    0    0  501    0  0.00000000000E+00  0.00000000000E+00  0.18853756907E+04  0.18853756907E+04  0.25500000920E-02 0.  1.
       -2   -1    0    0    0  501  0.00000000000E+00  0.00000000000E+00 -0.96937428738E+03  0.96937428738E+03  0.25500000920E-02 0. -1.
    10030    2    1    2    0    0  0.00000000000E+00  0.00000000000E+00  0.91600140330E+03  0.28547499781E+04  0.27038008186E+04 0.  0.
        4    1    3    3  502    0 -0.13114777425E+04 -0.17147187399E+03  0.16263915290E+03  0.13326025588E+04  0.12699999809E+01 0. -1.
       -4    1    3    3    0  502  0.13114777425E+04  0.17147187399E+03  0.75336225040E+03  0.15221474193E+04  0.12699999809E+01 0.  1.
</event>
<event>
 5   0  0.7566905E-07  0.2701944E+04  0.7818609E-02  0.8334374E-01
       -1   -1    0    0    0  501  0.00000000000E+00  0.00000000000E+00  0.99934014255E+03  0.99934014256E+03  0.50400001928E-02 0. -1.
        1   -1    0    0  501    0  0.00000000000E+00  0.00000000000E+00 -0.18263309489E+04  0.18263309489E+04  0.50400001928E-02 0.  1.
    10030    2    1    2    0    0  0.00000000000E+00  0.00000000000E+00 -0.82699080637E+03  0.28256710915E+04  0.27019443598E+04 0.  0.
        1    1    3    3  502    0 -0.22094642056E+03 -0.12926355198E+04 -0.73972188619E+02  0.13134670885E+04  0.50400001928E-02 0. -1.
       -1    1    3    3    0  502  0.22094642056E+03  0.12926355198E+04 -0.75301861775E+03  0.15122040030E+04  0.50400001928E-02 0.  1.
</event>
<event>
 5   0  0.7768032E-07  0.2697311E+04  0.7818609E-02  0.8335878E-01
        1   -1    0    0  501    0  0.00000000000E+00  0.00000000000E+00  0.24288052372E+04  0.24288052372E+04  0.50400001928E-02 0. -1.
       -1   -1    0    0    0  501  0.00000000000E+00  0.00000000000E+00 -0.74887490812E+03  0.74887490813E+03  0.50400001928E-02 0.  1.
    10030    2    1    2    0    0  0.00000000000E+00  0.00000000000E+00  0.16799303291E+04  0.31776801453E+04  0.26973107339E+04 0.  0.
        4    1    3    3  502    0  0.11546810702E+04  0.36997402997E+03  0.14429159603E+03  0.12210613557E+04  0.12699999809E+01 0.  1.
       -4    1    3    3    0  502 -0.11546810702E+04 -0.36997402997E+03  0.15356387330E+04  0.19566187896E+04  0.12699999809E+01 0. -1.
</event>
<event>
 5   0  0.1999104E-06  0.2694547E+04  0.7818609E-02  0.8336776E-01
       -2   -1    0    0    0  501  0.00000000000E+00  0.00000000000E+00  0.13720618428E+04  0.13720618428E+04  0.25500000920E-02 0. -1.
        2   -1    0    0  501    0  0.00000000000E+00  0.00000000000E+00 -0.13229330117E+04  0.13229330117E+04  0.25500000920E-02 0.  1.
    10030    2    1    2    0    0  0.00000000000E+00  0.00000000000E+00  0.49128831039E+02  0.26949948545E+04  0.26945470165E+04 0.  0.
        4    1    3    3  502    0  0.77232844955E+03  0.10354627389E+03 -0.10746774968E+04  0.13274586246E+04  0.12699999809E+01 0.  1.
       -4    1    3    3    0  502 -0.77232844955E+03 -0.10354627389E+03  0.11238063279E+04  0.13675362300E+04  0.12699999809E+01 0. -1.
</event>
<event>
 5   0  0.1999104E-06  0.2689090E+04  0.7818609E-02  0.8338554E-01
       -2   -1    0    0    0  501  0.00000000000E+00  0.00000000000E+00  0.10396078398E+04  0.10396078398E+04  0.25500000920E-02 0.  1.
        2   -1    0    0  501    0  0.00000000000E+00  0.00000000000E+00 -0.17389261192E+04  0.17389261192E+04  0.25500000920E-02 0. -1.
    10030    2    1    2    0    0  0.00000000000E+00  0.00000000000E+00 -0.69931827946E+03  0.27785339590E+04  0.26890899772E+04 0.  0.
        4    1    3    3  502    0 -0.58067011394E+03  0.42607122143E+02 -0.16019138180E+04  0.17044420322E+04  0.12699999809E+01 0. -1.
       -4    1    3    3    0  502  0.58067011394E+03 -0.42607122143E+02  0.90259553852E+03  0.10740919268E+04  0.12699999809E+01 0.  1.
</event>
<event>
 5   0  0.1991277E-06  0.2708819E+04  0.7818609E-02  0.8332149E-01
       -2   -1    0    0    0  501  0.00000000000E+00  0.00000000000E+00  0.60596109520E+03  0.60596109521E+03  0.25500000920E-02 0.  1.
        2   -1    0    0  501    0  0.00000000000E+00  0.00000000000E+00 -0.30272988041E+04  0.30272988041E+04  0.25500000920E-02 0. -1.
    10030    2    1    2    0    0  0.00000000000E+00  0.00000000000E+00 -0.24213377089E+04  0.36332598993E+04  0.27088191515E+04 0.  0.
        5    1    3    3  502    0 -0.48443651018E+03  0.50054455546E+03 -0.27686110542E+04  0.28548997957E+04  0.46999998093E+01 0. -1.
       -5    1    3    3    0  502  0.48443651018E+03 -0.50054455546E+03  0.34727334532E+03  0.77836010353E+03  0.46999998093E+01 0.  1.
</event>
<event>
 5   0  0.2030645E-06  0.2699678E+04  0.7818609E-02  0.8335110E-01
       -2   -1    0    0    0  501  0.00000000000E+00  0.00000000000E+00  0.67236095821E+03  0.67236095822E+03  0.25500000920E-02 0. -1.
        2   -1    0    0  501    0  0.00000000000E+00  0.00000000000E+00 -0.27099504956E+04  0.27099504956E+04  0.25500000920E-02 0.  1.
    10030    2    1    2    0    0  0.00000000000E+00  0.00000000000E+00 -0.20375895374E+04  0.33823114538E+04  0.26996776933E+04 0.  0.
        1    1    3    3  502    0 -0.12013350538E+04 -0.51967664014E+03 -0.60555079810E+03  0.14422071595E+04  0.50400001928E-02 0. -1.
       -1    1    3    3    0  502  0.12013350538E+04  0.51967664014E+03 -0.14320387393E+04  0.19401042943E+04  0.50400001928E-02 0.  1.
</event>
<event>
 5   0  0.6561875E-07  0.2684754E+04  0.7818609E-02  0.8339969E-01
        3   -1    0    0  501    0  0.00000000000E+00  0.00000000000E+00  0.17892005366E+04  0.17892005394E+04  0.10100000352E+00 0.  1.
       -3   -1    0    0    0  501  0.00000000000E+00  0.00000000000E+00 -0.10071402890E+04  0.10071402941E+04  0.10100000352E+00 0. -1.
    10030    2    1    2    0    0  0.00000000000E+00  0.00000000000E+00  0.78206024760E+03  0.27963408335E+04  0.26847539601E+04 0.  0.
        2    1    3    3  502    0  0.63438034217E+03  0.11694953880E+04  0.20524002455E+03  0.13462099943E+04  0.25500000920E-02 0.  1.
       -2    1    3    3    0  502 -0.63438034217E+03 -0.11694953880E+04  0.57682022304E+03  0.14501308392E+04  0.25500000920E-02 0. -1.
</event>
<event>
 5   0  0.1991277E-06  0.2703757E+04  0.7818609E-02  0.8333787E-01
       -2   -1    0    0    0  501  0.00000000000E+00  0.00000000000E+00  0.14914756748E+04  0.14914756748E+04  0.25500000920E-02 0.  1.
        2   -1    0    0  501    0  0.00000000000E+00  0.00000000000E+00 -0.12253473001E+04  0.12253473001E+04  0.25500000920E-02 0. -1.
    10030    2    1    2    0    0  0.00000000000E+00  0.00000000000E+00  0.26612837468E+03  0.27168229750E+04  0.27037571573E+04 0.  0.
        5    1    3    3  502    0  0.12922554314E+04 -0.46156637641E+02  0.52930349091E+03  0.13972253973E+04  0.46999998093E+01 0.  1.
       -5    1    3    3    0  502 -0.12922554314E+04  0.46156637641E+02 -0.26317511622E+03  0.13195975777E+04  0.46999998093E+01 0. -1.
</event>
<event>
 5   0  0.7436613E-07  0.2701419E+04  0.7818609E-02  0.8334545E-01
       -1   -1    0    0    0  501  0.00000000000E+00  0.00000000000E+00  0.98654562812E+03  0.98654562814E+03  0.50400001928E-02 0. -1.
        1   -1    0    0  501    0  0.00000000000E+00  0.00000000000E+00 -0.18492977294E+04  0.18492977294E+04  0.50400001928E-02 0.  1.
    10030    2    1    2    0    0  0.00000000000E+00  0.00000000000E+00 -0.86275210128E+03  0.28358433575E+04  0.27014193233E+04 0.  0.
        2    1    3    3  502    0 -0.62937113144E+03 -0.17017318377E+03 -0.16731809213E+04  0.17957174970E+04  0.25500000920E-02 0.  1.
       -2    1    3    3    0  502  0.62937113144E+03  0.17017318377E+03  0.81042882000E+03  0.10401258606E+04  0.25500000920E-02 0. -1.
</event>
<event>
 5   0  0.1991277E-06  0.2699631E+04  0.7818609E-02  0.8335125E-01
        2   -1    0    0  501    0  0.00000000000E+00  0.00000000000E+00  0.14142512378E+04  0.14142512378E+04  0.25500000920E-02 0.  1.
       -2   -1    0    0    0  501  0.00000000000E+00  0.00000000000E+00 -0.12883153312E+04  0.12883153312E+04  0.25500000920E-02 0. -1.
    10030    2    1    2    0    0  0.00000000000E+00  0.00000000000E+00  0.12593590662E+03  0.27025665690E+04  0.26996307539E+04 0.  0.
        5    1    3    3  502    0 -0.10184965514E+04 -0.88236961160E+03  0.14095070956E+03  0.13549171743E+04  0.46999998093E+01 0. -1.
       -5    1    3    3    0  502  0.10184965514E+04  0.88236961160E+03 -0.15014802939E+02  0.13476493947E+04  0.46999998093E+01 0.  1.
</event>
<event>
 5   0  0.7335091E-07  0.2705415E+04  0.7818609E-02  0.8333250E-01
        1   -1    0    0  501    0  0.00000000000E+00  0.00000000000E+00  0.16531045438E+04  0.16531045438E+04  0.50400001928E-02 0. -1.
       -1   -1    0    0    0  501  0.00000000000E+00  0.00000000000E+00 -0.11068980213E+04  0.11068980213E+04  0.50400001928E-02 0.  1.
    10030    2    1    2    0    0  0.00000000000E+00  0.00000000000E+00  0.54620652246E+03  0.27600025651E+04  0.27054154199E+04 0.  0.
        3    1    3    3  502    0 -0.51139541717E+03  0.74218509859E+03 -0.75593837549E+03  0.11763531914E+04  0.10100000352E+00 0.  1.
       -3    1    3    3    0  502  0.51139541717E+03 -0.74218509859E+03  0.13021448979E+04  0.15836493737E+04  0.10100000352E+00 0. -1.
</event>
<event>
 5   0  0.7768032E-07  0.2699497E+04  0.7818609E-02  0.8335168E-01
        1   -1    0    0  501    0  0.00000000000E+00  0.00000000000E+00  0.92481998494E+03  0.92481998495E+03  0.50400001928E-02 0. -1.
       -1   -1    0    0    0  501  0.00000000000E+00  0.00000000000E+00 -0.19699199459E+04  0.19699199459E+04  0.50400001928E-02 0.  1.
    10030    2    1    2    0    0  0.00000000000E+00  0.00000000000E+00 -0.10450999609E+04  0.28947399308E+04  0.26994972382E+04 0.  0.
        4    1    3    3  502    0 -0.84585137083E+03 -0.57758889194E+03  0.42008839922E+03  0.11070453223E+04  0.12699999809E+01 0. -1.
       -4    1    3    3    0  502  0.84585137083E+03  0.57758889194E+03 -0.14651883602E+04  0.17876946085E+04  0.12699999809E+01 0.  1.
</event>
<event>
 5   0  0.7335091E-07  0.2700045E+04  0.7818609E-02  0.8334990E-01
        1   -1    0    0  501    0  0.00000000000E+00  0.00000000000E+00  0.15744727960E+04  0.15744727960E+04  0.50400001928E-02 0.  1.
       -1   -1    0    0    0  501  0.00000000000E+00  0.00000000000E+00 -0.11575693296E+04  0.11575693296E+04  0.50400001928E-02 0. -1.
    10030    2    1    2    0    0  0.00000000000E+00  0.00000000000E+00  0.41690346646E+03  0.27320421256E+04  0.27000454951E+04 0.  0.
        3    1    3    3  502    0  0.13481726917E+04 -0.37076634552E+02  0.14759647839E+03  0.13567346882E+04  0.10100000352E+00 0. -1.
       -3    1    3    3    0  502 -0.13481726917E+04  0.37076634552E+02  0.26930698807E+03  0.13753074374E+04  0.10100000352E+00 0.  1.
</event>
<event>
 5   0  0.7335091E-07  0.2693637E+04  0.7818609E-02  0.8337073E-01
        1   -1    0    0  501    0  0.00000000000E+00  0.00000000000E+00  0.87996672802E+03  0.87996672803E+03  0.50400001928E-02 0. -1.
       -1   -1    0    0    0  501  0.00000000000E+00  0.00000000000E+00 -0.20613501121E+04  0.20613501121E+04  0.50400001928E-02 0.  1.
    10030    2    1    2    0    0  0.00000000000E+00  0.00000000000E+00 -0.11813833841E+04  0.29413168401E+04  0.26936365853E+04 0.  0.
        3    1    3    3  502    0  0.65678344385E+03  0.11737872612E+04 -0.66617441208E+03  0.15009761438E+04  0.10100000352E+00 0.  1.
       -3    1    3    3    0  502 -0.65678344385E+03 -0.11737872612E+04 -0.51520897201E+03  0.14403406964E+04  0.10100000352E+00 0. -1.
</event>
<event>
 5   0  0.1932012E-06  0.2755390E+04  0.7818609E-02  0.8317253E-01
       -2   -1    0    0    0  501  0.00000000000E+00  0.00000000000E+00  0.11020397924E+04  0.11020397924E+04  0.25500000920E-02 0.  1.
        2   -1    0    0  501    0  0.00000000000E+00  0.00000000000E+00 -0.17222998656E+04  0.17222998656E+04  0.25500000920E-02 0. -1.
    10030    2    1    2    0    0  0.00000000000E+00  0.00000000000E+00 -0.62026007320E+03  0.28243396579E+04  0.27553896176E+04 0.  0.
        2    1    3    3  502    0 -0.46428508170E+03  0.58165049446E+03 -0.14985233685E+04  0.16731557670E+04  0.25500000920E-02 0. -1.
       -2    1    3    3    0  502  0.46428508170E+03 -0.58165049446E+03  0.87826329529E+03  0.11511838909E+04  0.25500000920E-02 0.  1.
</event>
<event>
 5   0  0.7806808E-07  0.2696293E+04  0.7818609E-02  0.8336209E-01
       -1   -1    0    0    0  501  0.00000000000E+00  0.00000000000E+00  0.98735543834E+03  0.98735543836E+03  0.50400001928E-02 0.  1.
        1   -1    0    0  501    0  0.00000000000E+00  0.00000000000E+00 -0.18407744450E+04  0.18407744450E+04  0.50400001928E-02 0. -1.
    10030    2    1    2    0    0  0.00000000000E+00  0.00000000000E+00 -0.85341900667E+03  0.28281298834E+04  0.26962927579E+04 0.  0.
        5    1    3    3  502    0 -0.51408276019E+03 -0.11253401329E+04  0.13501803807E+03  0.12445575357E+04  0.46999998093E+01 0.  1.
       -5    1    3    3    0  502  0.51408276019E+03  0.11253401329E+04 -0.98843704474E+03  0.15835723477E+04  0.46999998093E+01 0. -1.
</event>
<event>
 5   0  0.7436613E-07  0.2692690E+04  0.7818609E-02  0.8337381E-01
        1   -1    0    0  501    0  0.00000000000E+00  0.00000000000E+00  0.13315106799E+04  0.13315106800E+04  0.50400001928E-02 0. -1.
       -1   -1    0    0    0  501  0.00000000000E+00  0.00000000000E+00 -0.13613447799E+04  0.13613447799E+04  0.50400001928E-02 0.  1.
    10030    2    1    2    0    0  0.00000000000E+00  0.00000000000E+00 -0.29834099984E+02  0.26928554599E+04  0.26926901891E+04 0.  0.
        2    1    3    3  502    0  0.19506519425E+03 -0.11392274343E+04 -0.70543429270E+03  0.13540779588E+04  0.25500000920E-02 0.  1.
       -2    1    3    3    0  502 -0.19506519425E+03  0.11392274343E+04  0.67560019271E+03  0.13387775011E+04  0.25500000920E-02 0. -1.
</event>
<event>
 5   0  0.7335091E-07  0.2716957E+04  0.7818609E-02  0.8329524E-01
        1   -1    0    0  501    0  0.00000000000E+00  0.00000000000E+00  0.81976680195E+03  0.81976680197E+03  0.50400001928E-02 0.  1.
       -1   -1    0    0    0  501  0.00000000000E+00  0.00000000000E+00 -0.22512061079E+04  0.22512061079E+04  0.50400001928E-02 0. -1.
    10030    2    1    2    0    0  0.00000000000E+00  0.00000000000E+00 -0.14314393060E+04  0.30709729099E+04  0.27169571448E+04 0.  0.
        3    1    3    3  502    0  0.12104573027E+04  0.53660388712E+03 -0.37229964823E+03  0.13754118116E+04  0.10100000352E+00 0.  1.
       -3    1    3    3    0  502 -0.12104573027E+04 -0.53660388712E+03 -0.10591396577E+04  0.16955610983E+04  0.10100000352E+00 0. -1.
</event>
<event>
 5   0  0.2030645E-06  0.2698444E+04  0.7818609E-02  0.8335510E-01
        2   -1    0    0  501    0  0.00000000000E+00  0.00000000000E+00  0.21002370642E+04  0.21002370642E+04  0.25500000920E-02 0.  1.
       -2   -1    0    0    0  501  0.00000000000E+00  0.00000000000E+00 -0.86675922189E+03  0.86675922190E+03  0.25500000920E-02 0. -1.
    10030    2    1    2    0    0  0.00000000000E+00  0.00000000000E+00  0.12334778423E+04  0.29669962861E+04  0.26984438802E+04 0.  0.
        1    1    3    3  502    0  0.49161927809E+03 -0.42290948604E+03 -0.68416609373E+03  0.94266918471E+03  0.50400001928E-02 0.  1.
       -1    1    3    3    0  502 -0.49161927809E+03  0.42290948604E+03  0.19176439361E+04  0.20243271014E+04  0.50400001928E-02 0. -1.
</event>
<event>
 5   0  0.1932012E-06  0.2705174E+04  0.7818609E-02  0.8333328E-01
       -2   -1    0    0    0  501  0.00000000000E+00  0.00000000000E+00  0.13725972110E+04  0.13725972110E+04  0.25500000920E-02 0. -1.
        2   -1    0    0  501    0  0.00000000000E+00  0.00000000000E+00 -0.13328685904E+04  0.13328685904E+04  0.25500000920E-02 0.  1.
    10030    2    1    2    0    0  0.00000000000E+00  0.00000000000E+00  0.39728620532E+02  0.27054658014E+04  0.27051740867E+04 0.  0.
        2    1    3    3  502    0 -0.12067691128E+04 -0.56971445994E+03 -0.20067126536E+03  0.13494944291E+04  0.25500000920E-02 0. -1.
       -2    1    3    3    0  502  0.12067691128E+04  0.56971445994E+03  0.24039988589E+03  0.13559713723E+04  0.25500000920E-02 0.  1.
</event>
<event>
 5   0  0.7335091E-07  0.2700647E+04  0.7818609E-02  0.8334795E-01
        1   -1    0    0  501    0  0.00000000000E+00  0.00000000000E+00  0.16074421410E+04  0.16074421410E+04  0.50400001928E-02 0.  1.
       -1   -1    0    0    0  501  0.00000000000E+00  0.00000000000E+00 -0.11343319917E+04  0.11343319917E+04  0.50400001928E-02 0. -1.
    10030    2    1    2    0    0  0.00000000000E+00  0.00000000000E+00  0.47311014937E+03  0.27417741327E+04  0.27006466228E+04 0.  0.
        3    1    3    3  502    0  0.67902913154E+03  0.89475838303E+03 -0.52432478908E+03  0.12395925218E+04  0.10100000352E+00 0. -1.
       -3    1    3    3    0  502 -0.67902913154E+03 -0.89475838303E+03  0.99743493845E+03  0.15021816109E+04  0.10100000352E+00 0.  1.
</event>
<event>
 5   0  0.2030645E-06  0.2712225E+04  0.7818609E-02  0.8331049E-01
       -2   -1    0    0    0  501  0.00000000000E+00  0.00000000000E+00  0.22772295094E+04  0.22772295094E+04  0.25500000920E-02 0. -1.
        2   -1    0    0  501    0  0.00000000000E+00  0.00000000000E+00 -0.80757801047E+03  0.80757801047E+03  0.25500000920E-02 0.  1.
    10030    2    1    2    0    0  0.00000000000E+00  0.00000000000E+00  0.14696514989E+04  0.30848075199E+04  0.27122245310E+04 0.  0.
        1    1    3    3  502    0 -0.28033106867E+03  0.61688147819E+02  0.22422829637E+04  0.22605804177E+04  0.50400001928E-02 0. -1.
       -1    1    3    3    0  502  0.28033106867E+03 -0.61688147819E+02 -0.77263146474E+03  0.82422710218E+03  0.50400001928E-02 0.  1.
</event>
<event>
 5   0  0.7566905E-07  0.2699957E+04  0.7818609E-02  0.8335019E-01
        1   -1    0    0  501    0  0.00000000000E+00  0.00000000000E+00  0.13970297910E+04  0.13970297910E+04  0.50400001928E-02 0. -1.
       -1   -1    0    0    0  501  0.00000000000E+00  0.00000000000E+00 -0.13045120818E+04  0.13045120818E+04  0.50400001928E-02 0.  1.
    10030    2    1    2    0    0  0.00000000000E+00  0.00000000000E+00  0.92517709228E+02  0.27015418728E+04  0.26999572152E+04 0.  0.
        1    1    3    3  502    0  0.80236414667E+03  0.10560710324E+04  0.29813659710E+03  0.13593968074E+04  0.50400001928E-02 0.  1.
       -1    1    3    3    0  502 -0.80236414667E+03 -0.10560710324E+04 -0.20561888787E+03  0.13421450654E+04  0.50400001928E-02 0. -1.
</event>
<event>
 5   0  0.7335091E-07  0.2701567E+04  0.7818609E-02  0.8334497E-01
       -1   -1    0    0    0  501  0.00000000000E+00  0.00000000000E+00  0.14366735918E+04  0.14366735918E+04  0.50400001928E-02 0.  1.
        1   -1    0    0  501    0  0.00000000000E+00  0.00000000000E+00 -0.12700282107E+04  0.12700282107E+04  0.50400001928E-02 0. -1.
    10030    2    1    2    0    0  0.00000000000E+00  0.00000000000E+00  0.16664538118E+03  0.27067018025E+04  0.27015669462E+04 0.  0.
        3    1    3    3  502    0  0.57611839272E+03  0.11167108829E+04  0.57990613899E+03  0.13839243977E+04  0.10100000352E+00 0. -1.
       -3    1    3    3    0  502 -0.57611839272E+03 -0.11167108829E+04 -0.41326075780E+03  0.13227774048E+04  0.10100000352E+00 0.  1.
</event>
<event>
 5   0  0.1999104E-06  0.2705944E+04  0.7818609E-02  0.8333079E-01
       -2   -1    0    0    0  501  0.00000000000E+00  0.00000000000E+00  0.14508422791E+04  0.14508422791E+04  0.25500000920E-02 0. -1.
        2   -1    0    0  501    0  0.00000000000E+00  0.00000000000E+00 -0.12617037331E+04  0.12617037331E+04  0.25500000920E-02 0.  1.
    10030    2    1    2    0    0  0.00000000000E+00  0.00000000000E+00  0.18913854598E+03  0.27125460123E+04  0.27059439165E+04 0.  0.
        4    1    3    3  502    0  0.32841231393E+03  0.11769906058E+04  0.67682200600E+03  0.13968719249E+04  0.12699999809E+01 0. -1.
       -4    1    3    3    0  502 -0.32841231393E+03 -0.11769906058E+04 -0.48768346002E+03  0.13156740873E+04  0.12699999809E+01 0.  1.
</event>
<event>
 5   0  0.7436613E-07  0.2700256E+04  0.7818609E-02  0.8334922E-01
       -1   -1    0    0    0  501  0.00000000000E+00  0.00000000000E+00  0.90460310859E+03  0.90460310860E+03  0.50400001928E-02 0.  1.
        1   -1    0    0  501    0  0.00000000000E+00  0.00000000000E+00 -0.20150780692E+04  0.20150780692E+04  0.50400001928E-02 0. -1.
    10030    2    1    2    0    0  0.00000000000E+00  0.00000000000E+00 -0.11104749606E+04  0.29196811778E+04  0.27002561993E+04 0.  0.
        2    1    3    3  502    0 -0.26759842134E+03 -0.13093364742E+04 -0.76287043436E+03  0.15388119500E+04  0.25500000920E-02 0. -1.
       -2    1    3    3    0  502  0.26759842134E+03  0.13093364742E+04 -0.34760452628E+03  0.13808692279E+04  0.25500000920E-02 0.  1.
</event>
<event>
 5   0  0.2030645E-06  0.2702794E+04  0.7818609E-02  0.8334099E-01
       -2   -1    0    0    0  501  0.00000000000E+00  0.00000000000E+00  0.12509636766E+04  0.12509636766E+04  0.25500000920E-02 0. -1.
        2   -1    0    0  501    0  0.00000000000E+00  0.00000000000E+00 -0.14598930636E+04  0.14598930636E+04  0.25500000920E-02 0.  1.
    10030    2    1    2    0    0  0.00000000000E+00  0.00000000000E+00 -0.20892938696E+03  0.27108567402E+04  0.27027935136E+04 0.  0.
        1    1    3    3  502    0 -0.11161367166E+04  0.67572015615E+03 -0.45752947921E+03  0.13826395496E+04  0.50400001928E-02 0.  1.
       -1    1    3    3    0  502  0.11161367166E+04 -0.67572015615E+03  0.24860009225E+03  0.13282171907E+04  0.50400001928E-02 0. -1.
</event>
<event>
 5   0  0.1991277E-06  0.2702805E+04  0.7818609E-02  0.8334096E-01
       -2   -1    0    0    0  501  0.00000000000E+00  0.00000000000E+00  0.10430973351E+04  0.10430973351E+04  0.25500000920E-02 0.  1.
        2   -1    0    0  501    0  0.00000000000E+00  0.00000000000E+00 -0.17508319497E+04  0.17508319497E+04  0.25500000920E-02 0. -1.
    10030    2    1    2    0    0  0.00000000000E+00  0.00000000000E+00 -0.70773461465E+03  0.27939292848E+04  0.27028045738E+04 0.  0.
        5    1    3    3  502    0 -0.91779625467E+03  0.78142711842E+03  0.27770434752E+03  0.12369802347E+04  0.46999998093E+01 0.  1.
       -5    1    3    3    0  502  0.91779625467E+03 -0.78142711842E+03 -0.98543896217E+03  0.15569490501E+04  0.46999998093E+01 0. -1.
</event>
<event>
 5   0  0.1999104E-06  0.2702982E+04  0.7818609E-02  0.8334038E-01
       -2   -1    0    0    0  501  0.00000000000E+00  0.00000000000E+00  0.11451690272E+04  0.11451690272E+04  0.25500000920E-02 0.  1.
        2   -1    0    0  501    0  0.00000000000E+00  0.00000000000E+00 -0.15949852736E+04  0.15949852736E+04  0.25500000920E-02 0. -1.
    10030    2    1    2    0    0  0.00000000000E+00  0.00000000000E+00 -0.44981624643E+03  0.27401543009E+04  0.27029818603E+04 0.  0.
        4    1    3    3  502    0  0.23260354873E+03  0.10420571848E+03  0.11205833903E+04  0.11492049382E+04  0.12699999809E+01 0.  1.
       -4    1    3    3    0  502 -0.23260354873E+03 -0.10420571848E+03 -0.15703996367E+04  0.15909493626E+04  0.12699999809E+01 0. -1.
</event>
<event>
 5   0  0.7335091E-07  0.2698174E+04  0.7818609E-02  0.8335598E-01
       -1   -1    0    0    0  501  0.00000000000E+00  0.00000000000E+00  0.88164316658E+03  0.88164316660E+03  0.50400001928E-02 0.  1.
        1   -1    0    0  501    0  0.00000000000E+00  0.00000000000E+00 -0.20643682582E+04  0.20643682582E+04  0.50400001928E-02 0. -1.
    10030    2    1    2    0    0  0.00000000000E+00  0.00000000000E+00 -0.11827250916E+04  0.29460114248E+04  0.26981743221E+04 0.  0.
        3    1    3    3  502    0 -0.12378176335E+04 -0.51735704276E+03 -0.74648783731E+03  0.15352833306E+04  0.10100000352E+00 0.  1.
       -3    1    3    3    0  502  0.12378176335E+04  0.51735704276E+03 -0.43623725429E+03  0.14107280942E+04  0.10100000352E+00 0. -1.
</event>
<event>
 5   0  0.7335091E-07  0.2699355E+04  0.7818609E-02  0.8335214E-01
       -1   -1    0    0    0  501  0.00000000000E+00  0.00000000000E+00  0.14664596757E+04  0.14664596757E+04  0.50400001928E-02 0. -1.
        1   -1    0    0  501    0  0.00000000000E+00  0.00000000000E+00 -0.12421955288E+04  0.12421955288E+04  0.50400001928E-02 0.  1.
    10030    2    1    2    0    0  0.00000000000E+00  0.00000000000E+00  0.22426414692E+03  0.27086552045E+04  0.26993552211E+04 0.  0.
        3    1    3    3  502    0  0.51585110704E+03  0.11624857277E+04  0.56552303362E+03  0.13918662808E+04  0.10100000352E+00 0. -1.
       -3    1    3    3    0  502 -0.51585110704E+03 -0.11624857277E+04 -0.34125888670E+03  0.13167889238E+04  0.10100000352E+00 0.  1.
</event>
<event>
 5   0  0.2063087E-06  0.2698329E+04  0.7818609E-02  0.8335547E-01
       -2   -1    0    0    0  501  0.00000000000E+00  0.00000000000E+00  0.80512802113E+03  0.80512802113E+03  0.25500000920E-02 0. -1.
        2   -1    0    0  501    0  0.00000000000E+00  0.00000000000E+00 -0.22608144889E+04  0.22608144889E+04  0.25500000920E-02 0.  1.
    10030    2    1    2    0    0  0.00000000000E+00  0.00000000000E+00 -0.14556864678E+04  0.30659425101E+04  0.26983291835E+04 0.  0.
        3    1    3    3  502    0 -0.12526307408E+04  0.95662131943E+02 -0.16887671600E+03  0.12675781521E+04  0.10100000352E+00 0. -1.
       -3    1    3    3    0  502  0.12526307408E+04 -0.95662131943E+02 -0.12868097518E+04  0.17983643579E+04  0.10100000352E+00 0.  1.
</event>
<event>
 5   0  0.1999104E-06  0.2657206E+04  0.7818609E-02  0.8349025E-01
        2   -1    0    0  501    0  0.00000000000E+00  0.00000000000E+00  0.12920075626E+04  0.12920075626E+04  0.25500000920E-02 0. -1.
       -2   -1    0    0    0  501  0.00000000000E+00  0.00000000000E+00 -0.13662350860E+04  0.13662350860E+04  0.25500000920E-02 0.  1.
    10030    2    1    2    0    0  0.00000000000E+00  0.00000000000E+00 -0.74227523371E+02  0.26582426485E+04  0.26572060991E+04 0.  0.
        4    1    3    3  502    0  0.89110031799E+02  0.87020511786E+03  0.96326977844E+03  0.13011870826E+04  0.12699999809E+01 0. -1.
       -4    1    3    3    0  502 -0.89110031799E+02 -0.87020511786E+03 -0.10374973018E+04  0.13570555660E+04  0.12699999809E+01 0.  1.
</event>
<event>
 5   0  0.7768032E-07  0.2696020E+04  0.7818609E-02  0.8336298E-01
        1   -1    0    0  501    0  0.00000000000E+00  0.00000000000E+00  0.16715247916E+04  0.16715247916E+04  0.50400001928E-02 0. -1.
       -1   -1    0    0    0  501  0.00000000000E+00  0.00000000000E+00 -0.10871095165E+04  0.10871095165E+04  0.50400001928E-02 0.  1.
    10030    2    1    2    0    0  0.00000000000E+00  0.00000000000E+00  0.58441527504E+03  0.27586343081E+04  0.26960196647E+04 0.  0.
        4    1    3    3  502    0  0.12383339628E+04  0.39528870329E+03 -0.73020188352E+02  0.13019438249E+04  0.12699999809E+01 0.  1.
       -4    1    3    3    0  502 -0.12383339628E+04 -0.39528870329E+03  0.65743546339E+03  0.14566904832E+04  0.12699999809E+01 0. -1.
</event>
<event>
 5   0  0.7566905E-07  0.2697484E+04  0.7818609E-02  0.8335822E-01
       -1   -1    0    0    0  501  0.00000000000E+00  0.00000000000E+00  0.84763229183E+03  0.84763229184E+03  0.50400001928E-02 0.  1.
        1   -1    0    0  501    0  0.00000000000E+00  0.00000000000E+00 -0.21461020591E+04  0.21461020591E+04  0.50400001928E-02 0. -1.
    10030    2    1    2    0    0  0.00000000000E+00  0.00000000000E+00 -0.12984697673E+04  0.29937343510E+04  0.26974843146E+04 0.  0.
        1    1    3    3  502    0  0.73609198153E+03  0.10913790441E+04 -0.97501288439E+03  0.16381665813E+04  0.50400001928E-02 0. -1.
       -1    1    3    3    0  502 -0.73609198153E+03 -0.10913790441E+04 -0.32345688292E+03  0.13555677697E+04  0.50400001928E-02 0.  1.
</event>
<event>
 5   0  0.7436613E-07  0.2699376E+04  0.7818609E-02  0.8335207E-01
       -1   -1    0    0    0  501  0.00000000000E+00  0.00000000000E+00  0.14954742596E+04  0.14954742596E+04  0.50400001928E-02 0. -1.
        1   -1    0    0  501    0  0.00000000000E+00  0.00000000000E+00 -0.12181140516E+04  0.12181140516E+04  0.50400001928E-02 0.  1.
    10030    2    1    2    0    0  0.00000000000E+00  0.00000000000E+00  0.27736020799E+03  0.27135883112E+04  0.26993763794E+04 0.  0.
        2    1    3    3  502    0  0.11028452798E+04 -0.59662068690E+03 -0.36338329689E+03  0.13054774512E+04  0.25500000920E-02 0.  1.
       -2    1    3    3    0  502 -0.11028452798E+04  0.59662068690E+03  0.64074350488E+03  0.14081108600E+04  0.25500000920E-02 0. -1.
</event>
<event>
 5   0  0.1999104E-06  0.2696385E+04  0.7818609E-02  0.8336179E-01
       -2   -1    0    0    0  501  0.00000000000E+00  0.00000000000E+00  0.12091222706E+04  0.12091222706E+04  0.25500000920E-02 0. -1.
        2   -1    0    0  501    0  0.00000000000E+00  0.00000000000E+00 -0.15032584970E+04  0.15032584970E+04  0.25500000920E-02 0.  1.
    10030    2    1    2    0    0  0.00000000000E+00  0.00000000000E+00 -0.29413622641E+03  0.27123807675E+04  0.26963852300E+04 0.  0.
        4    1    3    3  502    0 -0.28356370853E+03 -0.43269950904E+02 -0.14722062006E+04  0.14998911212E+04  0.12699999809E+01 0.  1.
       -4    1    3    3    0  502  0.28356370853E+03  0.43269950904E+02  0.11780699742E+04  0.12124896463E+04  0.12699999809E+01 0. -1.
</event>
<event>
 5   0  0.1999104E-06  0.2701064E+04  0.7818609E-02  0.8334660E-01
       -2   -1    0    0    0  501  0.00000000000E+00  0.00000000000E+00  0.12365509183E+04  0.12365509183E+04  0.25500000920E-02 0. -1.
        2   -1    0    0  501    0  0.00000000000E+00  0.00000000000E+00 -0.14750194098E+04  0.14750194098E+04  0.25500000920E-02 0.  1.
    10030    2    1    2    0    0  0.00000000000E+00  0.00000000000E+00 -0.23846849148E+03  0.27115703281E+04  0.27010639427E+04 0.  0.
        4    1    3    3  502    0  0.11013923140E+04 -0.68531899374E+03  0.25800373608E+03  0.13226090478E+04  0.12699999809E+01 0. -1.
       -4    1    3    3    0  502 -0.11013923140E+04  0.68531899374E+03 -0.49647222756E+03  0.13889612803E+04  0.12699999809E+01 0.  1.
</event>
<event>
 5   0  0.1991277E-06  0.2690908E+04  0.7818609E-02  0.8337961E-01
       -2   -1    0    0    0  501  0.00000000000E+00  0.00000000000E+00  0.86915917327E+03  0.86915917327E+03  0.25500000920E-02 0. -1.
        2   -1    0    0  501    0  0.00000000000E+00  0.00000000000E+00 -0.20827557269E+04  0.20827557269E+04  0.25500000920E-02 0.  1.
    10030    2    1    2    0    0  0.00000000000E+00  0.00000000000E+00 -0.12135965537E+04  0.29519149002E+04  0.26909078362E+04 0.  0.
        5    1    3    3  502    0 -0.31874402403E+03 -0.32042770867E+03 -0.19969793001E+04  0.20474911683E+04  0.46999998093E+01 0.  1.
       -5    1    3    3    0  502  0.31874402403E+03  0.32042770867E+03  0.78338274645E+03  0.90442373187E+03  0.46999998093E+01 0. -1.
</event>
<event>
 5   0  0.7335091E-07  0.2703722E+04  0.7818609E-02  0.8333798E-01
        1   -1    0    0  501    0  0.00000000000E+00  0.00000000000E+00  0.10894555551E+04  0.10894555551E+04  0.50400001928E-02 0. -1.
       -1   -1    0    0    0  501  0.00000000000E+00  0.00000000000E+00 -0.16774687184E+04  0.16774687184E+04  0.50400001928E-02 0.  1.
    10030    2    1    2    0    0  0.00000000000E+00  0.00000000000E+00 -0.58801316330E+03  0.27669242736E+04  0.27037215935E+04 0.  0.
        3    1    3    3  502    0 -0.38282116650E+03  0.46389582796E+03 -0.15330003995E+04  0.16467670205E+04  0.10100000352E+00 0.  1.
       -3    1    3    3    0  502  0.38282116650E+03 -0.46389582796E+03  0.94498723622E+03  0.11201572530E+04  0.10100000352E+00 0. -1.
</event>
<event>
 5   0  0.7436613E-07  0.2698860E+04  0.7818609E-02  0.8335375E-01
        1   -1    0    0  501    0  0.00000000000E+00  0.00000000000E+00  0.71024315544E+03  0.71024315546E+03  0.50400001928E-02 0.  1.
       -1   -1    0    0    0  501  0.00000000000E+00  0.00000000000E+00 -0.25638567356E+04  0.25638567356E+04  0.50400001928E-02 0. -1.
    10030    2    1    2    0    0  0.00000000000E+00  0.00000000000E+00 -0.18536135801E+04  0.32740998910E+04  0.26988602765E+04 0.  0.
        2    1    3    3  502    0 -0.93642045216E+03  0.92310132838E+03 -0.12946956247E+04  0.18453281785E+04  0.25500000920E-02 0. -1.
       -2    1    3    3    0  502  0.93642045216E+03 -0.92310132838E+03 -0.55891795544E+03  0.14287717126E+04  0.25500000920E-02 0.  1.
</event>
<event>
 5   0  0.2030645E-06  0.2697910E+04  0.7818609E-02  0.8335683E-01
        2   -1    0    0  501    0  0.00000000000E+00  0.00000000000E+00  0.10832258215E+04  0.10832258215E+04  0.25500000920E-02 0. -1.
       -2   -1    0    0    0  501  0.00000000000E+00  0.00000000000E+00 -0.16798711419E+04  0.16798711419E+04  0.25500000920E-02 0.  1.
    10030    2    1    2    0    0  0.00000000000E+00  0.00000000000E+00 -0.59664532032E+03  0.27630969634E+04  0.26979101525E+04 0.  0.
        1    1    3    3  502    0  0.11627674409E+04  0.59954161858E+03  0.38565176813E+02  0.13088030971E+04  0.50400001928E-02 0. -1.
       -1    1    3    3    0  502 -0.11627674409E+04 -0.59954161858E+03 -0.63521049713E+03  0.14542938663E+04  0.50400001928E-02 0.  1.
</event>
<event>
 5   0  0.7768032E-07  0.2703376E+04  0.7818609E-02  0.8333910E-01
        1   -1    0    0  501    0  0.00000000000E+00  0.00000000000E+00  0.11531895850E+04  0.11531895850E+04  0.50400001928E-02 0. -1.
       -1   -1    0    0    0  501  0.00000000000E+00  0.00000000000E+00 -0.15843539032E+04  0.15843539032E+04  0.50400001928E-02 0.  1.
    10030    2    1    2    0    0  0.00000000000E+00  0.00000000000E+00 -0.43116431826E+03  0.27375434882E+04  0.27033759784E+04 0.  0.
        4    1    3    3  502    0  0.13323654851E+04  0.21459748691E+03 -0.29276184737E+03  0.13809275794E+04  0.12699999809E+01 0. -1.
       -4    1    3    3    0  502 -0.13323654851E+04 -0.21459748691E+03 -0.13840247089E+03  0.13566159089E+04  0.12699999809E+01 0.  1.
</event>
<event>
 5   0  0.2030645E-06  0.2700509E+04  0.7818609E-02  0.8334840E-01
       -2   -1    0    0    0  501  0.00000000000E+00  0.00000000000E+00  0.11668878951E+04  0.11668878951E+04  0.25500000920E-02 0.  1.
        2   -1    0    0  501    0  0.00000000000E+00  0.00000000000E+00 -0.15624354956E+04  0.15624354956E+04  0.25500000920E-02 0. -1.
    10030    2    1    2    0    0  0.00000000000E+00  0.00000000000E+00 -0.39554760050E+03  0.27293233907E+04  0.27005088904E+04 0.  0.
        1    1    3    3  502    0 -0.10324092018E+04  0.71608352413E+03 -0.69756284393E+03  0.14370936973E+04  0.50400001928E-02 0. -1.
       -1    1    3    3    0  502  0.10324092018E+04 -0.71608352413E+03  0.30201524343E+03  0.12922296935E+04  0.50400001928E-02 0.  1.
</event>
<event>
 5   0  0.1932012E-06  0.2714725E+04  0.7818609E-02  0.8330243E-01
       -2   -1    0    0    0  501  0.00000000000E+00  0.00000000000E+00  0.14082253215E+04  0.14082253215E+04  0.25500000920E-02 0.  1.
        2   -1    0    0  501    0  0.00000000000E+00  0.00000000000E+00 -0.13083368682E+04  0.13083368682E+04  0.25500000920E-02 0. -1.
    10030    2    1    2    0    0  0.00000000000E+00  0.00000000000E+00  0.99888453386E+02  0.27165621897E+04  0.27147251108E+04 0.  0.
        2    1    3    3  502    0  0.10645860285E+04 -0.81260088472E+03 -0.17104338547E+03  0.13501553428E+04  0.25500000920E-02 0. -1.
       -2    1    3    3    0  502 -0.10645860285E+04  0.81260088472E+03  0.27093183885E+03  0.13664068469E+04  0.25500000920E-02 0.  1.
</event>
<event>
 5   0  0.7566905E-07  0.2696704E+04  0.7818609E-02  0.8336075E-01
        1   -1    0    0  501    0  0.00000000000E+00  0.00000000000E+00  0.15233928160E+04  0.15233928160E+04  0.50400001928E-02 0.  1.
       -1   -1    0    0    0  501  0.00000000000E+00  0.00000000000E+00 -0.11934237341E+04  0.11934237341E+04  0.50400001928E-02 0. -1.
    10030    2    1    2    0    0  0.00000000000E+00  0.00000000000E+00  0.32996908189E+03  0.27168165501E+04  0.26967040200E+04 0.  0.
        1    1    3    3  502    0 -0.10523504620E+04 -0.79192093798E+03  0.45605606533E+03  0.13937601664E+04  0.50400001928E-02 0. -1.
       -1    1    3    3    0  502  0.10523504620E+04  0.79192093798E+03 -0.12608698343E+03  0.13230563836E+04  0.50400001928E-02 0.  1.
</event>
<event>
 5   0  0.1999104E-06  0.2701440E+04  0.7818609E-02  0.8334538E-01
       -2   -1    0    0    0  501  0.00000000000E+00  0.00000000000E+00  0.12767691247E+04  0.12767691247E+04  0.25500000920E-02 0. -1.
        2   -1    0    0  501    0  0.00000000000E+00  0.00000000000E+00 -0.14289543149E+04  0.14289543149E+04  0.25500000920E-02 0.  1.
    10030    2    1    2    0    0  0.00000000000E+00  0.00000000000E+00 -0.15218519025E+03  0.27057234397E+04  0.27014401714E+04 0.  0.
        4    1    3    3  502    0 -0.83775556319E+03  0.10255366162E+04  0.19056891067E+03  0.13378631685E+04  0.12699999809E+01 0. -1.
       -4    1    3    3    0  502  0.83775556319E+03 -0.10255366162E+04 -0.34275410092E+03  0.13678602712E+04  0.12699999809E+01 0.  1.
</event>
<event>
 5   0  0.7335091E-07  0.2668075E+04  0.7818609E-02  0.8345439E-01
       -1   -1    0    0    0  501  0.00000000000E+00  0.00000000000E+00  0.10715455401E+04  0.10715455401E+04  0.50400001928E-02 0. -1.
        1   -1    0    0  501    0  0.00000000000E+00  0.00000000000E+00 -0.16608305239E+04  0.16608305239E+04  0.50400001928E-02 0.  1.
    10030    2    1    2    0    0  0.00000000000E+00  0.00000000000E+00 -0.58928498384E+03  0.27323760640E+04  0.26680746172E+04 0.  0.
        3    1    3    3  502    0  0.11827884163E+04 -0.54836479810E+03 -0.58423506738E+03  0.14286437673E+04  0.10100000352E+00 0.  1.
       -3    1    3    3    0  502 -0.11827884163E+04  0.54836479810E+03 -0.50499164508E+01  0.13037322967E+04  0.10100000352E+00 0. -1.
</event>
<event>
 5   0  0.1991277E-06  0.2702639E+04  0.7818609E-02  0.8334149E-01
       -2   -1    0    0    0  501  0.00000000000E+00  0.00000000000E+00  0.12916409913E+04  0.12916409913E+04  0.25500000920E-02 0. -1.
        2   -1    0    0  501    0  0.00000000000E+00  0.00000000000E+00 -0.14137558546E+04  0.14137558546E+04  0.25500000920E-02 0.  1.
    10030    2    1    2    0    0  0.00000000000E+00  0.00000000000E+00 -0.12211486325E+03  0.27053968459E+04  0.27026394606E+04 0.  0.
        5    1    3    3  502    0  0.89024679143E+02  0.11079318732E+04  0.70823461001E+03  0.13179744997E+04  0.46999998093E+01 0. -1.
       -5    1    3    3    0  502 -0.89024679143E+02 -0.11079318732E+04 -0.83034947327E+03  0.13874223462E+04  0.46999998093E+01 0.  1.
</event>
<event>
 5   0  0.1991277E-06  0.2700276E+04  0.7818609E-02  0.8334916E-01
        2   -1    0    0  501    0  0.00000000000E+00  0.00000000000E+00  0.13681953644E+04  0.13681953644E+04  0.25500000920E-02 0.  1.
       -2   -1    0    0    0  501  0.00000000000E+00  0.00000000000E+00 -0.13323184934E+04  0.13323184934E+04  0.25500000920E-02 0. -1.
    10030    2    1    2    0    0  0.00000000000E+00  0.00000000000E+00  0.35876871079E+02  0.27005138578E+04  0.27002755315E+04 0.  0.
        5    1    3    3  502    0 -0.10020554293E+04 -0.68350337786E+02  0.92027249187E+03  0.13622446188E+04  0.46999998093E+01 0.  1.
       -5    1    3    3    0  502  0.10020554293E+04  0.68350337786E+02 -0.88439562079E+03  0.13382692390E+04  0.46999998093E+01 0. -1.
</event>
<event>
 5   0  0.2030645E-06  0.2700294E+04  0.7818609E-02  0.8334910E-01
       -2   -1    0    0    0  501  0.00000000000E+00  0.00000000000E+00  0.85904955313E+03  0.85904955313E+03  0.25500000920E-02 0.  1.
        2   -1    0    0  501    0  0.00000000000E+00  0.00000000000E+00 -0.21219923115E+04  0.21219923115E+04  0.25500000920E-02 0. -1.
    10030    2    1    2    0    0  0.00000000000E+00  0.00000000000E+00 -0.12629427584E+04  0.29810418647E+04  0.27002937225E+04 0.  0.
        1    1    3    3  502    0  0.25079297553E+03 -0.35565730326E+03  0.77949806849E+03  0.89275219000E+03  0.50400001928E-02 0.  1.
       -1    1    3    3    0  502 -0.25079297553E+03  0.35565730326E+03 -0.20424408269E+04  0.20882896747E+04  0.50400001928E-02 0. -1.
</event>
<event>
 5   0  0.7768032E-07  0.2702337E+04  0.7818609E-02  0.8334247E-01
        1   -1    0    0  501    0  0.00000000000E+00  0.00000000000E+00  0.14566531305E+04  0.14566531305E+04  0.50400001928E-02 0. -1.
       -1   -1    0    0    0  501  0.00000000000E+00  0.00000000000E+00 -0.12533228431E+04  0.12533228431E+04  0.50400001928E-02 0.  1.
    10030    2    1    2    0    0  0.00000000000E+00  0.00000000000E+00  0.20333028734E+03  0.27099759736E+04  0.27023372424E+04 0.  0.
        4    1    3    3  502    0 -0.71358462305E+03 -0.37507202587E+03 -0.98573061274E+03  0.12734003662E+04  0.12699999809E+01 0.  1.
       -4    1    3    3    0  502  0.71358462305E+03  0.37507202587E+03  0.11890609001E+04  0.14365756074E+04  0.12699999809E+01 0. -1.
</event>
<event>
 5   0  0.7335091E-07  0.2700255E+04  0.7818609E-02  0.8334922E-01
       -1   -1    0    0    0  501  0.00000000000E+00  0.00000000000E+00  0.13979184497E+04  0.13979184497E+04  0.50400001928E-02 0. -1.
        1   -1    0    0  501    0  0.00000000000E+00  0.00000000000E+00 -0.13039707030E+04  0.13039707030E+04  0.50400001928E-02 0.  1.
    10030    2    1    2    0    0  0.00000000000E+00  0.00000000000E+00  0.93947746687E+02  0.27018891527E+04  0.27002553239E+04 0.  0.
        3    1    3    3  502    0 -0.23571002381E+02 -0.98293390785E+03  0.97280667433E+03  0.13831368317E+04  0.10100000352E+00 0. -1.
       -3    1    3    3    0  502  0.23571002381E+02  0.98293390785E+03 -0.87885892764E+03  0.13187523210E+04  0.10100000352E+00 0.  1.
</event>
<event>
 5   0  0.7335091E-07  0.2733357E+04  0.7818609E-02  0.8324262E-01
       -1   -1    0    0    0  501  0.00000000000E+00  0.00000000000E+00  0.89693939231E+03  0.89693939232E+03  0.50400001928E-02 0.  1.
        1   -1    0    0  501    0  0.00000000000E+00  0.00000000000E+00 -0.20824258612E+04  0.20824258612E+04  0.50400001928E-02 0. -1.
    10030    2    1    2    0    0  0.00000000000E+00  0.00000000000E+00 -0.11854864688E+04  0.29793652535E+04  0.27333567542E+04 0.  0.
        3    1    3    3  502    0 -0.29963448186E+03 -0.92957151840E+03  0.44929315515E+03  0.10750573845E+04  0.10100000352E+00 0.  1.
       -3    1    3    3    0  502  0.29963448186E+03  0.92957151840E+03 -0.16347796240E+04  0.19043078690E+04  0.10100000352E+00 0. -1.
</event>
<event>
 5   0  0.1999104E-06  0.2699114E+04  0.7818609E-02  0.8335292E-01
        2   -1    0    0  501    0  0.00000000000E+00  0.00000000000E+00  0.19234707229E+04  0.19234707229E+04  0.25500000920E-02 0. -1.
       -2   -1    0    0    0  501  0.00000000000E+00  0.00000000000E+00 -0.94688433866E+03  0.94688433866E+03  0.25500000920E-02 0.  1.
    10030    2    1    2    0    0  0.00000000000E+00  0.00000000000E+00  0.97658638425E+03  0.28703550616E+04  0.26991141535E+04 0.  0.
        4    1    3    3  502    0  0.15366828078E+02  0.56022697207E+03 -0.81728107950E+03  0.99097950304E+03  0.12699999809E+01 0.  1.
       -4    1    3    3    0  502 -0.15366828078E+02 -0.56022697207E+03  0.17938674637E+04  0.18793755585E+04  0.12699999809E+01 0. -1.
</event>
<event>
 5   0  0.7806808E-07  0.2697305E+04  0.7818609E-02  0.8335880E-01
        1   -1    0    0  501    0  0.00000000000E+00  0.00000000000E+00  0.18392972399E+04  0.18392972399E+04  0.50400001928E-02 0. -1.
       -1   -1    0    0    0  501  0.00000000000E+00  0.00000000000E+00 -0.98889013626E+03  0.98889013627E+03  0.50400001928E-02 0.  1.
    10030    2    1    2    0    0  0.00000000000E+00  0.00000000000E+00  0.85040710362E+03  0.28281873762E+04  0.26973045050E+04 0.  0.
        5    1    3    3  502    0 -0.22467028542E+03 -0.80284955558E+03  0.15367358089E+04  0.17483201030E+04  0.46999998093E+01 0. -1.
       -5    1    3    3    0  502  0.22467028542E+03  0.80284955558E+03 -0.68632870528E+03  0.10798672732E+04  0.46999998093E+01 0.  1.
</event>
<event>
 5   0  0.7566905E-07  0.2696573E+04  0.7818609E-02  0.8336118E-01
       -1   -1    0    0    0  501  0.00000000000E+00  0.00000000000E+00  0.74952282226E+03  0.74952282228E+03  0.50400001928E-02 0. -1.
        1   -1    0    0  501    0  0.00000000000E+00  0.00000000000E+00 -0.24253778891E+04  0.24253778892E+04  0.50400001928E-02 0.  1.
    10030    2    1    2    0    0  0.00000000000E+00  0.00000000000E+00 -0.16758550669E+04  0.31749007114E+04  0.26965726992E+04 0.  0.
        1    1    3    3  502    0  0.79862151548E+03  0.13976712864E+03  0.43045131052E+03  0.91794308428E+03  0.50400001928E-02 0. -1.
       -1    1    3    3    0  502 -0.79862151548E+03 -0.13976712864E+03 -0.21063063774E+04  0.22569576271E+04  0.50400001928E-02 0.  1.
</event>
<event>
 5   0  0.7436613E-07  0.2693734E+04  0.7818609E-02  0.8337041E-01
       -1   -1    0    0    0  501  0.00000000000E+00  0.00000000000E+00  0.84009962882E+03  0.84009962884E+03  0.50400001928E-02 0. -1.
        1   -1    0    0  501    0  0.00000000000E+00  0.00000000000E+00 -0.21593275807E+04  0.21593275807E+04  0.50400001928E-02 0.  1.
    10030    2    1    2    0    0  0.00000000000E+00  0.00000000000E+00 -0.13192279519E+04  0.29994272096E+04  0.26937336907E+04 0.  0.
        2    1    3    3  502    0  0.82963878343E+02 -0.12379019836E+04 -0.12432809810E+04  0.17564258948E+04  0.25500000920E-02 0.  1.
       -2    1    3    3    0  502 -0.82963878343E+02  0.12379019836E+04 -0.75946970898E+02  0.12430013148E+04  0.25500000920E-02 0. -1.
</event>
<event>
 5   0  0.2063087E-06  0.2703143E+04  0.7818609E-02  0.8333986E-01
        2   -1    0    0  501    0  0.00000000000E+00  0.00000000000E+00  0.18866271032E+04  0.18866271032E+04  0.25500000920E-02 0. -1.
       -2   -1    0    0    0  501  0.00000000000E+00  0.00000000000E+00 -0.96826020139E+03  0.96826020139E+03  0.25500000920E-02 0.  1.
    10030    2    1    2    0    0  0.00000000000E+00  0.00000000000E+00  0.91836690185E+03  0.28548873046E+04  0.27031433102E+04 0.  0.
        3    1    3    3  502    0 -0.30446321771E+03  0.41080839887E+03  0.17805294254E+04  0.18524973512E+04  0.10100000352E+00 0. -1.
       -3    1    3    3    0  502  0.30446321771E+03 -0.41080839887E+03 -0.86216252351E+03  0.10023899534E+04  0.10100000352E+00 0.  1.
</event>
<event>
 5   0  0.1999104E-06  0.2705868E+04  0.7818609E-02  0.8333104E-01
        2   -1    0    0  501    0  0.00000000000E+00  0.00000000000E+00  0.24786560581E+04  0.24786560581E+04  0.25500000920E-02 0.  1.
       -2   -1    0    0    0  501  0.00000000000E+00  0.00000000000E+00 -0.73847676942E+03  0.73847676942E+03  0.25500000920E-02 0. -1.
    10030    2    1    2    0    0  0.00000000000E+00  0.00000000000E+00  0.17401792887E+04  0.32171328275E+04  0.27058676378E+04 0.  0.
        4    1    3    3  502    0 -0.58279395506E+03 -0.20201755172E+03  0.23017556584E+04  0.23829688645E+04  0.12699999809E+01 0.  1.
       -4    1    3    3    0  502  0.58279395506E+03  0.20201755172E+03 -0.56157636973E+03  0.83416396302E+03  0.12699999809E+01 0. -1.
</event>
<event>
 5   0  0.2030645E-06  0.2715985E+04  0.7818609E-02  0.8329837E-01
        2   -1    0    0  501    0  0.00000000000E+00  0.00000000000E+00  0.14137410672E+04  0.14137410673E+04  0.25500000920E-02 0.  1.
       -2   -1    0    0    0  501  0.00000000000E+00  0.00000000000E+00 -0.13044427310E+04  0.13044427310E+04  0.25500000920E-02 0. -1.
    10030    2    1    2    0    0  0.00000000000E+00  0.00000000000E+00  0.10929833628E+03  0.27181837982E+04  0.27159854629E+04 0.  0.
        1    1    3    3  502    0 -0.74533895967E+03 -0.82125421207E+03 -0.72966595858E+03  0.13275545400E+04  0.50400001928E-02 0. -1.
       -1    1    3    3    0  502  0.74533895967E+03  0.82125421207E+03  0.83896429486E+03  0.13906292582E+04  0.50400001928E-02 0.  1.
</event>
<event>
 5   0  0.2063087E-06  0.2681479E+04  0.7818609E-02  0.8341040E-01
        2   -1    0    0  501    0  0.00000000000E+00  0.00000000000E+00  0.22396144709E+04  0.22396144709E+04  0.25500000920E-02 0.  1.
       -2   -1    0    0    0  501  0.00000000000E+00  0.00000000000E+00 -0.80263026086E+03  0.80263026086E+03  0.25500000920E-02 0. -1.
    10030    2    1    2    0    0  0.00000000000E+00  0.00000000000E+00  0.14369842101E+04  0.30422447318E+04  0.26814789554E+04 0.  0.
        3    1    3    3  502    0 -0.55288077808E+03 -0.61322823316E+03  0.19169530689E+04  0.20872074883E+04  0.10100000352E+00 0.  1.
       -3    1    3    3    0  502  0.55288077808E+03  0.61322823316E+03 -0.47996885885E+03  0.95503724345E+03  0.10100000352E+00 0. -1.
</event>
<event>
 5   0  0.7806808E-07  0.2699269E+04  0.7818609E-02  0.8335242E-01
        1   -1    0    0  501    0  0.00000000000E+00  0.00000000000E+00  0.15365695009E+04  0.15365695009E+04  0.50400001928E-02 0.  1.
       -1   -1    0    0    0  501  0.00000000000E+00  0.00000000000E+00 -0.11854411406E+04  0.11854411406E+04  0.50400001928E-02 0. -1.
    10030    2    1    2    0    0  0.00000000000E+00  0.00000000000E+00  0.35112836035E+03  0.27220106415E+04  0.26992685689E+04 0.  0.
        5    1    3    3  502    0  0.12151833143E+04 -0.56198906111E+03  0.34725852517E+03  0.13831531967E+04  0.46999998093E+01 0.  1.
       -5    1    3    3    0  502 -0.12151833143E+04  0.56198906111E+03  0.38698351802E+01  0.13388574449E+04  0.46999998093E+01 0. -1.
</event>
<event>
 5   0  0.7768032E-07  0.2756625E+04  0.7818609E-02  0.8316862E-01
        1   -1    0    0  501    0  0.00000000000E+00  0.00000000000E+00  0.10925733000E+04  0.10925733001E+04  0.50400001928E-02 0. -1.
       -1   -1    0    0    0  501  0.00000000000E+00  0.00000000000E+00 -0.17387812198E+04  0.17387812198E+04  0.50400001928E-02 0.  1.
    10030    2    1    2    0    0  0.00000000000E+00  0.00000000000E+00 -0.64620791979E+03  0.28313545199E+04  0.27566254264E+04 0.  0.
        4    1    3    3  502    0  0.16403206246E+03 -0.70041664115E+03  0.88446092111E+03  0.11400713673E+04  0.12699999809E+01 0. -1.
       -4    1    3    3    0  502 -0.16403206246E+03  0.70041664115E+03 -0.15306688409E+04  0.16912831526E+04  0.12699999809E+01 0.  1.
</event>
<event>
 5   0  0.7806808E-07  0.2705662E+04  0.7818609E-02  0.8333170E-01
        1   -1    0    0  501    0  0.00000000000E+00  0.00000000000E+00  0.10611789180E+04  0.10611789180E+04  0.50400001928E-02 0.  1.
       -1   -1    0    0    0  501  0.00000000000E+00  0.00000000000E+00 -0.17246404510E+04  0.17246404510E+04  0.50400001928E-02 0. -1.
    10030    2    1    2    0    0  0.00000000000E+00  0.00000000000E+00 -0.66346153295E+03  0.27858193690E+04  0.27056622759E+04 0.  0.
        5    1    3    3  502    0 -0.64063228271E+03  0.25563686086E+03 -0.15299824318E+04  0.16782813405E+04  0.46999998093E+01 0. -1.
       -5    1    3    3    0  502  0.64063228271E+03 -0.25563686086E+03  0.86652089889E+03  0.11075380285E+04  0.46999998093E+01 0.  1.
</event>
<event>
 5   0  0.7335091E-07  0.2702650E+04  0.7818609E-02  0.8334146E-01
        1   -1    0    0  501    0  0.00000000000E+00  0.00000000000E+00  0.14694916533E+04  0.14694916533E+04  0.50400001928E-02 0. -1.
       -1   -1    0    0    0  501  0.00000000000E+00  0.00000000000E+00 -0.12426609453E+04  0.12426609453E+04  0.50400001928E-02 0.  1.
    10030    2    1    2    0    0  0.00000000000E+00  0.00000000000E+00  0.22683070803E+03  0.27121525986E+04  0.27026504673E+04 0.  0.
        3    1    3    3  502    0 -0.11197525698E+04  0.65966167775E+03 -0.25813024971E+03  0.13250021067E+04  0.10100000352E+00 0. -1.
       -3    1    3    3    0  502  0.11197525698E+04 -0.65966167775E+03  0.48496095774E+03  0.13871504920E+04  0.10100000352E+00 0.  1.
</event>
<event>
 5   0  0.1999104E-06  0.2697188E+04  0.7818609E-02  0.8335918E-01
        2   -1    0    0  501    0  0.00000000000E+00  0.00000000000E+00  0.18170773436E+04  0.18170773436E+04  0.25500000920E-02 0.  1.
       -2   -1    0    0    0  501  0.00000000000E+00  0.00000000000E+00 -0.10008958635E+04  0.10008958635E+04  0.25500000920E-02 0. -1.
    10030    2    1    2    0    0  0.00000000000E+00  0.00000000000E+00  0.81618148004E+03  0.28179732071E+04  0.26971875700E+04 0.  0.
        4    1    3    3  502    0 -0.91498891004E+03 -0.49403818082E+03  0.13052812763E+04  0.16688436873E+04  0.12699999809E+01 0.  1.
       -4    1    3    3    0  502  0.91498891004E+03  0.49403818082E+03 -0.48909979625E+03  0.11491295198E+04  0.12699999809E+01 0. -1.
</event>
<event>
 5   0  0.2030645E-06  0.2702247E+04  0.7818609E-02  0.8334276E-01
       -2   -1    0    0    0  501  0.00000000000E+00  0.00000000000E+00  0.92516187313E+03  0.92516187313E+03  0.25500000920E-02 0.  1.
        2   -1    0    0  501    0  0.00000000000E+00  0.00000000000E+00 -0.19732055953E+04  0.19732055953E+04  0.25500000920E-02 0. -1.
    10030    2    1    2    0    0  0.00000000000E+00  0.00000000000E+00 -0.10480437221E+04  0.28983674684E+04  0.27022469055E+04 0.  0.
        1    1    3    3  502    0 -0.46665186088E+03 -0.12668512212E+04 -0.46667551329E+03  0.14284474127E+04  0.50400001928E-02 0.  1.
       -1    1    3    3    0  502  0.46665186088E+03  0.12668512212E+04 -0.58136820885E+03  0.14699200557E+04  0.50400001928E-02 0. -1.
</event>
<event>
 5   0  0.1932012E-06  0.2700935E+04  0.7818609E-02  0.8334702E-01
       -2   -1    0    0    0  501  0.00000000000E+00  0.00000000000E+00  0.12962508930E+04  0.12962508930E+04  0.25500000920E-02 0. -1.
        2   -1    0    0  501    0  0.00000000000E+00  0.00000000000E+00 -0.14069519996E+04  0.14069519996E+04  0.25500000920E-02 0.  1.
    10030    2    1    2    0    0  0.00000000000E+00  0.00000000000E+00 -0.11070110655E+03  0.27032028926E+04  0.27009352350E+04 0.  0.
        2    1    3    3  502    0 -0.11804198859E+04  0.28005846340E+03  0.53839193941E+03  0.13272866044E+04  0.25500000920E-02 0. -1.
       -2    1    3    3    0  502  0.11804198859E+04 -0.28005846340E+03 -0.64909304596E+03  0.13759162882E+04  0.25500000920E-02 0.  1.
</event>
<event>
 5   0  0.7335091E-07  0.2697511E+04  0.7818609E-02  0.8335813E-01
        1   -1    0    0  501    0  0.00000000000E+00  0.00000000000E+00  0.20586510866E+04  0.20586510866E+04  0.50400001928E-02 0.  1.
       -1   -1    0    0    0  501  0.00000000000E+00  0.00000000000E+00 -0.88365675012E+03  0.88365675013E+03  0.50400001928E-02 0. -1.
    10030    2    1    2    0    0  0.00000000000E+00  0.00000000000E+00  0.11749943365E+04  0.29423078368E+04  0.26975106516E+04 0.  0.
        3    1    3    3  502    0 -0.82016925166E+03  0.31098193113E+03 -0.53005708937E+03  0.10248648160E+04  0.10100000352E+00 0. -1.
       -3    1    3    3    0  502  0.82016925166E+03 -0.31098193113E+03  0.17050514259E+04  0.19174430208E+04  0.10100000352E+00 0.  1.
</event>
<event>
 5   0  0.2063087E-06  0.2700444E+04  0.7818609E-02  0.8334861E-01
       -2   -1    0    0    0  501  0.00000000000E+00  0.00000000000E+00  0.14210368647E+04  0.14210368648E+04  0.25500000920E-02 0.  1.
        2   -1    0    0  501    0  0.00000000000E+00  0.00000000000E+00 -0.12829364010E+04  0.12829364010E+04  0.25500000920E-02 0. -1.
    10030    2    1    2    0    0  0.00000000000E+00  0.00000000000E+00  0.13810046371E+03  0.27039732658E+04  0.27004443494E+04 0.  0.
        3    1    3    3  502    0  0.36300947607E+03 -0.57650456539E+03  0.12363208125E+04  0.14116028320E+04  0.10100000352E+00 0.  1.
       -3    1    3    3    0  502 -0.36300947607E+03  0.57650456539E+03 -0.10982203488E+04  0.12923704338E+04  0.10100000352E+00 0. -1.
</event>
<event>
 5   0  0.1991277E-06  0.2713520E+04  0.7818609E-02  0.8330632E-01
        2   -1    0    0  501    0  0.00000000000E+00  0.00000000000E+00  0.14386762129E+04  0.14386762129E+04  0.25500000920E-02 0.  1.
       -2   -1    0    0    0  501  0.00000000000E+00  0.00000000000E+00 -0.12795077501E+04  0.12795077501E+04  0.25500000920E-02 0. -1.
    10030    2    1    2    0    0  0.00000000000E+00  0.00000000000E+00  0.15916846284E+03  0.27181839630E+04  0.27135197543E+04 0.  0.
        5    1    3    3  502    0 -0.29698790464E+02  0.13353188452E+04  0.31835677599E+03  0.13730737647E+04  0.46999998093E+01 0. -1.
       -5    1    3    3    0  502  0.29698790464E+02 -0.13353188452E+04 -0.15918831315E+03  0.13451101983E+04  0.46999998093E+01 0.  1.
</event>
<event>
 5   0  0.2030645E-06  0.2691118E+04  0.7818609E-02  0.8337892E-01
        2   -1    0    0  501    0  0.00000000000E+00  0.00000000000E+00  0.14930689280E+04  0.14930689280E+04  0.25500000920E-02 0. -1.
       -2   -1    0    0    0  501  0.00000000000E+00  0.00000000000E+00 -0.12126228723E+04  0.12126228723E+04  0.25500000920E-02 0.  1.
    10030    2    1    2    0    0  0.00000000000E+00  0.00000000000E+00  0.28044605563E+03  0.27056918003E+04  0.26911183787E+04 0.  0.
        1    1    3    3  502    0 -0.15062924028E+03 -0.12325211031E+04  0.66142408958E+03  0.14068686022E+04  0.50400001928E-02 0. -1.
       -1    1    3    3    0  502  0.15062924028E+03  0.12325211031E+04 -0.38097803395E+03  0.12988231981E+04  0.50400001928E-02 0.  1.
</event>
<event>
 5   0  0.7335091E-07  0.2701685E+04  0.7818609E-02  0.8334458E-01
        1   -1    0    0  501    0  0.00000000000E+00  0.00000000000E+00  0.13320877912E+04  0.13320877912E+04  0.50400001928E-02 0. -1.
       -1   -1    0    0    0  501  0.00000000000E+00  0.00000000000E+00 -0.13698614872E+04  0.13698614872E+04  0.50400001928E-02 0.  1.
    10030    2    1    2    0    0  0.00000000000E+00  0.00000000000E+00 -0.37773696027E+02  0.27019492784E+04  0.27016852242E+04 0.  0.
        3    1    3    3  502    0 -0.21414005456E+03  0.56802104030E+03  0.11879920043E+04  0.13341022740E+04  0.10100000352E+00 0. -1.
       -3    1    3    3    0  502  0.21414005456E+03 -0.56802104030E+03 -0.12257657003E+04  0.13678470044E+04  0.10100000352E+00 0.  1.
</event>
<event>
 5   0  0.7768032E-07  0.2696734E+04  0.7818609E-02  0.8336065E-01
        1   -1    0    0  501    0  0.00000000000E+00  0.00000000000E+00  0.27264067024E+04  0.27264067024E+04  0.50400001928E-02 0. -1.
       -1   -1    0    0    0  501  0.00000000000E+00  0.00000000000E+00 -0.66684609133E+03  0.66684609134E+03  0.50400001928E-02 0.  1.
    10030    2    1    2    0    0  0.00000000000E+00  0.00000000000E+00  0.20595606111E+04  0.33932527938E+04  0.26967340639E+04 0.  0.
        4    1    3    3  502    0 -0.63442489604E+03  0.96051018010E+03  0.14627498887E+03  0.11603761201E+04  0.12699999809E+01 0.  1.
       -4    1    3    3    0  502  0.63442489604E+03 -0.96051018010E+03  0.19132856222E+04  0.22328766737E+04  0.12699999809E+01 0. -1.
</event>
<event>
 5   0  0.7335091E-07  0.2699000E+04  0.7818609E-02  0.8335329E-01
       -1   -1    0    0    0  501  0.00000000000E+00  0.00000000000E+00  0.14013363831E+04  0.14013363831E+04  0.50400001928E-02 0. -1.
        1   -1    0    0  501    0  0.00000000000E+00  0.00000000000E+00 -0.12995815075E+04  0.12995815075E+04  0.50400001928E-02 0.  1.
    10030    2    1    2    0    0  0.00000000000E+00  0.00000000000E+00  0.10175487568E+03  0.27009178906E+04  0.26990004441E+04 0.  0.
        3    1    3    3  502    0 -0.11052619088E+04  0.73035206420E+03  0.30822314488E+03  0.13601542346E+04  0.10100000352E+00 0. -1.
       -3    1    3    3    0  502  0.11052619088E+04 -0.73035206420E+03 -0.20646826920E+03  0.13407636560E+04  0.10100000352E+00 0.  1.
</event>
<event>
 5   0  0.1999104E-06  0.2700221E+04  0.7818609E-02  0.8334933E-01
        2   -1    0    0  501    0  0.00000000000E+00  0.00000000000E+00  0.11549865853E+04  0.11549865853E+04  0.25500000920E-02 0. -1.
       -2   -1    0    0    0  501  0.00000000000E+00  0.00000000000E+00 -0.15781991754E+04  0.15781991754E+04  0.25500000920E-02 0.  1.
    10030    2    1    2    0    0  0.00000000000E+00  0.00000000000E+00 -0.42321259007E+03  0.27331857607E+04  0.27002213809E+04 0.  0.
        4    1    3    3  502    0  0.15594016859E+03  0.12259918087E+04 -0.76177093470E+03  0.14517816024E+04  0.12699999809E+01 0.  1.
       -4    1    3    3    0  502 -0.15594016859E+03 -0.12259918087E+04  0.33855834463E+03  0.12814041583E+04  0.12699999809E+01 0. -1.
</event>
<event>
 5   0  0.1991277E-06  0.2700087E+04  0.7818609E-02  0.8334977E-01
       -2   -1    0    0    0  501  0.00000000000E+00  0.00000000000E+00  0.13198668697E+04  0.13198668697E+04  0.25500000920E-02 0. -1.
        2   -1    0    0  501    0  0.00000000000E+00  0.00000000000E+00 -0.13809102733E+04  0.13809102734E+04  0.25500000920E-02 0.  1.
    10030    2    1    2    0    0  0.00000000000E+00  0.00000000000E+00 -0.61043403684E+02  0.27007771430E+04  0.27000871984E+04 0.  0.
        5    1    3    3  502    0  0.14097256091E+03 -0.34945945956E+03  0.12661893067E+04  0.13210800987E+04  0.46999998093E+01 0. -1.
       -5    1    3    3    0  502 -0.14097256091E+03  0.34945945956E+03 -0.13272327103E+04  0.13796970444E+04  0.46999998093E+01 0.  1.
</event>
<event>
 5   0  0.1932012E-06  0.2702341E+04  0.7818609E-02  0.8334246E-01
       -2   -1    0    0    0  501  0.00000000000E+00  0.00000000000E+00  0.12801539757E+04  0.12801539757E+04  0.25500000920E-02 0.  1.
        2   -1    0    0  501    0  0.00000000000E+00  0.00000000000E+00 -0.14261261960E+04  0.14261261960E+04  0.25500000920E-02 0. -1.
    10030    2    1    2    0    0  0.00000000000E+00  0.00000000000E+00 -0.14597222029E+03  0.27062801717E+04  0.27023405557E+04 0.  0.
        2    1    3    3  502    0  0.66022893637E+03 -0.91042517402E+03  0.67702818411E+03  0.13126855709E+04  0.25500000920E-02 0.  1.
       -2    1    3    3    0  502 -0.66022893637E+03  0.91042517402E+03 -0.82300040440E+03  0.13935946009E+04  0.25500000920E-02 0. -1.
</event>
<event>
 5   0  0.2063087E-06  0.2718686E+04  0.7818609E-02  0.8328967E-01
        2   -1    0    0  501    0  0.00000000000E+00  0.00000000000E+00  0.23328884437E+04  0.23328884437E+04  0.25500000920E-02 0.  1.
       -2   -1    0    0    0  501  0.00000000000E+00  0.00000000000E+00 -0.79207104504E+03  0.79207104504E+03  0.25500000920E-02 0. -1.
    10030    2    1    2    0    0  0.00000000000E+00  0.00000000000E+00  0.15408173987E+04  0.31249594888E+04  0.27186859970E+04 0.  0.
        3    1    3    3  502    0  0.10630283051E+04 -0.77899665262E+03  0.38754350010E+03  0.13737011818E+04  0.10100000352E+00 0. -1.
       -3    1    3    3    0  502 -0.10630283051E+04  0.77899665262E+03  0.11532738986E+04  0.17512583070E+04  0.10100000352E+00 0.  1.
</event>
<event>
 5   0  0.1932012E-06  0.2700597E+04  0.7818609E-02  0.8334811E-01
        2   -1    0    0  501    0  0.00000000000E+00  0.00000000000E+00  0.23548145400E+04  0.23548145400E+04  0.25500000920E-02 0. -1.
       -2   -1    0    0    0  501  0.00000000000E+00  0.00000000000E+00 -0.77428868490E+03  0.77428868490E+03  0.25500000920E-02 0.  1.
    10030    2    1    2    0    0  0.00000000000E+00  0.00000000000E+00  0.15805258551E+04  0.31291032249E+04  0.27005971587E+04 0.  0.
        2    1    3    3  502    0 -0.75156526434E+03 -0.99063773554E+03  0.18034318459E+03  0.12564780674E+04  0.25500000920E-02 0.  1.
       -2    1    3    3    0  502  0.75156526434E+03  0.99063773554E+03  0.14001826705E+04  0.18726251575E+04  0.25500000920E-02 0. -1.
</event>
<event>
 5   0  0.2063087E-06  0.2697650E+04  0.7818609E-02  0.8335768E-01
       -2   -1    0    0    0  501  0.00000000000E+00  0.00000000000E+00  0.15120646733E+04  0.15120646733E+04  0.25500000920E-02 0.  1.
        2   -1    0    0  501    0  0.00000000000E+00  0.00000000000E+00 -0.12032080141E+04  0.12032080141E+04  0.25500000920E-02 0. -1.
    10030    2    1    2    0    0  0.00000000000E+00  0.00000000000E+00  0.30885665917E+03  0.27152726874E+04  0.26976495939E+04 0.  0.
        3    1    3    3  502    0  0.27482833824E+03  0.47007624467E+03 -0.10876616553E+04  0.12163511738E+04  0.10100000352E+00 0. -1.
       -3    1    3    3    0  502 -0.27482833824E+03 -0.47007624467E+03  0.13965183145E+04  0.14989215137E+04  0.10100000352E+00 0.  1.
</event>
<event>
 5   0  0.2063087E-06  0.2700901E+04  0.7818609E-02  0.8334713E-01
       -2   -1    0    0    0  501  0.00000000000E+00  0.00000000000E+00  0.10271187015E+04  0.10271187015E+04  0.25500000920E-02 0.  1.
        2   -1    0    0  501    0  0.00000000000E+00  0.00000000000E+00 -0.17755659303E+04  0.17755659303E+04  0.25500000920E-02 0. -1.
    10030    2    1    2    0    0  0.00000000000E+00  0.00000000000E+00 -0.74844722884E+03  0.28026846319E+04  0.27009013109E+04 0.  0.
        3    1    3    3  502    0  0.15699882771E+02  0.56212187351E+03  0.89984454097E+03  0.10611068255E+04  0.10100000352E+00 0.  1.
       -3    1    3    3    0  502 -0.15699882771E+02 -0.56212187351E+03 -0.16482917698E+04  0.17415778064E+04  0.10100000352E+00 0. -1.
</event>
<event>
 5   0  0.1999104E-06  0.2689619E+04  0.7818609E-02  0.8338381E-01
       -2   -1    0    0    0  501  0.00000000000E+00  0.00000000000E+00  0.80777663500E+03  0.80777663500E+03  0.25500000920E-02 0.  1.
        2   -1    0    0  501    0  0.00000000000E+00  0.00000000000E+00 -0.22388764867E+04  0.22388764867E+04  0.25500000920E-02 0. -1.
    10030    2    1    2    0    0  0.00000000000E+00  0.00000000000E+00 -0.14310998517E+04  0.30466531217E+04  0.26896186455E+04 0.  0.
        4    1    3    3  502    0 -0.33944422492E+03  0.25204906764E+03 -0.21616356842E+04  0.22025942791E+04  0.12699999809E+01 0. -1.
       -4    1    3    3    0  502  0.33944422492E+03 -0.25204906764E+03  0.73053583248E+03  0.84405884259E+03  0.12699999809E+01 0.  1.
</event>
<event>
 5   0  0.7806808E-07  0.2732888E+04  0.7818609E-02  0.8324412E-01
        1   -1    0    0  501    0  0.00000000000E+00  0.00000000000E+00  0.12143871403E+04  0.12143871403E+04  0.50400001928E-02 0. -1.
       -1   -1    0    0    0  501  0.00000000000E+00  0.00000000000E+00 -0.15375398933E+04  0.15375398933E+04  0.50400001928E-02 0.  1.
    10030    2    1    2    0    0  0.00000000000E+00  0.00000000000E+00 -0.32315275299E+03  0.27519270335E+04  0.27328876113E+04 0.  0.
        5    1    3    3  502    0  0.14035149694E+02 -0.20197732972E+03  0.11991911356E+04  0.12161715738E+04  0.46999998093E+01 0. -1.
       -5    1    3    3    0  502 -0.14035149694E+02  0.20197732972E+03 -0.15223438886E+04  0.15357554598E+04  0.46999998093E+01 0.  1.
</event>
<event>
 5   0  0.7436613E-07  0.2714568E+04  0.7818609E-02  0.8330294E-01
        1   -1    0    0  501    0  0.00000000000E+00  0.00000000000E+00  0.11308621067E+04  0.11308621067E+04  0.50400001928E-02 0. -1.
       -1   -1    0    0    0  501  0.00000000000E+00  0.00000000000E+00 -0.16290403709E+04  0.16290403709E+04  0.50400001928E-02 0.  1.
    10030    2    1    2    0    0  0.00000000000E+00  0.00000000000E+00 -0.49817826422E+03  0.27599024777E+04  0.27145681246E+04 0.  0.
        2    1    3    3  502    0  0.53064140965E+03  0.10363344283E+04 -0.95834290600E+03  0.15079756226E+04  0.25500000920E-02 0. -1.
       -2    1    3    3    0  502 -0.53064140965E+03 -0.10363344283E+04  0.46016464178E+03  0.12519268551E+04  0.25500000920E-02 0.  1.
</event>
<event>
 5   0  0.7436613E-07  0.2689130E+04  0.7818609E-02  0.8338540E-01
       -1   -1    0    0    0  501  0.00000000000E+00  0.00000000000E+00  0.13280104747E+04  0.13280104747E+04  0.50400001928E-02 0. -1.
        1   -1    0    0  501    0  0.00000000000E+00  0.00000000000E+00 -0.13613260545E+04  0.13613260545E+04  0.50400001928E-02 0.  1.
    10030    2    1    2    0    0  0.00000000000E+00  0.00000000000E+00 -0.33315579832E+02  0.26893365292E+04  0.26891301641E+04 0.  0.
        2    1    3    3  502    0 -0.71947726146E+03 -0.45708087458E+03 -0.10565860409E+04  0.13575509263E+04  0.25500000920E-02 0.  1.
       -2    1    3    3    0  502  0.71947726146E+03  0.45708087458E+03  0.10232704611E+04  0.13317856029E+04  0.25500000920E-02 0. -1.
</event>
<event>
 5   0  0.7335091E-07  0.2717324E+04  0.7818609E-02  0.8329406E-01
       -1   -1    0    0    0  501  0.00000000000E+00  0.00000000000E+00  0.15396014051E+04  0.15396014051E+04  0.50400001928E-02 0. -1.
        1   -1    0    0  501    0  0.00000000000E+00  0.00000000000E+00 -0.11989869184E+04  0.11989869185E+04  0.50400001928E-02 0.  1.
    10030    2    1    2    0    0  0.00000000000E+00  0.00000000000E+00  0.34061448667E+03  0.27385883236E+04  0.27173236424E+04 0.  0.
        3    1    3    3  502    0  0.71591319148E+03  0.10159752846E+04  0.72344142892E+03  0.14380907440E+04  0.10100000352E+00 0. -1.
       -3    1    3    3    0  502 -0.71591319148E+03 -0.10159752846E+04 -0.38282694225E+03  0.13004975796E+04  0.10100000352E+00 0.  1.
</event>
<event>
 5   0  0.2030645E-06  0.2704940E+04  0.7818609E-02  0.8333404E-01
        2   -1    0    0  501    0  0.00000000000E+00  0.00000000000E+00  0.18792725526E+04  0.18792725526E+04  0.25500000920E-02 0.  1.
       -2   -1    0    0    0  501  0.00000000000E+00  0.00000000000E+00 -0.97334244445E+03  0.97334244445E+03  0.25500000920E-02 0. -1.
    10030    2    1    2    0    0  0.00000000000E+00  0.00000000000E+00  0.90593010812E+03  0.28526149970E+04  0.27049404726E+04 0.  0.
        1    1    3    3  502    0  0.26188925056E+03 -0.20618789812E+03 -0.92934884212E+03  0.98731388082E+03  0.50400001928E-02 0. -1.
       -1    1    3    3    0  502 -0.26188925056E+03  0.20618789812E+03  0.18352789502E+04  0.18653011162E+04  0.50400001928E-02 0.  1.
</event>
<event>
 5   0  0.7335091E-07  0.2699763E+04  0.7818609E-02  0.8335082E-01
        1   -1    0    0  501    0  0.00000000000E+00  0.00000000000E+00  0.13975728300E+04  0.13975728300E+04  0.50400001928E-02 0. -1.
       -1   -1    0    0    0  501  0.00000000000E+00  0.00000000000E+00 -0.13038175235E+04  0.13038175235E+04  0.50400001928E-02 0.  1.
    10030    2    1    2    0    0  0.00000000000E+00  0.00000000000E+00  0.93755306461E+02  0.27013903535E+04  0.26997629127E+04 0.  0.
        3    1    3    3  502    0 -0.13268061399E+04 -0.24571293332E+03  0.95649951384E+01  0.13494001919E+04  0.10100000352E+00 0. -1.
       -3    1    3    3    0  502  0.13268061399E+04  0.24571293332E+03  0.84190311323E+02  0.13519901617E+04  0.10100000352E+00 0.  1.
</event>
<event>
 5   0  0.2063087E-06  0.2698577E+04  0.7818609E-02  0.8335467E-01
        2   -1    0    0  501    0  0.00000000000E+00  0.00000000000E+00  0.20967878211E+04  0.20967878211E+04  0.25500000920E-02 0. -1.
       -2   -1    0    0    0  501  0.00000000000E+00  0.00000000000E+00 -0.86827072088E+03  0.86827072088E+03  0.25500000920E-02 0.  1.
    10030    2    1    2    0    0  0.00000000000E+00  0.00000000000E+00  0.12285171002E+04  0.29650585420E+04  0.26985770124E+04 0.  0.
        3    1    3    3  502    0 -0.47161598490E+03 -0.93984438469E+03  0.15432378256E+04  0.18674346311E+04  0.10100000352E+00 0. -1.
       -3    1    3    3    0  502  0.47161598490E+03  0.93984438469E+03 -0.31472072540E+03  0.10976239109E+04  0.10100000352E+00 0.  1.
</event>
<event>
 5   0  0.7566905E-07  0.2696242E+04  0.7818609E-02  0.8336225E-01
       -1   -1    0    0    0  501  0.00000000000E+00  0.00000000000E+00  0.10847885720E+04  0.10847885720E+04  0.50400001928E-02 0. -1.
        1   -1    0    0  501    0  0.00000000000E+00  0.00000000000E+00 -0.16753769755E+04  0.16753769755E+04  0.50400001928E-02 0.  1.
    10030    2    1    2    0    0  0.00000000000E+00  0.00000000000E+00 -0.59058840343E+03  0.27601655475E+04  0.26962416782E+04 0.  0.
        1    1    3    3  502    0 -0.12643509771E+04  0.43041999476E+03 -0.10768713496E+03  0.13399407764E+04  0.50400001928E-02 0. -1.
       -1    1    3    3    0  502  0.12643509771E+04 -0.43041999476E+03 -0.48290126847E+03  0.14202247711E+04  0.50400001928E-02 0.  1.
</event>
<event>
 5   0  0.1999104E-06  0.2702108E+04  0.7818609E-02  0.8334321E-01
       -2   -1    0    0    0  501  0.00000000000E+00  0.00000000000E+00  0.12949569882E+04  0.12949569882E+04  0.25500000920E-02 0.  1.
        2   -1    0    0  501    0  0.00000000000E+00  0.00000000000E+00 -0.14095806626E+04  0.14095806626E+04  0.25500000920E-02 0. -1.
    10030    2    1    2    0    0  0.00000000000E+00  0.00000000000E+00 -0.11462367437E+03  0.27045376508E+04  0.27021075696E+04 0.  0.
        4    1    3    3  502    0  0.22177363849E+03  0.13138554583E+04 -0.28099661278E+03  0.13617490302E+04  0.12699999809E+01 0. -1.
       -4    1    3    3    0  502 -0.22177363849E+03 -0.13138554583E+04  0.16637293841E+03  0.13427886206E+04  0.12699999809E+01 0.  1.
</event>
<event>
 5   0  0.1999104E-06  0.2708496E+04  0.7818609E-02  0.8332254E-01
        2   -1    0    0  501    0  0.00000000000E+00  0.00000000000E+00  0.14811680948E+04  0.14811680948E+04  0.25500000920E-02 0. -1.
       -2   -1    0    0    0  501  0.00000000000E+00  0.00000000000E+00 -0.12382035690E+04  0.12382035690E+04  0.25500000920E-02 0.  1.
    10030    2    1    2    0    0  0.00000000000E+00  0.00000000000E+00  0.24296452582E+03  0.27193716638E+04  0.27084959821E+04 0.  0.
        4    1    3    3  502    0  0.28584329199E+03  0.12781573116E+04  0.46723914175E+03  0.13905777682E+04  0.12699999809E+01 0.  1.
       -4    1    3    3    0  502 -0.28584329199E+03 -0.12781573116E+04 -0.22427461593E+03  0.13287938956E+04  0.12699999809E+01 0. -1.
</event>
<event>
 5   0  0.7806808E-07  0.2703572E+04  0.7818609E-02  0.8333847E-01
        1   -1    0    0  501    0  0.00000000000E+00  0.00000000000E+00  0.38944857026E+04  0.38944857026E+04  0.50400001928E-02 0.  1.
       -1   -1    0    0    0  501  0.00000000000E+00  0.00000000000E+00 -0.46920824378E+03  0.46920824381E+03  0.50400001928E-02 0. -1.
    10030    2    1    2    0    0  0.00000000000E+00  0.00000000000E+00  0.34252774588E+04  0.43636939464E+04  0.27035715615E+04 0.  0.
        5    1    3    3  502    0 -0.12766725552E+03  0.95499253006E+03  0.32430021622E+04  0.33831043104E+04  0.46999998093E+01 0.  1.
       -5    1    3    3    0  502  0.12766725552E+03 -0.95499253006E+03  0.18227529660E+03  0.98058963607E+03  0.46999998093E+01 0. -1.
</event>
<event>
 5   0  0.7335091E-07  0.2698267E+04  0.7818609E-02  0.8335567E-01
       -1   -1    0    0    0  501  0.00000000000E+00  0.00000000000E+00  0.10749348095E+04  0.10749348095E+04  0.50400001928E-02 0.  1.
        1   -1    0    0  501    0  0.00000000000E+00  0.00000000000E+00 -0.16932760814E+04  0.16932760814E+04  0.50400001928E-02 0. -1.
    10030    2    1    2    0    0  0.00000000000E+00  0.00000000000E+00 -0.61834127195E+03  0.27682108909E+04  0.26982671491E+04 0.  0.
        3    1    3    3  502    0  0.16803521001E+03 -0.13361977844E+04 -0.22645155939E+03  0.13656283059E+04  0.10100000352E+00 0.  1.
       -3    1    3    3    0  502 -0.16803521001E+03  0.13361977844E+04 -0.39188971256E+03  0.14025825850E+04  0.10100000352E+00 0. -1.
</event>
<event>
 5   0  0.7436613E-07  0.2698297E+04  0.7818609E-02  0.8335558E-01
        1   -1    0    0  501    0  0.00000000000E+00  0.00000000000E+00  0.13387308144E+04  0.13387308144E+04  0.50400001928E-02 0. -1.
       -1   -1    0    0    0  501  0.00000000000E+00  0.00000000000E+00 -0.13596475968E+04  0.13596475969E+04  0.50400001928E-02 0.  1.
    10030    2    1    2    0    0  0.00000000000E+00  0.00000000000E+00 -0.20916782420E+02  0.26983784113E+04  0.26982973407E+04 0.  0.
        2    1    3    3  502    0 -0.77377633531E+03  0.85792509675E+03 -0.70721230501E+03  0.13545901716E+04  0.25500000920E-02 0.  1.
       -2    1    3    3    0  502  0.77377633531E+03 -0.85792509675E+03  0.68629552259E+03  0.13437882397E+04  0.25500000920E-02 0. -1.
</event>
<event>
 5   0  0.1999104E-06  0.2701512E+04  0.7818609E-02  0.8334515E-01
        2   -1    0    0  501    0  0.00000000000E+00  0.00000000000E+00  0.87065853663E+03  0.87065853664E+03  0.25500000920E-02 0. -1.
       -2   -1    0    0    0  501  0.00000000000E+00  0.00000000000E+00 -0.20955876616E+04  0.20955876616E+04  0.25500000920E-02 0.  1.
    10030    2    1    2    0    0  0.00000000000E+00  0.00000000000E+00 -0.12249291249E+04  0.29662461982E+04  0.27015116412E+04 0.  0.
        4    1    3    3  502    0 -0.68654416958E+03 -0.11561301447E+04 -0.47116892452E+03  0.14247742196E+04  0.12699999809E+01 0. -1.
       -4    1    3    3    0  502  0.68654416958E+03  0.11561301447E+04 -0.75376020042E+03  0.15414719787E+04  0.12699999809E+01 0.  1.
</event>
<event>
 5   0  0.7335091E-07  0.2682725E+04  0.7818609E-02  0.8340632E-01
       -1   -1    0    0    0  501  0.00000000000E+00  0.00000000000E+00  0.10069499457E+04  0.10069499457E+04  0.50400001928E-02 0. -1.
        1   -1    0    0  501    0  0.00000000000E+00  0.00000000000E+00 -0.17868348006E+04  0.17868348006E+04  0.50400001928E-02 0.  1.
    10030    2    1    2    0    0  0.00000000000E+00  0.00000000000E+00 -0.77988485491E+03  0.27937847463E+04  0.26827248874E+04 0.  0.
        3    1    3    3  502    0 -0.87543212397E+03 -0.95577271294E+03 -0.74974558432E+03  0.14973314042E+04  0.10100000352E+00 0. -1.
       -3    1    3    3    0  502  0.87543212397E+03  0.95577271294E+03 -0.30139270584E+02  0.12964533421E+04  0.10100000352E+00 0.  1.
</event>
<event>
 5   0  0.1932012E-06  0.2676113E+04  0.7818609E-02  0.8342797E-01
       -2   -1    0    0    0  501  0.00000000000E+00  0.00000000000E+00  0.14741954506E+04  0.14741954506E+04  0.25500000920E-02 0. -1.
        2   -1    0    0  501    0  0.00000000000E+00  0.00000000000E+00 -0.12144896780E+04  0.12144896780E+04  0.25500000920E-02 0.  1.
    10030    2    1    2    0    0  0.00000000000E+00  0.00000000000E+00  0.25970577261E+03  0.26886851287E+04  0.26761129709E+04 0.  0.
        2    1    3    3  502    0  0.88200276627E+03  0.67571773318E+03 -0.61921785253E+03  0.12719882403E+04  0.25500000920E-02 0. -1.
       -2    1    3    3    0  502 -0.88200276627E+03 -0.67571773318E+03  0.87892362514E+03  0.14166968884E+04  0.25500000920E-02 0.  1.
</event>
<event>
 5   0  0.1999104E-06  0.2700651E+04  0.7818609E-02  0.8334794E-01
       -2   -1    0    0    0  501  0.00000000000E+00  0.00000000000E+00  0.95260821514E+03  0.95260821515E+03  0.25500000920E-02 0.  1.
        2   -1    0    0  501    0  0.00000000000E+00  0.00000000000E+00 -0.19140913961E+04  0.19140913961E+04  0.25500000920E-02 0. -1.
    10030    2    1    2    0    0  0.00000000000E+00  0.00000000000E+00 -0.96148318097E+03  0.28666996113E+04  0.27006511722E+04 0.  0.
        4    1    3    3  502    0  0.71450068440E+03  0.10233487576E+04 -0.10278168559E+04  0.16168373480E+04  0.12699999809E+01 0.  1.
       -4    1    3    3    0  502 -0.71450068440E+03 -0.10233487576E+04  0.66333674934E+02  0.12498622632E+04  0.12699999809E+01 0. -1.
</event>
<event>
 5   0  0.7806808E-07  0.2700835E+04  0.7818609E-02  0.8334734E-01
        1   -1    0    0  501    0  0.00000000000E+00  0.00000000000E+00  0.16342971933E+04  0.16342971933E+04  0.50400001928E-02 0. -1.
       -1   -1    0    0    0  501  0.00000000000E+00  0.00000000000E+00 -0.11158479879E+04  0.11158479880E+04  0.50400001928E-02 0.  1.
    10030    2    1    2    0    0  0.00000000000E+00  0.00000000000E+00  0.51844920537E+03  0.27501451813E+04  0.27008348597E+04 0.  0.
        5    1    3    3  502    0 -0.93682715166E+03  0.95959995485E+03  0.42063674519E+03  0.14055015286E+04  0.46999998093E+01 0.  1.
       -5    1    3    3    0  502  0.93682715166E+03 -0.95959995485E+03  0.97812460185E+02  0.13446436527E+04  0.46999998093E+01 0. -1.
</event>
<event>
 5   0  0.7436613E-07  0.2671358E+04  0.7818609E-02  0.8344358E-01
       -1   -1    0    0    0  501  0.00000000000E+00  0.00000000000E+00  0.22072927574E+04  0.22072927574E+04  0.50400001928E-02 0. -1.
        1   -1    0    0  501    0  0.00000000000E+00  0.00000000000E+00 -0.80824740638E+03  0.80824740639E+03  0.50400001928E-02 0.  1.
    10030    2    1    2    0    0  0.00000000000E+00  0.00000000000E+00  0.13990453510E+04  0.30155401638E+04  0.26713581911E+04 0.  0.
        2    1    3    3  502    0  0.51011750825E+03  0.19506390209E+02 -0.69377984851E+03  0.86135407916E+03  0.25500000920E-02 0.  1.
       -2    1    3    3    0  502 -0.51011750825E+03 -0.19506390209E+02  0.20928251995E+04  0.21541860846E+04  0.25500000920E-02 0. -1.
</event>
<event>
 5   0  0.1932012E-06  0.2687345E+04  0.7818609E-02  0.8339123E-01
        2   -1    0    0  501    0  0.00000000000E+00  0.00000000000E+00  0.12128703895E+04  0.12128703895E+04  0.25500000920E-02 0.  1.
       -2   -1    0    0    0  501  0.00000000000E+00  0.00000000000E+00 -0.14885804420E+04  0.14885804420E+04  0.25500000920E-02 0. -1.
    10030    2    1    2    0    0  0.00000000000E+00  0.00000000000E+00 -0.27571005249E+03  0.27014508315E+04  0.26873445187E+04 0.  0.
        2    1    3    3  502    0 -0.50457843651E+03  0.77652604593E+03 -0.11165481021E+04  0.14506108241E+04  0.25500000920E-02 0. -1.
       -2    1    3    3    0  502  0.50457843651E+03 -0.77652604593E+03  0.84083804960E+03  0.12508400075E+04  0.25500000920E-02 0.  1.
</event>
<event>
 5   0  0.2063087E-06  0.2696120E+04  0.7818609E-02  0.8336265E-01
       -2   -1    0    0    0  501  0.00000000000E+00  0.00000000000E+00  0.16589043562E+04  0.16589043562E+04  0.25500000920E-02 0. -1.
        2   -1    0    0  501    0  0.00000000000E+00  0.00000000000E+00 -0.10954617969E+04  0.10954617969E+04  0.25500000920E-02 0.  1.
    10030    2    1    2    0    0  0.00000000000E+00  0.00000000000E+00  0.56344255931E+03  0.27543661531E+04  0.26961204327E+04 0.  0.
        3    1    3    3  502    0 -0.12468458251E+04  0.40264595780E+03 -0.42173858812E+02  0.13109259794E+04  0.10100000352E+00 0. -1.
       -3    1    3    3    0  502  0.12468458251E+04 -0.40264595780E+03  0.60561641812E+03  0.14434401737E+04  0.10100000352E+00 0.  1.
</event>
<event>
 5   0  0.1991277E-06  0.2699806E+04  0.7818609E-02  0.8335068E-01
       -2   -1    0    0    0  501  0.00000000000E+00  0.00000000000E+00  0.14748965842E+04  0.14748965842E+04  0.25500000920E-02 0. -1.
        2   -1    0    0  501    0  0.00000000000E+00  0.00000000000E+00 -0.12355025964E+04  0.12355025964E+04  0.25500000920E-02 0.  1.
    10030    2    1    2    0    0  0.00000000000E+00  0.00000000000E+00  0.23939398780E+03  0.27103991806E+04  0.26998063332E+04 0.  0.
        5    1    3    3  502    0  0.19681923790E+03  0.11763525449E+04  0.75437469397E+03  0.14112570252E+04  0.46999998093E+01 0. -1.
       -5    1    3    3    0  502 -0.19681923790E+03 -0.11763525449E+04 -0.51498070617E+03  0.12991421554E+04  0.46999998093E+01 0.  1.
</event>
<event>
 5   0  0.7436613E-07  0.2699724E+04  0.7818609E-02  0.8335095E-01
       -1   -1    0    0    0  501  0.00000000000E+00  0.00000000000E+00  0.10108558724E+04  0.10108558724E+04  0.50400001928E-02 0.  1.
        1   -1    0    0  501    0  0.00000000000E+00  0.00000000000E+00 -0.18025587081E+04  0.18025587081E+04  0.50400001928E-02 0. -1.
    10030    2    1    2    0    0  0.00000000000E+00  0.00000000000E+00 -0.79170283577E+03  0.28134145805E+04  0.26997237306E+04 0.  0.
        2    1    3    3  502    0 -0.99513484383E+03 -0.63308610544E+03  0.28832960044E+03  0.12141768128E+04  0.25500000920E-02 0.  1.
       -2    1    3    3    0  502  0.99513484383E+03  0.63308610544E+03 -0.10800324362E+04  0.15992377677E+04  0.25500000920E-02 0. -1.
</event>
<event>
 5   0  0.1932012E-06  0.2697810E+04  0.7818609E-02  0.8335716E-01
       -2   -1    0    0    0  501  0.00000000000E+00  0.00000000000E+00  0.10780984959E+04  0.10780984959E+04  0.25500000920E-02 0.  1.
        2   -1    0    0  501    0  0.00000000000E+00  0.00000000000E+00 -0.16877349616E+04  0.16877349616E+04  0.25500000920E-02 0. -1.
    10030    2    1    2    0    0  0.00000000000E+00  0.00000000000E+00 -0.60963646571E+03  0.27658334575E+04  0.26978098699E+04 0.  0.
        2    1    3    3  502    0 -0.28434564876E+03 -0.97175230222E+03 -0.12185767642E+04  0.15843245612E+04  0.25500000920E-02 0. -1.
       -2    1    3    3    0  502  0.28434564876E+03  0.97175230222E+03  0.60894029853E+03  0.11815088963E+04  0.25500000920E-02 0.  1.
</event>
<event>
 5   0  0.7436613E-07  0.2701827E+04  0.7818609E-02  0.8334413E-01
        1   -1    0    0  501    0  0.00000000000E+00  0.00000000000E+00  0.18980018166E+04  0.18980018166E+04  0.50400001928E-02 0.  1.
       -1   -1    0    0    0  501  0.00000000000E+00  0.00000000000E+00 -0.96151995126E+03  0.96151995128E+03  0.50400001928E-02 0. -1.
    10030    2    1    2    0    0  0.00000000000E+00  0.00000000000E+00  0.93648186538E+03  0.28595217679E+04  0.27018265039E+04 0.  0.
        2    1    3    3  502    0 -0.51936586365E+03  0.31473932429E+02 -0.85121322628E+03  0.99764495957E+03  0.25500000920E-02 0. -1.
       -2    1    3    3    0  502  0.51936586365E+03 -0.31473932429E+02  0.17876950917E+04  0.18618768084E+04  0.25500000920E-02 0.  1.
</event>
<event>
 5   0  0.1991277E-06  0.2705366E+04  0.7818609E-02  0.8333266E-01
        2   -1    0    0  501    0  0.00000000000E+00  0.00000000000E+00  0.16650591247E+04  0.16650591247E+04  0.25500000920E-02 0.  1.
       -2   -1    0    0    0  501  0.00000000000E+00  0.00000000000E+00 -0.10989109965E+04  0.10989109965E+04  0.25500000920E-02 0. -1.
    10030    2    1    2    0    0  0.00000000000E+00  0.00000000000E+00  0.56614812818E+03  0.27639701213E+04  0.27053663575E+04 0.  0.
        5    1    3    3  502    0 -0.15014873987E+02  0.59037539411E+03  0.15263831010E+04  0.16366539077E+04  0.46999998093E+01 0.  1.
       -5    1    3    3    0  502  0.15014873987E+02 -0.59037539411E+03 -0.96023497283E+03  0.11273162136E+04  0.46999998093E+01 0. -1.
</event>
<event>
 5   0  0.7566905E-07  0.2698781E+04  0.7818609E-02  0.8335401E-01
        1   -1    0    0  501    0  0.00000000000E+00  0.00000000000E+00  0.11666679505E+04  0.11666679505E+04  0.50400001928E-02 0.  1.
       -1   -1    0    0    0  501  0.00000000000E+00  0.00000000000E+00 -0.15607308713E+04  0.15607308714E+04  0.50400001928E-02 0. -1.
    10030    2    1    2    0    0  0.00000000000E+00  0.00000000000E+00 -0.39406292087E+03  0.27273988218E+04  0.26987809744E+04 0.  0.
        1    1    3    3  502    0 -0.58401171167E+03 -0.10370170411E+02  0.10322873835E+04  0.11860836657E+04  0.50400001928E-02 0.  1.
       -1    1    3    3    0  502  0.58401171167E+03  0.10370170411E+02 -0.14263503044E+04  0.15413151562E+04  0.50400001928E-02 0. -1.
</event>
<event>
 5   0  0.7768032E-07  0.2704943E+04  0.7818609E-02  0.8333403E-01
        1   -1    0    0  501    0  0.00000000000E+00  0.00000000000E+00  0.16866629794E+04  0.16866629794E+04  0.50400001928E-02 0. -1.
       -1   -1    0    0    0  501  0.00000000000E+00  0.00000000000E+00 -0.10844961631E+04  0.10844961631E+04  0.50400001928E-02 0.  1.
    10030    2    1    2    0    0  0.00000000000E+00  0.00000000000E+00  0.60216681628E+03  0.27711591426E+04  0.27049432746E+04 0.  0.
        4    1    3    3  502    0  0.12644770656E+04  0.10400125547E+03 -0.17884936229E+03  0.12812912307E+04  0.12699999809E+01 0.  1.
       -4    1    3    3    0  502 -0.12644770656E+04 -0.10400125547E+03  0.78101617857E+03  0.14898679118E+04  0.12699999809E+01 0. -1.
</event>
<event>
 5   0  0.7566905E-07  0.2701348E+04  0.7818609E-02  0.8334568E-01
       -1   -1    0    0    0  501  0.00000000000E+00  0.00000000000E+00  0.12277118586E+04  0.12277118586E+04  0.50400001928E-02 0. -1.
        1   -1    0    0  501    0  0.00000000000E+00  0.00000000000E+00 -0.14859512807E+04  0.14859512807E+04  0.50400001928E-02 0.  1.
    10030    2    1    2    0    0  0.00000000000E+00  0.00000000000E+00 -0.25823942214E+03  0.27136631394E+04  0.27013478182E+04 0.  0.
        1    1    3    3  502    0 -0.43402795541E+03 -0.46500131221E+03 -0.13260691034E+04  0.14707364663E+04  0.50400001928E-02 0.  1.
       -1    1    3    3    0  502  0.43402795541E+03  0.46500131221E+03  0.10678296812E+04  0.12429266730E+04  0.50400001928E-02 0. -1.
</event>
<event>
 5   0  0.1991277E-06  0.2699118E+04  0.7818609E-02  0.8335291E-01
       -2   -1    0    0    0  501  0.00000000000E+00  0.00000000000E+00  0.15714096849E+04  0.15714096849E+04  0.25500000920E-02 0. -1.
        2   -1    0    0  501    0  0.00000000000E+00  0.00000000000E+00 -0.11590291983E+04  0.11590291983E+04  0.25500000920E-02 0.  1.
    10030    2    1    2    0    0  0.00000000000E+00  0.00000000000E+00  0.41238048656E+03  0.27304388832E+04  0.26991181576E+04 0.  0.
        5    1    3    3  502    0 -0.41822237903E+03 -0.70646192672E+03  0.12897354038E+04  0.15288681807E+04  0.46999998093E+01 0. -1.
       -5    1    3    3    0  502  0.41822237903E+03  0.70646192672E+03 -0.87735491722E+03  0.12015707024E+04  0.46999998093E+01 0.  1.
</event>
<event>
 5   0  0.7806808E-07  0.2708093E+04  0.7818609E-02  0.8332384E-01
        1   -1    0    0  501    0  0.00000000000E+00  0.00000000000E+00  0.20132826715E+04  0.20132826715E+04  0.50400001928E-02 0. -1.
       -1   -1    0    0    0  501  0.00000000000E+00  0.00000000000E+00 -0.91067298125E+03  0.91067298126E+03  0.50400001928E-02 0.  1.
    10030    2    1    2    0    0  0.00000000000E+00  0.00000000000E+00  0.11026096903E+04  0.29239556528E+04  0.27080931539E+04 0.  0.
        5    1    3    3  502    0  0.37009373867E+02  0.87483309000E+03 -0.56384152363E+03  0.10414614649E+04  0.46999998093E+01 0.  1.
       -5    1    3    3    0  502 -0.37009373867E+02 -0.87483309000E+03  0.16664512139E+04  0.18824941879E+04  0.46999998093E+01 0. -1.
</event>
<event>
 5   0  0.7335091E-07  0.2747263E+04  0.7818609E-02  0.8319831E-01
        1   -1    0    0  501    0  0.00000000000E+00  0.00000000000E+00  0.20055156902E+04  0.20055156902E+04  0.50400001928E-02 0. -1.
       -1   -1    0    0    0  501  0.00000000000E+00  0.00000000000E+00 -0.94083698567E+03  0.94083698568E+03  0.50400001928E-02 0.  1.
    10030    2    1    2    0    0  0.00000000000E+00  0.00000000000E+00  0.10646787045E+04  0.29463526759E+04  0.27472628827E+04 0.  0.
        3    1    3    3  502    0 -0.12981034272E+04  0.39036948543E+03  0.77071336299E+03  0.15593139327E+04  0.10100000352E+00 0. -1.
       -3    1    3    3    0  502  0.12981034272E+04 -0.39036948543E+03  0.29396534153E+03  0.13870387431E+04  0.10100000352E+00 0.  1.
</event>
<event>
 5   0  0.2030645E-06  0.2702013E+04  0.7818609E-02  0.8334352E-01
        2   -1    0    0  501    0  0.00000000000E+00  0.00000000000E+00  0.92445467709E+03  0.92445467709E+03  0.25500000920E-02 0. -1.
       -2   -1    0    0    0  501  0.00000000000E+00  0.00000000000E+00 -0.19743731573E+04  0.19743731573E+04  0.25500000920E-02 0.  1.
    10030    2    1    2    0    0  0.00000000000E+00  0.00000000000E+00 -0.10499184803E+04  0.28988278344E+04  0.27020129531E+04 0.  0.
        1    1    3    3  502    0  0.45028612354E+03  0.94061879857E+03  0.39649560602E+03  0.11156747209E+04  0.50400001928E-02 0. -1.
       -1    1    3    3    0  502 -0.45028612354E+03 -0.94061879857E+03 -0.14464140863E+04  0.17831531135E+04  0.50400001928E-02 0.  1.
</event>
<event>
 5   0  0.7335091E-07  0.2693529E+04  0.7818609E-02  0.8337108E-01
       -1   -1    0    0    0  501  0.00000000000E+00  0.00000000000E+00  0.13528705971E+04  0.13528705971E+04  0.50400001928E-02 0.  1.
        1   -1    0    0  501    0  0.00000000000E+00  0.00000000000E+00 -0.13406859963E+04  0.13406859963E+04  0.50400001928E-02 0. -1.
    10030    2    1    2    0    0  0.00000000000E+00  0.00000000000E+00  0.12184600872E+02  0.26935565934E+04  0.26935290341E+04 0.  0.
        3    1    3    3  502    0  0.41148311784E+03  0.75935493730E+03  0.10394645609E+04  0.13514528703E+04  0.10100000352E+00 0.  1.
       -3    1    3    3    0  502 -0.41148311784E+03 -0.75935493730E+03 -0.10272799600E+04  0.13421037231E+04  0.10100000352E+00 0. -1.
</event>
<event>
 5   0  0.2063087E-06  0.2704080E+04  0.7818609E-02  0.8333682E-01
        2   -1    0    0  501    0  0.00000000000E+00  0.00000000000E+00  0.30862367029E+04  0.30862367029E+04  0.25500000920E-02 0. -1.
       -2   -1    0    0    0  501  0.00000000000E+00  0.00000000000E+00 -0.59231123432E+03  0.59231123432E+03  0.25500000920E-02 0.  1.
    10030    2    1    2    0    0  0.00000000000E+00  0.00000000000E+00  0.24939254685E+04  0.36785479372E+04  0.27040803767E+04 0.  0.
        3    1    3    3  502    0 -0.43515255909E+03 -0.73969363995E+02 -0.49153571569E+03  0.66063347364E+03  0.10100000352E+00 0.  1.
       -3    1    3    3    0  502  0.43515255909E+03  0.73969363995E+02  0.29854611842E+04  0.30179144635E+04  0.10100000352E+00 0. -1.
</event>
<event>
 5   0  0.7566905E-07  0.2695037E+04  0.7818609E-02  0.8336617E-01
       -1   -1    0    0    0  501  0.00000000000E+00  0.00000000000E+00  0.12116970178E+04  0.12116970178E+04  0.50400001928E-02 0.  1.
        1   -1    0    0  501    0  0.00000000000E+00  0.00000000000E+00 -0.14985641182E+04  0.14985641182E+04  0.50400001928E-02 0. -1.
    10030    2    1    2    0    0  0.00000000000E+00  0.00000000000E+00 -0.28686710035E+03  0.27102611360E+04  0.26950366773E+04 0.  0.
        1    1    3    3  502    0  0.58442007760E+03  0.54641253403E+03  0.94698510754E+03  0.12397154022E+04  0.50400001928E-02 0.  1.
       -1    1    3    3    0  502 -0.58442007760E+03 -0.54641253403E+03 -0.12338522079E+04  0.14705457339E+04  0.50400001928E-02 0. -1.
</event>
<event>
 5   0  0.7566905E-07  0.2699721E+04  0.7818609E-02  0.8335096E-01
       -1   -1    0    0    0  501  0.00000000000E+00  0.00000000000E+00  0.14486891340E+04  0.14486891340E+04  0.50400001928E-02 0.  1.
        1   -1    0    0  501    0  0.00000000000E+00  0.00000000000E+00 -0.12577738327E+04  0.12577738327E+04  0.50400001928E-02 0. -1.
    10030    2    1    2    0    0  0.00000000000E+00  0.00000000000E+00  0.19091530127E+03  0.27064629668E+04  0.26997209371E+04 0.  0.
        1    1    3    3  502    0  0.18366539912E+03  0.12411760317E+04 -0.40365349547E+03  0.13180239243E+04  0.50400001928E-02 0. -1.
       -1    1    3    3    0  502 -0.18366539912E+03 -0.12411760317E+04  0.59456879674E+03  0.13884390425E+04  0.50400001928E-02 0.  1.
</event>
<event>
 5   0  0.2030645E-06  0.2698639E+04  0.7818609E-02  0.8335447E-01
       -2   -1    0    0    0  501  0.00000000000E+00  0.00000000000E+00  0.10436872356E+04  0.10436872356E+04  0.25500000920E-02 0. -1.
        2   -1    0    0  501    0  0.00000000000E+00  0.00000000000E+00 -0.17444528658E+04  0.17444528658E+04  0.25500000920E-02 0.  1.
    10030    2    1    2    0    0  0.00000000000E+00  0.00000000000E+00 -0.70076563016E+03  0.27881401014E+04  0.26986390564E+04 0.  0.
        1    1    3    3  502    0  0.12140585902E+04  0.39836419675E+03  0.97623770898E+02  0.12814689596E+04  0.50400001928E-02 0.  1.
       -1    1    3    3    0  502 -0.12140585902E+04 -0.39836419675E+03 -0.79838940105E+03  0.15066711418E+04  0.50400001928E-02 0. -1.
</event>
<event>
 5   0  0.7335091E-07  0.2709919E+04  0.7818609E-02  0.8331794E-01
        1   -1    0    0  501    0  0.00000000000E+00  0.00000000000E+00  0.10763283709E+04  0.10763283709E+04  0.50400001928E-02 0.  1.
       -1   -1    0    0    0  501  0.00000000000E+00  0.00000000000E+00 -0.17057199971E+04  0.17057199971E+04  0.50400001928E-02 0. -1.
    10030    2    1    2    0    0  0.00000000000E+00  0.00000000000E+00 -0.62939162619E+03  0.27820483680E+04  0.27099186893E+04 0.  0.
        3    1    3    3  502    0 -0.56777106847E+03 -0.61680225316E+03  0.77811164249E+03  0.11437948872E+04  0.10100000352E+00 0.  1.
       -3    1    3    3    0  502  0.56777106847E+03  0.61680225316E+03 -0.14075032687E+04  0.16382534808E+04  0.10100000352E+00 0. -1.
</event>
<event>
 5   0  0.7566905E-07  0.2714657E+04  0.7818609E-02  0.8330265E-01
       -1   -1    0    0    0  501  0.00000000000E+00  0.00000000000E+00  0.86228251225E+03  0.86228251226E+03  0.50400001928E-02 0.  1.
        1   -1    0    0  501    0  0.00000000000E+00  0.00000000000E+00 -0.21365856731E+04  0.21365856731E+04  0.50400001928E-02 0. -1.
    10030    2    1    2    0    0  0.00000000000E+00  0.00000000000E+00 -0.12743031608E+04  0.29988681854E+04  0.27146568563E+04 0.  0.
        1    1    3    3  502    0  0.38348583019E+03  0.10049292061E+04  0.27741080651E+03  0.11108108961E+04  0.50400001928E-02 0.  1.
       -1    1    3    3    0  502 -0.38348583019E+03 -0.10049292061E+04 -0.15517139674E+04  0.18880572893E+04  0.50400001928E-02 0. -1.
</event>
<event>
 5   0  0.2063087E-06  0.2699483E+04  0.7818609E-02  0.8335173E-01
       -2   -1    0    0    0  501  0.00000000000E+00  0.00000000000E+00  0.57044924824E+03  0.57044924824E+03  0.25500000920E-02 0.  1.
        2   -1    0    0  501    0  0.00000000000E+00  0.00000000000E+00 -0.31936265164E+04  0.31936265164E+04  0.25500000920E-02 0. -1.
    10030    2    1    2    0    0  0.00000000000E+00  0.00000000000E+00 -0.26231772682E+04  0.37640757647E+04  0.26994827990E+04 0.  0.
        3    1    3    3  502    0 -0.82474312899E+03 -0.94998688704E+03 -0.62973563273E+03  0.14068558177E+04  0.10100000352E+00 0.  1.
       -3    1    3    3    0  502  0.82474312899E+03  0.94998688704E+03 -0.19934416355E+04  0.23572199470E+04  0.10100000352E+00 0. -1.
</event>
<event>
 5   0  0.1991277E-06  0.2699272E+04  0.7818609E-02  0.8335241E-01
       -2   -1    0    0    0  501  0.00000000000E+00  0.00000000000E+00  0.97622714559E+03  0.97622714559E+03  0.25500000920E-02 0. -1.
        2   -1    0    0  501    0  0.00000000000E+00  0.00000000000E+00 -0.18658751451E+04  0.18658751451E+04  0.25500000920E-02 0.  1.
    10030    2    1    2    0    0  0.00000000000E+00  0.00000000000E+00 -0.88964799953E+03  0.28421022907E+04  0.26992724701E+04 0.  0.
        5    1    3    3  502    0 -0.44238849860E+03  0.12170341095E+04 -0.44417096215E+02  0.12957139251E+04  0.46999998093E+01 0. -1.
       -5    1    3    3    0  502  0.44238849860E+03 -0.12170341095E+04 -0.84523090332E+03  0.15463883656E+04  0.46999998093E+01 0.  1.
</event>
<event>
 5   0  0.1932012E-06  0.2698326E+04  0.7818609E-02  0.8335548E-01
        2   -1    0    0  501    0  0.00000000000E+00  0.00000000000E+00  0.12898542267E+04  0.12898542267E+04  0.25500000920E-02 0. -1.
       -2   -1    0    0    0  501  0.00000000000E+00  0.00000000000E+00 -0.14111983599E+04  0.14111983599E+04  0.25500000920E-02 0.  1.
    10030    2    1    2    0    0  0.00000000000E+00  0.00000000000E+00 -0.12134413318E+03  0.27010525866E+04  0.26983255320E+04 0.  0.
        2    1    3    3  502    0 -0.94403376011E+03  0.96353098948E+03 -0.86162705726E+02  0.13516714541E+04  0.25500000920E-02 0.  1.
       -2    1    3    3    0  502  0.94403376011E+03 -0.96353098948E+03 -0.35181427452E+02  0.13493811325E+04  0.25500000920E-02 0. -1.
</event>
<event>
 5   0  0.1932012E-06  0.2698366E+04  0.7818609E-02  0.8335535E-01
        2   -1    0    0  501    0  0.00000000000E+00  0.00000000000E+00  0.13566741225E+04  0.13566741225E+04  0.25500000920E-02 0.  1.
       -2   -1    0    0    0  501  0.00000000000E+00  0.00000000000E+00 -0.13417327711E+04  0.13417327711E+04  0.25500000920E-02 0. -1.
    10030    2    1    2    0    0  0.00000000000E+00  0.00000000000E+00  0.14941351456E+02  0.26984068936E+04  0.26983655274E+04 0.  0.
        2    1    3    3  502    0 -0.11894887024E+04 -0.52721055478E+03  0.36449125738E+03  0.13511803058E+04  0.25500000920E-02 0.  1.
       -2    1    3    3    0  502  0.11894887024E+04  0.52721055478E+03 -0.34954990592E+03  0.13472265878E+04  0.25500000920E-02 0. -1.
</event>
<event>
 5   0  0.2063087E-06  0.2695582E+04  0.7818609E-02  0.8336440E-01
        2   -1    0    0  501    0  0.00000000000E+00  0.00000000000E+00  0.91924084897E+03  0.91924084897E+03  0.25500000920E-02 0.  1.
       -2   -1    0    0    0  501  0.00000000000E+00  0.00000000000E+00 -0.19761316625E+04  0.19761316625E+04  0.25500000920E-02 0. -1.
    10030    2    1    2    0    0  0.00000000000E+00  0.00000000000E+00 -0.10568908135E+04  0.28953725115E+04  0.26955822726E+04 0.  0.
        3    1    3    3  502    0  0.30507786781E+03  0.42732243701E+03  0.80487339975E+03  0.96098812189E+03  0.10100000352E+00 0.  1.
       -3    1    3    3    0  502 -0.30507786781E+03 -0.42732243701E+03 -0.18617642133E+04  0.19343843896E+04  0.10100000352E+00 0. -1.
</event>
<event>
 5   0  0.7436613E-07  0.2711452E+04  0.7818609E-02  0.8331299E-01
       -1   -1    0    0    0  501  0.00000000000E+00  0.00000000000E+00  0.10160364593E+04  0.10160364593E+04  0.50400001928E-02 0.  1.
        1   -1    0    0  501    0  0.00000000000E+00  0.00000000000E+00 -0.18089833374E+04  0.18089833374E+04  0.50400001928E-02 0. -1.
    10030    2    1    2    0    0  0.00000000000E+00  0.00000000000E+00 -0.79294687817E+03  0.28250197967E+04  0.27114520280E+04 0.  0.
        2    1    3    3  502    0 -0.39915234993E+03  0.59167451501E+03 -0.15973969218E+04  0.17495937403E+04  0.25500000920E-02 0. -1.
       -2    1    3    3    0  502  0.39915234993E+03 -0.59167451501E+03  0.80445004365E+03  0.10754260565E+04  0.25500000920E-02 0.  1.
</event>
<event>
 5   0  0.2030645E-06  0.2700500E+04  0.7818609E-02  0.8334843E-01
       -2   -1    0    0    0  501  0.00000000000E+00  0.00000000000E+00  0.10159033449E+04  0.10159033449E+04  0.25500000920E-02 0. -1.
        2   -1    0    0  501    0  0.00000000000E+00  0.00000000000E+00 -0.17946339531E+04  0.17946339531E+04  0.25500000920E-02 0.  1.
    10030    2    1    2    0    0  0.00000000000E+00  0.00000000000E+00 -0.77873060822E+03  0.28105372981E+04  0.27004996841E+04 0.  0.
        1    1    3    3  502    0  0.91375300247E+03 -0.97028203054E+03 -0.16425849006E+03  0.13428970995E+04  0.50400001928E-02 0.  1.
       -1    1    3    3    0  502 -0.91375300247E+03  0.97028203054E+03 -0.61447211816E+03  0.14676401985E+04  0.50400001928E-02 0. -1.
</event>
<event>
 5   0  0.7335091E-07  0.2706581E+04  0.7818609E-02  0.8332873E-01
        1   -1    0    0  501    0  0.00000000000E+00  0.00000000000E+00  0.28246904116E+04  0.28246904116E+04  0.50400001928E-02 0. -1.
       -1   -1    0    0    0  501  0.00000000000E+00  0.00000000000E+00 -0.64835256079E+03  0.64835256081E+03  0.50400001928E-02 0.  1.
    10030    2    1    2    0    0  0.00000000000E+00  0.00000000000E+00  0.21763378508E+04  0.34730429724E+04  0.27065810624E+04 0.  0.
        3    1    3    3  502    0 -0.62449759059E+03 -0.66981567383E+03 -0.19035237152E+03  0.93535250740E+03  0.10100000352E+00 0.  1.
       -3    1    3    3    0  502  0.62449759059E+03  0.66981567383E+03  0.23666902223E+04  0.25376904650E+04  0.10100000352E+00 0. -1.
</event>
<event>
 5   0  0.7335091E-07  0.2695999E+04  0.7818609E-02  0.8336304E-01
        1   -1    0    0  501    0  0.00000000000E+00  0.00000000000E+00  0.26924862490E+04  0.26924862490E+04  0.50400001928E-02 0.  1.
       -1   -1    0    0    0  501  0.00000000000E+00  0.00000000000E+00 -0.67487926178E+03  0.67487926180E+03  0.50400001928E-02 0. -1.
    10030    2    1    2    0    0  0.00000000000E+00  0.00000000000E+00  0.20176069872E+04  0.33673655108E+04  0.26959993561E+04 0.  0.
        3    1    3    3  502    0  0.71620496497E+03  0.10369793344E+04  0.41132191893E+03  0.13256928087E+04  0.10100000352E+00 0.  1.
       -3    1    3    3    0  502 -0.71620496497E+03 -0.10369793344E+04  0.16062850682E+04  0.20416727021E+04  0.10100000352E+00 0. -1.
</event>
<event>
 5   0  0.7768032E-07  0.2701036E+04  0.7818609E-02  0.8334669E-01
       -1   -1    0    0    0  501  0.00000000000E+00  0.00000000000E+00  0.93305492306E+03  0.93305492307E+03  0.50400001928E-02 0. -1.
        1   -1    0    0  501    0  0.00000000000E+00  0.00000000000E+00 -0.19547607009E+04  0.19547607009E+04  0.50400001928E-02 0.  1.
    10030    2    1    2    0    0  0.00000000000E+00  0.00000000000E+00 -0.10217057778E+04  0.28878156240E+04  0.27010361681E+04 0.  0.
        4    1    3    3  502    0 -0.82364847610E+03  0.91992794428E+03 -0.10957022033E+04  0.16508268129E+04  0.12699999809E+01 0.  1.
       -4    1    3    3    0  502  0.82364847610E+03 -0.91992794428E+03  0.73996425507E+02  0.12369888111E+04  0.12699999809E+01 0. -1.
</event>
<event>
 5   0  0.1999104E-06  0.2705684E+04  0.7818609E-02  0.8333163E-01
        2   -1    0    0  501    0  0.00000000000E+00  0.00000000000E+00  0.17646731935E+04  0.17646731935E+04  0.25500000920E-02 0. -1.
       -2   -1    0    0    0  501  0.00000000000E+00  0.00000000000E+00 -0.10371224286E+04  0.10371224286E+04  0.25500000920E-02 0.  1.
    10030    2    1    2    0    0  0.00000000000E+00  0.00000000000E+00  0.72755076484E+03  0.28017956221E+04  0.27056844961E+04 0.  0.
        4    1    3    3  502    0 -0.11840430817E+03 -0.82347486757E+03  0.14684642804E+04  0.16877557268E+04  0.12699999809E+01 0. -1.
       -4    1    3    3    0  502  0.11840430817E+03  0.82347486757E+03 -0.74091351558E+03  0.11140398952E+04  0.12699999809E+01 0.  1.
</event>
<event>
 5   0  0.7335091E-07  0.2701201E+04  0.7818609E-02  0.8334615E-01
       -1   -1    0    0    0  501  0.00000000000E+00  0.00000000000E+00  0.10802528715E+04  0.10802528715E+04  0.50400001928E-02 0. -1.
        1   -1    0    0  501    0  0.00000000000E+00  0.00000000000E+00 -0.16886066296E+04  0.16886066296E+04  0.50400001928E-02 0.  1.
    10030    2    1    2    0    0  0.00000000000E+00  0.00000000000E+00 -0.60835375816E+03  0.27688595011E+04  0.27012013331E+04 0.  0.
        3    1    3    3  502    0 -0.23648501999E+02  0.87450366347E+03  0.75057961996E+03  0.11526862909E+04  0.10100000352E+00 0. -1.
       -3    1    3    3    0  502  0.23648501999E+02 -0.87450366347E+03 -0.13589333781E+04  0.16161732102E+04  0.10100000352E+00 0.  1.
</event>
<event>
 5   0  0.1991277E-06  0.2649961E+04  0.7818609E-02  0.8351426E-01
        2   -1    0    0  501    0  0.00000000000E+00  0.00000000000E+00  0.14709206795E+04  0.14709206796E+04  0.25500000920E-02 0. -1.
       -2   -1    0    0    0  501  0.00000000000E+00  0.00000000000E+00 -0.11935196417E+04  0.11935196417E+04  0.25500000920E-02 0.  1.
    10030    2    1    2    0    0  0.00000000000E+00  0.00000000000E+00  0.27740103784E+03  0.26644403213E+04  0.26499605450E+04 0.  0.
        5    1    3    3  502    0  0.93136497657E+03  0.14456460143E+02  0.10861342514E+04  0.14308596755E+04  0.46999998093E+01 0. -1.
       -5    1    3    3    0  502 -0.93136497657E+03 -0.14456460143E+02 -0.80873321361E+03  0.12335806458E+04  0.46999998093E+01 0.  1.
</event>
<event>
 5   0  0.7335091E-07  0.2698722E+04  0.7818609E-02  0.8335420E-01
        1   -1    0    0  501    0  0.00000000000E+00  0.00000000000E+00  0.17572442058E+04  0.17572442058E+04  0.50400001928E-02 0.  1.
       -1   -1    0    0    0  501  0.00000000000E+00  0.00000000000E+00 -0.10361538615E+04  0.10361538616E+04  0.50400001928E-02 0. -1.
    10030    2    1    2    0    0  0.00000000000E+00  0.00000000000E+00  0.72109034426E+03  0.27933980674E+04  0.26987221936E+04 0.  0.
        3    1    3    3  502    0 -0.62039146170E+03 -0.10870067018E+04  0.88252430585E+03  0.15314432070E+04  0.10100000352E+00 0.  1.
       -3    1    3    3    0  502  0.62039146170E+03  0.10870067018E+04 -0.16143396159E+03  0.12619548604E+04  0.10100000352E+00 0. -1.
</event>
<event>
 5   0  0.2030645E-06  0.2694182E+04  0.7818609E-02  0.8336895E-01
       -2   -1    0    0    0  501  0.00000000000E+00  0.00000000000E+00  0.11856417600E+04  0.11856417600E+04  0.25500000920E-02 0.  1.
        2   -1    0    0  501    0  0.00000000000E+00  0.00000000000E+00 -0.15305245166E+04  0.15305245166E+04  0.25500000920E-02 0. -1.
    10030    2    1    2    0    0  0.00000000000E+00  0.00000000000E+00 -0.34488275655E+03  0.27161662766E+04  0.26941817174E+04 0.  0.
        1    1    3    3  502    0 -0.76665632915E+03  0.46447839105E+03 -0.11862071450E+04  0.14868051297E+04  0.50400001928E-02 0.  1.
       -1    1    3    3    0  502  0.76665632915E+03 -0.46447839105E+03  0.84132438849E+03  0.12293611469E+04  0.50400001928E-02 0. -1.
</event>
<event>
 5   0  0.7335091E-07  0.2715648E+04  0.7818609E-02  0.8329946E-01
       -1   -1    0    0    0  501  0.00000000000E+00  0.00000000000E+00  0.88045714507E+03  0.88045714509E+03  0.50400001928E-02 0. -1.
        1   -1    0    0  501    0  0.00000000000E+00  0.00000000000E+00 -0.20940091746E+04  0.20940091746E+04  0.50400001928E-02 0.  1.
    10030    2    1    2    0    0  0.00000000000E+00  0.00000000000E+00 -0.12135520295E+04  0.29744663197E+04  0.27156475026E+04 0.  0.
        3    1    3    3  502    0  0.10392985988E+04  0.23936452461E+03 -0.15272560855E+04  0.18627796741E+04  0.10100000352E+00 0.  1.
       -3    1    3    3    0  502 -0.10392985988E+04 -0.23936452461E+03  0.31370405604E+03  0.11116866456E+04  0.10100000352E+00 0. -1.
</event>
<event>
 5   0  0.1991277E-06  0.2656001E+04  0.7818609E-02  0.8349424E-01
       -2   -1    0    0    0  501  0.00000000000E+00  0.00000000000E+00  0.12464901769E+04  0.12464901769E+04  0.25500000920E-02 0. -1.
        2   -1    0    0  501    0  0.00000000000E+00  0.00000000000E+00 -0.14148407031E+04  0.14148407031E+04  0.25500000920E-02 0.  1.
    10030    2    1    2    0    0  0.00000000000E+00  0.00000000000E+00 -0.16835052618E+03  0.26613308799E+04  0.26560007818E+04 0.  0.
        5    1    3    3  502    0 -0.38863307615E+03  0.73505355836E+03 -0.11217355602E+04  0.13962994516E+04  0.46999998093E+01 0.  1.
       -5    1    3    3    0  502  0.38863307615E+03 -0.73505355836E+03  0.95338503402E+03  0.12650314283E+04  0.46999998093E+01 0. -1.
</event>
<event>
 5   0  0.2063087E-06  0.2699987E+04  0.7818609E-02  0.8335009E-01
       -2   -1    0    0    0  501  0.00000000000E+00  0.00000000000E+00  0.84243691978E+03  0.84243691979E+03  0.25500000920E-02 0.  1.
        2   -1    0    0  501    0  0.00000000000E+00  0.00000000000E+00 -0.21633456685E+04  0.21633456685E+04  0.25500000920E-02 0. -1.
    10030    2    1    2    0    0  0.00000000000E+00  0.00000000000E+00 -0.13209087487E+04  0.30057825882E+04  0.26999868602E+04 0.  0.
        3    1    3    3  502    0 -0.50755270579E+03 -0.10735004400E+04  0.54522067804E+02  0.11886907125E+04  0.10100000352E+00 0.  1.
       -3    1    3    3    0  502  0.50755270579E+03  0.10735004400E+04 -0.13754308165E+04  0.18170918758E+04  0.10100000352E+00 0. -1.
</event>
<event>
 5   0  0.2063087E-06  0.2638701E+04  0.7818609E-02  0.8355173E-01
       -2   -1    0    0    0  501  0.00000000000E+00  0.00000000000E+00  0.59752460452E+03  0.59752460453E+03  0.25500000920E-02 0. -1.
        2   -1    0    0  501    0  0.00000000000E+00  0.00000000000E+00 -0.29131625585E+04  0.29131625585E+04  0.25500000920E-02 0.  1.
    10030    2    1    2    0    0  0.00000000000E+00  0.00000000000E+00 -0.23156379540E+04  0.35106871630E+04  0.26387014274E+04 0.  0.
        3    1    3    3  502    0  0.39054241309E+03 -0.10481355093E+04 -0.20887370017E+04  0.23693741146E+04  0.10100000352E+00 0.  1.
       -3    1    3    3    0  502 -0.39054241309E+03  0.10481355093E+04 -0.22690095224E+03  0.11413130484E+04  0.10100000352E+00 0. -1.
</event>
<event>
 5   0  0.7566905E-07  0.2698601E+04  0.7818609E-02  0.8335459E-01
        1   -1    0    0  501    0  0.00000000000E+00  0.00000000000E+00  0.17871669617E+04  0.17871669617E+04  0.50400001928E-02 0.  1.
       -1   -1    0    0    0  501  0.00000000000E+00  0.00000000000E+00 -0.10187141362E+04  0.10187141362E+04  0.50400001928E-02 0. -1.
    10030    2    1    2    0    0  0.00000000000E+00  0.00000000000E+00  0.76845282545E+03  0.28058810979E+04  0.26986013027E+04 0.  0.
        1    1    3    3  502    0  0.22507574818E+03  0.12758981551E+04 -0.76339754732E+01  0.12956208829E+04  0.50400001928E-02 0. -1.
       -1    1    3    3    0  502 -0.22507574818E+03 -0.12758981551E+04  0.77608680092E+03  0.15102602150E+04  0.50400001928E-02 0.  1.
</event>
<event>
 5   0  0.7768032E-07  0.2707141E+04  0.7818609E-02  0.8332692E-01
       -1   -1    0    0    0  501  0.00000000000E+00  0.00000000000E+00  0.14586080696E+04  0.14586080696E+04  0.50400001928E-02 0.  1.
        1   -1    0    0  501    0  0.00000000000E+00  0.00000000000E+00 -0.12560965864E+04  0.12560965865E+04  0.50400001928E-02 0. -1.
    10030    2    1    2    0    0  0.00000000000E+00  0.00000000000E+00  0.20251148320E+03  0.27147046561E+04  0.27071406445E+04 0.  0.
        4    1    3    3  502    0  0.10049282763E+04 -0.54049775769E+03  0.83139200149E+03  0.14118190180E+04  0.12699999809E+01 0. -1.
       -4    1    3    3    0  502 -0.10049282763E+04  0.54049775769E+03 -0.62888051829E+03  0.13028856381E+04  0.12699999809E+01 0.  1.
</event>
<event>
 5   0  0.7566905E-07  0.2698253E+04  0.7818609E-02  0.8335572E-01
       -1   -1    0    0    0  501  0.00000000000E+00  0.00000000000E+00  0.10494462477E+04  0.10494462477E+04  0.50400001928E-02 0. -1.
        1   -1    0    0  501    0  0.00000000000E+00  0.00000000000E+00 -0.17343831614E+04  0.17343831614E+04  0.50400001928E-02 0.  1.
    10030    2    1    2    0    0  0.00000000000E+00  0.00000000000E+00 -0.68493691377E+03  0.27838294091E+04  0.26982526944E+04 0.  0.
        1    1    3    3  502    0  0.52690610496E+03  0.82405624590E+03  0.61621862652E+03  0.11560381203E+04  0.50400001928E-02 0. -1.
       -1    1    3    3    0  502 -0.52690610496E+03 -0.82405624590E+03 -0.13011555403E+04  0.16277912888E+04  0.50400001928E-02 0.  1.
</event>
<event>
 5   0  0.6561875E-07  0.2701101E+04  0.7818609E-02  0.8334648E-01
        3   -1    0    0  501    0  0.00000000000E+00  0.00000000000E+00  0.10622604879E+04  0.10622604927E+04  0.10100000352E+00 0.  1.
       -3   -1    0    0    0  501  0.00000000000E+00  0.00000000000E+00 -0.17170804624E+04  0.17170804653E+04  0.10100000352E+00 0. -1.
    10030    2    1    2    0    0  0.00000000000E+00  0.00000000000E+00 -0.65481997444E+03  0.27793409581E+04  0.27011010648E+04 0.  0.
        1    1    3    3  502    0  0.11402955823E+04 -0.27522863594E+03 -0.10160964460E+04  0.15519268039E+04  0.50400001928E-02 0. -1.
       -1    1    3    3    0  502 -0.11402955823E+04  0.27522863594E+03  0.36127647156E+03  0.12274141542E+04  0.50400001928E-02 0.  1.
</event>
<event>
 5   0  0.7806808E-07  0.2701393E+04  0.7818609E-02  0.8334553E-01
        1   -1    0    0  501    0  0.00000000000E+00  0.00000000000E+00  0.16724213213E+04  0.16724213213E+04  0.50400001928E-02 0. -1.
       -1   -1    0    0    0  501  0.00000000000E+00  0.00000000000E+00 -0.10908621472E+04  0.10908621472E+04  0.50400001928E-02 0.  1.
    10030    2    1    2    0    0  0.00000000000E+00  0.00000000000E+00  0.58155917409E+03  0.27632834685E+04  0.27013930581E+04 0.  0.
        5    1    3    3  502    0 -0.51404782241E+03  0.10628912492E+04  0.96184013648E+03  0.15228727818E+04  0.46999998093E+01 0. -1.
       -5    1    3    3    0  502  0.51404782241E+03 -0.10628912492E+04 -0.38028096239E+03  0.12404106867E+04  0.46999998093E+01 0.  1.
</event>
<event>
 5   0  0.7768032E-07  0.2701804E+04  0.7818609E-02  0.8334420E-01
        1   -1    0    0  501    0  0.00000000000E+00  0.00000000000E+00  0.25453482890E+04  0.25453482890E+04  0.50400001928E-02 0. -1.
       -1   -1    0    0    0  501  0.00000000000E+00  0.00000000000E+00 -0.71696897416E+03  0.71696897418E+03  0.50400001928E-02 0.  1.
    10030    2    1    2    0    0  0.00000000000E+00  0.00000000000E+00  0.18283793148E+04  0.32623172631E+04  0.27018036580E+04 0.  0.
        4    1    3    3  502    0  0.36196816535E+03 -0.97441971078E+03 -0.12760290861E+03  0.10472816434E+04  0.12699999809E+01 0. -1.
       -4    1    3    3    0  502 -0.36196816535E+03  0.97441971078E+03  0.19559822234E+04  0.22150356197E+04  0.12699999809E+01 0.  1.
</event>
<event>
 5   0  0.7436613E-07  0.2709903E+04  0.7818609E-02  0.8331799E-01
       -1   -1    0    0    0  501  0.00000000000E+00  0.00000000000E+00  0.11718223901E+04  0.11718223901E+04  0.50400001928E-02 0.  1.
        1   -1    0    0  501    0  0.00000000000E+00  0.00000000000E+00 -0.15666994258E+04  0.15666994258E+04  0.50400001928E-02 0. -1.
    10030    2    1    2    0    0  0.00000000000E+00  0.00000000000E+00 -0.39487703577E+03  0.27385218159E+04  0.27099029250E+04 0.  0.
        2    1    3    3  502    0  0.11966132068E+04  0.40406735468E+03  0.29839568776E+03  0.12977648402E+04  0.25500000920E-02 0. -1.
       -2    1    3    3    0  502 -0.11966132068E+04 -0.40406735468E+03 -0.69327272352E+03  0.14407569757E+04  0.25500000920E-02 0.  1.
</event>
<event>
 5   0  0.1932012E-06  0.2699991E+04  0.7818609E-02  0.8335008E-01
        2   -1    0    0  501    0  0.00000000000E+00  0.00000000000E+00  0.10989409043E+04  0.10989409043E+04  0.25500000920E-02 0. -1.
       -2   -1    0    0    0  501  0.00000000000E+00  0.00000000000E+00 -0.16584033713E+04  0.16584033713E+04  0.25500000920E-02 0.  1.
    10030    2    1    2    0    0  0.00000000000E+00  0.00000000000E+00 -0.55946246698E+03  0.27573442757E+04  0.26999905930E+04 0.  0.
        2    1    3    3  502    0  0.76942765825E+03 -0.97081801174E+03  0.26830653061E+03  0.12674758095E+04  0.25500000920E-02 0. -1.
       -2    1    3    3    0  502 -0.76942765825E+03  0.97081801174E+03 -0.82776899758E+03  0.14898684662E+04  0.25500000920E-02 0.  1.
</event>
<event>
 5   0  0.7806808E-07  0.2705398E+04  0.7818609E-02  0.8333256E-01
       -1   -1    0    0    0  501  0.00000000000E+00  0.00000000000E+00  0.11247017204E+04  0.11247017204E+04  0.50400001928E-02 0. -1.
        1   -1    0    0  501    0  0.00000000000E+00  0.00000000000E+00 -0.16269156081E+04  0.16269156081E+04  0.50400001928E-02 0.  1.
    10030    2    1    2    0    0  0.00000000000E+00  0.00000000000E+00 -0.50221388767E+03  0.27516173285E+04  0.27053981470E+04 0.  0.
        5    1    3    3  502    0 -0.12720625871E+04 -0.10117679590E+03  0.20532784204E+03  0.12925020628E+04  0.46999998093E+01 0. -1.
       -5    1    3    3    0  502  0.12720625871E+04  0.10117679590E+03 -0.70754172971E+03  0.14591152658E+04  0.46999998093E+01 0.  1.
</event>
<event>
 5   0  0.7335091E-07  0.2702630E+04  0.7818609E-02  0.8334152E-01
       -1   -1    0    0    0  501  0.00000000000E+00  0.00000000000E+00  0.11916827482E+04  0.11916827482E+04  0.50400001928E-02 0.  1.
        1   -1    0    0  501    0  0.00000000000E+00  0.00000000000E+00 -0.15323310330E+04  0.15323310330E+04  0.50400001928E-02 0. -1.
    10030    2    1    2    0    0  0.00000000000E+00  0.00000000000E+00 -0.34064828479E+03  0.27240137812E+04  0.27026301683E+04 0.  0.
        3    1    3    3  502    0 -0.21592504414E+03  0.36687521707E+03  0.11223330702E+04  0.12003551892E+04  0.10100000352E+00 0.  1.
       -3    1    3    3    0  502  0.21592504414E+03 -0.36687521707E+03 -0.14629813550E+04  0.15236585920E+04  0.10100000352E+00 0. -1.
</event>
<event>
 5   0  0.1932012E-06  0.2699906E+04  0.7818609E-02  0.8335036E-01
        2   -1    0    0  501    0  0.00000000000E+00  0.00000000000E+00  0.19802252315E+04  0.19802252315E+04  0.25500000920E-02 0. -1.
       -2   -1    0    0    0  501  0.00000000000E+00  0.00000000000E+00 -0.92028557542E+03  0.92028557543E+03  0.25500000920E-02 0.  1.
    10030    2    1    2    0    0  0.00000000000E+00  0.00000000000E+00  0.10599396561E+04  0.29005108069E+04  0.26999057144E+04 0.  0.
        2    1    3    3  502    0  0.76785762786E+03  0.11055955023E+04  0.42027553647E+03  0.14101695919E+04  0.25500000920E-02 0.  1.
       -2    1    3    3    0  502 -0.76785762786E+03 -0.11055955023E+04  0.63966411961E+03  0.14903412150E+04  0.25500000920E-02 0. -1.
</event>
<event>
 5   0  0.7436613E-07  0.2711196E+04  0.7818609E-02  0.8331382E-01
       -1   -1    0    0    0  501  0.00000000000E+00  0.00000000000E+00  0.10726603994E+04  0.10726603994E+04  0.50400001928E-02 0. -1.
        1   -1    0    0  501    0  0.00000000000E+00  0.00000000000E+00 -0.17131659880E+04  0.17131659880E+04  0.50400001928E-02 0.  1.
    10030    2    1    2    0    0  0.00000000000E+00  0.00000000000E+00 -0.64050558865E+03  0.27858263874E+04  0.27111955392E+04 0.  0.
        2    1    3    3  502    0  0.61324334294E+03 -0.93066974532E+03  0.47263037168E+03  0.12106168018E+04  0.25500000920E-02 0. -1.
       -2    1    3    3    0  502 -0.61324334294E+03  0.93066974532E+03 -0.11131359603E+04  0.15752095856E+04  0.25500000920E-02 0.  1.
</event>
<event>
 5   0  0.7806808E-07  0.2648820E+04  0.7818609E-02  0.8351805E-01
        1   -1    0    0  501    0  0.00000000000E+00  0.00000000000E+00  0.11874900220E+04  0.11874900220E+04  0.50400001928E-02 0.  1.
       -1   -1    0    0    0  501  0.00000000000E+00  0.00000000000E+00 -0.14771174371E+04  0.14771174371E+04  0.50400001928E-02 0. -1.
    10030    2    1    2    0    0  0.00000000000E+00  0.00000000000E+00 -0.28962741518E+03  0.26646074591E+04  0.26488202792E+04 0.  0.
        5    1    3    3  502    0  0.76564640435E+03 -0.39135665605E+03 -0.11581234822E+04  0.14424446397E+04  0.46999998093E+01 0. -1.
       -5    1    3    3    0  502 -0.76564640435E+03  0.39135665605E+03  0.86849606699E+03  0.12221628194E+04  0.46999998093E+01 0.  1.
</event>
<event>
 5   0  0.2030645E-06  0.2700483E+04  0.7818609E-02  0.8334848E-01
       -2   -1    0    0    0  501  0.00000000000E+00  0.00000000000E+00  0.11295574754E+04  0.11295574754E+04  0.25500000920E-02 0. -1.
        2   -1    0    0  501    0  0.00000000000E+00  0.00000000000E+00 -0.16140411627E+04  0.16140411627E+04  0.25500000920E-02 0.  1.
    10030    2    1    2    0    0  0.00000000000E+00  0.00000000000E+00 -0.48448368733E+03  0.27435986381E+04  0.27004831130E+04 0.  0.
        1    1    3    3  502    0  0.11233682059E+04  0.45435862987E+03 -0.84736390970E+03  0.14786559729E+04  0.50400001928E-02 0.  1.
       -1    1    3    3    0  502 -0.11233682059E+04 -0.45435862987E+03  0.36288022236E+03  0.12649426653E+04  0.50400001928E-02 0. -1.
</event>
<event>
 5   0  0.1932012E-06  0.2697841E+04  0.7818609E-02  0.8335706E-01
        2   -1    0    0  501    0  0.00000000000E+00  0.00000000000E+00  0.17239730132E+04  0.17239730132E+04  0.25500000920E-02 0. -1.
       -2   -1    0    0    0  501  0.00000000000E+00  0.00000000000E+00 -0.10554611981E+04  0.10554611981E+04  0.25500000920E-02 0.  1.
    10030    2    1    2    0    0  0.00000000000E+00  0.00000000000E+00  0.66851181509E+03  0.27794342114E+04  0.26978410791E+04 0.  0.
        2    1    3    3  502    0 -0.49459309012E+03 -0.69116081805E+03  0.14134386987E+04  0.16492830431E+04  0.25500000920E-02 0. -1.
       -2    1    3    3    0  502  0.49459309012E+03  0.69116081805E+03 -0.74492688362E+03  0.11301511683E+04  0.25500000920E-02 0.  1.
</event>
<event>
 5   0  0.1999104E-06  0.2700808E+04  0.7818609E-02  0.8334743E-01
       -2   -1    0    0    0  501  0.00000000000E+00  0.00000000000E+00  0.24958827712E+04  0.24958827712E+04  0.25500000920E-02 0. -1.
        2   -1    0    0  501    0  0.00000000000E+00  0.00000000000E+00 -0.73063969842E+03  0.73063969843E+03  0.25500000920E-02 0.  1.
    10030    2    1    2    0    0  0.00000000000E+00  0.00000000000E+00  0.17652430728E+04  0.32265224696E+04  0.27008080534E+04 0.  0.
        4    1    3    3  502    0 -0.37229564508E+03 -0.93721322050E+03  0.19555594533E+04  0.22002697690E+04  0.12699999809E+01 0. -1.
       -4    1    3    3    0  502  0.37229564508E+03  0.93721322050E+03 -0.19031638051E+03  0.10262527007E+04  0.12699999809E+01 0.  1.
</event>
<event>
 5   0  0.1991277E-06  0.2702621E+04  0.7818609E-02  0.8334155E-01
       -2   -1    0    0    0  501  0.00000000000E+00  0.00000000000E+00  0.24046008877E+04  0.24046008877E+04  0.25500000920E-02 0.  1.
        2   -1    0    0  501    0  0.00000000000E+00  0.00000000000E+00 -0.75939421918E+03  0.75939421918E+03  0.25500000920E-02 0. -1.
    10030    2    1    2    0    0  0.00000000000E+00  0.00000000000E+00  0.16452066685E+04  0.31639951069E+04  0.27026209601E+04 0.  0.
        5    1    3    3  502    0  0.51255592026E+02  0.11103508846E+04  0.17222353786E+04  0.20497860893E+04  0.46999998093E+01 0.  1.
       -5    1    3    3    0  502 -0.51255592026E+02 -0.11103508846E+04 -0.77028710060E+02  0.11142090176E+04  0.46999998093E+01 0. -1.
</event>
<event>
 5   0  0.1999104E-06  0.2697374E+04  0.7818609E-02  0.8335857E-01
        2   -1    0    0  501    0  0.00000000000E+00  0.00000000000E+00  0.20712157726E+04  0.20712157726E+04  0.25500000920E-02 0.  1.
       -2   -1    0    0    0  501  0.00000000000E+00  0.00000000000E+00 -0.87820750312E+03  0.87820750313E+03  0.25500000920E-02 0. -1.
    10030    2    1    2    0    0  0.00000000000E+00  0.00000000000E+00  0.11930082695E+04  0.29494232757E+04  0.26973744509E+04 0.  0.
        4    1    3    3  502    0  0.36608828800E+03  0.77765776958E+03 -0.53993088597E+03  0.10150365588E+04  0.12699999809E+01 0. -1.
       -4    1    3    3    0  502 -0.36608828800E+03 -0.77765776958E+03  0.17329391555E+04  0.19343867169E+04  0.12699999809E+01 0.  1.
</event>
<event>
 5   0  0.2030645E-06  0.2698433E+04  0.7818609E-02  0.8335514E-01
        2   -1    0    0  501    0  0.00000000000E+00  0.00000000000E+00  0.14027939517E+04  0.14027939517E+04  0.25500000920E-02 0. -1.
       -2   -1    0    0    0  501  0.00000000000E+00  0.00000000000E+00 -0.12976850945E+04  0.12976850945E+04  0.25500000920E-02 0.  1.
    10030    2    1    2    0    0  0.00000000000E+00  0.00000000000E+00  0.10510885717E+03  0.27004790462E+04  0.26984327317E+04 0.  0.
        1    1    3    3  502    0  0.55195581790E+03 -0.63715169840E+03 -0.10016993729E+04  0.13092055398E+04  0.50400001928E-02 0.  1.
       -1    1    3    3    0  502 -0.55195581790E+03  0.63715169840E+03  0.11068082301E+04  0.13912735065E+04  0.50400001928E-02 0. -1.
</event>
<event>
 5   0  0.7768032E-07  0.2703874E+04  0.7818609E-02  0.8333749E-01
        1   -1    0    0  501    0  0.00000000000E+00  0.00000000000E+00  0.24933295125E+04  0.24933295125E+04  0.50400001928E-02 0. -1.
       -1   -1    0    0    0  501  0.00000000000E+00  0.00000000000E+00 -0.73304934417E+03  0.73304934418E+03  0.50400001928E-02 0.  1.
    10030    2    1    2    0    0  0.00000000000E+00  0.00000000000E+00  0.17602801684E+04  0.32263788567E+04  0.27038739349E+04 0.  0.
        4    1    3    3  502    0 -0.48067035727E+03 -0.16753511744E+03  0.23746121090E+04  0.24285584796E+04  0.12699999809E+01 0. -1.
       -4    1    3    3    0  502  0.48067035727E+03  0.16753511744E+03 -0.61433194062E+03  0.79782037709E+03  0.12699999809E+01 0.  1.
</event>
<event>
 5   0  0.1932012E-06  0.2699451E+04  0.7818609E-02  0.8335183E-01
        2   -1    0    0  501    0  0.00000000000E+00  0.00000000000E+00  0.17365482655E+04  0.17365482655E+04  0.25500000920E-02 0. -1.
       -2   -1    0    0    0  501  0.00000000000E+00  0.00000000000E+00 -0.10490692803E+04  0.10490692803E+04  0.25500000920E-02 0.  1.
    10030    2    1    2    0    0  0.00000000000E+00  0.00000000000E+00  0.68747898518E+03  0.27856175457E+04  0.26994513806E+04 0.  0.
        2    1    3    3  502    0 -0.30222418246E+03 -0.12792433120E+04  0.66004697607E+03  0.14708721625E+04  0.25500000920E-02 0.  1.
       -2    1    3    3    0  502  0.30222418246E+03  0.12792433120E+04  0.27432009107E+02  0.13147453833E+04  0.25500000920E-02 0. -1.
</event>
<event>
 5   0  0.2063087E-06  0.2669143E+04  0.7818609E-02  0.8345087E-01
       -2   -1    0    0    0  501  0.00000000000E+00  0.00000000000E+00  0.77440166073E+03  0.77440166073E+03  0.25500000920E-02 0. -1.
        2   -1    0    0  501    0  0.00000000000E+00  0.00000000000E+00 -0.22999449514E+04  0.22999449514E+04  0.25500000920E-02 0.  1.
    10030    2    1    2    0    0  0.00000000000E+00  0.00000000000E+00 -0.15255432907E+04  0.30743466122E+04  0.26691430759E+04 0.  0.
        3    1    3    3  502    0 -0.19722541788E+03 -0.25625890100E+03  0.72859579435E+03  0.79713131387E+03  0.10100000352E+00 0. -1.
       -3    1    3    3    0  502  0.19722541788E+03  0.25625890100E+03 -0.22541390850E+04  0.22772152983E+04  0.10100000352E+00 0.  1.
</event>
<event>
 5   0  0.7436613E-07  0.2703898E+04  0.7818609E-02  0.8333741E-01
       -1   -1    0    0    0  501  0.00000000000E+00  0.00000000000E+00  0.10026984341E+04  0.10026984341E+04  0.50400001928E-02 0. -1.
        1   -1    0    0  501    0  0.00000000000E+00  0.00000000000E+00 -0.18228471982E+04  0.18228471982E+04  0.50400001928E-02 0.  1.
    10030    2    1    2    0    0  0.00000000000E+00  0.00000000000E+00 -0.82014876415E+03  0.28255456323E+04  0.27038979502E+04 0.  0.
        2    1    3    3  502    0 -0.60475621939E+03  0.80013040279E+03 -0.13574065986E+04  0.16877474397E+04  0.25500000920E-02 0.  1.
       -2    1    3    3    0  502  0.60475621939E+03 -0.80013040279E+03  0.53725783445E+03  0.11377981926E+04  0.25500000920E-02 0. -1.
</event>
<event>
 5   0  0.2030645E-06  0.2698355E+04  0.7818609E-02  0.8335539E-01
       -2   -1    0    0    0  501  0.00000000000E+00  0.00000000000E+00  0.52725017546E+03  0.52725017547E+03  0.25500000920E-02 0. -1.
        2   -1    0    0  501    0  0.00000000000E+00  0.00000000000E+00 -0.34524024970E+04  0.34524024970E+04  0.25500000920E-02 0.  1.
    10030    2    1    2    0    0  0.00000000000E+00  0.00000000000E+00 -0.29251523215E+04  0.39796526724E+04  0.26983549228E+04 0.  0.
        1    1    3    3  502    0 -0.74224295822E+03  0.11144413481E+04 -0.17065979874E+04  0.21691889770E+04  0.50400001928E-02 0. -1.
       -1    1    3    3    0  502  0.74224295822E+03 -0.11144413481E+04 -0.12185543341E+04  0.18104636954E+04  0.50400001928E-02 0.  1.
</event>
<event>
 5   0  0.7566905E-07  0.2703145E+04  0.7818609E-02  0.8333985E-01
        1   -1    0    0  501    0  0.00000000000E+00  0.00000000000E+00  0.17193861326E+04  0.17193861326E+04  0.50400001928E-02 0.  1.
       -1   -1    0    0    0  501  0.00000000000E+00  0.00000000000E+00 -0.10624423956E+04  0.10624423956E+04  0.50400001928E-02 0. -1.
    10030    2    1    2    0    0  0.00000000000E+00  0.00000000000E+00  0.65694373697E+03  0.27818285282E+04  0.27031453691E+04 0.  0.
        1    1    3    3  502    0 -0.88212020005E+03  0.36485862807E+03  0.13131356421E+04  0.16234478989E+04  0.50400001928E-02 0.  1.
       -1    1    3    3    0  502  0.88212020005E+03 -0.36485862807E+03 -0.65619190517E+03  0.11583806293E+04  0.50400001928E-02 0. -1.
</event>
<event>
 5   0  0.1932012E-06  0.2703084E+04  0.7818609E-02  0.8334005E-01
        2   -1    0    0  501    0  0.00000000000E+00  0.00000000000E+00  0.21274525731E+04  0.21274525732E+04  0.25500000920E-02 0. -1.
       -2   -1    0    0    0  501  0.00000000000E+00  0.00000000000E+00 -0.85861634790E+03  0.85861634790E+03  0.25500000920E-02 0.  1.
    10030    2    1    2    0    0  0.00000000000E+00  0.00000000000E+00  0.12688362252E+04  0.29860689211E+04  0.27030838379E+04 0.  0.
        2    1    3    3  502    0  0.73721978359E+03 -0.78906563302E+03 -0.26340854227E+03  0.11115312153E+04  0.25500000920E-02 0.  1.
       -2    1    3    3    0  502 -0.73721978359E+03  0.78906563302E+03  0.15322447675E+04  0.18745377057E+04  0.25500000920E-02 0. -1.
</event>
<event>
 5   0  0.7806808E-07  0.2702824E+04  0.7818609E-02  0.8334089E-01
        1   -1    0    0  501    0  0.00000000000E+00  0.00000000000E+00  0.14814343345E+04  0.14814343345E+04  0.50400001928E-02 0.  1.
       -1   -1    0    0    0  501  0.00000000000E+00  0.00000000000E+00 -0.12328011405E+04  0.12328011405E+04  0.50400001928E-02 0. -1.
    10030    2    1    2    0    0  0.00000000000E+00  0.00000000000E+00  0.24863319397E+03  0.27142354750E+04  0.27028236622E+04 0.  0.
        5    1    3    3  502    0 -0.11361027182E+04  0.73180425143E+03  0.11929564099E+03  0.13566578009E+04  0.46999998093E+01 0. -1.
       -5    1    3    3    0  502  0.11361027182E+04 -0.73180425143E+03  0.12933755298E+03  0.13575776742E+04  0.46999998093E+01 0.  1.
</event>
<event>
 5   0  0.1991277E-06  0.2696081E+04  0.7818609E-02  0.8336278E-01
        2   -1    0    0  501    0  0.00000000000E+00  0.00000000000E+00  0.11875176708E+04  0.11875176708E+04  0.25500000920E-02 0. -1.
       -2   -1    0    0    0  501  0.00000000000E+00  0.00000000000E+00 -0.15302615829E+04  0.15302615829E+04  0.25500000920E-02 0.  1.
    10030    2    1    2    0    0  0.00000000000E+00  0.00000000000E+00 -0.34274391217E+03  0.27177792537E+04  0.26960806150E+04 0.  0.
        5    1    3    3  502    0  0.58564050696E+03 -0.19771256404E+03  0.10362367875E+04  0.12065959685E+04  0.46999998093E+01 0. -1.
       -5    1    3    3    0  502 -0.58564050696E+03  0.19771256404E+03 -0.13789806997E+04  0.15111832852E+04  0.46999998093E+01 0.  1.
</event>
<event>
 5   0  0.7768032E-07  0.2698947E+04  0.7818609E-02  0.8335347E-01
       -1   -1    0    0    0  501  0.00000000000E+00  0.00000000000E+00  0.11584576904E+04  0.11584576905E+04  0.50400001928E-02 0.  1.
        1   -1    0    0  501    0  0.00000000000E+00  0.00000000000E+00 -0.15719858632E+04  0.15719858632E+04  0.50400001928E-02 0. -1.
    10030    2    1    2    0    0  0.00000000000E+00  0.00000000000E+00 -0.41352817271E+03  0.27304435536E+04  0.26989472855E+04 0.  0.
        4    1    3    3  502    0  0.11594056806E+04  0.83943217447E+02 -0.90018941250E+03  0.14702416765E+04  0.12699999809E+01 0. -1.
       -4    1    3    3    0  502 -0.11594056806E+04 -0.83943217447E+02  0.48666123979E+03  0.12602018771E+04  0.12699999809E+01 0.  1.
</event>
<event>
 5   0  0.1999104E-06  0.2697139E+04  0.7818609E-02  0.8335934E-01
        2   -1    0    0  501    0  0.00000000000E+00  0.00000000000E+00  0.16497359424E+04  0.16497359424E+04  0.25500000920E-02 0. -1.
       -2   -1    0    0    0  501  0.00000000000E+00  0.00000000000E+00 -0.11023823075E+04  0.11023823075E+04  0.25500000920E-02 0.  1.
    10030    2    1    2    0    0  0.00000000000E+00  0.00000000000E+00  0.54735363498E+03  0.27521182499E+04  0.26971390138E+04 0.  0.
        4    1    3    3  502    0 -0.40583113783E+03  0.11282764260E+04  0.90345440427E+03  0.15013121192E+04  0.12699999809E+01 0. -1.
       -4    1    3    3    0  502  0.40583113783E+03 -0.11282764260E+04 -0.35610076929E+03  0.12508061307E+04  0.12699999809E+01 0.  1.
</event>
<event>
 5   0  0.7566905E-07  0.2699901E+04  0.7818609E-02  0.8335037E-01
       -1   -1    0    0    0  501  0.00000000000E+00  0.00000000000E+00  0.12007385210E+04  0.12007385210E+04  0.50400001928E-02 0.  1.
        1   -1    0    0  501    0  0.00000000000E+00  0.00000000000E+00 -0.15177043836E+04  0.15177043836E+04  0.50400001928E-02 0. -1.
    10030    2    1    2    0    0  0.00000000000E+00  0.00000000000E+00 -0.31696586258E+03  0.27184429046E+04  0.26999008255E+04 0.  0.
        1    1    3    3  502    0 -0.79092786219E+02  0.65470174674E+03  0.10275183417E+04  0.12209357021E+04  0.50400001928E-02 0.  1.
       -1    1    3    3    0  502  0.79092786219E+02 -0.65470174674E+03 -0.13444842043E+04  0.14975072025E+04  0.50400001928E-02 0. -1.
</event>
<event>
 5   0  0.2030645E-06  0.2704189E+04  0.7818609E-02  0.8333647E-01
       -2   -1    0    0    0  501  0.00000000000E+00  0.00000000000E+00  0.10862574664E+04  0.10862574664E+04  0.25500000920E-02 0.  1.
        2   -1    0    0  501    0  0.00000000000E+00  0.00000000000E+00 -0.16829892130E+04  0.16829892130E+04  0.25500000920E-02 0. -1.
    10030    2    1    2    0    0  0.00000000000E+00  0.00000000000E+00 -0.59673174657E+03  0.27692466795E+04  0.27041890456E+04 0.  0.
        1    1    3    3  502    0  0.11114742139E+04  0.35431816611E+03  0.40163106301E+03  0.12337843417E+04  0.50400001928E-02 0.  1.
       -1    1    3    3    0  502 -0.11114742139E+04 -0.35431816611E+03 -0.99836280959E+03  0.15354623377E+04  0.50400001928E-02 0. -1.
</event>
<event>
 5   0  0.7768032E-07  0.2717645E+04  0.7818609E-02  0.8329303E-01
       -1   -1    0    0    0  501  0.00000000000E+00  0.00000000000E+00  0.10876671783E+04  0.10876671783E+04  0.50400001928E-02 0. -1.
        1   -1    0    0  501    0  0.00000000000E+00  0.00000000000E+00 -0.16975764501E+04  0.16975764501E+04  0.50400001928E-02 0.  1.
    10030    2    1    2    0    0  0.00000000000E+00  0.00000000000E+00 -0.60990927181E+03  0.27852436285E+04  0.27176447064E+04 0.  0.
        4    1    3    3  502    0 -0.13260743144E+04 -0.14342371527E+03 -0.38974387523E+02  0.13343777820E+04  0.12699999809E+01 0.  1.
       -4    1    3    3    0  502  0.13260743144E+04  0.14342371527E+03 -0.57093488428E+03  0.14508658464E+04  0.12699999809E+01 0. -1.
</event>
<event>
 5   0  0.2063087E-06  0.2696635E+04  0.7818609E-02  0.8336097E-01
        2   -1    0    0  501    0  0.00000000000E+00  0.00000000000E+00  0.85032949156E+03  0.85032949156E+03  0.25500000920E-02 0.  1.
       -2   -1    0    0    0  501  0.00000000000E+00  0.00000000000E+00 -0.21379484519E+04  0.21379484519E+04  0.25500000920E-02 0. -1.
    10030    2    1    2    0    0  0.00000000000E+00  0.00000000000E+00 -0.12876189603E+04  0.29882779434E+04  0.26966354000E+04 0.  0.
        3    1    3    3  502    0 -0.57157124785E+02 -0.11792298051E+04 -0.13654790499E+04  0.18050991430E+04  0.10100000352E+00 0. -1.
       -3    1    3    3    0  502  0.57157124785E+02  0.11792298051E+04  0.77860089578E+02  0.11831788005E+04  0.10100000352E+00 0.  1.
</event>
<event>
 5   0  0.7335091E-07  0.2698412E+04  0.7818609E-02  0.8335520E-01
       -1   -1    0    0    0  501  0.00000000000E+00  0.00000000000E+00  0.12987705766E+04  0.12987705766E+04  0.50400001928E-02 0.  1.
        1   -1    0    0  501    0  0.00000000000E+00  0.00000000000E+00 -0.14016004837E+04  0.14016004837E+04  0.50400001928E-02 0. -1.
    10030    2    1    2    0    0  0.00000000000E+00  0.00000000000E+00 -0.10282990714E+03  0.27003710603E+04  0.26984124729E+04 0.  0.
        3    1    3    3  502    0 -0.36288699782E+03 -0.54954883436E+03  0.11270078319E+04  0.13053112877E+04  0.10100000352E+00 0.  1.
       -3    1    3    3    0  502  0.36288699782E+03  0.54954883436E+03 -0.12298377391E+04  0.13950597726E+04  0.10100000352E+00 0. -1.
</event>
<event>
 5   0  0.2030645E-06  0.2698380E+04  0.7818609E-02  0.8335531E-01
        2   -1    0    0  501    0  0.00000000000E+00  0.00000000000E+00  0.18688807969E+04  0.18688807969E+04  0.25500000920E-02 0.  1.
       -2   -1    0    0    0  501  0.00000000000E+00  0.00000000000E+00 -0.97401237128E+03  0.97401237129E+03  0.25500000920E-02 0. -1.
    10030    2    1    2    0    0  0.00000000000E+00  0.00000000000E+00  0.89486842566E+03  0.28428931682E+04  0.26983795261E+04 0.  0.
        1    1    3    3  502    0 -0.64309959097E+02 -0.12222343912E+04 -0.15070374324E+03  0.12331683973E+04  0.50400001928E-02 0. -1.
       -1    1    3    3    0  502  0.64309959097E+02  0.12222343912E+04  0.10455721689E+04  0.16097247710E+04  0.50400001928E-02 0.  1.
</event>
<event>
 5   0  0.7768032E-07  0.2716404E+04  0.7818609E-02  0.8329702E-01
        1   -1    0    0  501    0  0.00000000000E+00  0.00000000000E+00  0.16017478037E+04  0.16017478037E+04  0.50400001928E-02 0. -1.
       -1   -1    0    0    0  501  0.00000000000E+00  0.00000000000E+00 -0.11516876860E+04  0.11516876861E+04  0.50400001928E-02 0.  1.
    10030    2    1    2    0    0  0.00000000000E+00  0.00000000000E+00  0.45006011761E+03  0.27534354897E+04  0.27164044041E+04 0.  0.
        4    1    3    3  502    0  0.75937003442E+03 -0.97040124678E+03  0.80412400077E+03  0.14713729814E+04  0.12699999809E+01 0. -1.
       -4    1    3    3    0  502 -0.75937003442E+03  0.97040124678E+03 -0.35406388316E+03  0.12820625083E+04  0.12699999809E+01 0.  1.
</event>
<event>
 5   0  0.2063087E-06  0.2697983E+04  0.7818609E-02  0.8335660E-01
        2   -1    0    0  501    0  0.00000000000E+00  0.00000000000E+00  0.25632860464E+04  0.25632860464E+04  0.25500000920E-02 0. -1.
       -2   -1    0    0    0  501  0.00000000000E+00  0.00000000000E+00 -0.70993931713E+03  0.70993931713E+03  0.25500000920E-02 0.  1.
    10030    2    1    2    0    0  0.00000000000E+00  0.00000000000E+00  0.18533467293E+04  0.32732253635E+04  0.26979826133E+04 0.  0.
        3    1    3    3  502    0  0.13785802648E+02  0.57253564400E+03 -0.55513031388E+03  0.79759437536E+03  0.10100000352E+00 0.  1.
       -3    1    3    3    0  502 -0.13785802648E+02 -0.57253564400E+03  0.24084770431E+04  0.24756309882E+04  0.10100000352E+00 0. -1.
</event>
<event>
 5   0  0.7768032E-07  0.2701592E+04  0.7818609E-02  0.8334489E-01
        1   -1    0    0  501    0  0.00000000000E+00  0.00000000000E+00  0.12268830054E+04  0.12268830054E+04  0.50400001928E-02 0.  1.
       -1   -1    0    0    0  501  0.00000000000E+00  0.00000000000E+00 -0.14872234757E+04  0.14872234757E+04  0.50400001928E-02 0. -1.
    10030    2    1    2    0    0  0.00000000000E+00  0.00000000000E+00 -0.26034047035E+03  0.27141064811E+04  0.27015915366E+04 0.  0.
        4    1    3    3  502    0  0.45580126417E+03  0.11885427298E+04  0.32387359260E+03  0.13135007917E+04  0.12699999809E+01 0.  1.
       -4    1    3    3    0  502 -0.45580126417E+03 -0.11885427298E+04 -0.58421406295E+03  0.14006056894E+04  0.12699999809E+01 0. -1.
</event>
<event>
 5   0  0.6561875E-07  0.2714818E+04  0.7818609E-02  0.8330213E-01
        3   -1    0    0  501    0  0.00000000000E+00  0.00000000000E+00  0.20046118301E+04  0.20046118326E+04  0.10100000352E+00 0.  1.
       -3   -1    0    0    0  501  0.00000000000E+00  0.00000000000E+00 -0.91916018267E+03  0.91916018822E+03  0.10100000352E+00 0. -1.
    10030    2    1    2    0    0  0.00000000000E+00  0.00000000000E+00  0.10854516474E+04  0.29237720209E+04  0.27148181433E+04 0.  0.
        3    1    3    3  502    0 -0.36793071994E+02 -0.23137049770E+03 -0.89722229447E+03  0.92730463886E+03  0.10100000352E+00 0. -1.
       -3    1    3    3    0  502  0.36793071994E+02  0.23137049770E+03  0.19826739419E+04  0.19964673820E+04  0.10100000352E+00 0.  1.
</event>
<event>
 5   0  0.7768032E-07  0.2697724E+04  0.7818609E-02  0.8335744E-01
       -1   -1    0    0    0  501  0.00000000000E+00  0.00000000000E+00  0.76741977087E+03  0.76741977089E+03  0.50400001928E-02 0. -1.
        1   -1    0    0  501    0  0.00000000000E+00  0.00000000000E+00 -0.23708395223E+04  0.23708395223E+04  0.50400001928E-02 0.  1.
    10030    2    1    2    0    0  0.00000000000E+00  0.00000000000E+00 -0.16034197515E+04  0.31382592932E+04  0.26977243173E+04 0.  0.
        4    1    3    3  502    0 -0.24708427147E+01 -0.23661331505E+03  0.74308582469E+03  0.77985262818E+03  0.12699999809E+01 0. -1.
       -4    1    3    3    0  502  0.24708427147E+01  0.23661331505E+03 -0.23465055762E+04  0.23584066650E+04  0.12699999809E+01 0.  1.
</event>
<event>
 5   0  0.7806808E-07  0.2702799E+04  0.7818609E-02  0.8334097E-01
        1   -1    0    0  501    0  0.00000000000E+00  0.00000000000E+00  0.14268891151E+04  0.14268891151E+04  0.50400001928E-02 0. -1.
       -1   -1    0    0    0  501  0.00000000000E+00  0.00000000000E+00 -0.12799037832E+04  0.12799037832E+04  0.50400001928E-02 0.  1.
    10030    2    1    2    0    0  0.00000000000E+00  0.00000000000E+00  0.14698533192E+03  0.27067928982E+04  0.27027991243E+04 0.  0.
        5    1    3    3  502    0 -0.11963059643E+04  0.27674332360E+03  0.63870579752E+03  0.13840888748E+04  0.46999998093E+01 0. -1.
       -5    1    3    3    0  502  0.11963059643E+04 -0.27674332360E+03 -0.49172046560E+03  0.13227040235E+04  0.46999998093E+01 0.  1.
</event>
<event>
 5   0  0.1932012E-06  0.2707890E+04  0.7818609E-02  0.8332449E-01
       -2   -1    0    0    0  501  0.00000000000E+00  0.00000000000E+00  0.84465441713E+03  0.84465441713E+03  0.25500000920E-02 0.  1.
        2   -1    0    0  501    0  0.00000000000E+00  0.00000000000E+00 -0.21703167719E+04  0.21703167719E+04  0.25500000920E-02 0. -1.
    10030    2    1    2    0    0  0.00000000000E+00  0.00000000000E+00 -0.13256623548E+04  0.30149711890E+04  0.27078904320E+04 0.  0.
        2    1    3    3  502    0  0.50885556580E+03 -0.11125959269E+04 -0.17092484847E+02  0.12235586771E+04  0.25500000920E-02 0.  1.
       -2    1    3    3    0  502 -0.50885556580E+03  0.11125959269E+04 -0.13085698699E+04  0.17914125119E+04  0.25500000920E-02 0. -1.
</event>
<event>
 5   0  0.1999104E-06  0.2694424E+04  0.7818609E-02  0.8336817E-01
        2   -1    0    0  501    0  0.00000000000E+00  0.00000000000E+00  0.20106102124E+04  0.20106102124E+04  0.25500000920E-02 0. -1.
       -2   -1    0    0    0  501  0.00000000000E+00  0.00000000000E+00 -0.90270098504E+03  0.90270098505E+03  0.25500000920E-02 0.  1.
    10030    2    1    2    0    0  0.00000000000E+00  0.00000000000E+00  0.11079092274E+04  0.29133111975E+04  0.26944237375E+04 0.  0.
        4    1    3    3  502    0 -0.33813083049E+03  0.12746925393E+04  0.25626136433E+03  0.13434452084E+04  0.12699999809E+01 0.  1.
       -4    1    3    3    0  502  0.33813083049E+03 -0.12746925393E+04  0.85164786304E+03  0.15698659891E+04  0.12699999809E+01 0. -1.
</event>
<event>
 5   0  0.1991277E-06  0.2699208E+04  0.7818609E-02  0.8335262E-01
        2   -1    0    0  501    0  0.00000000000E+00  0.00000000000E+00  0.14402814688E+04  0.14402814688E+04  0.25500000920E-02 0. -1.
       -2   -1    0    0    0  501  0.00000000000E+00  0.00000000000E+00 -0.12646355437E+04  0.12646355437E+04  0.25500000920E-02 0.  1.
    10030    2    1    2    0    0  0.00000000000E+00  0.00000000000E+00  0.17564592510E+03  0.27049170124E+04  0.26992081344E+04 0.  0.
        5    1    3    3  502    0 -0.93569760607E+03 -0.47559103643E+03 -0.76231805510E+03  0.12972539270E+04  0.46999998093E+01 0.  1.
       -5    1    3    3    0  502  0.93569760607E+03  0.47559103643E+03  0.93796398020E+03  0.14076630854E+04  0.46999998093E+01 0. -1.
</event>
<event>
 5   0  0.7436613E-07  0.2693063E+04  0.7818609E-02  0.8337259E-01
        1   -1    0    0  501    0  0.00000000000E+00  0.00000000000E+00  0.16249806596E+04  0.16249806597E+04  0.50400001928E-02 0. -1.
       -1   -1    0    0    0  501  0.00000000000E+00  0.00000000000E+00 -0.11157962450E+04  0.11157962450E+04  0.50400001928E-02 0.  1.
    10030    2    1    2    0    0  0.00000000000E+00  0.00000000000E+00  0.50918441464E+03  0.27407769047E+04  0.26930631766E+04 0.  0.
        2    1    3    3  502    0 -0.26180149451E+03 -0.13035725563E+04  0.47121515395E+03  0.14106328911E+04  0.25500000920E-02 0.  1.
       -2    1    3    3    0  502  0.26180149451E+03  0.13035725563E+04  0.37969260683E+02  0.13301440136E+04  0.25500000920E-02 0. -1.
</event>
<event>
 5   0  0.7768032E-07  0.2678398E+04  0.7818609E-02  0.8342048E-01
       -1   -1    0    0    0  501  0.00000000000E+00  0.00000000000E+00  0.94661545474E+03  0.94661545476E+03  0.50400001928E-02 0.  1.
        1   -1    0    0  501    0  0.00000000000E+00  0.00000000000E+00 -0.18945966978E+04  0.18945966978E+04  0.50400001928E-02 0. -1.
    10030    2    1    2    0    0  0.00000000000E+00  0.00000000000E+00 -0.94798124307E+03  0.28412121526E+04  0.26783984130E+04 0.  0.
        4    1    3    3  502    0 -0.26700798659E+03 -0.69562609226E+03 -0.16544066662E+04  0.18144563800E+04  0.12699999809E+01 0. -1.
       -4    1    3    3    0  502  0.26700798659E+03  0.69562609226E+03  0.70642542309E+03  0.10267557725E+04  0.12699999809E+01 0.  1.
</event>
<event>
 5   0  0.7566905E-07  0.2700782E+04  0.7818609E-02  0.8334751E-01
        1   -1    0    0  501    0  0.00000000000E+00  0.00000000000E+00  0.18053320891E+04  0.18053320891E+04  0.50400001928E-02 0. -1.
       -1   -1    0    0    0  501  0.00000000000E+00  0.00000000000E+00 -0.10100944105E+04  0.10100944106E+04  0.50400001928E-02 0.  1.
    10030    2    1    2    0    0  0.00000000000E+00  0.00000000000E+00  0.79523767857E+03  0.28154264997E+04  0.27007819997E+04 0.  0.
        1    1    3    3  502    0  0.11110720811E+04 -0.13878646830E+03  0.11845211849E+04  0.16299795369E+04  0.50400001928E-02 0. -1.
       -1    1    3    3    0  502 -0.11110720811E+04  0.13878646830E+03 -0.38928350629E+03  0.11854469628E+04  0.50400001928E-02 0.  1.
</event>
<event>
 5   0  0.2063087E-06  0.2689339E+04  0.7818609E-02  0.8338472E-01
        2   -1    0    0  501    0  0.00000000000E+00  0.00000000000E+00  0.29304022036E+04  0.29304022036E+04  0.25500000920E-02 0. -1.
       -2   -1    0    0    0  501  0.00000000000E+00  0.00000000000E+00 -0.61702677106E+03  0.61702677106E+03  0.25500000920E-02 0.  1.
    10030    2    1    2    0    0  0.00000000000E+00  0.00000000000E+00  0.23133754325E+04  0.35474289747E+04  0.26893394056E+04 0.  0.
        3    1    3    3  502    0  0.35519521100E+03  0.29594713010E+03 -0.50889090255E+03  0.68754512770E+03  0.10100000352E+00 0.  1.
       -3    1    3    3    0  502 -0.35519521100E+03 -0.29594713010E+03  0.28222663351E+04  0.28598838470E+04  0.10100000352E+00 0. -1.
</event>
<event>
 5   0  0.2030645E-06  0.2699658E+04  0.7818609E-02  0.8335116E-01
       -2   -1    0    0    0  501  0.00000000000E+00  0.00000000000E+00  0.12942913835E+04  0.12942913835E+04  0.25500000920E-02 0.  1.
        2   -1    0    0  501    0  0.00000000000E+00  0.00000000000E+00 -0.14077495637E+04  0.14077495637E+04  0.25500000920E-02 0. -1.
    10030    2    1    2    0    0  0.00000000000E+00  0.00000000000E+00 -0.11345818014E+03  0.27020409472E+04  0.26996578527E+04 0.  0.
        1    1    3    3  502    0  0.22694999078E+03  0.12845582441E+04 -0.40408291707E+03  0.13656057940E+04  0.50400001928E-02 0. -1.
       -1    1    3    3    0  502 -0.22694999078E+03 -0.12845582441E+04  0.29062473693E+03  0.13364351531E+04  0.50400001928E-02 0.  1.
</event>
<event>
 5   0  0.1991277E-06  0.2698596E+04  0.7818609E-02  0.8335461E-01
        2   -1    0    0  501    0  0.00000000000E+00  0.00000000000E+00  0.15603228344E+04  0.15603228344E+04  0.25500000920E-02 0. -1.
       -2   -1    0    0    0  501  0.00000000000E+00  0.00000000000E+00 -0.11668126708E+04  0.11668126708E+04  0.25500000920E-02 0.  1.
    10030    2    1    2    0    0  0.00000000000E+00  0.00000000000E+00  0.39351016354E+03  0.27271355052E+04  0.26985955264E+04 0.  0.
        5    1    3    3  502    0 -0.54095215259E+02 -0.57772143028E+03  0.14277899775E+04  0.15411990959E+04  0.46999998093E+01 0. -1.
       -5    1    3    3    0  502  0.54095215259E+02  0.57772143028E+03 -0.10342798140E+04  0.11859364093E+04  0.46999998093E+01 0.  1.
</event>
<event>
 5   0  0.7335091E-07  0.2701373E+04  0.7818609E-02  0.8334560E-01
       -1   -1    0    0    0  501  0.00000000000E+00  0.00000000000E+00  0.82038802399E+03  0.82038802400E+03  0.50400001928E-02 0. -1.
        1   -1    0    0  501    0  0.00000000000E+00  0.00000000000E+00 -0.22237696221E+04  0.22237696221E+04  0.50400001928E-02 0.  1.
    10030    2    1    2    0    0  0.00000000000E+00  0.00000000000E+00 -0.14033815981E+04  0.30441576461E+04  0.27013729592E+04 0.  0.
        3    1    3    3  502    0 -0.93341603629E+03 -0.73563094021E+03  0.21573856951E+02  0.11886478951E+04  0.10100000352E+00 0. -1.
       -3    1    3    3    0  502  0.93341603629E+03  0.73563094021E+03 -0.14249554551E+04  0.18555097510E+04  0.10100000352E+00 0.  1.
</event>
<event>
 5   0  0.1932012E-06  0.2698316E+04  0.7818609E-02  0.8335552E-01
       -2   -1    0    0    0  501  0.00000000000E+00  0.00000000000E+00  0.17526971726E+04  0.17526971726E+04  0.25500000920E-02 0.  1.
        2   -1    0    0  501    0  0.00000000000E+00  0.00000000000E+00 -0.10385293872E+04  0.10385293872E+04  0.25500000920E-02 0. -1.
    10030    2    1    2    0    0  0.00000000000E+00  0.00000000000E+00  0.71416778533E+03  0.27912265598E+04  0.26983161569E+04 0.  0.
        2    1    3    3  502    0 -0.32481965283E+03 -0.86893247327E+03  0.13704458306E+04  0.16548937200E+04  0.25500000920E-02 0.  1.
       -2    1    3    3    0  502  0.32481965283E+03  0.86893247327E+03 -0.65627804529E+03  0.11363328397E+04  0.25500000920E-02 0. -1.
</event>
<event>
 5   0  0.7566905E-07  0.2674558E+04  0.7818609E-02  0.8343307E-01
       -1   -1    0    0    0  501  0.00000000000E+00  0.00000000000E+00  0.34269326634E+04  0.34269326634E+04  0.50400001928E-02 0. -1.
        1   -1    0    0  501    0  0.00000000000E+00  0.00000000000E+00 -0.52184143168E+03  0.52184143171E+03  0.50400001928E-02 0.  1.
    10030    2    1    2    0    0  0.00000000000E+00  0.00000000000E+00  0.29050912317E+04  0.39487740951E+04  0.26745582419E+04 0.  0.
        1    1    3    3  502    0 -0.37155341438E+03 -0.63950326562E+03  0.30974794979E+04  0.31845557942E+04  0.50400001928E-02 0. -1.
       -1    1    3    3    0  502  0.37155341438E+03  0.63950326562E+03 -0.19238826617E+03  0.76421830092E+03  0.50400001928E-02 0.  1.
</event>
<event>
 5   0  0.2063087E-06  0.2701054E+04  0.7818609E-02  0.8334663E-01
        2   -1    0    0  501    0  0.00000000000E+00  0.00000000000E+00  0.17570021714E+04  0.17570021714E+04  0.25500000920E-02 0.  1.
       -2   -1    0    0    0  501  0.00000000000E+00  0.00000000000E+00 -0.10380884478E+04  0.10380884478E+04  0.25500000920E-02 0. -1.
    10030    2    1    2    0    0  0.00000000000E+00  0.00000000000E+00  0.71891372355E+03  0.27950906192E+04  0.27010543549E+04 0.  0.
        3    1    3    3  502    0  0.19344220264E+00  0.48844787783E+03  0.16623958802E+04  0.17326688777E+04  0.10100000352E+00 0.  1.
       -3    1    3    3    0  502 -0.19344220264E+00 -0.48844787783E+03 -0.94348215669E+03  0.10624217416E+04  0.10100000352E+00 0. -1.
</event>
<event>
 5   0  0.1932012E-06  0.2689182E+04  0.7818609E-02  0.8338524E-01
       -2   -1    0    0    0  501  0.00000000000E+00  0.00000000000E+00  0.11653032022E+04  0.11653032022E+04  0.25500000920E-02 0.  1.
        2   -1    0    0  501    0  0.00000000000E+00  0.00000000000E+00 -0.15514632425E+04  0.15514632425E+04  0.25500000920E-02 0. -1.
    10030    2    1    2    0    0  0.00000000000E+00  0.00000000000E+00 -0.38616004038E+03  0.27167664447E+04  0.26891820947E+04 0.  0.
        2    1    3    3  502    0 -0.98435729409E+03 -0.30924758702E+03  0.67793055913E+03  0.12345781448E+04  0.25500000920E-02 0.  1.
       -2    1    3    3    0  502  0.98435729409E+03  0.30924758702E+03 -0.10640905995E+04  0.14821882999E+04  0.25500000920E-02 0. -1.
</event>
<event>
 5   0  0.7335091E-07  0.2702369E+04  0.7818609E-02  0.8334237E-01
        1   -1    0    0  501    0  0.00000000000E+00  0.00000000000E+00  0.16346100442E+04  0.16346100442E+04  0.50400001928E-02 0. -1.
       -1   -1    0    0    0  501  0.00000000000E+00  0.00000000000E+00 -0.11169021920E+04  0.11169021920E+04  0.50400001928E-02 0.  1.
    10030    2    1    2    0    0  0.00000000000E+00  0.00000000000E+00  0.51770785226E+03  0.27515122362E+04  0.27023689914E+04 0.  0.
        3    1    3    3  502    0 -0.11530077080E+04 -0.66661520830E+03  0.49080564423E+03  0.14193987464E+04  0.10100000352E+00 0.  1.
       -3    1    3    3    0  502  0.11530077080E+04  0.66661520830E+03  0.26902208032E+02  0.13321134898E+04  0.10100000352E+00 0. -1.
</event>
<event>
 5   0  0.1991277E-06  0.2701592E+04  0.7818609E-02  0.8334489E-01
        2   -1    0    0  501    0  0.00000000000E+00  0.00000000000E+00  0.24323080980E+04  0.24323080980E+04  0.25500000920E-02 0.  1.
       -2   -1    0    0    0  501  0.00000000000E+00  0.00000000000E+00 -0.75017215992E+03  0.75017215993E+03  0.25500000920E-02 0. -1.
    10030    2    1    2    0    0  0.00000000000E+00  0.00000000000E+00  0.16821359380E+04  0.31824802579E+04  0.27015919895E+04 0.  0.
        5    1    3    3  502    0 -0.84643841096E+01 -0.71397946013E+03 -0.50967917428E+03  0.87728744775E+03  0.46999998093E+01 0. -1.
       -5    1    3    3    0  502  0.84643841096E+01  0.71397946013E+03  0.21918151123E+04  0.23051928101E+04  0.46999998093E+01 0.  1.
</event>
<event>
 5   0  0.1932012E-06  0.2674249E+04  0.7818609E-02  0.8343409E-01
        2   -1    0    0  501    0  0.00000000000E+00  0.00000000000E+00  0.16020973288E+04  0.16020973288E+04  0.25500000920E-02 0. -1.
       -2   -1    0    0    0  501  0.00000000000E+00  0.00000000000E+00 -0.11159759675E+04  0.11159759675E+04  0.25500000920E-02 0.  1.
    10030    2    1    2    0    0  0.00000000000E+00  0.00000000000E+00  0.48612136126E+03  0.27180732963E+04  0.26742491407E+04 0.  0.
        2    1    3    3  502    0 -0.11197097294E+04 -0.22229879394E+03  0.95069959170E+03  0.14855962929E+04  0.25500000920E-02 0. -1.
       -2    1    3    3    0  502  0.11197097294E+04  0.22229879394E+03 -0.46457823044E+03  0.12324770034E+04  0.25500000920E-02 0.  1.
</event>
<event>
 5   0  0.6561875E-07  0.2700149E+04  0.7818609E-02  0.8334957E-01
       -4   -1    0    0    0  501  0.00000000000E+00  0.00000000000E+00  0.16327637487E+04  0.16327642426E+04  0.12699999809E+01 0. -1.
        4   -1    0    0  501    0  0.00000000000E+00  0.00000000000E+00 -0.11163275244E+04  0.11163282468E+04  0.12699999809E+01 0.  1.
    10030    2    1    2    0    0  0.00000000000E+00  0.00000000000E+00  0.51643622435E+03  0.27490924894E+04  0.27001487258E+04 0.  0.
        3    1    3    3  502    0  0.16211441668E+03 -0.46786372604E+03  0.15369795940E+04  0.16147705202E+04  0.10100000352E+00 0. -1.
       -3    1    3    3    0  502 -0.16211441668E+03  0.46786372604E+03 -0.10205433697E+04  0.11343219692E+04  0.10100000352E+00 0.  1.
</event>
<event>
 5   0  0.7566905E-07  0.2697576E+04  0.7818609E-02  0.8335792E-01
        1   -1    0    0  501    0  0.00000000000E+00  0.00000000000E+00  0.14170082634E+04  0.14170082634E+04  0.50400001928E-02 0.  1.
       -1   -1    0    0    0  501  0.00000000000E+00  0.00000000000E+00 -0.12838524273E+04  0.12838524273E+04  0.50400001928E-02 0. -1.
    10030    2    1    2    0    0  0.00000000000E+00  0.00000000000E+00  0.13315583608E+03  0.27008606907E+04  0.26975763185E+04 0.  0.
        1    1    3    3  502    0  0.10517623182E+02  0.11891375136E+04  0.70380458246E+03  0.13818464230E+04  0.50400001928E-02 0.  1.
       -1    1    3    3    0  502 -0.10517623182E+02 -0.11891375136E+04 -0.57064874638E+03  0.13190142677E+04  0.50400001928E-02 0. -1.
</event>
<event>
 5   0  0.1999104E-06  0.2693112E+04  0.7818609E-02  0.8337243E-01
        2   -1    0    0  501    0  0.00000000000E+00  0.00000000000E+00  0.16906185650E+04  0.16906185650E+04  0.25500000920E-02 0.  1.
       -2   -1    0    0    0  501  0.00000000000E+00  0.00000000000E+00 -0.10725146105E+04  0.10725146105E+04  0.25500000920E-02 0. -1.
    10030    2    1    2    0    0  0.00000000000E+00  0.00000000000E+00  0.61810395458E+03  0.27631331755E+04  0.26931120376E+04 0.  0.
        4    1    3    3  502    0 -0.14742716042E+02  0.14756529702E+03  0.16822137209E+04  0.16887384286E+04  0.12699999809E+01 0.  1.
       -4    1    3    3    0  502  0.14742716042E+02 -0.14756529702E+03 -0.10641097663E+04  0.10743947469E+04  0.12699999809E+01 0. -1.
</event>
<event>
 5   0  0.2063087E-06  0.2702366E+04  0.7818609E-02  0.8334238E-01
       -2   -1    0    0    0  501  0.00000000000E+00  0.00000000000E+00  0.11885655388E+04  0.11885655388E+04  0.25500000920E-02 0.  1.
        2   -1    0    0  501    0  0.00000000000E+00  0.00000000000E+00 -0.15360495736E+04  0.15360495736E+04  0.25500000920E-02 0. -1.
    10030    2    1    2    0    0  0.00000000000E+00  0.00000000000E+00 -0.34748403480E+03  0.27246151124E+04  0.27023660663E+04 0.  0.
        3    1    3    3  502    0 -0.12050629473E+04  0.40544700216E+03  0.28733217339E+03  0.13035044176E+04  0.10100000352E+00 0. -1.
       -3    1    3    3    0  502  0.12050629473E+04 -0.40544700216E+03 -0.63481620818E+03  0.14211106948E+04  0.10100000352E+00 0.  1.
</event>
<event>
 5   0  0.7436613E-07  0.2700048E+04  0.7818609E-02  0.8334989E-01
       -1   -1    0    0    0  501  0.00000000000E+00  0.00000000000E+00  0.12958716514E+04  0.12958716514E+04  0.50400001928E-02 0. -1.
        1   -1    0    0  501    0  0.00000000000E+00  0.00000000000E+00 -0.14064393271E+04  0.14064393271E+04  0.50400001928E-02 0.  1.
    10030    2    1    2    0    0  0.00000000000E+00  0.00000000000E+00 -0.11056767562E+03  0.27023109785E+04  0.27000480391E+04 0.  0.
        2    1    3    3  502    0 -0.54444578685E+03  0.16259366636E+02 -0.12915839855E+04  0.14017399093E+04  0.25500000920E-02 0.  1.
       -2    1    3    3    0  502  0.54444578685E+03 -0.16259366636E+02  0.11810163099E+04  0.13005710692E+04  0.25500000920E-02 0. -1.
</event>
<event>
 5   0  0.2063087E-06  0.2697972E+04  0.7818609E-02  0.8335663E-01
        2   -1    0    0  501    0  0.00000000000E+00  0.00000000000E+00  0.11680018800E+04  0.11680018800E+04  0.25500000920E-02 0.  1.
       -2   -1    0    0    0  501  0.00000000000E+00  0.00000000000E+00 -0.15580137649E+04  0.15580137649E+04  0.25500000920E-02 0. -1.
    10030    2    1    2    0    0  0.00000000000E+00  0.00000000000E+00 -0.39001188489E+03  0.27260156449E+04  0.26979718356E+04 0.  0.
        3    1    3    3  502    0  0.35439348438E+03  0.93112718538E+03 -0.11139486374E+04  0.14944812324E+04  0.10100000352E+00 0. -1.
       -3    1    3    3    0  502 -0.35439348438E+03 -0.93112718538E+03  0.72393675251E+03  0.12315344124E+04  0.10100000352E+00 0.  1.
</event>
<event>
 5   0  0.7335091E-07  0.2699638E+04  0.7818609E-02  0.8335123E-01
        1   -1    0    0  501    0  0.00000000000E+00  0.00000000000E+00  0.19097269036E+04  0.19097269036E+04  0.50400001928E-02 0. -1.
       -1   -1    0    0    0  501  0.00000000000E+00  0.00000000000E+00 -0.95406890235E+03  0.95406890237E+03  0.50400001928E-02 0.  1.
    10030    2    1    2    0    0  0.00000000000E+00  0.00000000000E+00  0.95565800124E+03  0.28637958060E+04  0.26996377911E+04 0.  0.
        3    1    3    3  502    0 -0.34710736226E+03 -0.50313491828E+03 -0.79883974115E+03  0.10058693798E+04  0.10100000352E+00 0.  1.
       -3    1    3    3    0  502  0.34710736226E+03  0.50313491828E+03  0.17544977424E+04  0.18579264262E+04  0.10100000352E+00 0. -1.
</event>
<event>
 5   0  0.7335091E-07  0.2701921E+04  0.7818609E-02  0.8334382E-01
       -1   -1    0    0    0  501  0.00000000000E+00  0.00000000000E+00  0.13790567926E+04  0.13790567926E+04  0.50400001928E-02 0.  1.
        1   -1    0    0  501    0  0.00000000000E+00  0.00000000000E+00 -0.13234369957E+04  0.13234369957E+04  0.50400001928E-02 0. -1.
    10030    2    1    2    0    0  0.00000000000E+00  0.00000000000E+00  0.55619796901E+02  0.27024937883E+04  0.27019213745E+04 0.  0.
        3    1    3    3  502    0  0.12067571696E+03  0.58031619439E+03 -0.11864346269E+04  0.13262566299E+04  0.10100000352E+00 0. -1.
       -3    1    3    3    0  502 -0.12067571696E+03 -0.58031619439E+03  0.12420544238E+04  0.13762371584E+04  0.10100000352E+00 0.  1.
</event>
<event>
 5   0  0.1999104E-06  0.2698153E+04  0.7818609E-02  0.8335605E-01
       -2   -1    0    0    0  501  0.00000000000E+00  0.00000000000E+00  0.10300901454E+04  0.10300901454E+04  0.25500000920E-02 0.  1.
        2   -1    0    0  501    0  0.00000000000E+00  0.00000000000E+00 -0.17668422709E+04  0.17668422709E+04  0.25500000920E-02 0. -1.
    10030    2    1    2    0    0  0.00000000000E+00  0.00000000000E+00 -0.73675212550E+03  0.27969324163E+04  0.26981525619E+04 0.  0.
        4    1    3    3  502    0  0.31356452100E+03  0.16785332948E+03  0.98061497461E+03  0.10431226152E+04  0.12699999809E+01 0.  1.
       -4    1    3    3    0  502 -0.31356452100E+03 -0.16785332948E+03 -0.17173671001E+04  0.17538098011E+04  0.12699999809E+01 0. -1.
</event>
<event>
 5   0  0.7806808E-07  0.2697116E+04  0.7818609E-02  0.8335941E-01
       -1   -1    0    0    0  501  0.00000000000E+00  0.00000000000E+00  0.16447776193E+04  0.16447776193E+04  0.50400001928E-02 0. -1.
        1   -1    0    0  501    0  0.00000000000E+00  0.00000000000E+00 -0.11056869425E+04  0.11056869425E+04  0.50400001928E-02 0.  1.
    10030    2    1    2    0    0  0.00000000000E+00  0.00000000000E+00  0.53909067683E+03  0.27504645618E+04  0.26971163393E+04 0.  0.
        5    1    3    3  502    0 -0.87380630172E+03  0.50431259360E+02  0.13157549895E+04  0.15802892290E+04  0.46999998093E+01 0. -1.
       -5    1    3    3    0  502  0.87380630172E+03 -0.50431259360E+02 -0.77666431271E+03  0.11701753328E+04  0.46999998093E+01 0.  1.
</event>
<event>
 5   0  0.7806808E-07  0.2692901E+04  0.7818609E-02  0.8337312E-01
        1   -1    0    0  501    0  0.00000000000E+00  0.00000000000E+00  0.20669046028E+04  0.20669046028E+04  0.50400001928E-02 0. -1.
       -1   -1    0    0    0  501  0.00000000000E+00  0.00000000000E+00 -0.87712247107E+03  0.87712247108E+03  0.50400001928E-02 0.  1.
    10030    2    1    2    0    0  0.00000000000E+00  0.00000000000E+00  0.11897821318E+04  0.29440270739E+04  0.26929006463E+04 0.  0.
        5    1    3    3  502    0 -0.58299168097E+03  0.69291756416E+03 -0.49447175068E+03  0.10317647276E+04  0.46999998093E+01 0. -1.
       -5    1    3    3    0  502  0.58299168097E+03 -0.69291756416E+03  0.16842538824E+04  0.19122623464E+04  0.46999998093E+01 0.  1.
</event>
<event>
 5   0  0.6561875E-07  0.2709979E+04  0.7818609E-02  0.8331774E-01
        3   -1    0    0  501    0  0.00000000000E+00  0.00000000000E+00  0.12497183745E+04  0.12497183785E+04  0.10100000352E+00 0.  1.
       -3   -1    0    0    0  501  0.00000000000E+00  0.00000000000E+00 -0.14691283673E+04  0.14691283707E+04  0.10100000352E+00 0. -1.
    10030    2    1    2    0    0  0.00000000000E+00  0.00000000000E+00 -0.21940999280E+03  0.27188467493E+04  0.27099791330E+04 0.  0.
        5    1    3    3  502    0 -0.11032256364E+04  0.34295542036E+03  0.60060138972E+03  0.13021018948E+04  0.46999998093E+01 0.  1.
       -5    1    3    3    0  502  0.11032256364E+04 -0.34295542036E+03 -0.82001138252E+03  0.14167448544E+04  0.46999998093E+01 0. -1.
</event>
<event>
 5   0  0.7335091E-07  0.2696475E+04  0.7818609E-02  0.8336149E-01
        1   -1    0    0  501    0  0.00000000000E+00  0.00000000000E+00  0.11251211353E+04  0.11251211353E+04  0.50400001928E-02 0. -1.
       -1   -1    0    0    0  501  0.00000000000E+00  0.00000000000E+00 -0.16155992616E+04  0.16155992616E+04  0.50400001928E-02 0.  1.
    10030    2    1    2    0    0  0.00000000000E+00  0.00000000000E+00 -0.49047812636E+03  0.27407203969E+04  0.26964753850E+04 0.  0.
        3    1    3    3  502    0  0.12917384191E+04 -0.26480822712E+03 -0.53098061402E+03  0.14214963817E+04  0.10100000352E+00 0. -1.
       -3    1    3    3    0  502 -0.12917384191E+04  0.26480822712E+03  0.40502487656E+02  0.13192240152E+04  0.10100000352E+00 0.  1.
</event>
<event>
 5   0  0.2030645E-06  0.2698131E+04  0.7818609E-02  0.8335612E-01
        2   -1    0    0  501    0  0.00000000000E+00  0.00000000000E+00  0.29706275510E+04  0.29706275510E+04  0.25500000920E-02 0.  1.
       -2   -1    0    0    0  501  0.00000000000E+00  0.00000000000E+00 -0.61265759895E+03  0.61265759896E+03  0.25500000920E-02 0. -1.
    10030    2    1    2    0    0  0.00000000000E+00  0.00000000000E+00  0.23579699521E+04  0.35832851500E+04  0.26981308662E+04 0.  0.
        1    1    3    3  502    0 -0.11582989425E+04 -0.35616811140E+03  0.39164983595E+03  0.12735390681E+04  0.50400001928E-02 0. -1.
       -1    1    3    3    0  502  0.11582989425E+04  0.35616811140E+03  0.19663201161E+04  0.23097460819E+04  0.50400001928E-02 0.  1.
</event>
<event>
 5   0  0.7436613E-07  0.2702203E+04  0.7818609E-02  0.8334291E-01
       -1   -1    0    0    0  501  0.00000000000E+00  0.00000000000E+00  0.11172690630E+04  0.11172690630E+04  0.50400001928E-02 0. -1.
        1   -1    0    0  501    0  0.00000000000E+00  0.00000000000E+00 -0.16338723349E+04  0.16338723349E+04  0.50400001928E-02 0.  1.
    10030    2    1    2    0    0  0.00000000000E+00  0.00000000000E+00 -0.51660327193E+03  0.27511413979E+04  0.27022028145E+04 0.  0.
        2    1    3    3  502    0 -0.35390255126E+03 -0.19241511550E+03 -0.15713108848E+04  0.16221246836E+04  0.25500000920E-02 0.  1.
       -2    1    3    3    0  502  0.35390255126E+03  0.19241511550E+03  0.10547076129E+04  0.11290167143E+04  0.25500000920E-02 0. -1.
</event>
<event>
 5   0  0.7335091E-07  0.2700255E+04  0.7818609E-02  0.8334922E-01
        1   -1    0    0  501    0  0.00000000000E+00  0.00000000000E+00  0.87664501317E+03  0.87664501319E+03  0.50400001928E-02 0. -1.
       -1   -1    0    0    0  501  0.00000000000E+00  0.00000000000E+00 -0.20793407072E+04  0.20793407072E+04  0.50400001928E-02 0.  1.
    10030    2    1    2    0    0  0.00000000000E+00  0.00000000000E+00 -0.12026956940E+04  0.29559857204E+04  0.27002545522E+04 0.  0.
        3    1    3    3  502    0 -0.43194561187E+03  0.10909237161E+04 -0.13325527395E+04  0.17754966572E+04  0.10100000352E+00 0.  1.
       -3    1    3    3    0  502  0.43194561187E+03 -0.10909237161E+04  0.12985704544E+03  0.11804890632E+04  0.10100000352E+00 0. -1.
</event>
<event>
 5   0  0.7436613E-07  0.2697916E+04  0.7818609E-02  0.8335681E-01
       -1   -1    0    0    0  501  0.00000000000E+00  0.00000000000E+00  0.97921165562E+03  0.97921165564E+03  0.50400001928E-02 0. -1.
        1   -1    0    0  501    0  0.00000000000E+00  0.00000000000E+00 -0.18583191914E+04  0.18583191914E+04  0.50400001928E-02 0.  1.
    10030    2    1    2    0    0  0.00000000000E+00  0.00000000000E+00 -0.87910753579E+03  0.28375308471E+04  0.26979160937E+04 0.  0.
        2    1    3    3  502    0  0.94688222071E+03  0.11972314580E+03  0.56307167960E+03  0.11081377567E+04  0.25500000920E-02 0. -1.
       -2    1    3    3    0  502 -0.94688222071E+03 -0.11972314580E+03 -0.14421792154E+04  0.17293930903E+04  0.25500000920E-02 0.  1.
</event>
<event>
 5   0  0.7335091E-07  0.2695180E+04  0.7818609E-02  0.8336571E-01
        1   -1    0    0  501    0  0.00000000000E+00  0.00000000000E+00  0.11638649448E+04  0.11638649448E+04  0.50400001928E-02 0. -1.
       -1   -1    0    0    0  501  0.00000000000E+00  0.00000000000E+00 -0.15603171990E+04  0.15603171990E+04  0.50400001928E-02 0.  1.
    10030    2    1    2    0    0  0.00000000000E+00  0.00000000000E+00 -0.39645225421E+03  0.27241821438E+04  0.26951797645E+04 0.  0.
        3    1    3    3  502    0  0.34728365362E+03  0.85836272309E+03  0.79139389093E+03  0.12180709344E+04  0.10100000352E+00 0. -1.
       -3    1    3    3    0  502 -0.34728365362E+03 -0.85836272309E+03 -0.11878461451E+04  0.15061112094E+04  0.10100000352E+00 0.  1.
</event>
<event>
 5   0  0.1991277E-06  0.2693990E+04  0.7818609E-02  0.8336958E-01
       -2   -1    0    0    0  501  0.00000000000E+00  0.00000000000E+00  0.13588262350E+04  0.13588262350E+04  0.25500000920E-02 0.  1.
        2   -1    0    0  501    0  0.00000000000E+00  0.00000000000E+00 -0.13352667092E+04  0.13352667092E+04  0.25500000920E-02 0. -1.
    10030    2    1    2    0    0  0.00000000000E+00  0.00000000000E+00  0.23559525833E+02  0.26940929442E+04  0.26939899296E+04 0.  0.
        5    1    3    3  502    0  0.88058029674E+03  0.56884706804E+03  0.85760445491E+03  0.13544431095E+04  0.46999998093E+01 0.  1.
       -5    1    3    3    0  502 -0.88058029674E+03 -0.56884706804E+03 -0.83404492908E+03  0.13396498347E+04  0.46999998093E+01 0. -1.
</event>
<event>
 5   0  0.2030645E-06  0.2668370E+04  0.7818609E-02  0.8345341E-01
       -2   -1    0    0    0  501  0.00000000000E+00  0.00000000000E+00  0.84713606912E+03  0.84713606912E+03  0.25500000920E-02 0. -1.
        2   -1    0    0  501    0  0.00000000000E+00  0.00000000000E+00 -0.21012564984E+04  0.21012564984E+04  0.25500000920E-02 0.  1.
    10030    2    1    2    0    0  0.00000000000E+00  0.00000000000E+00 -0.12541204292E+04  0.29483925675E+04  0.26683704167E+04 0.  0.
        1    1    3    3  502    0 -0.10619621093E+04 -0.64878790980E+01  0.26530867673E+03  0.10946206230E+04  0.50400001928E-02 0. -1.
       -1    1    3    3    0  502  0.10619621093E+04  0.64878790980E+01 -0.15194291060E+04  0.18537719445E+04  0.50400001928E-02 0.  1.
</event>
<event>
 5   0  0.7566905E-07  0.2700756E+04  0.7818609E-02  0.8334760E-01
        1   -1    0    0  501    0  0.00000000000E+00  0.00000000000E+00  0.16667845716E+04  0.16667845716E+04  0.50400001928E-02 0. -1.
       -1   -1    0    0    0  501  0.00000000000E+00  0.00000000000E+00 -0.10940347208E+04  0.10940347208E+04  0.50400001928E-02 0.  1.
    10030    2    1    2    0    0  0.00000000000E+00  0.00000000000E+00  0.57274985082E+03  0.27608192924E+04  0.27007555931E+04 0.  0.
        1    1    3    3  502    0  0.29711539436E+03 -0.17531575122E+03  0.16209779184E+04  0.16572816846E+04  0.50400001928E-02 0. -1.
       -1    1    3    3    0  502 -0.29711539436E+03  0.17531575122E+03 -0.10482280676E+04  0.11035376078E+04  0.50400001928E-02 0.  1.
</event>
<event>
 5   0  0.1932012E-06  0.2699930E+04  0.7818609E-02  0.8335028E-01
        2   -1    0    0  501    0  0.00000000000E+00  0.00000000000E+00  0.11194257499E+04  0.11194257499E+04  0.25500000920E-02 0. -1.
       -2   -1    0    0    0  501  0.00000000000E+00  0.00000000000E+00 -0.16279821882E+04  0.16279821882E+04  0.25500000920E-02 0.  1.
    10030    2    1    2    0    0  0.00000000000E+00  0.00000000000E+00 -0.50855643822E+03  0.27474079381E+04  0.26999297634E+04 0.  0.
        2    1    3    3  502    0 -0.32775748596E+03 -0.86784308744E+03 -0.12522528993E+04  0.15584331612E+04  0.25500000920E-02 0. -1.
       -2    1    3    3    0  502  0.32775748596E+03  0.86784308744E+03  0.74369646106E+03  0.11889747770E+04  0.25500000920E-02 0.  1.
</event>
<event>
 5   0  0.1991277E-06  0.2700105E+04  0.7818609E-02  0.8334971E-01
        2   -1    0    0  501    0  0.00000000000E+00  0.00000000000E+00  0.13548727908E+04  0.13548727908E+04  0.25500000920E-02 0.  1.
       -2   -1    0    0    0  501  0.00000000000E+00  0.00000000000E+00 -0.13452491478E+04  0.13452491478E+04  0.25500000920E-02 0. -1.
    10030    2    1    2    0    0  0.00000000000E+00  0.00000000000E+00  0.96236429877E+01  0.27001219387E+04  0.27001047886E+04 0.  0.
        5    1    3    3  502    0 -0.59826071336E+03  0.11235811433E+04  0.45455783889E+03  0.13516639322E+04  0.46999998093E+01 0.  1.
       -5    1    3    3    0  502  0.59826071336E+03 -0.11235811433E+04 -0.44493419590E+03  0.13484580065E+04  0.46999998093E+01 0. -1.
</event>
<event>
 5   0  0.7436613E-07  0.2665008E+04  0.7818609E-02  0.8346449E-01
        1   -1    0    0  501    0  0.00000000000E+00  0.00000000000E+00  0.11291258408E+04  0.11291258408E+04  0.50400001928E-02 0. -1.
       -1   -1    0    0    0  501  0.00000000000E+00  0.00000000000E+00 -0.15725145469E+04  0.15725145469E+04  0.50400001928E-02 0.  1.
    10030    2    1    2    0    0  0.00000000000E+00  0.00000000000E+00 -0.44338870606E+03  0.27016403877E+04  0.26650079249E+04 0.  0.
        2    1    3    3  502    0 -0.19197509793E+02 -0.13313737815E+04 -0.16958625106E+03  0.13422682992E+04  0.25500000920E-02 0.  1.
       -2    1    3    3    0  502  0.19197509793E+02  0.13313737815E+04 -0.27380245499E+03  0.13593720885E+04  0.25500000920E-02 0. -1.
</event>
<event>
 5   0  0.1932012E-06  0.2697716E+04  0.7818609E-02  0.8335747E-01
        2   -1    0    0  501    0  0.00000000000E+00  0.00000000000E+00  0.12339798817E+04  0.12339798817E+04  0.25500000920E-02 0. -1.
       -2   -1    0    0    0  501  0.00000000000E+00  0.00000000000E+00 -0.14744304371E+04  0.14744304371E+04  0.25500000920E-02 0.  1.
    10030    2    1    2    0    0  0.00000000000E+00  0.00000000000E+00 -0.24045055548E+03  0.27084103188E+04  0.26977156977E+04 0.  0.
        2    1    3    3  502    0  0.50105891993E+03  0.12375859925E+04  0.72207123941E+02  0.13371211609E+04  0.25500000920E-02 0.  1.
       -2    1    3    3    0  502 -0.50105891993E+03 -0.12375859925E+04 -0.31265767942E+03  0.13712891579E+04  0.25500000920E-02 0. -1.
</event>
<event>
 5   0  0.2063087E-06  0.2704580E+04  0.7818609E-02  0.8333521E-01
        2   -1    0    0  501    0  0.00000000000E+00  0.00000000000E+00  0.12487329460E+04  0.12487329460E+04  0.25500000920E-02 0.  1.
       -2   -1    0    0    0  501  0.00000000000E+00  0.00000000000E+00 -0.14644345692E+04  0.14644345692E+04  0.25500000920E-02 0. -1.
    10030    2    1    2    0    0  0.00000000000E+00  0.00000000000E+00 -0.21570162313E+03  0.27131675152E+04  0.27045795931E+04 0.  0.
        3    1    3    3  502    0  0.57371004651E+03 -0.97124224382E+03 -0.85602927986E+03  0.14160652710E+04  0.10100000352E+00 0. -1.
       -3    1    3    3    0  502 -0.57371004651E+03  0.97124224382E+03  0.64032765673E+03  0.12971022442E+04  0.10100000352E+00 0.  1.
</event>
<event>
 5   0  0.6561875E-07  0.2701355E+04  0.7818609E-02  0.8334566E-01
        3   -1    0    0  501    0  0.00000000000E+00  0.00000000000E+00  0.22389477254E+04  0.22389477277E+04  0.10100000352E+00 0.  1.
       -3   -1    0    0    0  501  0.00000000000E+00  0.00000000000E+00 -0.81481537854E+03  0.81481538480E+03  0.10100000352E+00 0. -1.
    10030    2    1    2    0    0  0.00000000000E+00  0.00000000000E+00  0.14241323469E+04  0.30537631125E+04  0.27013545132E+04 0.  0.
        1    1    3    3  502    0 -0.48540308751E+03  0.12573599261E+04  0.61249029865E+03  0.14804440236E+04  0.50400001928E-02 0.  1.
       -1    1    3    3    0  502  0.48540308751E+03 -0.12573599261E+04  0.81164204821E+03  0.15733190889E+04  0.50400001928E-02 0. -1.
</event>
<event>
 5   0  0.7806808E-07  0.2624809E+04  0.7818609E-02  0.8359823E-01
        1   -1    0    0  501    0  0.00000000000E+00  0.00000000000E+00  0.20029471194E+04  0.20029471194E+04  0.50400001928E-02 0.  1.
       -1   -1    0    0    0  501  0.00000000000E+00  0.00000000000E+00 -0.85993574050E+03  0.85993574052E+03  0.50400001928E-02 0. -1.
    10030    2    1    2    0    0  0.00000000000E+00  0.00000000000E+00  0.11430113789E+04  0.28628828599E+04  0.26248091849E+04 0.  0.
        5    1    3    3  502    0  0.84077532299E+02 -0.92446956238E+03  0.15833748409E+04  0.18354320962E+04  0.46999998093E+01 0.  1.
       -5    1    3    3    0  502 -0.84077532299E+02  0.92446956238E+03 -0.44036346196E+03  0.10274507637E+04  0.46999998093E+01 0. -1.
</event>
<event>
 5   0  0.2030645E-06  0.2720210E+04  0.7818609E-02  0.8328477E-01
       -2   -1    0    0    0  501  0.00000000000E+00  0.00000000000E+00  0.12309953216E+04  0.12309953216E+04  0.25500000920E-02 0. -1.
        2   -1    0    0  501    0  0.00000000000E+00  0.00000000000E+00 -0.15027558022E+04  0.15027558022E+04  0.25500000920E-02 0.  1.
    10030    2    1    2    0    0  0.00000000000E+00  0.00000000000E+00 -0.27176048057E+03  0.27337511238E+04  0.27202098170E+04 0.  0.
        1    1    3    3  502    0  0.87408999171E+03 -0.53728828928E+02 -0.11817168345E+04  0.14708415203E+04  0.50400001928E-02 0.  1.
       -1    1    3    3    0  502 -0.87408999171E+03  0.53728828928E+02  0.90995635396E+03  0.12629096036E+04  0.50400001928E-02 0. -1.
</event>
<event>
 5   0  0.7768032E-07  0.2703621E+04  0.7818609E-02  0.8333831E-01
       -1   -1    0    0    0  501  0.00000000000E+00  0.00000000000E+00  0.15354091828E+04  0.15354091828E+04  0.50400001928E-02 0. -1.
        1   -1    0    0  501    0  0.00000000000E+00  0.00000000000E+00 -0.11901655089E+04  0.11901655089E+04  0.50400001928E-02 0.  1.
    10030    2    1    2    0    0  0.00000000000E+00  0.00000000000E+00  0.34524367395E+03  0.27255746917E+04  0.27036205735E+04 0.  0.
        4    1    3    3  502    0 -0.13989200890E+03 -0.67658569029E+03 -0.99873039130E+03  0.12144142530E+04  0.12699999809E+01 0.  1.
       -4    1    3    3    0  502  0.13989200890E+03  0.67658569029E+03  0.13439740653E+04  0.15111604387E+04  0.12699999809E+01 0. -1.
</event>
<event>
 5   0  0.7436613E-07  0.2708915E+04  0.7818609E-02  0.8332118E-01
       -1   -1    0    0    0  501  0.00000000000E+00  0.00000000000E+00  0.86215189422E+03  0.86215189423E+03  0.50400001928E-02 0. -1.
        1   -1    0    0  501    0  0.00000000000E+00  0.00000000000E+00 -0.21278785529E+04  0.21278785529E+04  0.50400001928E-02 0.  1.
    10030    2    1    2    0    0  0.00000000000E+00  0.00000000000E+00 -0.12657266587E+04  0.29900304472E+04  0.27089145613E+04 0.  0.
        2    1    3    3  502    0 -0.81148118588E+03 -0.42025808763E+03 -0.17363263575E+04  0.19621283839E+04  0.25500000920E-02 0.  1.
       -2    1    3    3    0  502  0.81148118588E+03  0.42025808763E+03  0.47059969874E+03  0.10279020633E+04  0.25500000920E-02 0. -1.
</event>
<event>
 5   0  0.1999104E-06  0.2699879E+04  0.7818609E-02  0.8335044E-01
       -2   -1    0    0    0  501  0.00000000000E+00  0.00000000000E+00  0.75790892297E+03  0.75790892298E+03  0.25500000920E-02 0.  1.
        2   -1    0    0  501    0  0.00000000000E+00  0.00000000000E+00 -0.24044270863E+04  0.24044270863E+04  0.25500000920E-02 0. -1.
    10030    2    1    2    0    0  0.00000000000E+00  0.00000000000E+00 -0.16465181633E+04  0.31623360093E+04  0.26998790664E+04 0.  0.
        4    1    3    3  502    0  0.13331313288E+04  0.17004202345E+03 -0.67426267762E+03  0.15035907691E+04  0.12699999809E+01 0.  1.
       -4    1    3    3    0  502 -0.13331313288E+04 -0.17004202345E+03 -0.97225548571E+03  0.16587452402E+04  0.12699999809E+01 0. -1.
</event>
<event>
 5   0  0.1932012E-06  0.2697075E+04  0.7818609E-02  0.8335954E-01
       -2   -1    0    0    0  501  0.00000000000E+00  0.00000000000E+00  0.81913742487E+03  0.81913742488E+03  0.25500000920E-02 0. -1.
        2   -1    0    0  501    0  0.00000000000E+00  0.00000000000E+00 -0.22200841900E+04  0.22200841900E+04  0.25500000920E-02 0.  1.
    10030    2    1    2    0    0  0.00000000000E+00  0.00000000000E+00 -0.14009467651E+04  0.30392216148E+04  0.26970754875E+04 0.  0.
        2    1    3    3  502    0  0.12494120299E+04  0.46049009093E+03 -0.46017895876E+03  0.14088457043E+04  0.25500000920E-02 0. -1.
       -2    1    3    3    0  502 -0.12494120299E+04 -0.46049009093E+03 -0.94076780632E+03  0.16303759106E+04  0.25500000920E-02 0.  1.
</event>
<event>
 5   0  0.1991277E-06  0.2697360E+04  0.7818609E-02  0.8335862E-01
        2   -1    0    0  501    0  0.00000000000E+00  0.00000000000E+00  0.28815076474E+04  0.28815076474E+04  0.25500000920E-02 0.  1.
       -2   -1    0    0    0  501  0.00000000000E+00  0.00000000000E+00 -0.63124525973E+03  0.63124525973E+03  0.25500000920E-02 0. -1.
    10030    2    1    2    0    0  0.00000000000E+00  0.00000000000E+00  0.22502623877E+04  0.35127529072E+04  0.26973602231E+04 0.  0.
        5    1    3    3  502    0  0.13105482336E+04 -0.29894276310E+03  0.98239784775E+03  0.16649417616E+04  0.46999998093E+01 0. -1.
       -5    1    3    3    0  502 -0.13105482336E+04  0.29894276310E+03  0.12678645399E+04  0.18478111456E+04  0.46999998093E+01 0.  1.
</event>
<event>
 5   0  0.7436613E-07  0.2695838E+04  0.7818609E-02  0.8336357E-01
        1   -1    0    0  501    0  0.00000000000E+00  0.00000000000E+00  0.19396605139E+04  0.19396605139E+04  0.50400001928E-02 0. -1.
       -1   -1    0    0    0  501  0.00000000000E+00  0.00000000000E+00 -0.93670270677E+03  0.93670270678E+03  0.50400001928E-02 0.  1.
    10030    2    1    2    0    0  0.00000000000E+00  0.00000000000E+00  0.10029578071E+04  0.28763632207E+04  0.26958377203E+04 0.  0.
        2    1    3    3  502    0  0.46633842426E+03  0.12142681013E+04  0.12430021835E+03  0.13066633430E+04  0.25500000920E-02 0.  1.
       -2    1    3    3    0  502 -0.46633842426E+03 -0.12142681013E+04  0.87865758877E+03  0.15696998777E+04  0.25500000920E-02 0. -1.
</event>
<event>
 5   0  0.1999104E-06  0.2701751E+04  0.7818609E-02  0.8334437E-01
        2   -1    0    0  501    0  0.00000000000E+00  0.00000000000E+00  0.17985800998E+04  0.17985800998E+04  0.25500000920E-02 0.  1.
       -2   -1    0    0    0  501  0.00000000000E+00  0.00000000000E+00 -0.10146138389E+04  0.10146138389E+04  0.25500000920E-02 0. -1.
    10030    2    1    2    0    0  0.00000000000E+00  0.00000000000E+00  0.78396626088E+03  0.28131939387E+04  0.27017507358E+04 0.  0.
        4    1    3    3  502    0 -0.32703703939E+03  0.53704729360E+03 -0.85294677209E+03  0.10596663766E+04  0.12699999809E+01 0. -1.
       -4    1    3    3    0  502  0.32703703939E+03 -0.53704729360E+03  0.16369130330E+04  0.17535275621E+04  0.12699999809E+01 0.  1.
</event>
<event>
 5   0  0.2063087E-06  0.2701748E+04  0.7818609E-02  0.8334438E-01
        2   -1    0    0  501    0  0.00000000000E+00  0.00000000000E+00  0.98495110047E+03  0.98495110047E+03  0.25500000920E-02 0. -1.
       -2   -1    0    0    0  501  0.00000000000E+00  0.00000000000E+00 -0.18527424133E+04  0.18527424133E+04  0.25500000920E-02 0.  1.
    10030    2    1    2    0    0  0.00000000000E+00  0.00000000000E+00 -0.86779131287E+03  0.28376935138E+04  0.27017480852E+04 0.  0.
        3    1    3    3  502    0 -0.80987675568E+03  0.92295833814E+03  0.15756298575E+03  0.12379735692E+04  0.10100000352E+00 0. -1.
       -3    1    3    3    0  502  0.80987675568E+03 -0.92295833814E+03 -0.10253542986E+04  0.15997199446E+04  0.10100000352E+00 0.  1.
</event>
<event>
 5   0  0.7335091E-07  0.2699268E+04  0.7818609E-02  0.8335242E-01
        1   -1    0    0  501    0  0.00000000000E+00  0.00000000000E+00  0.20545299073E+04  0.20545299073E+04  0.50400001928E-02 0. -1.
       -1   -1    0    0    0  501  0.00000000000E+00  0.00000000000E+00 -0.88658357531E+03  0.88658357532E+03  0.50400001928E-02 0.  1.
    10030    2    1    2    0    0  0.00000000000E+00  0.00000000000E+00  0.11679463320E+04  0.29411134826E+04  0.26992683978E+04 0.  0.
        3    1    3    3  502    0  0.87258173505E+03  0.88306950956E+03  0.71022166719E+01  0.12414753702E+04  0.10100000352E+00 0. -1.
       -3    1    3    3    0  502 -0.87258173505E+03 -0.88306950956E+03  0.11608441153E+04  0.16996381125E+04  0.10100000352E+00 0.  1.
</event>
<event>
 5   0  0.2063087E-06  0.2700881E+04  0.7818609E-02  0.8334719E-01
       -2   -1    0    0    0  501  0.00000000000E+00  0.00000000000E+00  0.12921045405E+04  0.12921045405E+04  0.25500000920E-02 0. -1.
        2   -1    0    0  501    0  0.00000000000E+00  0.00000000000E+00 -0.14114104910E+04  0.14114104910E+04  0.25500000920E-02 0.  1.
    10030    2    1    2    0    0  0.00000000000E+00  0.00000000000E+00 -0.11930595048E+03  0.27035150314E+04  0.27008812664E+04 0.  0.
        3    1    3    3  502    0 -0.70137639020E+03 -0.42581914514E+03 -0.11332841523E+04  0.13991367929E+04  0.10100000352E+00 0.  1.
       -3    1    3    3    0  502  0.70137639020E+03  0.42581914514E+03  0.10139782019E+04  0.13043782385E+04  0.10100000352E+00 0. -1.
</event>
<event>
 5   0  0.7436613E-07  0.2699877E+04  0.7818609E-02  0.8335045E-01
       -1   -1    0    0    0  501  0.00000000000E+00  0.00000000000E+00  0.79347374008E+03  0.79347374010E+03  0.50400001928E-02 0. -1.
        1   -1    0    0  501    0  0.00000000000E+00  0.00000000000E+00 -0.22966533387E+04  0.22966533387E+04  0.50400001928E-02 0.  1.
    10030    2    1    2    0    0  0.00000000000E+00  0.00000000000E+00 -0.15031795986E+04  0.30901270788E+04  0.26998771189E+04 0.  0.
        2    1    3    3  502    0  0.28559711245E+03 -0.41706602256E+03  0.68106809019E+03  0.84815300583E+03  0.25500000920E-02 0. -1.
       -2    1    3    3    0  502 -0.28559711245E+03  0.41706602256E+03 -0.21842476888E+04  0.22419740729E+04  0.25500000920E-02 0.  1.
</event>
<event>
 5   0  0.7566905E-07  0.2702408E+04  0.7818609E-02  0.8334224E-01
       -1   -1    0    0    0  501  0.00000000000E+00  0.00000000000E+00  0.14988048920E+04  0.14988048920E+04  0.50400001928E-02 0. -1.
        1   -1    0    0  501    0  0.00000000000E+00  0.00000000000E+00 -0.12181387750E+04  0.12181387750E+04  0.50400001928E-02 0.  1.
    10030    2    1    2    0    0  0.00000000000E+00  0.00000000000E+00  0.28066611693E+03  0.27169436670E+04  0.27024080781E+04 0.  0.
        1    1    3    3  502    0  0.88132187916E+02 -0.43256544710E+03  0.14242580995E+04  0.14911040482E+04  0.50400001928E-02 0. -1.
       -1    1    3    3    0  502 -0.88132187916E+02  0.43256544710E+03 -0.11435919825E+04  0.12258396188E+04  0.50400001928E-02 0.  1.
</event>
<event>
 5   0  0.1999104E-06  0.2692743E+04  0.7818609E-02  0.8337364E-01
        2   -1    0    0  501    0  0.00000000000E+00  0.00000000000E+00  0.20553175492E+04  0.20553175492E+04  0.25500000920E-02 0. -1.
       -2   -1    0    0    0  501  0.00000000000E+00  0.00000000000E+00 -0.88196381362E+03  0.88196381362E+03  0.25500000920E-02 0.  1.
    10030    2    1    2    0    0  0.00000000000E+00  0.00000000000E+00  0.11733537356E+04  0.29372813628E+04  0.26927426196E+04 0.  0.
        4    1    3    3  502    0 -0.10162773149E+04 -0.57792684623E+03  0.13150720105E+04  0.17596121806E+04  0.12699999809E+01 0. -1.
       -4    1    3    3    0  502  0.10162773149E+04  0.57792684623E+03 -0.14171827491E+03  0.11776691822E+04  0.12699999809E+01 0.  1.
</event>
<event>
 5   0  0.1999104E-06  0.2699396E+04  0.7818609E-02  0.8335201E-01
        2   -1    0    0  501    0  0.00000000000E+00  0.00000000000E+00  0.13683004899E+04  0.13683004899E+04  0.25500000920E-02 0. -1.
       -2   -1    0    0    0  501  0.00000000000E+00  0.00000000000E+00 -0.13313484889E+04  0.13313484889E+04  0.25500000920E-02 0.  1.
    10030    2    1    2    0    0  0.00000000000E+00  0.00000000000E+00  0.36952001002E+02  0.26996489787E+04  0.26993960728E+04 0.  0.
        4    1    3    3  502    0 -0.95084920443E+03  0.62678835281E+03  0.74290933179E+03  0.13597403197E+04  0.12699999809E+01 0. -1.
       -4    1    3    3    0  502  0.95084920443E+03 -0.62678835281E+03 -0.70595733079E+03  0.13399086590E+04  0.12699999809E+01 0.  1.
</event>
<event>
 5   0  0.1999104E-06  0.2695811E+04  0.7818609E-02  0.8336365E-01
       -2   -1    0    0    0  501  0.00000000000E+00  0.00000000000E+00  0.82064428468E+03  0.82064428468E+03  0.25500000920E-02 0. -1.
        2   -1    0    0  501    0  0.00000000000E+00  0.00000000000E+00 -0.22139305601E+04  0.22139305601E+04  0.25500000920E-02 0.  1.
    10030    2    1    2    0    0  0.00000000000E+00  0.00000000000E+00 -0.13932862755E+04  0.30345748448E+04  0.26958111661E+04 0.  0.
        4    1    3    3  502    0 -0.12024502049E+04  0.23531748977E+03 -0.64277940797E+02  0.12269450203E+04  0.12699999809E+01 0.  1.
       -4    1    3    3    0  502  0.12024502049E+04 -0.23531748977E+03 -0.13290083347E+04  0.18076298246E+04  0.12699999809E+01 0. -1.
</event>
<event>
 5   0  0.7335091E-07  0.2697768E+04  0.7818609E-02  0.8335730E-01
       -1   -1    0    0    0  501  0.00000000000E+00  0.00000000000E+00  0.85646392119E+03  0.85646392121E+03  0.50400001928E-02 0. -1.
        1   -1    0    0  501    0  0.00000000000E+00  0.00000000000E+00 -0.21244182313E+04  0.21244182313E+04  0.50400001928E-02 0.  1.
    10030    2    1    2    0    0  0.00000000000E+00  0.00000000000E+00 -0.12679543101E+04  0.29808821526E+04  0.26977676466E+04 0.  0.
        3    1    3    3  502    0 -0.51560319545E+03  0.60272991826E+03 -0.18395098133E+04  0.20032289866E+04  0.10100000352E+00 0.  1.
       -3    1    3    3    0  502  0.51560319545E+03 -0.60272991826E+03  0.57155550311E+03  0.97765316594E+03  0.10100000352E+00 0. -1.
</event>
<event>
 5   0  0.1991277E-06  0.2696622E+04  0.7818609E-02  0.8336102E-01
       -2   -1    0    0    0  501  0.00000000000E+00  0.00000000000E+00  0.75824360809E+03  0.75824360809E+03  0.25500000920E-02 0.  1.
        2   -1    0    0  501    0  0.00000000000E+00  0.00000000000E+00 -0.23975701057E+04  0.23975701057E+04  0.25500000920E-02 0. -1.
    10030    2    1    2    0    0  0.00000000000E+00  0.00000000000E+00 -0.16393264976E+04  0.31558137138E+04  0.26966217440E+04 0.  0.
        5    1    3    3  502    0  0.56295314941E+03 -0.90022551111E+03  0.15286886985E+03  0.10727130095E+04  0.46999998093E+01 0.  1.
       -5    1    3    3    0  502 -0.56295314941E+03  0.90022551111E+03 -0.17921953674E+04  0.20831007043E+04  0.46999998093E+01 0. -1.
</event>
<event>
 5   0  0.2030645E-06  0.2696708E+04  0.7818609E-02  0.8336074E-01
        2   -1    0    0  501    0  0.00000000000E+00  0.00000000000E+00  0.20291955523E+04  0.20291955523E+04  0.25500000920E-02 0. -1.
       -2   -1    0    0    0  501  0.00000000000E+00  0.00000000000E+00 -0.89595042420E+03  0.89595042420E+03  0.25500000920E-02 0.  1.
    10030    2    1    2    0    0  0.00000000000E+00  0.00000000000E+00  0.11332451281E+04  0.29251459765E+04  0.26967080790E+04 0.  0.
        1    1    3    3  502    0  0.46684496965E+02 -0.11499100221E+04 -0.19544780324E+03  0.11673355752E+04  0.50400001928E-02 0. -1.
       -1    1    3    3    0  502 -0.46684496965E+02  0.11499100221E+04  0.13286929313E+04  0.17578104013E+04  0.50400001928E-02 0.  1.
</event>
<event>
 5   0  0.7436613E-07  0.2696212E+04  0.7818609E-02  0.8336235E-01
       -1   -1    0    0    0  501  0.00000000000E+00  0.00000000000E+00  0.96095791790E+03  0.96095791791E+03  0.50400001928E-02 0. -1.
        1   -1    0    0  501    0  0.00000000000E+00  0.00000000000E+00 -0.18912277120E+04  0.18912277120E+04  0.50400001928E-02 0.  1.
    10030    2    1    2    0    0  0.00000000000E+00  0.00000000000E+00 -0.93026979406E+03  0.28521856299E+04  0.26962123391E+04 0.  0.
        2    1    3    3  502    0 -0.55922391434E+03 -0.50914455423E+03 -0.16456824238E+04  0.18111405808E+04  0.25500000920E-02 0.  1.
       -2    1    3    3    0  502  0.55922391434E+03  0.50914455423E+03  0.71541262971E+03  0.10410450491E+04  0.25500000920E-02 0. -1.
</event>
<event>
 5   0  0.7566905E-07  0.2698497E+04  0.7818609E-02  0.8335493E-01
       -1   -1    0    0    0  501  0.00000000000E+00  0.00000000000E+00  0.87883178288E+03  0.87883178290E+03  0.50400001928E-02 0. -1.
        1   -1    0    0  501    0  0.00000000000E+00  0.00000000000E+00 -0.20714679130E+04  0.20714679130E+04  0.50400001928E-02 0.  1.
    10030    2    1    2    0    0  0.00000000000E+00  0.00000000000E+00 -0.11926361302E+04  0.29502996959E+04  0.26984972405E+04 0.  0.
        1    1    3    3  502    0 -0.24231376259E+03 -0.67555675537E+03 -0.18454619285E+04  0.19801067191E+04  0.50400001928E-02 0.  1.
       -1    1    3    3    0  502  0.24231376259E+03  0.67555675537E+03  0.65282579839E+03  0.97019297685E+03  0.50400001928E-02 0. -1.
</event>
<event>
 5   0  0.7436613E-07  0.2697219E+04  0.7818609E-02  0.8335908E-01
       -1   -1    0    0    0  501  0.00000000000E+00  0.00000000000E+00  0.12640299866E+04  0.12640299866E+04  0.50400001928E-02 0.  1.
        1   -1    0    0  501    0  0.00000000000E+00  0.00000000000E+00 -0.14388489766E+04  0.14388489766E+04  0.50400001928E-02 0. -1.
    10030    2    1    2    0    0  0.00000000000E+00  0.00000000000E+00 -0.17481899001E+03  0.27028789631E+04  0.26972194961E+04 0.  0.
        2    1    3    3  502    0  0.81962410681E+02  0.20034304930E+01  0.12615303049E+04  0.12641916630E+04  0.25500000920E-02 0.  1.
       -2    1    3    3    0  502 -0.81962410681E+02 -0.20034304930E+01 -0.14363492949E+04  0.14386873001E+04  0.25500000920E-02 0. -1.
</event>
<event>
 5   0  0.2063087E-06  0.2710217E+04  0.7818609E-02  0.8331697E-01
        2   -1    0    0  501    0  0.00000000000E+00  0.00000000000E+00  0.10620356897E+04  0.10620356897E+04  0.25500000920E-02 0. -1.
       -2   -1    0    0    0  501  0.00000000000E+00  0.00000000000E+00 -0.17290562457E+04  0.17290562457E+04  0.25500000920E-02 0.  1.
    10030    2    1    2    0    0  0.00000000000E+00  0.00000000000E+00 -0.66702055596E+03  0.27910919354E+04  0.27102172920E+04 0.  0.
        3    1    3    3  502    0  0.49947060648E+03  0.12326420107E+04 -0.66064371100E+02  0.13316312270E+04  0.10100000352E+00 0.  1.
       -3    1    3    3    0  502 -0.49947060648E+03 -0.12326420107E+04 -0.60095618486E+03  0.14594607085E+04  0.10100000352E+00 0. -1.
</event>
<event>
 5   0  0.7436613E-07  0.2698763E+04  0.7818609E-02  0.8335407E-01
       -1   -1    0    0    0  501  0.00000000000E+00  0.00000000000E+00  0.19454945463E+04  0.19454945463E+04  0.50400001928E-02 0. -1.
        1   -1    0    0  501    0  0.00000000000E+00  0.00000000000E+00 -0.93592133443E+03  0.93592133445E+03  0.50400001928E-02 0.  1.
    10030    2    1    2    0    0  0.00000000000E+00  0.00000000000E+00  0.10095732119E+04  0.28814158807E+04  0.26987625697E+04 0.  0.
        2    1    3    3  502    0 -0.63291387949E+03  0.60032503117E+03  0.16039581153E+04  0.18258290604E+04  0.25500000920E-02 0. -1.
       -2    1    3    3    0  502  0.63291387949E+03 -0.60032503117E+03 -0.59438490347E+03  0.10555868204E+04  0.25500000920E-02 0.  1.
</event>
<event>
 5   0  0.1932012E-06  0.2702912E+04  0.7818609E-02  0.8334061E-01
        2   -1    0    0  501    0  0.00000000000E+00  0.00000000000E+00  0.22648050968E+04  0.22648050968E+04  0.25500000920E-02 0. -1.
       -2   -1    0    0    0  501  0.00000000000E+00  0.00000000000E+00 -0.80644155733E+03  0.80644155733E+03  0.25500000920E-02 0.  1.
    10030    2    1    2    0    0  0.00000000000E+00  0.00000000000E+00  0.14583635395E+04  0.30712466542E+04  0.27029117258E+04 0.  0.
        2    1    3    3  502    0  0.45418798751E+03  0.31857542652E+03  0.21294541660E+04  0.22005344977E+04  0.25500000920E-02 0. -1.
       -2    1    3    3    0  502 -0.45418798751E+03 -0.31857542652E+03 -0.67109062653E+03  0.87071215645E+03  0.25500000920E-02 0.  1.
</event>
<event>
 5   0  0.7335091E-07  0.2701028E+04  0.7818609E-02  0.8334672E-01
       -1   -1    0    0    0  501  0.00000000000E+00  0.00000000000E+00  0.88116312594E+03  0.88116312595E+03  0.50400001928E-02 0. -1.
        1   -1    0    0  501    0  0.00000000000E+00  0.00000000000E+00 -0.20698635980E+04  0.20698635980E+04  0.50400001928E-02 0.  1.
    10030    2    1    2    0    0  0.00000000000E+00  0.00000000000E+00 -0.11887004720E+04  0.29510267239E+04  0.27010275661E+04 0.  0.
        3    1    3    3  502    0  0.85225499529E+03 -0.69091083599E+03 -0.14547630971E+04  0.18220955077E+04  0.10100000352E+00 0.  1.
       -3    1    3    3    0  502 -0.85225499529E+03  0.69091083599E+03  0.26606262508E+03  0.11289312162E+04  0.10100000352E+00 0. -1.
</event>
<event>
 5   0  0.7566905E-07  0.2693185E+04  0.7818609E-02  0.8337220E-01
       -1   -1    0    0    0  501  0.00000000000E+00  0.00000000000E+00  0.11162779920E+04  0.11162779920E+04  0.50400001928E-02 0.  1.
        1   -1    0    0  501    0  0.00000000000E+00  0.00000000000E+00 -0.16244260104E+04  0.16244260104E+04  0.50400001928E-02 0. -1.
    10030    2    1    2    0    0  0.00000000000E+00  0.00000000000E+00 -0.50814801842E+03  0.27407040025E+04  0.26931847357E+04 0.  0.
        1    1    3    3  502    0  0.11502928377E+04  0.65034089890E+03  0.97179694640E+01  0.13214428994E+04  0.50400001928E-02 0.  1.
       -1    1    3    3    0  502 -0.11502928377E+04 -0.65034089890E+03 -0.51786598788E+03  0.14192611031E+04  0.50400001928E-02 0. -1.
</event>
<event>
 5   0  0.1999104E-06  0.2690979E+04  0.7818609E-02  0.8337938E-01
       -2   -1    0    0    0  501  0.00000000000E+00  0.00000000000E+00  0.12021915635E+04  0.12021915635E+04  0.25500000920E-02 0. -1.
        2   -1    0    0  501    0  0.00000000000E+00  0.00000000000E+00 -0.15058684396E+04  0.15058684396E+04  0.25500000920E-02 0.  1.
    10030    2    1    2    0    0  0.00000000000E+00  0.00000000000E+00 -0.30367687602E+03  0.27080600031E+04  0.26909792521E+04 0.  0.
        4    1    3    3  502    0 -0.32659580828E+03 -0.11373181407E+04 -0.79635924940E+03  0.14263053818E+04  0.12699999809E+01 0.  1.
       -4    1    3    3    0  502  0.32659580828E+03  0.11373181407E+04  0.49268237339E+03  0.12817546213E+04  0.12699999809E+01 0. -1.
</event>
<event>
 5   0  0.1991277E-06  0.2700012E+04  0.7818609E-02  0.8335001E-01
        2   -1    0    0  501    0  0.00000000000E+00  0.00000000000E+00  0.12312507122E+04  0.12312507122E+04  0.25500000920E-02 0. -1.
       -2   -1    0    0    0  501  0.00000000000E+00  0.00000000000E+00 -0.14802157995E+04  0.14802157995E+04  0.25500000920E-02 0.  1.
    10030    2    1    2    0    0  0.00000000000E+00  0.00000000000E+00 -0.24896508736E+03  0.27114665117E+04  0.27000124128E+04 0.  0.
        5    1    3    3  502    0  0.10855387656E+04  0.24784067543E+03 -0.89105246048E+03  0.14261192058E+04  0.46999998093E+01 0. -1.
       -5    1    3    3    0  502 -0.10855387656E+04 -0.24784067543E+03  0.64208737312E+03  0.12853473058E+04  0.46999998093E+01 0.  1.
</event>
<event>
 5   0  0.7436613E-07  0.2693633E+04  0.7818609E-02  0.8337074E-01
        1   -1    0    0  501    0  0.00000000000E+00  0.00000000000E+00  0.15281889371E+04  0.15281889371E+04  0.50400001928E-02 0. -1.
       -1   -1    0    0    0  501  0.00000000000E+00  0.00000000000E+00 -0.11869706000E+04  0.11869706000E+04  0.50400001928E-02 0.  1.
    10030    2    1    2    0    0  0.00000000000E+00  0.00000000000E+00  0.34121833707E+03  0.27151595371E+04  0.26936334862E+04 0.  0.
        2    1    3    3  502    0  0.20088880759E+03  0.11755195417E+04 -0.46026210248E+03  0.12782971912E+04  0.25500000920E-02 0.  1.
       -2    1    3    3    0  502 -0.20088880759E+03 -0.11755195417E+04  0.80148043955E+03  0.14368623459E+04  0.25500000920E-02 0. -1.
</event>
<event>
 5   0  0.7768032E-07  0.2698385E+04  0.7818609E-02  0.8335529E-01
       -1   -1    0    0    0  501  0.00000000000E+00  0.00000000000E+00  0.11312883973E+04  0.11312883973E+04  0.50400001928E-02 0.  1.
        1   -1    0    0  501    0  0.00000000000E+00  0.00000000000E+00 -0.16090689169E+04  0.16090689169E+04  0.50400001928E-02 0. -1.
    10030    2    1    2    0    0  0.00000000000E+00  0.00000000000E+00 -0.47778051959E+03  0.27403573142E+04  0.26983854403E+04 0.  0.
        4    1    3    3  502    0 -0.44623662792E+03 -0.12732440357E+04 -0.24546245149E+03  0.13713245169E+04  0.12699999809E+01 0.  1.
       -4    1    3    3    0  502  0.44623662792E+03  0.12732440357E+04 -0.23231806811E+03  0.13690327974E+04  0.12699999809E+01 0. -1.
</event>
<event>
 5   0  0.7566905E-07  0.2697610E+04  0.7818609E-02  0.8335781E-01
        1   -1    0    0  501    0  0.00000000000E+00  0.00000000000E+00  0.14077745181E+04  0.14077745181E+04  0.50400001928E-02 0. -1.
       -1   -1    0    0    0  501  0.00000000000E+00  0.00000000000E+00 -0.12923054423E+04  0.12923054423E+04  0.50400001928E-02 0.  1.
    10030    2    1    2    0    0  0.00000000000E+00  0.00000000000E+00  0.11546907584E+03  0.27000799604E+04  0.26976098096E+04 0.  0.
        1    1    3    3  502    0 -0.45407570086E+03 -0.70582961000E+03 -0.99911795961E+03  0.13048436219E+04  0.50400001928E-02 0.  1.
       -1    1    3    3    0  502  0.45407570086E+03  0.70582961000E+03  0.11145870355E+04  0.13952363384E+04  0.50400001928E-02 0. -1.
</event>
<event>
 5   0  0.7806808E-07  0.2678756E+04  0.7818609E-02  0.8341931E-01
        1   -1    0    0  501    0  0.00000000000E+00  0.00000000000E+00  0.15167777858E+04  0.15167777858E+04  0.50400001928E-02 0.  1.
       -1   -1    0    0    0  501  0.00000000000E+00  0.00000000000E+00 -0.11827265795E+04  0.11827265796E+04  0.50400001928E-02 0. -1.
    10030    2    1    2    0    0  0.00000000000E+00  0.00000000000E+00  0.33405120628E+03  0.26995043654E+04  0.26787559819E+04 0.  0.
        5    1    3    3  502    0  0.96181486144E+03 -0.88474515223E+03 -0.12858843712E+03  0.13131713096E+04  0.46999998093E+01 0. -1.
       -5    1    3    3    0  502 -0.96181486144E+03  0.88474515223E+03  0.46263964339E+03  0.13863330558E+04  0.46999998093E+01 0.  1.
</event>
<event>
 5   0  0.7335091E-07  0.2702734E+04  0.7818609E-02  0.8334118E-01
        1   -1    0    0  501    0  0.00000000000E+00  0.00000000000E+00  0.14008037275E+04  0.14008037275E+04  0.50400001928E-02 0.  1.
       -1   -1    0    0    0  501  0.00000000000E+00  0.00000000000E+00 -0.13036747902E+04  0.13036747902E+04  0.50400001928E-02 0. -1.
    10030    2    1    2    0    0  0.00000000000E+00  0.00000000000E+00  0.97128937308E+02  0.27044785177E+04  0.27027338053E+04 0.  0.
        3    1    3    3  502    0  0.93206255992E+03 -0.55525914085E+03  0.85477630334E+03  0.13811936389E+04  0.10100000352E+00 0.  1.
       -3    1    3    3    0  502 -0.93206255992E+03  0.55525914085E+03 -0.75764736604E+03  0.13232848788E+04  0.10100000352E+00 0. -1.
</event>
<event>
 5   0  0.2030645E-06  0.2698078E+04  0.7818609E-02  0.8335629E-01
        2   -1    0    0  501    0  0.00000000000E+00  0.00000000000E+00  0.11204446830E+04  0.11204446830E+04  0.25500000920E-02 0.  1.
       -2   -1    0    0    0  501  0.00000000000E+00  0.00000000000E+00 -0.16242714958E+04  0.16242714958E+04  0.25500000920E-02 0. -1.
    10030    2    1    2    0    0  0.00000000000E+00  0.00000000000E+00 -0.50382681281E+03  0.27447161789E+04  0.26980781021E+04 0.  0.
        1    1    3    3  502    0  0.13249666393E+03 -0.15675532281E+03  0.11044678578E+04  0.11233774281E+04  0.50400001928E-02 0.  1.
       -1    1    3    3    0  502 -0.13249666393E+03  0.15675532281E+03 -0.16082946706E+04  0.16213387507E+04  0.50400001928E-02 0. -1.
</event>
<event>
 5   0  0.7806808E-07  0.2698568E+04  0.7818609E-02  0.8335470E-01
        1   -1    0    0  501    0  0.00000000000E+00  0.00000000000E+00  0.21048642707E+04  0.21048642707E+04  0.50400001928E-02 0. -1.
       -1   -1    0    0    0  501  0.00000000000E+00  0.00000000000E+00 -0.86493342932E+03  0.86493342933E+03  0.50400001928E-02 0.  1.
    10030    2    1    2    0    0  0.00000000000E+00  0.00000000000E+00  0.12399308413E+04  0.29697977000E+04  0.26985681180E+04 0.  0.
        5    1    3    3  502    0 -0.23797125115E+02  0.65531216720E+03 -0.67776956201E+03  0.94307688384E+03  0.46999998093E+01 0.  1.
       -5    1    3    3    0  502  0.23797125115E+02 -0.65531216720E+03  0.19177004034E+04  0.20267208162E+04  0.46999998093E+01 0. -1.
</event>
<event>
 5   0  0.7566905E-07  0.2762225E+04  0.7818609E-02  0.8315093E-01
        1   -1    0    0  501    0  0.00000000000E+00  0.00000000000E+00  0.24503081454E+04  0.24503081454E+04  0.50400001928E-02 0.  1.
       -1   -1    0    0    0  501  0.00000000000E+00  0.00000000000E+00 -0.77846182905E+03  0.77846182907E+03  0.50400001928E-02 0. -1.
    10030    2    1    2    0    0  0.00000000000E+00  0.00000000000E+00  0.16718463164E+04  0.32287699745E+04  0.27622247270E+04 0.  0.
        1    1    3    3  502    0 -0.49507959380E+03  0.22410972154E+03 -0.64823367479E+03  0.84589353269E+03  0.50400001928E-02 0. -1.
       -1    1    3    3    0  502  0.49507959380E+03 -0.22410972154E+03  0.23200799912E+04  0.23828764418E+04  0.50400001928E-02 0.  1.
</event>
<event>
 5   0  0.7335091E-07  0.2700937E+04  0.7818609E-02  0.8334701E-01
       -1   -1    0    0    0  501  0.00000000000E+00  0.00000000000E+00  0.13678302508E+04  0.13678302508E+04  0.50400001928E-02 0.  1.
        1   -1    0    0  501    0  0.00000000000E+00  0.00000000000E+00 -0.13333267084E+04  0.13333267085E+04  0.50400001928E-02 0. -1.
    10030    2    1    2    0    0  0.00000000000E+00  0.00000000000E+00  0.34503542366E+02  0.27011569593E+04  0.27009365828E+04 0.  0.
        3    1    3    3  502    0 -0.94518237788E+03 -0.32515468033E+03 -0.89093536900E+03  0.13389776456E+04  0.10100000352E+00 0. -1.
       -3    1    3    3    0  502  0.94518237788E+03  0.32515468033E+03  0.92543891137E+03  0.13621793136E+04  0.10100000352E+00 0.  1.
</event>
<event>
 5   0  0.7768032E-07  0.2698415E+04  0.7818609E-02  0.8335519E-01
       -1   -1    0    0    0  501  0.00000000000E+00  0.00000000000E+00  0.14976764015E+04  0.14976764015E+04  0.50400001928E-02 0. -1.
        1   -1    0    0  501    0  0.00000000000E+00  0.00000000000E+00 -0.12154568174E+04  0.12154568174E+04  0.50400001928E-02 0.  1.
    10030    2    1    2    0    0  0.00000000000E+00  0.00000000000E+00  0.28221958405E+03  0.27131332189E+04  0.26984150848E+04 0.  0.
        4    1    3    3  502    0  0.47485423932E+03 -0.43576935332E+03  0.13328925816E+04  0.14805356209E+04  0.12699999809E+01 0. -1.
       -4    1    3    3    0  502 -0.47485423932E+03  0.43576935332E+03 -0.10506729975E+04  0.12325975980E+04  0.12699999809E+01 0.  1.
</event>
<event>
 5   0  0.7335091E-07  0.2699325E+04  0.7818609E-02  0.8335224E-01
        1   -1    0    0  501    0  0.00000000000E+00  0.00000000000E+00  0.15920110973E+04  0.15920110973E+04  0.50400001928E-02 0. -1.
       -1   -1    0    0    0  501  0.00000000000E+00  0.00000000000E+00 -0.11442061529E+04  0.11442061529E+04  0.50400001928E-02 0.  1.
    10030    2    1    2    0    0  0.00000000000E+00  0.00000000000E+00  0.44780494440E+03  0.27362172503E+04  0.26993250216E+04 0.  0.
        3    1    3    3  502    0  0.13870661080E+03  0.12741238257E+04 -0.20491330480E+03  0.12979293201E+04  0.10100000352E+00 0. -1.
       -3    1    3    3    0  502 -0.13870661080E+03 -0.12741238257E+04  0.65271824920E+03  0.14382879302E+04  0.10100000352E+00 0.  1.
</event>
<event>
 5   0  0.2030645E-06  0.2711895E+04  0.7818609E-02  0.8331156E-01
       -2   -1    0    0    0  501  0.00000000000E+00  0.00000000000E+00  0.10458528592E+04  0.10458528592E+04  0.25500000920E-02 0. -1.
        2   -1    0    0  501    0  0.00000000000E+00  0.00000000000E+00 -0.17579853563E+04  0.17579853563E+04  0.25500000920E-02 0.  1.
    10030    2    1    2    0    0  0.00000000000E+00  0.00000000000E+00 -0.71213249707E+03  0.28038382156E+04  0.27118952866E+04 0.  0.
        1    1    3    3  502    0  0.12894535842E+04 -0.27724322838E+03 -0.30690934609E+02  0.13192786995E+04  0.50400001928E-02 0.  1.
       -1    1    3    3    0  502 -0.12894535842E+04  0.27724322838E+03 -0.68144156246E+03  0.14845595160E+04  0.50400001928E-02 0. -1.
</event>
<event>
 5   0  0.1991277E-06  0.2698812E+04  0.7818609E-02  0.8335390E-01
        2   -1    0    0  501    0  0.00000000000E+00  0.00000000000E+00  0.10377705565E+04  0.10377705565E+04  0.25500000920E-02 0.  1.
       -2   -1    0    0    0  501  0.00000000000E+00  0.00000000000E+00 -0.17546236376E+04  0.17546236376E+04  0.25500000920E-02 0. -1.
    10030    2    1    2    0    0  0.00000000000E+00  0.00000000000E+00 -0.71685308110E+03  0.27923941940E+04  0.26988121452E+04 0.  0.
        5    1    3    3  502    0 -0.10529169532E+04  0.31201849254E+03  0.45290997553E+03  0.11879137957E+04  0.46999998093E+01 0.  1.
       -5    1    3    3    0  502  0.10529169532E+04 -0.31201849254E+03 -0.11697630566E+04  0.16044803983E+04  0.46999998093E+01 0. -1.
</event>
<event>
 5   0  0.7335091E-07  0.2696419E+04  0.7818609E-02  0.8336168E-01
       -1   -1    0    0    0  501  0.00000000000E+00  0.00000000000E+00  0.11233260412E+04  0.11233260412E+04  0.50400001928E-02 0. -1.
        1   -1    0    0  501    0  0.00000000000E+00  0.00000000000E+00 -0.16181136304E+04  0.16181136304E+04  0.50400001928E-02 0.  1.
    10030    2    1    2    0    0  0.00000000000E+00  0.00000000000E+00 -0.49478758920E+03  0.27414396717E+04  0.26964192395E+04 0.  0.
        3    1    3    3  502    0 -0.77519603834E+03 -0.74240129272E+03 -0.10768464475E+04  0.15204232500E+04  0.10100000352E+00 0.  1.
       -3    1    3    3    0  502  0.77519603834E+03  0.74240129272E+03  0.58205885832E+03  0.12210164217E+04  0.10100000352E+00 0. -1.
</event>
<event>
 5   0  0.7436613E-07  0.2703949E+04  0.7818609E-02  0.8333725E-01
        1   -1    0    0  501    0  0.00000000000E+00  0.00000000000E+00  0.16233346393E+04  0.16233346393E+04  0.50400001928E-02 0.  1.
       -1   -1    0    0    0  501  0.00000000000E+00  0.00000000000E+00 -0.11259751825E+04  0.11259751825E+04  0.50400001928E-02 0. -1.
    10030    2    1    2    0    0  0.00000000000E+00  0.00000000000E+00  0.49735945678E+03  0.27493098218E+04  0.27039486066E+04 0.  0.
        2    1    3    3  502    0 -0.20511172502E+03  0.13223505962E+04  0.52696077863E+02  0.13392008049E+04  0.25500000920E-02 0.  1.
       -2    1    3    3    0  502  0.20511172502E+03 -0.13223505962E+04  0.44466337892E+03  0.14101090169E+04  0.25500000920E-02 0. -1.
</event>
<event>
 5   0  0.7768032E-07  0.2691782E+04  0.7818609E-02  0.8337676E-01
        1   -1    0    0  501    0  0.00000000000E+00  0.00000000000E+00  0.20570654908E+04  0.20570654908E+04  0.50400001928E-02 0.  1.
       -1   -1    0    0    0  501  0.00000000000E+00  0.00000000000E+00 -0.88058550783E+03  0.88058550784E+03  0.50400001928E-02 0. -1.
    10030    2    1    2    0    0  0.00000000000E+00  0.00000000000E+00  0.11764799830E+04  0.29376509987E+04  0.26917816107E+04 0.  0.
        4    1    3    3  502    0 -0.11344122274E+04  0.58619313975E+03  0.10524216769E+04  0.16547224835E+04  0.12699999809E+01 0.  1.
       -4    1    3    3    0  502  0.11344122274E+04 -0.58619313975E+03  0.12405830610E+03  0.12829285151E+04  0.12699999809E+01 0. -1.
</event>
<event>
 5   0  0.7436613E-07  0.2709919E+04  0.7818609E-02  0.8331794E-01
        1   -1    0    0  501    0  0.00000000000E+00  0.00000000000E+00  0.12792409175E+04  0.12792409175E+04  0.50400001928E-02 0.  1.
       -1   -1    0    0    0  501  0.00000000000E+00  0.00000000000E+00 -0.14351596192E+04  0.14351596192E+04  0.50400001928E-02 0. -1.
    10030    2    1    2    0    0  0.00000000000E+00  0.00000000000E+00 -0.15591870168E+03  0.27144005367E+04  0.27099187501E+04 0.  0.
        2    1    3    3  502    0  0.10998032367E+04  0.33923448983E+03 -0.79417176581E+03  0.13983404422E+04  0.25500000920E-02 0. -1.
       -2    1    3    3    0  502 -0.10998032367E+04 -0.33923448983E+03  0.63825306413E+03  0.13160600946E+04  0.25500000920E-02 0.  1.
</event>
<event>
 5   0  0.7566905E-07  0.2700591E+04  0.7818609E-02  0.8334813E-01
       -1   -1    0    0    0  501  0.00000000000E+00  0.00000000000E+00  0.13856877562E+04  0.13856877562E+04  0.50400001928E-02 0. -1.
        1   -1    0    0  501    0  0.00000000000E+00  0.00000000000E+00 -0.13158069259E+04  0.13158069259E+04  0.50400001928E-02 0.  1.
    10030    2    1    2    0    0  0.00000000000E+00  0.00000000000E+00  0.69880830278E+02  0.27014946821E+04  0.27005907107E+04 0.  0.
        1    1    3    3  502    0 -0.83550566318E+03 -0.10595081051E+04  0.86633710338E+02  0.13520845158E+04  0.50400001928E-02 0.  1.
       -1    1    3    3    0  502  0.83550566318E+03  0.10595081051E+04 -0.16752880060E+02  0.13494101663E+04  0.50400001928E-02 0. -1.
</event>
<event>
 5   0  0.7806808E-07  0.2769347E+04  0.7818609E-02  0.8312849E-01
       -1   -1    0    0    0  501  0.00000000000E+00  0.00000000000E+00  0.99855298648E+03  0.99855298649E+03  0.50400001928E-02 0. -1.
        1   -1    0    0  501    0  0.00000000000E+00  0.00000000000E+00 -0.19200992556E+04  0.19200992556E+04  0.50400001928E-02 0.  1.
    10030    2    1    2    0    0  0.00000000000E+00  0.00000000000E+00 -0.92154626908E+03  0.29186522421E+04  0.27693471043E+04 0.  0.
        5    1    3    3  502    0 -0.13032412230E+04 -0.88413483960E+02  0.23389861877E+02  0.13064546701E+04  0.46999998093E+01 0. -1.
       -5    1    3    3    0  502  0.13032412230E+04  0.88413483960E+02 -0.94493613096E+03  0.16121975719E+04  0.46999998093E+01 0.  1.
</event>
<event>
 5   0  0.1991277E-06  0.2706150E+04  0.7818609E-02  0.8333012E-01
       -2   -1    0    0    0  501  0.00000000000E+00  0.00000000000E+00  0.85532457333E+03  0.85532457333E+03  0.25500000920E-02 0.  1.
        2   -1    0    0  501    0  0.00000000000E+00  0.00000000000E+00 -0.21404876654E+04  0.21404876654E+04  0.25500000920E-02 0. -1.
    10030    2    1    2    0    0  0.00000000000E+00  0.00000000000E+00 -0.12851630920E+04  0.29958122387E+04  0.27061498104E+04 0.  0.
        5    1    3    3  502    0  0.12530928762E+04  0.79526089239E+02 -0.12007567797E+04  0.17373557751E+04  0.46999998093E+01 0.  1.
       -5    1    3    3    0  502 -0.12530928762E+04 -0.79526089239E+02 -0.84406312305E+02  0.12584564636E+04  0.46999998093E+01 0. -1.
</event>
<event>
 5   0  0.1999104E-06  0.2696760E+04  0.7818609E-02  0.8336057E-01
        2   -1    0    0  501    0  0.00000000000E+00  0.00000000000E+00  0.85966573302E+03  0.85966573303E+03  0.25500000920E-02 0.  1.
       -2   -1    0    0    0  501  0.00000000000E+00  0.00000000000E+00 -0.21149255502E+04  0.21149255502E+04  0.25500000920E-02 0. -1.
    10030    2    1    2    0    0  0.00000000000E+00  0.00000000000E+00 -0.12552598172E+04  0.29745912832E+04  0.26967602959E+04 0.  0.
        4    1    3    3  502    0 -0.86580267756E+03 -0.55595499404E+03  0.33360165546E+03  0.10816616427E+04  0.12699999809E+01 0.  1.
       -4    1    3    3    0  502  0.86580267756E+03  0.55595499404E+03 -0.15888614726E+04  0.18929296405E+04  0.12699999809E+01 0. -1.
</event>
<event>
 5   0  0.7806808E-07  0.2703675E+04  0.7818609E-02  0.8333814E-01
        1   -1    0    0  501    0  0.00000000000E+00  0.00000000000E+00  0.14727437419E+04  0.14727437420E+04  0.50400001928E-02 0. -1.
       -1   -1    0    0    0  501  0.00000000000E+00  0.00000000000E+00 -0.12408567137E+04  0.12408567137E+04  0.50400001928E-02 0.  1.
    10030    2    1    2    0    0  0.00000000000E+00  0.00000000000E+00  0.23188702822E+03  0.27136004557E+04  0.27036745069E+04 0.  0.
        5    1    3    3  502    0  0.42922142409E+03 -0.62528288120E+03  0.12390835889E+04  0.14527766321E+04  0.46999998093E+01 0. -1.
       -5    1    3    3    0  502 -0.42922142409E+03  0.62528288120E+03 -0.10071965607E+04  0.12608238236E+04  0.46999998093E+01 0.  1.
</event>
<event>
 5   0  0.6561875E-07  0.2697916E+04  0.7818609E-02  0.8335681E-01
        3   -1    0    0  501    0  0.00000000000E+00  0.00000000000E+00  0.76748448149E+03  0.76748448813E+03  0.10100000352E+00 0. -1.
       -3   -1    0    0    0  501  0.00000000000E+00  0.00000000000E+00 -0.23709770831E+04  0.23709770853E+04  0.10100000352E+00 0.  1.
    10030    2    1    2    0    0  0.00000000000E+00  0.00000000000E+00 -0.16034926016E+04  0.31384615734E+04  0.26979163301E+04 0.  0.
        3    1    3    3  502    0  0.90213270212E+03  0.78356223786E+03 -0.15299654216E+04  0.19412901366E+04  0.10100000352E+00 0.  1.
       -3    1    3    3    0  502 -0.90213270212E+03 -0.78356223786E+03 -0.73527180049E+02  0.11971714369E+04  0.10100000352E+00 0. -1.
</event>
<event>
 5   0  0.2063087E-06  0.2708306E+04  0.7818609E-02  0.8332315E-01
       -2   -1    0    0    0  501  0.00000000000E+00  0.00000000000E+00  0.13463809942E+04  0.13463809942E+04  0.25500000920E-02 0.  1.
        2   -1    0    0  501    0  0.00000000000E+00  0.00000000000E+00 -0.13619697354E+04  0.13619697354E+04  0.25500000920E-02 0. -1.
    10030    2    1    2    0    0  0.00000000000E+00  0.00000000000E+00 -0.15588741270E+02  0.27083507296E+04  0.27083058663E+04 0.  0.
        3    1    3    3  502    0  0.12137028956E+04 -0.11133821799E+03 -0.59793907888E+03  0.13575721232E+04  0.10100000352E+00 0. -1.
       -3    1    3    3    0  502 -0.12137028956E+04  0.11133821799E+03  0.58235033761E+03  0.13507786064E+04  0.10100000352E+00 0.  1.
</event>
<event>
 5   0  0.1999104E-06  0.2697233E+04  0.7818609E-02  0.8335903E-01
       -2   -1    0    0    0  501  0.00000000000E+00  0.00000000000E+00  0.68175065954E+03  0.68175065955E+03  0.25500000920E-02 0.  1.
        2   -1    0    0  501    0  0.00000000000E+00  0.00000000000E+00 -0.26677890393E+04  0.26677890393E+04  0.25500000920E-02 0. -1.
    10030    2    1    2    0    0  0.00000000000E+00  0.00000000000E+00 -0.19860383797E+04  0.33495396988E+04  0.26972333507E+04 0.  0.
        4    1    3    3  502    0 -0.98407665543E+03 -0.66917452149E+03 -0.20509572772E+03  0.12075873775E+04  0.12699999809E+01 0. -1.
       -4    1    3    3    0  502  0.98407665543E+03  0.66917452149E+03 -0.17809426520E+04  0.21419523213E+04  0.12699999809E+01 0.  1.
</event>
<event>
 5   0  0.1999104E-06  0.2697041E+04  0.7818609E-02  0.8335966E-01
       -2   -1    0    0    0  501  0.00000000000E+00  0.00000000000E+00  0.65829127326E+03  0.65829127327E+03  0.25500000920E-02 0.  1.
        2   -1    0    0  501    0  0.00000000000E+00  0.00000000000E+00 -0.27624669504E+04  0.27624669504E+04  0.25500000920E-02 0. -1.
    10030    2    1    2    0    0  0.00000000000E+00  0.00000000000E+00 -0.21041756772E+04  0.34207582237E+04  0.26970412575E+04 0.  0.
        4    1    3    3  502    0  0.13459252571E+04  0.77448740986E+02 -0.10920589462E+04  0.17349661265E+04  0.12699999809E+01 0.  1.
       -4    1    3    3    0  502 -0.13459252571E+04 -0.77448740986E+02 -0.10121167309E+04  0.16857920972E+04  0.12699999809E+01 0. -1.
</event>
<event>
 5   0  0.7566905E-07  0.2693918E+04  0.7818609E-02  0.8336981E-01
       -1   -1    0    0    0  501  0.00000000000E+00  0.00000000000E+00  0.74398667347E+03  0.74398667349E+03  0.50400001928E-02 0. -1.
        1   -1    0    0  501    0  0.00000000000E+00  0.00000000000E+00 -0.24386178144E+04  0.24386178144E+04  0.50400001928E-02 0.  1.
    10030    2    1    2    0    0  0.00000000000E+00  0.00000000000E+00 -0.16946311409E+04  0.31826044879E+04  0.26939184513E+04 0.  0.
        1    1    3    3  502    0 -0.37522161895E+03 -0.91597438734E+03 -0.19265383109E+04  0.21659524937E+04  0.50400001928E-02 0.  1.
       -1    1    3    3    0  502  0.37522161895E+03  0.91597438734E+03  0.23190717005E+03  0.10166519941E+04  0.50400001928E-02 0. -1.
</event>
<event>
 5   0  0.7335091E-07  0.2697098E+04  0.7818609E-02  0.8335947E-01
       -1   -1    0    0    0  501  0.00000000000E+00  0.00000000000E+00  0.10007872351E+04  0.10007872351E+04  0.50400001928E-02 0.  1.
        1   -1    0    0  501    0  0.00000000000E+00  0.00000000000E+00 -0.18171540866E+04  0.18171540866E+04  0.50400001928E-02 0. -1.
    10030    2    1    2    0    0  0.00000000000E+00  0.00000000000E+00 -0.81636685156E+03  0.28179413217E+04  0.26970981547E+04 0.  0.
        3    1    3    3  502    0 -0.60397205818E+03 -0.12006057370E+04 -0.52428480812E+03  0.14426056124E+04  0.10100000352E+00 0.  1.
       -3    1    3    3    0  502  0.60397205818E+03  0.12006057370E+04 -0.29208204344E+03  0.13753357092E+04  0.10100000352E+00 0. -1.
</event>
<event>
 5   0  0.7335091E-07  0.2700827E+04  0.7818609E-02  0.8334737E-01
        1   -1    0    0  501    0  0.00000000000E+00  0.00000000000E+00  0.21495301218E+04  0.21495301218E+04  0.50400001928E-02 0. -1.
       -1   -1    0    0    0  501  0.00000000000E+00  0.00000000000E+00 -0.84837903456E+03  0.84837903458E+03  0.50400001928E-02 0.  1.
    10030    2    1    2    0    0  0.00000000000E+00  0.00000000000E+00  0.13011510872E+04  0.29979091564E+04  0.27008267546E+04 0.  0.
        3    1    3    3  502    0  0.49430280243E+03 -0.12511491596E+04  0.51967684351E+03  0.14421419875E+04  0.10100000352E+00 0. -1.
       -3    1    3    3    0  502 -0.49430280243E+03  0.12511491596E+04  0.78147424374E+03  0.15557671689E+04  0.10100000352E+00 0.  1.
</event>
<event>
 5   0  0.1999104E-06  0.2702593E+04  0.7818609E-02  0.8334164E-01
       -2   -1    0    0    0  501  0.00000000000E+00  0.00000000000E+00  0.10885540637E+04  0.10885540637E+04  0.25500000920E-02 0. -1.
        2   -1    0    0  501    0  0.00000000000E+00  0.00000000000E+00 -0.16774569114E+04  0.16774569114E+04  0.25500000920E-02 0.  1.
    10030    2    1    2    0    0  0.00000000000E+00  0.00000000000E+00 -0.58890284766E+03  0.27660109751E+04  0.27025932270E+04 0.  0.
        4    1    3    3  502    0  0.49821930683E+03  0.94898466887E+03  0.54778455244E+03  0.12036876290E+04  0.12699999809E+01 0. -1.
       -4    1    3    3    0  502 -0.49821930683E+03 -0.94898466887E+03 -0.11366874001E+04  0.15623233461E+04  0.12699999809E+01 0.  1.
</event>
<event>
 5   0  0.7768032E-07  0.2698212E+04  0.7818609E-02  0.8335585E-01
        1   -1    0    0  501    0  0.00000000000E+00  0.00000000000E+00  0.94415034495E+03  0.94415034496E+03  0.50400001928E-02 0.  1.
       -1   -1    0    0    0  501  0.00000000000E+00  0.00000000000E+00 -0.19277513964E+04  0.19277513964E+04  0.50400001928E-02 0. -1.
    10030    2    1    2    0    0  0.00000000000E+00  0.00000000000E+00 -0.98360105147E+03  0.28719017414E+04  0.26982121087E+04 0.  0.
        4    1    3    3  502    0  0.10683348697E+04  0.65916647541E+03  0.34225159234E+02  0.12557917067E+04  0.12699999809E+01 0.  1.
       -4    1    3    3    0  502 -0.10683348697E+04 -0.65916647541E+03 -0.10178262107E+04  0.16161100347E+04  0.12699999809E+01 0. -1.
</event>
<event>
 5   0  0.2063087E-06  0.2704640E+04  0.7818609E-02  0.8333501E-01
        2   -1    0    0  501    0  0.00000000000E+00  0.00000000000E+00  0.11704267334E+04  0.11704267334E+04  0.25500000920E-02 0. -1.
       -2   -1    0    0    0  501  0.00000000000E+00  0.00000000000E+00 -0.15624804841E+04  0.15624804841E+04  0.25500000920E-02 0.  1.
    10030    2    1    2    0    0  0.00000000000E+00  0.00000000000E+00 -0.39205375071E+03  0.27329072175E+04  0.27046396647E+04 0.  0.
        3    1    3    3  502    0  0.91101607193E+03  0.17560171379E+03 -0.11901708087E+04  0.15090701803E+04  0.10100000352E+00 0.  1.
       -3    1    3    3    0  502 -0.91101607193E+03 -0.17560171379E+03  0.79811705794E+03  0.12238370372E+04  0.10100000352E+00 0. -1.
</event>
<event>
 5   0  0.7806808E-07  0.2697425E+04  0.7818609E-02  0.8335841E-01
       -1   -1    0    0    0  501  0.00000000000E+00  0.00000000000E+00  0.85997162350E+03  0.85997162351E+03  0.50400001928E-02 0. -1.
        1   -1    0    0  501    0  0.00000000000E+00  0.00000000000E+00 -0.21152157350E+04  0.21152157350E+04  0.50400001928E-02 0.  1.
    10030    2    1    2    0    0  0.00000000000E+00  0.00000000000E+00 -0.12552441115E+04  0.29751873585E+04  0.26974250757E+04 0.  0.
        5    1    3    3  502    0 -0.11013705342E+04 -0.32545550725E+03  0.15234847330E+03  0.11585208190E+04  0.46999998093E+01 0. -1.
       -5    1    3    3    0  502  0.11013705342E+04  0.32545550725E+03 -0.14075925848E+04  0.18166665395E+04  0.46999998093E+01 0.  1.
</event>
<event>
 5   0  0.2063087E-06  0.2722305E+04  0.7818609E-02  0.8327804E-01
       -2   -1    0    0    0  501  0.00000000000E+00  0.00000000000E+00  0.94424905818E+03  0.94424905819E+03  0.25500000920E-02 0. -1.
        2   -1    0    0  501    0  0.00000000000E+00  0.00000000000E+00 -0.19621264569E+04  0.19621264569E+04  0.25500000920E-02 0.  1.
    10030    2    1    2    0    0  0.00000000000E+00  0.00000000000E+00 -0.10178773987E+04  0.29063755150E+04  0.27223049491E+04 0.  0.
        3    1    3    3  502    0 -0.65854967725E+03  0.38459211899E+03 -0.17126190757E+04  0.18747434182E+04  0.10100000352E+00 0.  1.
       -3    1    3    3    0  502  0.65854967725E+03 -0.38459211899E+03  0.69474167698E+03  0.10316320969E+04  0.10100000352E+00 0. -1.
</event>
<event>
 5   0  0.2030645E-06  0.2699998E+04  0.7818609E-02  0.8335006E-01
        2   -1    0    0  501    0  0.00000000000E+00  0.00000000000E+00  0.15991789277E+04  0.15991789277E+04  0.25500000920E-02 0.  1.
       -2   -1    0    0    0  501  0.00000000000E+00  0.00000000000E+00 -0.11396452466E+04  0.11396452466E+04  0.25500000920E-02 0. -1.
    10030    2    1    2    0    0  0.00000000000E+00  0.00000000000E+00  0.45953368109E+03  0.27388241743E+04  0.26999975285E+04 0.  0.
        1    1    3    3  502    0 -0.56755076870E+03 -0.48358846039E+03  0.13713502996E+04  0.15609526958E+04  0.50400001928E-02 0.  1.
       -1    1    3    3    0  502  0.56755076870E+03  0.48358846039E+03 -0.91181661856E+03  0.11778714785E+04  0.50400001928E-02 0. -1.
</event>
<event>
 5   0  0.7806808E-07  0.2704071E+04  0.7818609E-02  0.8333685E-01
        1   -1    0    0  501    0  0.00000000000E+00  0.00000000000E+00  0.87672775547E+03  0.87672775549E+03  0.50400001928E-02 0. -1.
       -1   -1    0    0    0  501  0.00000000000E+00  0.00000000000E+00 -0.20850262360E+04  0.20850262360E+04  0.50400001928E-02 0.  1.
    10030    2    1    2    0    0  0.00000000000E+00  0.00000000000E+00 -0.12082984805E+04  0.29617539915E+04  0.27040712802E+04 0.  0.
        5    1    3    3  502    0  0.54557783357E+03 -0.96291416933E+03 -0.14547631893E+04  0.18278995861E+04  0.46999998093E+01 0.  1.
       -5    1    3    3    0  502 -0.54557783357E+03  0.96291416933E+03  0.24646470875E+03  0.11338544054E+04  0.46999998093E+01 0. -1.
</event>
<event>
 5   0  0.7436613E-07  0.2702167E+04  0.7818609E-02  0.8334302E-01
        1   -1    0    0  501    0  0.00000000000E+00  0.00000000000E+00  0.14013690236E+04  0.14013690236E+04  0.50400001928E-02 0.  1.
       -1   -1    0    0    0  501  0.00000000000E+00  0.00000000000E+00 -0.13026020238E+04  0.13026020239E+04  0.50400001928E-02 0. -1.
    10030    2    1    2    0    0  0.00000000000E+00  0.00000000000E+00  0.98766999752E+02  0.27039710475E+04  0.27021666317E+04 0.  0.
        2    1    3    3  502    0  0.10324214645E+03 -0.87530088037E+03  0.10740866189E+04  0.13894144943E+04  0.25500000920E-02 0.  1.
       -2    1    3    3    0  502 -0.10324214645E+03  0.87530088037E+03 -0.97531961915E+03  0.13145565532E+04  0.25500000920E-02 0. -1.
</event>
<event>
 5   0  0.1932012E-06  0.2719299E+04  0.7818609E-02  0.8328770E-01
        2   -1    0    0  501    0  0.00000000000E+00  0.00000000000E+00  0.19015869291E+04  0.19015869291E+04  0.25500000920E-02 0.  1.
       -2   -1    0    0    0  501  0.00000000000E+00  0.00000000000E+00 -0.97215973604E+03  0.97215973604E+03  0.25500000920E-02 0. -1.
    10030    2    1    2    0    0  0.00000000000E+00  0.00000000000E+00  0.92942719309E+03  0.28737466652E+04  0.27192986207E+04 0.  0.
        2    1    3    3  502    0  0.70571350606E+02  0.10161419681E+03  0.18956263107E+04  0.18996591458E+04  0.25500000920E-02 0.  1.
       -2    1    3    3    0  502 -0.70571350606E+02 -0.10161419681E+03 -0.96619911759E+03  0.97408751935E+03  0.25500000920E-02 0. -1.
</event>
<event>
 5   0  0.1932012E-06  0.2702079E+04  0.7818609E-02  0.8334331E-01
        2   -1    0    0  501    0  0.00000000000E+00  0.00000000000E+00  0.21998166479E+04  0.21998166479E+04  0.25500000920E-02 0. -1.
       -2   -1    0    0    0  501  0.00000000000E+00  0.00000000000E+00 -0.82975460765E+03  0.82975460766E+03  0.25500000920E-02 0.  1.
    10030    2    1    2    0    0  0.00000000000E+00  0.00000000000E+00  0.13700620403E+04  0.30295712556E+04  0.27020791992E+04 0.  0.
        2    1    3    3  502    0 -0.28997053471E+03  0.14485569979E+03 -0.78551242618E+03  0.84976223524E+03  0.25500000920E-02 0.  1.
       -2    1    3    3    0  502  0.28997053471E+03 -0.14485569979E+03  0.21555744665E+04  0.21798090204E+04  0.25500000920E-02 0. -1.
</event>
<event>
 5   0  0.7335091E-07  0.2698490E+04  0.7818609E-02  0.8335495E-01
       -1   -1    0    0    0  501  0.00000000000E+00  0.00000000000E+00  0.11062463016E+04  0.11062463016E+04  0.50400001928E-02 0. -1.
        1   -1    0    0  501    0  0.00000000000E+00  0.00000000000E+00 -0.16456210178E+04  0.16456210178E+04  0.50400001928E-02 0.  1.
    10030    2    1    2    0    0  0.00000000000E+00  0.00000000000E+00 -0.53937471627E+03  0.27518673194E+04  0.26984900702E+04 0.  0.
        3    1    3    3  502    0  0.80122112192E+03 -0.29869208311E+02 -0.13763322285E+04  0.15928395617E+04  0.10100000352E+00 0.  1.
       -3    1    3    3    0  502 -0.80122112192E+03  0.29869208311E+02  0.83695751221E+03  0.11590277578E+04  0.10100000352E+00 0. -1.
</event>
<event>
 5   0  0.7436613E-07  0.2697487E+04  0.7818609E-02  0.8335821E-01
        1   -1    0    0  501    0  0.00000000000E+00  0.00000000000E+00  0.12980710999E+04  0.12980710999E+04  0.50400001928E-02 0. -1.
       -1   -1    0    0    0  501  0.00000000000E+00  0.00000000000E+00 -0.14013934749E+04  0.14013934749E+04  0.50400001928E-02 0.  1.
    10030    2    1    2    0    0  0.00000000000E+00  0.00000000000E+00 -0.10332237500E+03  0.26994645748E+04  0.26974865111E+04 0.  0.
        2    1    3    3  502    0 -0.41625164477E+02 -0.11060468465E+04  0.71964136007E+03  0.13202105771E+04  0.25500000920E-02 0. -1.
       -2    1    3    3    0  502  0.41625164477E+02  0.11060468465E+04 -0.82296373507E+03  0.13792539977E+04  0.25500000920E-02 0.  1.
</event>
<event>
 5   0  0.2030645E-06  0.2702859E+04  0.7818609E-02  0.8334078E-01
        2   -1    0    0  501    0  0.00000000000E+00  0.00000000000E+00  0.17555949304E+04  0.17555949304E+04  0.25500000920E-02 0. -1.
       -2   -1    0    0    0  501  0.00000000000E+00  0.00000000000E+00 -0.10403093785E+04  0.10403093785E+04  0.25500000920E-02 0.  1.
    10030    2    1    2    0    0  0.00000000000E+00  0.00000000000E+00  0.71528555193E+03  0.27959043089E+04  0.27028591313E+04 0.  0.
        1    1    3    3  502    0 -0.95850896611E+03  0.95004075624E+03  0.28416952979E+03  0.13791552481E+04  0.50400001928E-02 0. -1.
       -1    1    3    3    0  502  0.95850896611E+03 -0.95004075624E+03  0.43111602214E+03  0.14167490608E+04  0.50400001928E-02 0.  1.
</event>
<event>
 5   0  0.7768032E-07  0.2693520E+04  0.7818609E-02  0.8337110E-01
       -1   -1    0    0    0  501  0.00000000000E+00  0.00000000000E+00  0.73204200351E+03  0.73204200353E+03  0.50400001928E-02 0.  1.
        1   -1    0    0  501    0  0.00000000000E+00  0.00000000000E+00 -0.24776760755E+04  0.24776760755E+04  0.50400001928E-02 0. -1.
    10030    2    1    2    0    0  0.00000000000E+00  0.00000000000E+00 -0.17456340720E+04  0.32097180791E+04  0.26935203422E+04 0.  0.
        4    1    3    3  502    0  0.97025016189E+02  0.13432038018E+04 -0.88746207580E+03  0.16128238763E+04  0.12699999809E+01 0. -1.
       -4    1    3    3    0  502 -0.97025016189E+02 -0.13432038018E+04 -0.85817199623E+03  0.15968942028E+04  0.12699999809E+01 0.  1.
</event>
<event>
 5   0  0.2030645E-06  0.2701364E+04  0.7818609E-02  0.8334563E-01
        2   -1    0    0  501    0  0.00000000000E+00  0.00000000000E+00  0.10992045674E+04  0.10992045674E+04  0.25500000920E-02 0. -1.
       -2   -1    0    0    0  501  0.00000000000E+00  0.00000000000E+00 -0.16596928176E+04  0.16596928176E+04  0.25500000920E-02 0.  1.
    10030    2    1    2    0    0  0.00000000000E+00  0.00000000000E+00 -0.56048825013E+03  0.27588973850E+04  0.27013640448E+04 0.  0.
        1    1    3    3  502    0  0.23702625923E+03  0.17309156000E+03  0.10662432291E+04  0.11059008813E+04  0.50400001928E-02 0. -1.
       -1    1    3    3    0  502 -0.23702625923E+03 -0.17309156000E+03 -0.16267314792E+04  0.16529965037E+04  0.50400001928E-02 0.  1.
</event>
<event>
 5   0  0.7566905E-07  0.2700451E+04  0.7818609E-02  0.8334859E-01
       -1   -1    0    0    0  501  0.00000000000E+00  0.00000000000E+00  0.14579221835E+04  0.14579221835E+04  0.50400001928E-02 0. -1.
        1   -1    0    0  501    0  0.00000000000E+00  0.00000000000E+00 -0.12504847217E+04  0.12504847217E+04  0.50400001928E-02 0.  1.
    10030    2    1    2    0    0  0.00000000000E+00  0.00000000000E+00  0.20743746184E+03  0.27084069052E+04  0.27004513815E+04 0.  0.
        1    1    3    3  502    0  0.73099082100E+03 -0.61630555714E+03 -0.85246775278E+03  0.12809689261E+04  0.50400001928E-02 0.  1.
       -1    1    3    3    0  502 -0.73099082100E+03  0.61630555714E+03  0.10599052146E+04  0.14274379791E+04  0.50400001928E-02 0. -1.
</event>
<event>
 5   0  0.1999104E-06  0.2699587E+04  0.7818609E-02  0.8335139E-01
        2   -1    0    0  501    0  0.00000000000E+00  0.00000000000E+00  0.17158023451E+04  0.17158023451E+04  0.25500000920E-02 0. -1.
       -2   -1    0    0    0  501  0.00000000000E+00  0.00000000000E+00 -0.10618606442E+04  0.10618606442E+04  0.25500000920E-02 0.  1.
    10030    2    1    2    0    0  0.00000000000E+00  0.00000000000E+00  0.65394170097E+03  0.27776629893E+04  0.26995873636E+04 0.  0.
        4    1    3    3  502    0  0.38371416514E+03 -0.99114372428E+03 -0.52916274822E+03  0.11872730392E+04  0.12699999809E+01 0.  1.
       -4    1    3    3    0  502 -0.38371416514E+03  0.99114372428E+03  0.11831044492E+04  0.15903899501E+04  0.12699999809E+01 0. -1.
</event>
<event>
 5   0  0.6561875E-07  0.2697775E+04  0.7818609E-02  0.8335727E-01
       -3   -1    0    0    0  501  0.00000000000E+00  0.00000000000E+00  0.16069443270E+04  0.16069443302E+04  0.10100000352E+00 0. -1.
        3   -1    0    0  501    0  0.00000000000E+00  0.00000000000E+00 -0.11322718299E+04  0.11322718344E+04  0.10100000352E+00 0.  1.
    10030    2    1    2    0    0  0.00000000000E+00  0.00000000000E+00  0.47467249707E+03  0.27392161646E+04  0.26977752347E+04 0.  0.
        3    1    3    3  502    0 -0.11316117376E+04 -0.13112098105E+03 -0.49608909921E+03  0.12425144831E+04  0.10100000352E+00 0.  1.
       -3    1    3    3    0  502  0.11316117376E+04  0.13112098105E+03  0.97076159629E+03  0.14967016815E+04  0.10100000352E+00 0. -1.
</event>
<event>
 5   0  0.2063087E-06  0.2706102E+04  0.7818609E-02  0.8333028E-01
        2   -1    0    0  501    0  0.00000000000E+00  0.00000000000E+00  0.13536871918E+04  0.13536871918E+04  0.25500000920E-02 0. -1.
       -2   -1    0    0    0  501  0.00000000000E+00  0.00000000000E+00 -0.13524155174E+04  0.13524155174E+04  0.25500000920E-02 0.  1.
    10030    2    1    2    0    0  0.00000000000E+00  0.00000000000E+00  0.12716744240E+01  0.27061027092E+04  0.27061024104E+04 0.  0.
        3    1    3    3  502    0  0.12152717978E+04 -0.56309327020E+03 -0.19116611356E+03  0.13529612214E+04  0.10100000352E+00 0.  1.
       -3    1    3    3    0  502 -0.12152717978E+04  0.56309327020E+03  0.19243778798E+03  0.13531414878E+04  0.10100000352E+00 0. -1.
</event>
<event>
 5   0  0.1932012E-06  0.2703459E+04  0.7818609E-02  0.8333883E-01
        2   -1    0    0  501    0  0.00000000000E+00  0.00000000000E+00  0.17673124395E+04  0.17673124396E+04  0.25500000920E-02 0. -1.
       -2   -1    0    0    0  501  0.00000000000E+00  0.00000000000E+00 -0.10338709524E+04  0.10338709524E+04  0.25500000920E-02 0.  1.
    10030    2    1    2    0    0  0.00000000000E+00  0.00000000000E+00  0.73344148715E+03  0.28011833920E+04  0.27034592618E+04 0.  0.
        2    1    3    3  502    0 -0.13363604914E+04 -0.87606596801E+01  0.15631159086E+03  0.13454996937E+04  0.25500000920E-02 0.  1.
       -2    1    3    3    0  502  0.13363604914E+04  0.87606596801E+01  0.57712989629E+03  0.14556836983E+04  0.25500000920E-02 0. -1.
</event>
<event>
 5   0  0.2030645E-06  0.2714254E+04  0.7818609E-02  0.8330395E-01
        2   -1    0    0  501    0  0.00000000000E+00  0.00000000000E+00  0.16030298353E+04  0.16030298353E+04  0.25500000920E-02 0. -1.
       -2   -1    0    0    0  501  0.00000000000E+00  0.00000000000E+00 -0.11489453836E+04  0.11489453836E+04  0.25500000920E-02 0.  1.
    10030    2    1    2    0    0  0.00000000000E+00  0.00000000000E+00  0.45408445166E+03  0.27519752188E+04  0.27142540257E+04 0.  0.
        1    1    3    3  502    0 -0.17196776391E+02 -0.10490315917E+04 -0.64575254224E+03  0.12319737640E+04  0.50400001928E-02 0.  1.
       -1    1    3    3    0  502  0.17196776391E+02  0.10490315917E+04  0.10998369939E+04  0.15200014548E+04  0.50400001928E-02 0. -1.
</event>
<event>
 5   0  0.7768032E-07  0.2696064E+04  0.7818609E-02  0.8336283E-01
        1   -1    0    0  501    0  0.00000000000E+00  0.00000000000E+00  0.17601458390E+04  0.17601458390E+04  0.50400001928E-02 0. -1.
       -1   -1    0    0    0  501  0.00000000000E+00  0.00000000000E+00 -0.10324092412E+04  0.10324092412E+04  0.50400001928E-02 0.  1.
    10030    2    1    2    0    0  0.00000000000E+00  0.00000000000E+00  0.72773659784E+03  0.27925550802E+04  0.26960644132E+04 0.  0.
        4    1    3    3  502    0 -0.75494035071E+03  0.89564089411E+03 -0.32715285065E+03  0.12161982342E+04  0.12699999809E+01 0.  1.
       -4    1    3    3    0  502  0.75494035071E+03 -0.89564089411E+03  0.10548894485E+04  0.15763568459E+04  0.12699999809E+01 0. -1.
</event>
<event>
 5   0  0.1932012E-06  0.2702784E+04  0.7818609E-02  0.8334102E-01
        2   -1    0    0  501    0  0.00000000000E+00  0.00000000000E+00  0.18859887275E+04  0.18859887275E+04  0.25500000920E-02 0.  1.
       -2   -1    0    0    0  501  0.00000000000E+00  0.00000000000E+00 -0.96833042912E+03  0.96833042913E+03  0.25500000920E-02 0. -1.
    10030    2    1    2    0    0  0.00000000000E+00  0.00000000000E+00  0.91765829840E+03  0.28543191567E+04  0.27027839528E+04 0.  0.
        2    1    3    3  502    0 -0.88022743391E+03  0.51538916993E+03 -0.47734488660E+03  0.11261813676E+04  0.25500000920E-02 0. -1.
       -2    1    3    3    0  502  0.88022743391E+03 -0.51538916993E+03  0.13950031850E+04  0.17281377891E+04  0.25500000920E-02 0.  1.
</event>
<event>
 5   0  0.7806808E-07  0.2697999E+04  0.7818609E-02  0.8335655E-01
        1   -1    0    0  501    0  0.00000000000E+00  0.00000000000E+00  0.15334330904E+04  0.15334330904E+04  0.50400001928E-02 0. -1.
       -1   -1    0    0    0  501  0.00000000000E+00  0.00000000000E+00 -0.11867485657E+04  0.11867485657E+04  0.50400001928E-02 0.  1.
    10030    2    1    2    0    0  0.00000000000E+00  0.00000000000E+00  0.34668452471E+03  0.27201816561E+04  0.26979989033E+04 0.  0.
        5    1    3    3  502    0 -0.94436067190E+03  0.13597468132E+03 -0.78816069261E+03  0.12375482051E+04  0.46999998093E+01 0.  1.
       -5    1    3    3    0  502  0.94436067190E+03 -0.13597468132E+03  0.11348452173E+04  0.14826334509E+04  0.46999998093E+01 0. -1.
</event>
<event>
 5   0  0.7768032E-07  0.2692031E+04  0.7818609E-02  0.8337595E-01
       -1   -1    0    0    0  501  0.00000000000E+00  0.00000000000E+00  0.10385756572E+04  0.10385756572E+04  0.50400001928E-02 0. -1.
        1   -1    0    0  501    0  0.00000000000E+00  0.00000000000E+00 -0.17444634060E+04  0.17444634060E+04  0.50400001928E-02 0.  1.
    10030    2    1    2    0    0  0.00000000000E+00  0.00000000000E+00 -0.70588774885E+03  0.27830390632E+04  0.26920306301E+04 0.  0.
        4    1    3    3  502    0  0.87736061234E+02  0.17391522699E+03 -0.17298141915E+04  0.17407477913E+04  0.12699999809E+01 0.  1.
       -4    1    3    3    0  502 -0.87736061234E+02 -0.17391522699E+03  0.10239264427E+04  0.10422912719E+04  0.12699999809E+01 0. -1.
</event>
<event>
 5   0  0.7436613E-07  0.2695453E+04  0.7818609E-02  0.8336482E-01
       -1   -1    0    0    0  501  0.00000000000E+00  0.00000000000E+00  0.20357985086E+04  0.20357985086E+04  0.50400001928E-02 0.  1.
        1   -1    0    0  501    0  0.00000000000E+00  0.00000000000E+00 -0.89221313918E+03  0.89221313919E+03  0.50400001928E-02 0. -1.
    10030    2    1    2    0    0  0.00000000000E+00  0.00000000000E+00  0.11435853694E+04  0.29280116478E+04  0.26954525988E+04 0.  0.
        2    1    3    3  502    0 -0.12281376468E+04  0.54206242408E+03  0.70129431122E+03  0.15145849141E+04  0.25500000920E-02 0.  1.
       -2    1    3    3    0  502  0.12281376468E+04 -0.54206242408E+03  0.44229105819E+03  0.14134267336E+04  0.25500000920E-02 0. -1.
</event>
<event>
 5   0  0.7806808E-07  0.2699240E+04  0.7818609E-02  0.8335252E-01
       -1   -1    0    0    0  501  0.00000000000E+00  0.00000000000E+00  0.82513179670E+03  0.82513179672E+03  0.50400001928E-02 0.  1.
        1   -1    0    0  501    0  0.00000000000E+00  0.00000000000E+00 -0.22074942471E+04  0.22074942471E+04  0.50400001928E-02 0. -1.
    10030    2    1    2    0    0  0.00000000000E+00  0.00000000000E+00 -0.13823624504E+04  0.30326260438E+04  0.26992396665E+04 0.  0.
        5    1    3    3  502    0 -0.65275470034E+03 -0.19529279332E+03  0.61770868267E+03  0.91968151041E+03  0.46999998093E+01 0.  1.
       -5    1    3    3    0  502  0.65275470034E+03  0.19529279332E+03 -0.20000711331E+04  0.21129445334E+04  0.46999998093E+01 0. -1.
</event>
<event>
 5   0  0.2063087E-06  0.2700518E+04  0.7818609E-02  0.8334837E-01
       -2   -1    0    0    0  501  0.00000000000E+00  0.00000000000E+00  0.11733770154E+04  0.11733770154E+04  0.25500000920E-02 0. -1.
        2   -1    0    0  501    0  0.00000000000E+00  0.00000000000E+00 -0.15538049483E+04  0.15538049483E+04  0.25500000920E-02 0.  1.
    10030    2    1    2    0    0  0.00000000000E+00  0.00000000000E+00 -0.38042793283E+03  0.27271819637E+04  0.27005177376E+04 0.  0.
        3    1    3    3  502    0  0.12011123979E+04 -0.28828286077E+03 -0.74096192789E+03  0.14404175051E+04  0.10100000352E+00 0.  1.
       -3    1    3    3    0  502 -0.12011123979E+04  0.28828286077E+03  0.36053399506E+03  0.12867644586E+04  0.10100000352E+00 0. -1.
</event>
<event>
 5   0  0.1999104E-06  0.2704281E+04  0.7818609E-02  0.8333617E-01
        2   -1    0    0  501    0  0.00000000000E+00  0.00000000000E+00  0.18772444526E+04  0.18772444526E+04  0.25500000920E-02 0. -1.
       -2   -1    0    0    0  501  0.00000000000E+00  0.00000000000E+00 -0.97391910037E+03  0.97391910038E+03  0.25500000920E-02 0.  1.
    10030    2    1    2    0    0  0.00000000000E+00  0.00000000000E+00  0.90332535221E+03  0.28511635530E+04  0.27042812194E+04 0.  0.
        4    1    3    3  502    0  0.31746767399E+03  0.53261971091E+03 -0.81518900730E+03  0.10242090661E+04  0.12699999809E+01 0.  1.
       -4    1    3    3    0  502 -0.31746767399E+03 -0.53261971091E+03  0.17185143595E+04  0.18269544869E+04  0.12699999809E+01 0. -1.
</event>
<event>
 5   0  0.1991277E-06  0.2682389E+04  0.7818609E-02  0.8340742E-01
       -2   -1    0    0    0  501  0.00000000000E+00  0.00000000000E+00  0.15294416538E+04  0.15294416538E+04  0.25500000920E-02 0. -1.
        2   -1    0    0  501    0  0.00000000000E+00  0.00000000000E+00 -0.11761171719E+04  0.11761171719E+04  0.25500000920E-02 0.  1.
    10030    2    1    2    0    0  0.00000000000E+00  0.00000000000E+00  0.35332448186E+03  0.27055588257E+04  0.26823889297E+04 0.  0.
        5    1    3    3  502    0  0.94577822303E+02 -0.13145801091E+04  0.42723246152E+03  0.13855018924E+04  0.46999998093E+01 0. -1.
       -5    1    3    3    0  502 -0.94577822303E+02  0.13145801091E+04 -0.73907979660E+02  0.13200569333E+04  0.46999998093E+01 0.  1.
</event>
<event>
 5   0  0.7436613E-07  0.2700540E+04  0.7818609E-02  0.8334830E-01
        1   -1    0    0  501    0  0.00000000000E+00  0.00000000000E+00  0.25135117400E+04  0.25135117400E+04  0.50400001928E-02 0.  1.
       -1   -1    0    0    0  501  0.00000000000E+00  0.00000000000E+00 -0.72537124385E+03  0.72537124387E+03  0.50400001928E-02 0. -1.
    10030    2    1    2    0    0  0.00000000000E+00  0.00000000000E+00  0.17881404962E+04  0.32388829839E+04  0.27005400477E+04 0.  0.
        2    1    3    3  502    0 -0.65589578827E+02  0.96410974865E+03  0.20251623460E+04  0.22439010958E+04  0.25500000920E-02 0.  1.
       -2    1    3    3    0  502  0.65589578827E+02 -0.96410974865E+03 -0.23702184981E+03  0.99498188807E+03  0.25500000920E-02 0. -1.
</event>
<event>
 5   0  0.7436613E-07  0.2699847E+04  0.7818609E-02  0.8335054E-01
       -1   -1    0    0    0  501  0.00000000000E+00  0.00000000000E+00  0.90303014614E+03  0.90303014616E+03  0.50400001928E-02 0. -1.
        1   -1    0    0  501    0  0.00000000000E+00  0.00000000000E+00 -0.20179769674E+04  0.20179769674E+04  0.50400001928E-02 0.  1.
    10030    2    1    2    0    0  0.00000000000E+00  0.00000000000E+00 -0.11149468213E+04  0.29210071136E+04  0.26998474296E+04 0.  0.
        2    1    3    3  502    0  0.47723602669E+03  0.93125303222E+03  0.36520945364E+03  0.11083160110E+04  0.25500000920E-02 0. -1.
       -2    1    3    3    0  502 -0.47723602669E+03 -0.93125303222E+03 -0.14801562749E+04  0.18126911026E+04  0.25500000920E-02 0.  1.
</event>
<event>
 5   0  0.6561875E-07  0.2708483E+04  0.7818609E-02  0.8332258E-01
       -3   -1    0    0    0  501  0.00000000000E+00  0.00000000000E+00  0.20353627565E+04  0.20353627590E+04  0.10100000352E+00 0.  1.
        3   -1    0    0  501    0  0.00000000000E+00  0.00000000000E+00 -0.90105316676E+03  0.90105317242E+03  0.10100000352E+00 0. -1.
    10030    2    1    2    0    0  0.00000000000E+00  0.00000000000E+00  0.11343095897E+04  0.29364159314E+04  0.27084830213E+04 0.  0.
        3    1    3    3  502    0  0.31231050666E+03  0.10827924633E+04 -0.24703975498E+03  0.11536923428E+04  0.10100000352E+00 0. -1.
       -3    1    3    3    0  502 -0.31231050666E+03 -0.10827924633E+04  0.13813493447E+04  0.17827235886E+04  0.10100000352E+00 0.  1.
</event>
<event>
 5   0  0.7768032E-07  0.2700432E+04  0.7818609E-02  0.8334865E-01
        1   -1    0    0  501    0  0.00000000000E+00  0.00000000000E+00  0.14162918592E+04  0.14162918592E+04  0.50400001928E-02 0. -1.
       -1   -1    0    0    0  501  0.00000000000E+00  0.00000000000E+00 -0.12872229400E+04  0.12872229400E+04  0.50400001928E-02 0.  1.
    10030    2    1    2    0    0  0.00000000000E+00  0.00000000000E+00  0.12906891916E+03  0.27035147992E+04  0.27004320921E+04 0.  0.
        4    1    3    3  502    0  0.11394308888E+04  0.37370106924E+03 -0.55675960199E+03  0.13220961035E+04  0.12699999809E+01 0. -1.
       -4    1    3    3    0  502 -0.11394308888E+04 -0.37370106924E+03  0.68582852116E+03  0.13814186957E+04  0.12699999809E+01 0.  1.
</event>
<event>
 5   0  0.7335091E-07  0.2692037E+04  0.7818609E-02  0.8337593E-01
        1   -1    0    0  501    0  0.00000000000E+00  0.00000000000E+00  0.10019742498E+04  0.10019742498E+04  0.50400001928E-02 0.  1.
       -1   -1    0    0    0  501  0.00000000000E+00  0.00000000000E+00 -0.18081961710E+04  0.18081961710E+04  0.50400001928E-02 0. -1.
    10030    2    1    2    0    0  0.00000000000E+00  0.00000000000E+00 -0.80622192119E+03  0.28101704209E+04  0.26920371484E+04 0.  0.
        3    1    3    3  502    0 -0.42614552083E+03  0.59972898822E+03 -0.15797342163E+04  0.17426517348E+04  0.10100000352E+00 0. -1.
       -3    1    3    3    0  502  0.42614552083E+03 -0.59972898822E+03  0.77351229515E+03  0.10675186861E+04  0.10100000352E+00 0.  1.
</event>
<event>
 5   0  0.1999104E-06  0.2699541E+04  0.7818609E-02  0.8335154E-01
        2   -1    0    0  501    0  0.00000000000E+00  0.00000000000E+00  0.22175837363E+04  0.22175837363E+04  0.25500000920E-02 0.  1.
       -2   -1    0    0    0  501  0.00000000000E+00  0.00000000000E+00 -0.82156089013E+03  0.82156089014E+03  0.25500000920E-02 0. -1.
    10030    2    1    2    0    0  0.00000000000E+00  0.00000000000E+00  0.13960228461E+04  0.30391446264E+04  0.26995407523E+04 0.  0.
        4    1    3    3  502    0 -0.70258494498E+03  0.70545389251E+03  0.17240276183E+04  0.19908700713E+04  0.12699999809E+01 0.  1.
       -4    1    3    3    0  502  0.70258494498E+03 -0.70545389251E+03 -0.32800477215E+03  0.10482745551E+04  0.12699999809E+01 0. -1.
</event>
<event>
 5   0  0.1991277E-06  0.2697243E+04  0.7818609E-02  0.8335900E-01
       -2   -1    0    0    0  501  0.00000000000E+00  0.00000000000E+00  0.12206644830E+04  0.12206644830E+04  0.25500000920E-02 0.  1.
        2   -1    0    0  501    0  0.00000000000E+00  0.00000000000E+00 -0.14899918637E+04  0.14899918637E+04  0.25500000920E-02 0. -1.
    10030    2    1    2    0    0  0.00000000000E+00  0.00000000000E+00 -0.26932738073E+03  0.27106563467E+04  0.26972431466E+04 0.  0.
        5    1    3    3  502    0  0.12646439031E+04 -0.18633663125E+03  0.29725552530E+03  0.13124132273E+04  0.46999998093E+01 0. -1.
       -5    1    3    3    0  502 -0.12646439031E+04  0.18633663125E+03 -0.56658290603E+03  0.13982431195E+04  0.46999998093E+01 0.  1.
</event>
<event>
 5   0  0.7806808E-07  0.2716876E+04  0.7818609E-02  0.8329550E-01
       -1   -1    0    0    0  501  0.00000000000E+00  0.00000000000E+00  0.14855821126E+04  0.14855821126E+04  0.50400001928E-02 0. -1.
        1   -1    0    0  501    0  0.00000000000E+00  0.00000000000E+00 -0.12421753958E+04  0.12421753958E+04  0.50400001928E-02 0.  1.
    10030    2    1    2    0    0  0.00000000000E+00  0.00000000000E+00  0.24340671678E+03  0.27277575084E+04  0.27168758151E+04 0.  0.
        5    1    3    3  502    0 -0.11764066085E+04  0.13905175079E+03 -0.54583823462E+03  0.13043118363E+04  0.46999998093E+01 0.  1.
       -5    1    3    3    0  502  0.11764066085E+04 -0.13905175079E+03  0.78924495140E+03  0.14234456721E+04  0.46999998093E+01 0. -1.
</event>
<event>
 5   0  0.2030645E-06  0.2693946E+04  0.7818609E-02  0.8336972E-01
       -2   -1    0    0    0  501  0.00000000000E+00  0.00000000000E+00  0.94647475827E+03  0.94647475827E+03  0.25500000920E-02 0.  1.
        2   -1    0    0  501    0  0.00000000000E+00  0.00000000000E+00 -0.19169408975E+04  0.19169408975E+04  0.25500000920E-02 0. -1.
    10030    2    1    2    0    0  0.00000000000E+00  0.00000000000E+00 -0.97046613923E+03  0.28634156558E+04  0.26939459331E+04 0.  0.
        1    1    3    3  502    0  0.92707872976E+03  0.97672949888E+03 -0.45405004456E+03  0.14211393064E+04  0.50400001928E-02 0. -1.
       -1    1    3    3    0  502 -0.92707872976E+03 -0.97672949888E+03 -0.51641609467E+03  0.14422763494E+04  0.50400001928E-02 0.  1.
</event>
<event>
 5   0  0.1932012E-06  0.2695458E+04  0.7818609E-02  0.8336480E-01
       -2   -1    0    0    0  501  0.00000000000E+00  0.00000000000E+00  0.22108990118E+04  0.22108990118E+04  0.25500000920E-02 0.  1.
        2   -1    0    0  501    0  0.00000000000E+00  0.00000000000E+00 -0.82155447485E+03  0.82155447485E+03  0.25500000920E-02 0. -1.
    10030    2    1    2    0    0  0.00000000000E+00  0.00000000000E+00  0.13893445370E+04  0.30324534867E+04  0.26954583852E+04 0.  0.
        2    1    3    3  502    0  0.46046135119E+03  0.12344327700E+04  0.10139194249E+04  0.16624925623E+04  0.25500000920E-02 0.  1.
       -2    1    3    3    0  502 -0.46046135119E+03 -0.12344327700E+04  0.37542511205E+03  0.13699609244E+04  0.25500000920E-02 0. -1.
</event>
<event>
 5   0  0.1932012E-06  0.2702380E+04  0.7818609E-02  0.8334233E-01
       -2   -1    0    0    0  501  0.00000000000E+00  0.00000000000E+00  0.22647696299E+04  0.22647696299E+04  0.25500000920E-02 0. -1.
        2   -1    0    0  501    0  0.00000000000E+00  0.00000000000E+00 -0.80613720007E+03  0.80613720008E+03  0.25500000920E-02 0.  1.
    10030    2    1    2    0    0  0.00000000000E+00  0.00000000000E+00  0.14586324298E+04  0.30709068300E+04  0.27023804679E+04 0.  0.
        2    1    3    3  502    0 -0.18928367243E+03 -0.79709074960E+03  0.19503377873E+04  0.21154194516E+04  0.25500000920E-02 0. -1.
       -2    1    3    3    0  502  0.18928367243E+03  0.79709074960E+03 -0.49170535743E+03  0.95548737840E+03  0.25500000920E-02 0.  1.
</event>
<event>
 5   0  0.7768032E-07  0.2703910E+04  0.7818609E-02  0.8333738E-01
        1   -1    0    0  501    0  0.00000000000E+00  0.00000000000E+00  0.11231004462E+04  0.11231004462E+04  0.50400001928E-02 0.  1.
       -1   -1    0    0    0  501  0.00000000000E+00  0.00000000000E+00 -0.16274428259E+04  0.16274428259E+04  0.50400001928E-02 0. -1.
    10030    2    1    2    0    0  0.00000000000E+00  0.00000000000E+00 -0.50434237968E+03  0.27505432721E+04  0.27039095872E+04 0.  0.
        4    1    3    3  502    0 -0.57311957247E+03 -0.76089806363E+03 -0.12280646552E+04  0.15542124430E+04  0.12699999809E+01 0. -1.
       -4    1    3    3    0  502  0.57311957247E+03  0.76089806363E+03  0.72372227556E+03  0.11963308291E+04  0.12699999809E+01 0.  1.
</event>
<event>
 5   0  0.7566905E-07  0.2698100E+04  0.7818609E-02  0.8335622E-01
       -1   -1    0    0    0  501  0.00000000000E+00  0.00000000000E+00  0.12060755577E+04  0.12060755577E+04  0.50400001928E-02 0. -1.
        1   -1    0    0  501    0  0.00000000000E+00  0.00000000000E+00 -0.15089731462E+04  0.15089731463E+04  0.50400001928E-02 0.  1.
    10030    2    1    2    0    0  0.00000000000E+00  0.00000000000E+00 -0.30289758854E+03  0.27150487040E+04  0.26980997972E+04 0.  0.
        1    1    3    3  502    0  0.14482155897E+03 -0.11281015261E+04 -0.88150557123E+03  0.14389713024E+04  0.50400001928E-02 0.  1.
       -1    1    3    3    0  502 -0.14482155897E+03  0.11281015261E+04  0.57860798269E+03  0.12760774015E+04  0.50400001928E-02 0. -1.
</event>
<event>
 5   0  0.1991277E-06  0.2699369E+04  0.7818609E-02  0.8335210E-01
       -2   -1    0    0    0  501  0.00000000000E+00  0.00000000000E+00  0.10602488827E+04  0.10602488827E+04  0.25500000920E-02 0.  1.
        2   -1    0    0  501    0  0.00000000000E+00  0.00000000000E+00 -0.17181330278E+04  0.17181330278E+04  0.25500000920E-02 0. -1.
    10030    2    1    2    0    0  0.00000000000E+00  0.00000000000E+00 -0.65788414511E+03  0.27783819104E+04  0.26993692767E+04 0.  0.
        5    1    3    3  502    0  0.90564904812E+03 -0.95222116101E+03 -0.12198820008E+02  0.13141903359E+04  0.46999998093E+01 0.  1.
       -5    1    3    3    0  502 -0.90564904812E+03  0.95222116101E+03 -0.64568532511E+03  0.14641915745E+04  0.46999998093E+01 0. -1.
</event>
<event>
 5   0  0.7806808E-07  0.2700772E+04  0.7818609E-02  0.8334755E-01
       -1   -1    0    0    0  501  0.00000000000E+00  0.00000000000E+00  0.14759021971E+04  0.14759021971E+04  0.50400001928E-02 0. -1.
        1   -1    0    0  501    0  0.00000000000E+00  0.00000000000E+00 -0.12355438155E+04  0.12355438155E+04  0.50400001928E-02 0.  1.
    10030    2    1    2    0    0  0.00000000000E+00  0.00000000000E+00  0.24035838165E+03  0.27114460126E+04  0.27007716171E+04 0.  0.
        5    1    3    3  502    0  0.20073201125E+03 -0.10922161532E+04 -0.65116091913E+03  0.12873469222E+04  0.46999998093E+01 0.  1.
       -5    1    3    3    0  502 -0.20073201125E+03  0.10922161532E+04  0.89151930079E+03  0.14240990904E+04  0.46999998093E+01 0. -1.
</event>
<event>
 5   0  0.1932012E-06  0.2694542E+04  0.7818609E-02  0.8336778E-01
        2   -1    0    0  501    0  0.00000000000E+00  0.00000000000E+00  0.19478958574E+04  0.19478958574E+04  0.25500000920E-02 0.  1.
       -2   -1    0    0    0  501  0.00000000000E+00  0.00000000000E+00 -0.93184608192E+03  0.93184608192E+03  0.25500000920E-02 0. -1.
    10030    2    1    2    0    0  0.00000000000E+00  0.00000000000E+00  0.10160497755E+04  0.28797419393E+04  0.26945419816E+04 0.  0.
        2    1    3    3  502    0  0.65066021318E+03  0.28173315845E+03 -0.71631742570E+03  0.10078903412E+04  0.25500000920E-02 0.  1.
       -2    1    3    3    0  502 -0.65066021318E+03 -0.28173315845E+03  0.17323672011E+04  0.18718515981E+04  0.25500000920E-02 0. -1.
</event>
<event>
 5   0  0.1999104E-06  0.2700459E+04  0.7818609E-02  0.8334856E-01
       -2   -1    0    0    0  501  0.00000000000E+00  0.00000000000E+00  0.72589393598E+03  0.72589393598E+03  0.25500000920E-02 0.  1.
        2   -1    0    0  501    0  0.00000000000E+00  0.00000000000E+00 -0.25115514055E+04  0.25115514055E+04  0.25500000920E-02 0. -1.
    10030    2    1    2    0    0  0.00000000000E+00  0.00000000000E+00 -0.17856574696E+04  0.32374453415E+04  0.27004591722E+04 0.  0.
        4    1    3    3  502    0 -0.23811897759E+03  0.70090637051E+03 -0.22465994497E+04  0.23654135131E+04  0.12699999809E+01 0. -1.
       -4    1    3    3    0  502  0.23811897759E+03 -0.70090637051E+03  0.46094198018E+03  0.87203182838E+03  0.12699999809E+01 0.  1.
</event>
<event>
 5   0  0.7768032E-07  0.2700206E+04  0.7818609E-02  0.8334938E-01
       -1   -1    0    0    0  501  0.00000000000E+00  0.00000000000E+00  0.10841616208E+04  0.10841616208E+04  0.50400001928E-02 0.  1.
        1   -1    0    0  501    0  0.00000000000E+00  0.00000000000E+00 -0.16812786212E+04  0.16812786212E+04  0.50400001928E-02 0. -1.
    10030    2    1    2    0    0  0.00000000000E+00  0.00000000000E+00 -0.59711700042E+03  0.27654402421E+04  0.27002057366E+04 0.  0.
        4    1    3    3  502    0 -0.10471839617E+03  0.90659335343E+03 -0.13175317846E+04  0.16027379908E+04  0.12699999809E+01 0. -1.
       -4    1    3    3    0  502  0.10471839617E+03 -0.90659335343E+03  0.72041478413E+03  0.11627022513E+04  0.12699999809E+01 0.  1.
</event>
<event>
 5   0  0.1991277E-06  0.2699319E+04  0.7818609E-02  0.8335226E-01
       -2   -1    0    0    0  501  0.00000000000E+00  0.00000000000E+00  0.83458919566E+03  0.83458919567E+03  0.25500000920E-02 0. -1.
        2   -1    0    0  501    0  0.00000000000E+00  0.00000000000E+00 -0.21826072458E+04  0.21826072458E+04  0.25500000920E-02 0.  1.
    10030    2    1    2    0    0  0.00000000000E+00  0.00000000000E+00 -0.13480180501E+04  0.30171964414E+04  0.26993187479E+04 0.  0.
        5    1    3    3  502    0 -0.15480905851E+03 -0.12933693609E+04 -0.27915537757E+03  0.13321861593E+04  0.46999998093E+01 0. -1.
       -5    1    3    3    0  502  0.15480905851E+03  0.12933693609E+04 -0.10688626725E+04  0.16850102821E+04  0.46999998093E+01 0.  1.
</event>
<event>
 5   0  0.2063087E-06  0.2696592E+04  0.7818609E-02  0.8336112E-01
        2   -1    0    0  501    0  0.00000000000E+00  0.00000000000E+00  0.13308326027E+04  0.13308326027E+04  0.25500000920E-02 0.  1.
       -2   -1    0    0    0  501  0.00000000000E+00  0.00000000000E+00 -0.13659883197E+04  0.13659883197E+04  0.25500000920E-02 0. -1.
    10030    2    1    2    0    0  0.00000000000E+00  0.00000000000E+00 -0.35155716999E+02  0.26968209225E+04  0.26965917680E+04 0.  0.
        3    1    3    3  502    0  0.10401222356E+04 -0.80977684431E+03  0.26583461087E+03  0.13447159005E+04  0.10100000352E+00 0.  1.
       -3    1    3    3    0  502 -0.10401222356E+04  0.80977684431E+03 -0.30099032787E+03  0.13521050219E+04  0.10100000352E+00 0. -1.
</event>
<event>
 5   0  0.1999104E-06  0.2701025E+04  0.7818609E-02  0.8334673E-01
        2   -1    0    0  501    0  0.00000000000E+00  0.00000000000E+00  0.13509935435E+04  0.13509935435E+04  0.25500000920E-02 0.  1.
       -2   -1    0    0    0  501  0.00000000000E+00  0.00000000000E+00 -0.13500312708E+04  0.13500312708E+04  0.25500000920E-02 0. -1.
    10030    2    1    2    0    0  0.00000000000E+00  0.00000000000E+00  0.96227264164E+00  0.27010248143E+04  0.27010246429E+04 0.  0.
        4    1    3    3  502    0  0.11306683499E+04  0.62726673696E+03  0.39036247727E+03  0.13506513071E+04  0.12699999809E+01 0. -1.
       -4    1    3    3    0  502 -0.11306683499E+04 -0.62726673696E+03 -0.38940020463E+03  0.13503735072E+04  0.12699999809E+01 0.  1.
</event>
<event>
 5   0  0.7436613E-07  0.2703525E+04  0.7818609E-02  0.8333862E-01
        1   -1    0    0  501    0  0.00000000000E+00  0.00000000000E+00  0.13314256223E+04  0.13314256223E+04  0.50400001928E-02 0. -1.
       -1   -1    0    0    0  501  0.00000000000E+00  0.00000000000E+00 -0.13724100340E+04  0.13724100340E+04  0.50400001928E-02 0.  1.
    10030    2    1    2    0    0  0.00000000000E+00  0.00000000000E+00 -0.40984411750E+02  0.27038356563E+04  0.27035250201E+04 0.  0.
        2    1    3    3  502    0  0.32530935207E+03  0.10753215542E+04 -0.77232272960E+03  0.13633139837E+04  0.25500000920E-02 0.  1.
       -2    1    3    3    0  502 -0.32530935207E+03 -0.10753215542E+04  0.73133831785E+03  0.13405216726E+04  0.25500000920E-02 0. -1.
</event>
<event>
 5   0  0.1991277E-06  0.2694898E+04  0.7818609E-02  0.8336662E-01
        2   -1    0    0  501    0  0.00000000000E+00  0.00000000000E+00  0.12920440344E+04  0.12920440344E+04  0.25500000920E-02 0.  1.
       -2   -1    0    0    0  501  0.00000000000E+00  0.00000000000E+00 -0.14052295919E+04  0.14052295919E+04  0.25500000920E-02 0. -1.
    10030    2    1    2    0    0  0.00000000000E+00  0.00000000000E+00 -0.11318555754E+03  0.26972736263E+04  0.26948977800E+04 0.  0.
        5    1    3    3  502    0 -0.20204090976E+03  0.46222486193E+03  0.11939582536E+04  0.12961600031E+04  0.46999998093E+01 0.  1.
       -5    1    3    3    0  502  0.20204090976E+03 -0.46222486193E+03 -0.13071438111E+04  0.14011136232E+04  0.46999998093E+01 0. -1.
</event>
<event>
 5   0  0.7806808E-07  0.2702728E+04  0.7818609E-02  0.8334120E-01
       -1   -1    0    0    0  501  0.00000000000E+00  0.00000000000E+00  0.10880120931E+04  0.10880120931E+04  0.50400001928E-02 0. -1.
        1   -1    0    0  501    0  0.00000000000E+00  0.00000000000E+00 -0.16784598193E+04  0.16784598193E+04  0.50400001928E-02 0.  1.
    10030    2    1    2    0    0  0.00000000000E+00  0.00000000000E+00 -0.59044772624E+03  0.27664719124E+04  0.27027279413E+04 0.  0.
        5    1    3    3  502    0 -0.30728686184E+03 -0.41490203783E+03 -0.15735146311E+04  0.16560613820E+04  0.46999998093E+01 0.  1.
       -5    1    3    3    0  502  0.30728686184E+03  0.41490203783E+03  0.98306690491E+03  0.11104105304E+04  0.46999998093E+01 0. -1.
</event>
<event>
 5   0  0.1999104E-06  0.2698472E+04  0.7818609E-02  0.8335501E-01
       -2   -1    0    0    0  501  0.00000000000E+00  0.00000000000E+00  0.77987473016E+03  0.77987473017E+03  0.25500000920E-02 0. -1.
        2   -1    0    0  501    0  0.00000000000E+00  0.00000000000E+00 -0.23342690717E+04  0.23342690718E+04  0.25500000920E-02 0.  1.
    10030    2    1    2    0    0  0.00000000000E+00  0.00000000000E+00 -0.15543943416E+04  0.31141438019E+04  0.26984717619E+04 0.  0.
        4    1    3    3  502    0 -0.60350506609E+03  0.51167104082E+03  0.48404226826E+03  0.92753660261E+03  0.12699999809E+01 0. -1.
       -4    1    3    3    0  502  0.60350506609E+03 -0.51167104082E+03 -0.20384366098E+04  0.21866071993E+04  0.12699999809E+01 0.  1.
</event>
<event>
 5   0  0.7566905E-07  0.2695502E+04  0.7818609E-02  0.8336466E-01
       -1   -1    0    0    0  501  0.00000000000E+00  0.00000000000E+00  0.98721740443E+03  0.98721740444E+03  0.50400001928E-02 0.  1.
        1   -1    0    0  501    0  0.00000000000E+00  0.00000000000E+00 -0.18399523128E+04  0.18399523128E+04  0.50400001928E-02 0. -1.
    10030    2    1    2    0    0  0.00000000000E+00  0.00000000000E+00 -0.85273490842E+03  0.28271697173E+04  0.26955021399E+04 0.  0.
        1    1    3    3  502    0  0.83164821355E+03 -0.61215324794E+03 -0.13347336290E+04  0.16875675425E+04  0.50400001928E-02 0. -1.
       -1    1    3    3    0  502 -0.83164821355E+03  0.61215324794E+03  0.48199872061E+03  0.11396021748E+04  0.50400001928E-02 0.  1.
</event>
<event>
 5   0  0.1991277E-06  0.2697562E+04  0.7818609E-02  0.8335796E-01
        2   -1    0    0  501    0  0.00000000000E+00  0.00000000000E+00  0.18658957109E+04  0.18658957109E+04  0.25500000920E-02 0.  1.
       -2   -1    0    0    0  501  0.00000000000E+00  0.00000000000E+00 -0.97497967064E+03  0.97497967064E+03  0.25500000920E-02 0. -1.
    10030    2    1    2    0    0  0.00000000000E+00  0.00000000000E+00  0.89091604025E+03  0.28408753815E+04  0.26975621481E+04 0.  0.
        5    1    3    3  502    0  0.71348406875E+03  0.95162261819E+03 -0.22436977018E+03  0.12103755647E+04  0.46999998093E+01 0. -1.
       -5    1    3    3    0  502 -0.71348406875E+03 -0.95162261819E+03  0.11152858104E+04  0.16304998169E+04  0.46999998093E+01 0.  1.
</event>
<event>
 5   0  0.7806808E-07  0.2708495E+04  0.7818609E-02  0.8332254E-01
        1   -1    0    0  501    0  0.00000000000E+00  0.00000000000E+00  0.11488241441E+04  0.11488241441E+04  0.50400001928E-02 0. -1.
       -1   -1    0    0    0  501  0.00000000000E+00  0.00000000000E+00 -0.15964024844E+04  0.15964024844E+04  0.50400001928E-02 0.  1.
    10030    2    1    2    0    0  0.00000000000E+00  0.00000000000E+00 -0.44757834028E+03  0.27452266284E+04  0.27084945765E+04 0.  0.
        5    1    3    3  502    0 -0.28422580708E+03  0.35657145861E+03  0.10686655172E+04  0.11618931071E+04  0.46999998093E+01 0. -1.
       -5    1    3    3    0  502  0.28422580708E+03 -0.35657145861E+03 -0.15162438575E+04  0.15833335214E+04  0.46999998093E+01 0.  1.
</event>
<event>
 5   0  0.7806808E-07  0.2735114E+04  0.7818609E-02  0.8323701E-01
       -1   -1    0    0    0  501  0.00000000000E+00  0.00000000000E+00  0.11075398657E+04  0.11075398658E+04  0.50400001928E-02 0.  1.
        1   -1    0    0  501    0  0.00000000000E+00  0.00000000000E+00 -0.16886186245E+04  0.16886186245E+04  0.50400001928E-02 0. -1.
    10030    2    1    2    0    0  0.00000000000E+00  0.00000000000E+00 -0.58107875879E+03  0.27961584903E+04  0.27351142168E+04 0.  0.
        5    1    3    3  502    0  0.17135436360E+03  0.33918538242E+03  0.10524704719E+04  0.11189840150E+04  0.46999998093E+01 0.  1.
       -5    1    3    3    0  502 -0.17135436360E+03 -0.33918538242E+03 -0.16335492307E+04  0.16771744753E+04  0.46999998093E+01 0. -1.
</event>
<event>
 5   0  0.1991277E-06  0.2687212E+04  0.7818609E-02  0.8339166E-01
       -2   -1    0    0    0  501  0.00000000000E+00  0.00000000000E+00  0.12753587709E+04  0.12753587709E+04  0.25500000920E-02 0. -1.
        2   -1    0    0  501    0  0.00000000000E+00  0.00000000000E+00 -0.14155052744E+04  0.14155052744E+04  0.25500000920E-02 0.  1.
    10030    2    1    2    0    0  0.00000000000E+00  0.00000000000E+00 -0.14014650350E+03  0.26908640453E+04  0.26872119878E+04 0.  0.
        5    1    3    3  502    0 -0.78439029757E+02  0.49767180762E+03  0.11771816796E+04  0.12804720638E+04  0.46999998093E+01 0. -1.
       -5    1    3    3    0  502  0.78439029757E+02 -0.49767180762E+03 -0.13173281831E+04  0.14103919815E+04  0.46999998093E+01 0.  1.
</event>
<event>
 5   0  0.7566905E-07  0.2706484E+04  0.7818609E-02  0.8332904E-01
       -1   -1    0    0    0  501  0.00000000000E+00  0.00000000000E+00  0.10267273579E+04  0.10267273580E+04  0.50400001928E-02 0. -1.
        1   -1    0    0  501    0  0.00000000000E+00  0.00000000000E+00 -0.17835930642E+04  0.17835930642E+04  0.50400001928E-02 0.  1.
    10030    2    1    2    0    0  0.00000000000E+00  0.00000000000E+00 -0.75686570624E+03  0.28103204222E+04  0.27064839142E+04 0.  0.
        1    1    3    3  502    0 -0.10917106973E+04 -0.19320312903E+03 -0.11841566321E+04  0.16221549325E+04  0.50400001928E-02 0.  1.
       -1    1    3    3    0  502  0.10917106973E+04  0.19320312903E+03  0.42729092584E+03  0.11881654897E+04  0.50400001928E-02 0. -1.
</event>
<event>
 5   0  0.7768032E-07  0.2706547E+04  0.7818609E-02  0.8332884E-01
        1   -1    0    0  501    0  0.00000000000E+00  0.00000000000E+00  0.15120431776E+04  0.15120431776E+04  0.50400001928E-02 0. -1.
       -1   -1    0    0    0  501  0.00000000000E+00  0.00000000000E+00 -0.12111747881E+04  0.12111747881E+04  0.50400001928E-02 0.  1.
    10030    2    1    2    0    0  0.00000000000E+00  0.00000000000E+00  0.30086838946E+03  0.27232179657E+04  0.27065465636E+04 0.  0.
        4    1    3    3  502    0 -0.10265936362E+04 -0.15036444584E+03  0.10246028236E+04  0.14581894662E+04  0.12699999809E+01 0. -1.
       -4    1    3    3    0  502  0.10265936362E+04  0.15036444584E+03 -0.72373443417E+03  0.12650284995E+04  0.12699999809E+01 0.  1.
</event>
<event>
 5   0  0.7806808E-07  0.2698270E+04  0.7818609E-02  0.8335567E-01
       -1   -1    0    0    0  501  0.00000000000E+00  0.00000000000E+00  0.12205803522E+04  0.12205803522E+04  0.50400001928E-02 0. -1.
        1   -1    0    0  501    0  0.00000000000E+00  0.00000000000E+00 -0.14912291966E+04  0.14912291966E+04  0.50400001928E-02 0.  1.
    10030    2    1    2    0    0  0.00000000000E+00  0.00000000000E+00 -0.27064884433E+03  0.27118095488E+04  0.26982698590E+04 0.  0.
        5    1    3    3  502    0  0.57266379483E+03 -0.64355017221E+03  0.90817378902E+03  0.12517597082E+04  0.46999998093E+01 0. -1.
       -5    1    3    3    0  502 -0.57266379483E+03  0.64355017221E+03 -0.11788226333E+04  0.14600498406E+04  0.46999998093E+01 0.  1.
</event>
<event>
 5   0  0.7768032E-07  0.2691493E+04  0.7818609E-02  0.8337770E-01
        1   -1    0    0  501    0  0.00000000000E+00  0.00000000000E+00  0.26231845336E+04  0.26231845336E+04  0.50400001928E-02 0.  1.
       -1   -1    0    0    0  501  0.00000000000E+00  0.00000000000E+00 -0.69039530657E+03  0.69039530659E+03  0.50400001928E-02 0. -1.
    10030    2    1    2    0    0  0.00000000000E+00  0.00000000000E+00  0.19327892270E+04  0.33135798402E+04  0.26914934815E+04 0.  0.
        4    1    3    3  502    0 -0.12706731512E+04  0.30967117374E+03  0.57605403073E+03  0.14291068372E+04  0.12699999809E+01 0. -1.
       -4    1    3    3    0  502  0.12706731512E+04 -0.30967117374E+03  0.13567351963E+04  0.18844730029E+04  0.12699999809E+01 0.  1.
</event>
<event>
 5   0  0.7768032E-07  0.2694832E+04  0.7818609E-02  0.8336684E-01
       -1   -1    0    0    0  501  0.00000000000E+00  0.00000000000E+00  0.82987395083E+03  0.82987395084E+03  0.50400001928E-02 0. -1.
        1   -1    0    0  501    0  0.00000000000E+00  0.00000000000E+00 -0.21877175788E+04  0.21877175788E+04  0.50400001928E-02 0.  1.
    10030    2    1    2    0    0  0.00000000000E+00  0.00000000000E+00 -0.13578436280E+04  0.30175915297E+04  0.26948319654E+04 0.  0.
        4    1    3    3  502    0 -0.12112351096E+04  0.52048726434E+03 -0.99071434736E+03  0.16490949075E+04  0.12699999809E+01 0.  1.
       -4    1    3    3    0  502  0.12112351096E+04 -0.52048726434E+03 -0.36712928063E+03  0.13684966221E+04  0.12699999809E+01 0. -1.
</event>
<event>
 5   0  0.7768032E-07  0.2698715E+04  0.7818609E-02  0.8335422E-01
       -1   -1    0    0    0  501  0.00000000000E+00  0.00000000000E+00  0.15110291670E+04  0.15110291670E+04  0.50400001928E-02 0. -1.
        1   -1    0    0  501    0  0.00000000000E+00  0.00000000000E+00 -0.12049835458E+04  0.12049835458E+04  0.50400001928E-02 0.  1.
    10030    2    1    2    0    0  0.00000000000E+00  0.00000000000E+00  0.30604562123E+03  0.27160127128E+04  0.26987147188E+04 0.  0.
        4    1    3    3  502    0  0.36352025521E+03 -0.42853696471E+03 -0.10816137717E+04  0.12188850931E+04  0.12699999809E+01 0.  1.
       -4    1    3    3    0  502 -0.36352025521E+03  0.42853696471E+03  0.13876593929E+04  0.14971276197E+04  0.12699999809E+01 0. -1.
</event>
<event>
 5   0  0.7335091E-07  0.2720124E+04  0.7818609E-02  0.8328505E-01
       -1   -1    0    0    0  501  0.00000000000E+00  0.00000000000E+00  0.28902022042E+04  0.28902022042E+04  0.50400001928E-02 0.  1.
        1   -1    0    0  501    0  0.00000000000E+00  0.00000000000E+00 -0.64001338749E+03  0.64001338751E+03  0.50400001928E-02 0. -1.
    10030    2    1    2    0    0  0.00000000000E+00  0.00000000000E+00  0.22501888167E+04  0.35302155917E+04  0.27201236025E+04 0.  0.
        3    1    3    3  502    0  0.10635912256E+04  0.38208876303E+03  0.21071120501E+04  0.23910540187E+04  0.10100000352E+00 0.  1.
       -3    1    3    3    0  502 -0.10635912256E+04 -0.38208876303E+03  0.14307676654E+03  0.11391615730E+04  0.10100000352E+00 0. -1.
</event>
<event>
 5   0  0.1932012E-06  0.2699844E+04  0.7818609E-02  0.8335055E-01
        2   -1    0    0  501    0  0.00000000000E+00  0.00000000000E+00  0.22806508481E+04  0.22806508481E+04  0.25500000920E-02 0.  1.
       -2   -1    0    0    0  501  0.00000000000E+00  0.00000000000E+00 -0.79902184903E+03  0.79902184904E+03  0.25500000920E-02 0. -1.
    10030    2    1    2    0    0  0.00000000000E+00  0.00000000000E+00  0.14816289990E+04  0.30796726971E+04  0.26998443345E+04 0.  0.
        2    1    3    3  502    0 -0.12618566554E+03 -0.13268868373E+04  0.49686152612E+03  0.14224706947E+04  0.25500000920E-02 0.  1.
       -2    1    3    3    0  502  0.12618566554E+03  0.13268868373E+04  0.98476747292E+03  0.16572020024E+04  0.25500000920E-02 0. -1.
</event>
<event>
 5   0  0.7335091E-07  0.2697541E+04  0.7818609E-02  0.8335803E-01
        1   -1    0    0  501    0  0.00000000000E+00  0.00000000000E+00  0.13717592883E+04  0.13717592883E+04  0.50400001928E-02 0.  1.
       -1   -1    0    0    0  501  0.00000000000E+00  0.00000000000E+00 -0.13261668843E+04  0.13261668843E+04  0.50400001928E-02 0. -1.
    10030    2    1    2    0    0  0.00000000000E+00  0.00000000000E+00  0.45592403988E+02  0.26979261726E+04  0.26975409108E+04 0.  0.
        3    1    3    3  502    0 -0.13170772882E+04  0.25009611124E+03 -0.12535018091E+03  0.13464595524E+04  0.10100000352E+00 0. -1.
       -3    1    3    3    0  502  0.13170772882E+04 -0.25009611124E+03  0.17094258490E+03  0.13514666202E+04  0.10100000352E+00 0.  1.
</event>
<event>
 5   0  0.7566905E-07  0.2708978E+04  0.7818609E-02  0.8332098E-01
        1   -1    0    0  501    0  0.00000000000E+00  0.00000000000E+00  0.88959852879E+03  0.88959852880E+03  0.50400001928E-02 0. -1.
       -1   -1    0    0    0  501  0.00000000000E+00  0.00000000000E+00 -0.20623235787E+04  0.20623235787E+04  0.50400001928E-02 0.  1.
    10030    2    1    2    0    0  0.00000000000E+00  0.00000000000E+00 -0.11727250499E+04  0.29519221075E+04  0.27089776828E+04 0.  0.
        1    1    3    3  502    0  0.94883577923E+02  0.12317829084E+04 -0.11914526014E+04  0.17163482538E+04  0.50400001928E-02 0.  1.
       -1    1    3    3    0  502 -0.94883577923E+02 -0.12317829084E+04  0.18727551471E+02  0.12355738537E+04  0.50400001928E-02 0. -1.
</event>
<event>
 5   0  0.6561875E-07  0.2694012E+04  0.7818609E-02  0.8336951E-01
        4   -1    0    0  501    0  0.00000000000E+00  0.00000000000E+00  0.20557998976E+04  0.20558002899E+04  0.12699999809E+01 0. -1.
       -4   -1    0    0    0  501  0.00000000000E+00  0.00000000000E+00 -0.88258722089E+03  0.88258813462E+03  0.12699999809E+01 0.  1.
    10030    2    1    2    0    0  0.00000000000E+00  0.00000000000E+00  0.11732126767E+04  0.29383884245E+04  0.26940116088E+04 0.  0.
        4    1    3    3  502    0  0.25695432544E+03  0.92174632821E+03  0.16206448949E+04  0.18820556068E+04  0.12699999809E+01 0. -1.
       -4    1    3    3    0  502 -0.25695432544E+03 -0.92174632821E+03 -0.44743221819E+03  0.10563328177E+04  0.12699999809E+01 0.  1.
</event>
<event>
 5   0  0.7436613E-07  0.2698666E+04  0.7818609E-02  0.8335438E-01
        1   -1    0    0  501    0  0.00000000000E+00  0.00000000000E+00  0.15710281076E+04  0.15710281076E+04  0.50400001928E-02 0. -1.
       -1   -1    0    0    0  501  0.00000000000E+00  0.00000000000E+00 -0.11589219466E+04  0.11589219466E+04  0.50400001928E-02 0.  1.
    10030    2    1    2    0    0  0.00000000000E+00  0.00000000000E+00  0.41210616106E+03  0.27299500542E+04  0.26986655610E+04 0.  0.
        2    1    3    3  502    0  0.41521873617E+03 -0.11721103918E+04  0.73600555265E+03  0.14449752742E+04  0.25500000920E-02 0. -1.
       -2    1    3    3    0  502 -0.41521873617E+03  0.11721103918E+04 -0.32389939159E+03  0.12849747800E+04  0.25500000920E-02 0.  1.
</event>
<event>
 5   0  0.7335091E-07  0.2699472E+04  0.7818609E-02  0.8335176E-01
        1   -1    0    0  501    0  0.00000000000E+00  0.00000000000E+00  0.23753919490E+04  0.23753919490E+04  0.50400001928E-02 0.  1.
       -1   -1    0    0    0  501  0.00000000000E+00  0.00000000000E+00 -0.76694166619E+03  0.76694166621E+03  0.50400001928E-02 0. -1.
    10030    2    1    2    0    0  0.00000000000E+00  0.00000000000E+00  0.16084502828E+04  0.31423336152E+04  0.26994718441E+04 0.  0.
        3    1    3    3  502    0  0.11901259737E+04  0.24397725726E+03  0.11964371736E+03  0.12207536052E+04  0.10100000352E+00 0. -1.
       -3    1    3    3    0  502 -0.11901259737E+04 -0.24397725726E+03  0.14888065655E+04  0.19215800100E+04  0.10100000352E+00 0.  1.
</event>
<event>
 5   0  0.7768032E-07  0.2694659E+04  0.7818609E-02  0.8336740E-01
        1   -1    0    0  501    0  0.00000000000E+00  0.00000000000E+00  0.17877737501E+04  0.17877737502E+04  0.50400001928E-02 0.  1.
       -1   -1    0    0    0  501  0.00000000000E+00  0.00000000000E+00 -0.10153949636E+04  0.10153949637E+04  0.50400001928E-02 0. -1.
    10030    2    1    2    0    0  0.00000000000E+00  0.00000000000E+00  0.77237878650E+03  0.28031687138E+04  0.26946587629E+04 0.  0.
        4    1    3    3  502    0  0.12653151894E+04 -0.42323053950E+03  0.19116128987E+03  0.13478467531E+04  0.12699999809E+01 0. -1.
       -4    1    3    3    0  502 -0.12653151894E+04  0.42323053950E+03  0.58121749663E+03  0.14553219607E+04  0.12699999809E+01 0.  1.
</event>
<event>
 5   0  0.7768032E-07  0.2700079E+04  0.7818609E-02  0.8334979E-01
        1   -1    0    0  501    0  0.00000000000E+00  0.00000000000E+00  0.67603271822E+03  0.67603271824E+03  0.50400001928E-02 0.  1.
       -1   -1    0    0    0  501  0.00000000000E+00  0.00000000000E+00 -0.26960336066E+04  0.26960336066E+04  0.50400001928E-02 0. -1.
    10030    2    1    2    0    0  0.00000000000E+00  0.00000000000E+00 -0.20200008883E+04  0.33720663248E+04  0.27000792044E+04 0.  0.
        4    1    3    3  502    0  0.96553468251E+03 -0.15237895031E+02 -0.21882651886E+04  0.23918602729E+04  0.12699999809E+01 0. -1.
       -4    1    3    3    0  502 -0.96553468251E+03  0.15237895031E+02  0.16826430024E+03  0.98020605191E+03  0.12699999809E+01 0.  1.
</event>
<event>
 5   0  0.1999104E-06  0.2698564E+04  0.7818609E-02  0.8335471E-01
        2   -1    0    0  501    0  0.00000000000E+00  0.00000000000E+00  0.14563617984E+04  0.14563617984E+04  0.25500000920E-02 0.  1.
       -2   -1    0    0    0  501  0.00000000000E+00  0.00000000000E+00 -0.12500755091E+04  0.12500755091E+04  0.25500000920E-02 0. -1.
    10030    2    1    2    0    0  0.00000000000E+00  0.00000000000E+00  0.20628628933E+03  0.27064373074E+04  0.26985642231E+04 0.  0.
        4    1    3    3  502    0 -0.96810649200E+03 -0.37648406339E+03 -0.76052558668E+03  0.12873893004E+04  0.12699999809E+01 0. -1.
       -4    1    3    3    0  502  0.96810649200E+03  0.37648406339E+03  0.96681187601E+03  0.14190480071E+04  0.12699999809E+01 0.  1.
</event>
<event>
 5   0  0.7335091E-07  0.2648761E+04  0.7818609E-02  0.8351824E-01
        1   -1    0    0  501    0  0.00000000000E+00  0.00000000000E+00  0.13666859277E+04  0.13666859277E+04  0.50400001928E-02 0. -1.
       -1   -1    0    0    0  501  0.00000000000E+00  0.00000000000E+00 -0.12833849315E+04  0.12833849315E+04  0.50400001928E-02 0.  1.
    10030    2    1    2    0    0  0.00000000000E+00  0.00000000000E+00  0.83300996192E+02  0.26500708592E+04  0.26487613148E+04 0.  0.
        3    1    3    3  502    0 -0.84063222144E+03  0.60487988057E+03  0.86755357265E+03  0.13509964520E+04  0.10100000352E+00 0. -1.
       -3    1    3    3    0  502  0.84063222144E+03 -0.60487988057E+03 -0.78425257646E+03  0.12990744072E+04  0.10100000352E+00 0.  1.
</event>
<event>
 5   0  0.1932012E-06  0.2700752E+04  0.7818609E-02  0.8334761E-01
       -2   -1    0    0    0  501  0.00000000000E+00  0.00000000000E+00  0.85197714428E+03  0.85197714429E+03  0.25500000920E-02 0. -1.
        2   -1    0    0  501    0  0.00000000000E+00  0.00000000000E+00 -0.21403337142E+04  0.21403337142E+04  0.25500000920E-02 0.  1.
    10030    2    1    2    0    0  0.00000000000E+00  0.00000000000E+00 -0.12883565699E+04  0.29923108585E+04  0.27007520476E+04 0.  0.
        2    1    3    3  502    0 -0.65778195849E+03  0.58800816463E+03  0.48847695683E+03  0.10084842309E+04  0.25500000920E-02 0. -1.
       -2    1    3    3    0  502  0.65778195849E+03 -0.58800816463E+03 -0.17768335267E+04  0.19838266276E+04  0.25500000920E-02 0.  1.
</event>
<event>
 5   0  0.1991277E-06  0.2702979E+04  0.7818609E-02  0.8334039E-01
        2   -1    0    0  501    0  0.00000000000E+00  0.00000000000E+00  0.23520679933E+04  0.23520679933E+04  0.25500000920E-02 0.  1.
       -2   -1    0    0    0  501  0.00000000000E+00  0.00000000000E+00 -0.77656080484E+03  0.77656080485E+03  0.25500000920E-02 0. -1.
    10030    2    1    2    0    0  0.00000000000E+00  0.00000000000E+00  0.15755071884E+04  0.31286287981E+04  0.27029789595E+04 0.  0.
        5    1    3    3  502    0 -0.78945244960E+03 -0.33008499473E+03 -0.42307215132E+03  0.95456975081E+03  0.46999998093E+01 0. -1.
       -5    1    3    3    0  502  0.78945244960E+03  0.33008499473E+03  0.19985793398E+04  0.21740590473E+04  0.46999998093E+01 0.  1.
</event>
<event>
 5   0  0.2063087E-06  0.2700016E+04  0.7818609E-02  0.8335000E-01
       -2   -1    0    0    0  501  0.00000000000E+00  0.00000000000E+00  0.15652133535E+04  0.15652133535E+04  0.25500000920E-02 0.  1.
        2   -1    0    0  501    0  0.00000000000E+00  0.00000000000E+00 -0.11643915860E+04  0.11643915860E+04  0.25500000920E-02 0. -1.
    10030    2    1    2    0    0  0.00000000000E+00  0.00000000000E+00  0.40082176752E+03  0.27296049395E+04  0.27000157475E+04 0.  0.
        3    1    3    3  502    0 -0.94062590106E+02  0.56935591417E+03  0.14342394452E+04  0.15459808292E+04  0.10100000352E+00 0.  1.
       -3    1    3    3    0  502  0.94062590106E+02 -0.56935591417E+03 -0.10334176777E+04  0.11836241103E+04  0.10100000352E+00 0. -1.
</event>
<event>
 5   0  0.7436613E-07  0.2701675E+04  0.7818609E-02  0.8334462E-01
       -1   -1    0    0    0  501  0.00000000000E+00  0.00000000000E+00  0.13139729524E+04  0.13139729524E+04  0.50400001928E-02 0. -1.
        1   -1    0    0  501    0  0.00000000000E+00  0.00000000000E+00 -0.13887365844E+04  0.13887365844E+04  0.50400001928E-02 0.  1.
    10030    2    1    2    0    0  0.00000000000E+00  0.00000000000E+00 -0.74763632006E+02  0.27027095368E+04  0.27016752654E+04 0.  0.
        2    1    3    3  502    0  0.88778847413E+03  0.37721856309E+02 -0.10552048502E+04  0.13795102715E+04  0.25500000920E-02 0.  1.
       -2    1    3    3    0  502 -0.88778847413E+03 -0.37721856309E+02  0.98044121821E+03  0.13231992653E+04  0.25500000920E-02 0. -1.
</event>
<event>
 5   0  0.2063087E-06  0.2702834E+04  0.7818609E-02  0.8334086E-01
       -2   -1    0    0    0  501  0.00000000000E+00  0.00000000000E+00  0.87035505150E+03  0.87035505150E+03  0.25500000920E-02 0. -1.
        2   -1    0    0  501    0  0.00000000000E+00  0.00000000000E+00 -0.20983712901E+04  0.20983712901E+04  0.25500000920E-02 0.  1.
    10030    2    1    2    0    0  0.00000000000E+00  0.00000000000E+00 -0.12280162386E+04  0.29687263416E+04  0.27028341068E+04 0.  0.
        3    1    3    3  502    0  0.10124337893E+04  0.86199225808E+03 -0.34885746432E+03  0.13746833713E+04  0.10100000352E+00 0. -1.
       -3    1    3    3    0  502 -0.10124337893E+04 -0.86199225808E+03 -0.87915877425E+03  0.15940429703E+04  0.10100000352E+00 0.  1.
</event>
<event>
 5   0  0.7806808E-07  0.2696252E+04  0.7818609E-02  0.8336222E-01
        1   -1    0    0  501    0  0.00000000000E+00  0.00000000000E+00  0.22461624936E+04  0.22461624936E+04  0.50400001928E-02 0. -1.
       -1   -1    0    0    0  501  0.00000000000E+00  0.00000000000E+00 -0.80913305165E+03  0.80913305166E+03  0.50400001928E-02 0.  1.
    10030    2    1    2    0    0  0.00000000000E+00  0.00000000000E+00  0.14370294420E+04  0.30552955453E+04  0.26962524459E+04 0.  0.
        5    1    3    3  502    0  0.38945040851E+03 -0.10832174257E+04  0.15136619619E+04  0.19016377775E+04  0.46999998093E+01 0. -1.
       -5    1    3    3    0  502 -0.38945040851E+03  0.10832174257E+04 -0.76632519952E+02  0.11536577678E+04  0.46999998093E+01 0.  1.
</event>
<event>
 5   0  0.7335091E-07  0.2700333E+04  0.7818609E-02  0.8334897E-01
        1   -1    0    0  501    0  0.00000000000E+00  0.00000000000E+00  0.13070044449E+04  0.13070044449E+04  0.50400001928E-02 0.  1.
       -1   -1    0    0    0  501  0.00000000000E+00  0.00000000000E+00 -0.13947535287E+04  0.13947535287E+04  0.50400001928E-02 0. -1.
    10030    2    1    2    0    0  0.00000000000E+00  0.00000000000E+00 -0.87749083798E+02  0.27017579737E+04  0.27003326178E+04 0.  0.
        3    1    3    3  502    0 -0.24232397405E+02  0.79117043601E+03 -0.11382577267E+04  0.13864229263E+04  0.10100000352E+00 0. -1.
       -3    1    3    3    0  502  0.24232397405E+02 -0.79117043601E+03  0.10505086429E+04  0.13153350474E+04  0.10100000352E+00 0.  1.
</event>
<event>
 5   0  0.7566905E-07  0.2705109E+04  0.7818609E-02  0.8333349E-01
       -1   -1    0    0    0  501  0.00000000000E+00  0.00000000000E+00  0.89510226011E+03  0.89510226013E+03  0.50400001928E-02 0. -1.
        1   -1    0    0  501    0  0.00000000000E+00  0.00000000000E+00 -0.20437936368E+04  0.20437936368E+04  0.50400001928E-02 0.  1.
    10030    2    1    2    0    0  0.00000000000E+00  0.00000000000E+00 -0.11486913767E+04  0.29388958969E+04  0.27051094643E+04 0.  0.
        1    1    3    3  502    0  0.78756679771E+03 -0.45432948433E+02  0.61927723314E+03  0.10029107165E+04  0.50400001928E-02 0. -1.
       -1    1    3    3    0  502 -0.78756679771E+03  0.45432948433E+02 -0.17679686098E+04  0.19359851805E+04  0.50400001928E-02 0.  1.
</event>
<event>
 5   0  0.1999104E-06  0.2701658E+04  0.7818609E-02  0.8334467E-01
       -2   -1    0    0    0  501  0.00000000000E+00  0.00000000000E+00  0.98365841615E+03  0.98365841615E+03  0.25500000920E-02 0.  1.
        2   -1    0    0  501    0  0.00000000000E+00  0.00000000000E+00 -0.18550532102E+04  0.18550532102E+04  0.25500000920E-02 0. -1.
    10030    2    1    2    0    0  0.00000000000E+00  0.00000000000E+00 -0.87139479408E+03  0.28387116264E+04  0.27016577893E+04 0.  0.
        4    1    3    3  502    0  0.81821189104E+03 -0.10281501782E+04 -0.10647581134E+03  0.13182951865E+04  0.12699999809E+01 0. -1.
       -4    1    3    3    0  502 -0.81821189104E+03  0.10281501782E+04 -0.76491898274E+03  0.15204164399E+04  0.12699999809E+01 0.  1.
</event>
<event>
 5   0  0.7768032E-07  0.2701421E+04  0.7818609E-02  0.8334544E-01
       -1   -1    0    0    0  501  0.00000000000E+00  0.00000000000E+00  0.10012514604E+04  0.10012514604E+04  0.50400001928E-02 0. -1.
        1   -1    0    0  501    0  0.00000000000E+00  0.00000000000E+00 -0.18221380992E+04  0.18221380992E+04  0.50400001928E-02 0.  1.
    10030    2    1    2    0    0  0.00000000000E+00  0.00000000000E+00 -0.82088663881E+03  0.28233895596E+04  0.27014206876E+04 0.  0.
        4    1    3    3  502    0  0.68526420777E+03 -0.10285256917E+04 -0.97999218025E+03  0.15772883120E+04  0.12699999809E+01 0. -1.
       -4    1    3    3    0  502 -0.68526420777E+03  0.10285256917E+04  0.15910554144E+03  0.12461012476E+04  0.12699999809E+01 0.  1.
</event>
<event>
 5   0  0.7436613E-07  0.2703218E+04  0.7818609E-02  0.8333962E-01
        1   -1    0    0  501    0  0.00000000000E+00  0.00000000000E+00  0.16656878459E+04  0.16656878459E+04  0.50400001928E-02 0. -1.
       -1   -1    0    0    0  501  0.00000000000E+00  0.00000000000E+00 -0.10967518908E+04  0.10967518908E+04  0.50400001928E-02 0.  1.
    10030    2    1    2    0    0  0.00000000000E+00  0.00000000000E+00  0.56893595507E+03  0.27624397367E+04  0.27032175603E+04 0.  0.
        2    1    3    3  502    0 -0.61139365574E+03  0.11738378061E+04  0.43292713900E+01  0.13235241365E+04  0.25500000920E-02 0.  1.
       -2    1    3    3    0  502  0.61139365574E+03 -0.11738378061E+04  0.56460668368E+03  0.14389156002E+04  0.25500000920E-02 0. -1.
</event>
<event>
 5   0  0.7335091E-07  0.2708256E+04  0.7818609E-02  0.8332331E-01
        1   -1    0    0  501    0  0.00000000000E+00  0.00000000000E+00  0.15494367674E+04  0.15494367675E+04  0.50400001928E-02 0. -1.
       -1   -1    0    0    0  501  0.00000000000E+00  0.00000000000E+00 -0.11834383755E+04  0.11834383755E+04  0.50400001928E-02 0.  1.
    10030    2    1    2    0    0  0.00000000000E+00  0.00000000000E+00  0.36599839199E+03  0.27328751429E+04  0.27082562146E+04 0.  0.
        3    1    3    3  502    0 -0.14612458712E+03  0.10411565847E+03 -0.11713904159E+04  0.11850518900E+04  0.10100000352E+00 0.  1.
       -3    1    3    3    0  502  0.14612458712E+03 -0.10411565847E+03  0.15373888079E+04  0.15478232529E+04  0.10100000352E+00 0. -1.
</event>
<event>
 5   0  0.1932012E-06  0.2691873E+04  0.7818609E-02  0.8337647E-01
        2   -1    0    0  501    0  0.00000000000E+00  0.00000000000E+00  0.11875911833E+04  0.11875911833E+04  0.25500000920E-02 0.  1.
       -2   -1    0    0    0  501  0.00000000000E+00  0.00000000000E+00 -0.15253948107E+04  0.15253948107E+04  0.25500000920E-02 0. -1.
    10030    2    1    2    0    0  0.00000000000E+00  0.00000000000E+00 -0.33780362738E+03  0.27129859939E+04  0.26918732720E+04 0.  0.
        2    1    3    3  502    0 -0.36326500241E+03 -0.92616385546E+03 -0.10825462067E+04  0.14702541409E+04  0.25500000920E-02 0. -1.
       -2    1    3    3    0  502  0.36326500241E+03  0.92616385546E+03  0.74474257933E+03  0.12427318531E+04  0.25500000920E-02 0.  1.
</event>
<event>
 5   0  0.1999104E-06  0.2666130E+04  0.7818609E-02  0.8346079E-01
        2   -1    0    0  501    0  0.00000000000E+00  0.00000000000E+00  0.16539278683E+04  0.16539278683E+04  0.25500000920E-02 0.  1.
       -2   -1    0    0    0  501  0.00000000000E+00  0.00000000000E+00 -0.10744497578E+04  0.10744497578E+04  0.25500000920E-02 0. -1.
    10030    2    1    2    0    0  0.00000000000E+00  0.00000000000E+00  0.57947811053E+03  0.27283776260E+04  0.26661300774E+04 0.  0.
        4    1    3    3  502    0 -0.25854091752E+03  0.12995352124E+04  0.13994666741E+03  0.13323745183E+04  0.12699999809E+01 0. -1.
       -4    1    3    3    0  502  0.25854091752E+03 -0.12995352124E+04  0.43953144312E+03  0.13960031077E+04  0.12699999809E+01 0.  1.
</event>
<event>
 5   0  0.1932012E-06  0.2701468E+04  0.7818609E-02  0.8334529E-01
        2   -1    0    0  501    0  0.00000000000E+00  0.00000000000E+00  0.16755616110E+04  0.16755616110E+04  0.25500000920E-02 0. -1.
       -2   -1    0    0    0  501  0.00000000000E+00  0.00000000000E+00 -0.10888778540E+04  0.10888778540E+04  0.25500000920E-02 0.  1.
    10030    2    1    2    0    0  0.00000000000E+00  0.00000000000E+00  0.58668375707E+03  0.27644394650E+04  0.27014676983E+04 0.  0.
        2    1    3    3  502    0  0.89619972039E+03  0.99850172685E+03  0.13381607551E+03  0.13483643348E+04  0.25500000920E-02 0.  1.
       -2    1    3    3    0  502 -0.89619972039E+03 -0.99850172685E+03  0.45286768156E+03  0.14160751302E+04  0.25500000920E-02 0. -1.
</event>
<event>
 5   0  0.7768032E-07  0.2702542E+04  0.7818609E-02  0.8334181E-01
       -1   -1    0    0    0  501  0.00000000000E+00  0.00000000000E+00  0.12233180252E+04  0.12233180252E+04  0.50400001928E-02 0. -1.
        1   -1    0    0  501    0  0.00000000000E+00  0.00000000000E+00 -0.14926069894E+04  0.14926069894E+04  0.50400001928E-02 0.  1.
    10030    2    1    2    0    0  0.00000000000E+00  0.00000000000E+00 -0.26928896419E+03  0.27159250145E+04  0.27025417922E+04 0.  0.
        4    1    3    3  502    0  0.82571415213E+03  0.33254438284E+03  0.88702254674E+03  0.12566623409E+04  0.12699999809E+01 0. -1.
       -4    1    3    3    0  502 -0.82571415213E+03 -0.33254438284E+03 -0.11563115109E+04  0.14592626737E+04  0.12699999809E+01 0.  1.
</event>
<event>
 5   0  0.1991277E-06  0.2701767E+04  0.7818609E-02  0.8334432E-01
        2   -1    0    0  501    0  0.00000000000E+00  0.00000000000E+00  0.23470106257E+04  0.23470106257E+04  0.25500000920E-02 0. -1.
       -2   -1    0    0    0  501  0.00000000000E+00  0.00000000000E+00 -0.77753665140E+03  0.77753665140E+03  0.25500000920E-02 0.  1.
    10030    2    1    2    0    0  0.00000000000E+00  0.00000000000E+00  0.15694739743E+04  0.31245472771E+04  0.27017674087E+04 0.  0.
        5    1    3    3  502    0  0.10916425476E+04 -0.75549391898E+03  0.49582413802E+03  0.14171514313E+04  0.46999998093E+01 0.  1.
       -5    1    3    3    0  502 -0.10916425476E+04  0.75549391898E+03  0.10736498363E+04  0.17073958458E+04  0.46999998093E+01 0. -1.
</event>
<event>
 5   0  0.7436613E-07  0.2699202E+04  0.7818609E-02  0.8335264E-01
       -1   -1    0    0    0  501  0.00000000000E+00  0.00000000000E+00  0.87383911129E+03  0.87383911131E+03  0.50400001928E-02 0.  1.
        1   -1    0    0  501    0  0.00000000000E+00  0.00000000000E+00 -0.20843918472E+04  0.20843918472E+04  0.50400001928E-02 0. -1.
    10030    2    1    2    0    0  0.00000000000E+00  0.00000000000E+00 -0.12105527359E+04  0.29582309585E+04  0.26992021928E+04 0.  0.
        2    1    3    3  502    0  0.82488583276E+03 -0.96456037421E+03 -0.11082392238E+04  0.16849354675E+04  0.25500000920E-02 0. -1.
       -2    1    3    3    0  502 -0.82488583276E+03  0.96456037421E+03 -0.10231351213E+03  0.12732954910E+04  0.25500000920E-02 0.  1.
</event>
<event>
 5   0  0.7566905E-07  0.2699194E+04  0.7818609E-02  0.8335267E-01
        1   -1    0    0  501    0  0.00000000000E+00  0.00000000000E+00  0.20411506890E+04  0.20411506890E+04  0.50400001928E-02 0.  1.
       -1   -1    0    0    0  501  0.00000000000E+00  0.00000000000E+00 -0.89234558518E+03  0.89234558519E+03  0.50400001928E-02 0. -1.
    10030    2    1    2    0    0  0.00000000000E+00  0.00000000000E+00  0.11488051038E+04  0.29334962742E+04  0.26991938100E+04 0.  0.
        1    1    3    3  502    0 -0.37310774664E+03 -0.12907109813E+04  0.43578669256E+03  0.14124639002E+04  0.50400001928E-02 0. -1.
       -1    1    3    3    0  502  0.37310774664E+03  0.12907109813E+04  0.71301841124E+03  0.15210323740E+04  0.50400001928E-02 0.  1.
</event>
<event>
 5   0  0.7806808E-07  0.2700375E+04  0.7818609E-02  0.8334883E-01
       -1   -1    0    0    0  501  0.00000000000E+00  0.00000000000E+00  0.76403058883E+03  0.76403058885E+03  0.50400001928E-02 0. -1.
        1   -1    0    0  501    0  0.00000000000E+00  0.00000000000E+00 -0.23860378441E+04  0.23860378441E+04  0.50400001928E-02 0.  1.
    10030    2    1    2    0    0  0.00000000000E+00  0.00000000000E+00 -0.16220072553E+04  0.31500684330E+04  0.27003747140E+04 0.  0.
        5    1    3    3  502    0  0.43120341720E+03  0.12603379282E+04 -0.55384860837E+03  0.14426220750E+04  0.46999998093E+01 0. -1.
       -5    1    3    3    0  502 -0.43120341720E+03 -0.12603379282E+04 -0.10681586469E+04  0.17074463579E+04  0.46999998093E+01 0.  1.
</event>
<event>
 5   0  0.7768032E-07  0.2698293E+04  0.7818609E-02  0.8335559E-01
       -1   -1    0    0    0  501  0.00000000000E+00  0.00000000000E+00  0.11758434045E+04  0.11758434045E+04  0.50400001928E-02 0.  1.
        1   -1    0    0  501    0  0.00000000000E+00  0.00000000000E+00 -0.15479920387E+04  0.15479920387E+04  0.50400001928E-02 0. -1.
    10030    2    1    2    0    0  0.00000000000E+00  0.00000000000E+00 -0.37214863420E+03  0.27238354431E+04  0.26982929632E+04 0.  0.
        4    1    3    3  502    0  0.63733776165E+03 -0.10223664829E+04 -0.79908046200E+03  0.14456707251E+04  0.12699999809E+01 0.  1.
       -4    1    3    3    0  502 -0.63733776165E+03  0.10223664829E+04  0.42693182780E+03  0.12781647180E+04  0.12699999809E+01 0. -1.
</event>
<event>
 5   0  0.2030645E-06  0.2702726E+04  0.7818609E-02  0.8334121E-01
        2   -1    0    0  501    0  0.00000000000E+00  0.00000000000E+00  0.14345548244E+04  0.14345548244E+04  0.25500000920E-02 0.  1.
       -2   -1    0    0    0  501  0.00000000000E+00  0.00000000000E+00 -0.12729959239E+04  0.12729959239E+04  0.25500000920E-02 0. -1.
    10030    2    1    2    0    0  0.00000000000E+00  0.00000000000E+00  0.16155890051E+03  0.27075507484E+04  0.27027263599E+04 0.  0.
        1    1    3    3  502    0  0.73308582334E+03  0.25738260720E+03 -0.10268712759E+04  0.12876821223E+04  0.50400001928E-02 0. -1.
       -1    1    3    3    0  502 -0.73308582334E+03 -0.25738260720E+03  0.11884301764E+04  0.14198686260E+04  0.50400001928E-02 0.  1.
</event>
<event>
 5   0  0.7566905E-07  0.2688175E+04  0.7818609E-02  0.8338852E-01
        1   -1    0    0  501    0  0.00000000000E+00  0.00000000000E+00  0.12276328374E+04  0.12276328375E+04  0.50400001928E-02 0. -1.
       -1   -1    0    0    0  501  0.00000000000E+00  0.00000000000E+00 -0.14715890062E+04  0.14715890062E+04  0.50400001928E-02 0.  1.
    10030    2    1    2    0    0  0.00000000000E+00  0.00000000000E+00 -0.24395616872E+03  0.26992218436E+04  0.26881748360E+04 0.  0.
        1    1    3    3  502    0  0.12694282447E+04 -0.26015677889E+03 -0.48043443821E+03  0.13820082733E+04  0.50400001928E-02 0.  1.
       -1    1    3    3    0  502 -0.12694282447E+04  0.26015677889E+03  0.23647826950E+03  0.13172135703E+04  0.50400001928E-02 0. -1.
</event>
<event>
 5   0  0.2063087E-06  0.2700347E+04  0.7818609E-02  0.8334892E-01
        2   -1    0    0  501    0  0.00000000000E+00  0.00000000000E+00  0.99143289564E+03  0.99143289565E+03  0.25500000920E-02 0. -1.
       -2   -1    0    0    0  501  0.00000000000E+00  0.00000000000E+00 -0.18387206832E+04  0.18387206832E+04  0.25500000920E-02 0.  1.
    10030    2    1    2    0    0  0.00000000000E+00  0.00000000000E+00 -0.84728778751E+03  0.28301535788E+04  0.27003467712E+04 0.  0.
        3    1    3    3  502    0 -0.47225435089E+02  0.13063586700E+04 -0.69518679821E+02  0.13090592322E+04  0.10100000352E+00 0. -1.
       -3    1    3    3    0  502  0.47225435089E+02 -0.13063586700E+04 -0.77776910769E+03  0.15210943466E+04  0.10100000352E+00 0.  1.
</event>
<event>
 5   0  0.2030645E-06  0.2695214E+04  0.7818609E-02  0.8336560E-01
        2   -1    0    0  501    0  0.00000000000E+00  0.00000000000E+00  0.15970452394E+04  0.15970452394E+04  0.25500000920E-02 0. -1.
       -2   -1    0    0    0  501  0.00000000000E+00  0.00000000000E+00 -0.11371275049E+04  0.11371275049E+04  0.25500000920E-02 0.  1.
    10030    2    1    2    0    0  0.00000000000E+00  0.00000000000E+00  0.45991773449E+03  0.27341727442E+04  0.26952135857E+04 0.  0.
        1    1    3    3  502    0  0.67745017515E+03  0.10768927712E+04  0.68068667544E+03  0.14429037150E+04  0.50400001928E-02 0. -1.
       -1    1    3    3    0  502 -0.67745017515E+03 -0.10768927712E+04 -0.22076894095E+03  0.12912690292E+04  0.50400001928E-02 0.  1.
</event>
<event>
 5   0  0.2030645E-06  0.2700455E+04  0.7818609E-02  0.8334857E-01
       -2   -1    0    0    0  501  0.00000000000E+00  0.00000000000E+00  0.14141599777E+04  0.14141599777E+04  0.25500000920E-02 0.  1.
        2   -1    0    0  501    0  0.00000000000E+00  0.00000000000E+00 -0.12891852156E+04  0.12891852156E+04  0.25500000920E-02 0. -1.
    10030    2    1    2    0    0  0.00000000000E+00  0.00000000000E+00  0.12497476213E+03  0.27033451933E+04  0.27004548771E+04 0.  0.
        1    1    3    3  502    0 -0.10726679537E+04  0.30740798327E+03  0.82356284474E+03  0.13868568659E+04  0.50400001928E-02 0.  1.
       -1    1    3    3    0  502  0.10726679537E+04 -0.30740798327E+03 -0.69858808261E+03  0.13164883275E+04  0.50400001928E-02 0. -1.
</event>
<event>
 5   0  0.1991277E-06  0.2705510E+04  0.7818609E-02  0.8333219E-01
       -2   -1    0    0    0  501  0.00000000000E+00  0.00000000000E+00  0.96520917741E+03  0.96520917741E+03  0.25500000920E-02 0.  1.
        2   -1    0    0  501    0  0.00000000000E+00  0.00000000000E+00 -0.18959065285E+04  0.18959065285E+04  0.25500000920E-02 0. -1.
    10030    2    1    2    0    0  0.00000000000E+00  0.00000000000E+00 -0.93069735110E+03  0.28611157059E+04  0.27055102150E+04 0.  0.
        5    1    3    3  502    0 -0.10794741885E+04 -0.51213827418E+03 -0.11361613852E+04  0.16487676970E+04  0.46999998093E+01 0. -1.
       -5    1    3    3    0  502  0.10794741885E+04  0.51213827418E+03  0.20546403409E+03  0.12123480089E+04  0.46999998093E+01 0.  1.
</event>
<event>
 5   0  0.7806808E-07  0.2702655E+04  0.7818609E-02  0.8334144E-01
       -1   -1    0    0    0  501  0.00000000000E+00  0.00000000000E+00  0.10934047129E+04  0.10934047129E+04  0.50400001928E-02 0.  1.
        1   -1    0    0  501    0  0.00000000000E+00  0.00000000000E+00 -0.16700913571E+04  0.16700913571E+04  0.50400001928E-02 0. -1.
    10030    2    1    2    0    0  0.00000000000E+00  0.00000000000E+00 -0.57668664426E+03  0.27634960700E+04  0.27026548139E+04 0.  0.
        5    1    3    3  502    0  0.24296057660E+02  0.84937639423E+03 -0.13627267983E+04  0.16059504893E+04  0.46999998093E+01 0. -1.
       -5    1    3    3    0  502 -0.24296057660E+02 -0.84937639423E+03  0.78604015402E+03  0.11575455806E+04  0.46999998093E+01 0.  1.
</event>
<event>
 5   0  0.2063087E-06  0.2703627E+04  0.7818609E-02  0.8333829E-01
        2   -1    0    0  501    0  0.00000000000E+00  0.00000000000E+00  0.20382520687E+04  0.20382520687E+04  0.25500000920E-02 0. -1.
       -2   -1    0    0    0  501  0.00000000000E+00  0.00000000000E+00 -0.89655232253E+03  0.89655232254E+03  0.25500000920E-02 0.  1.
    10030    2    1    2    0    0  0.00000000000E+00  0.00000000000E+00  0.11416997462E+04  0.29348043912E+04  0.27036269166E+04 0.  0.
        3    1    3    3  502    0  0.51175756058E+03  0.17982041111E+03 -0.77323698068E+03  0.94452454682E+03  0.10100000352E+00 0.  1.
       -3    1    3    3    0  502 -0.51175756058E+03 -0.17982041111E+03  0.19149367268E+04  0.19902798444E+04  0.10100000352E+00 0. -1.
</event>
<event>
 5   0  0.7768032E-07  0.2695826E+04  0.7818609E-02  0.8336361E-01
        1   -1    0    0  501    0  0.00000000000E+00  0.00000000000E+00  0.17128845467E+04  0.17128845467E+04  0.50400001928E-02 0. -1.
       -1   -1    0    0    0  501  0.00000000000E+00  0.00000000000E+00 -0.10607075455E+04  0.10607075455E+04  0.50400001928E-02 0.  1.
    10030    2    1    2    0    0  0.00000000000E+00  0.00000000000E+00  0.65217700121E+03  0.27735920923E+04  0.26958260800E+04 0.  0.
        4    1    3    3  502    0  0.64368933037E+03  0.99748035273E+03  0.98291267716E+03  0.15412403940E+04  0.12699999809E+01 0. -1.
       -4    1    3    3    0  502 -0.64368933037E+03 -0.99748035273E+03 -0.33073567595E+03  0.12323516983E+04  0.12699999809E+01 0.  1.
</event>
<event>
 5   0  0.7566905E-07  0.2707492E+04  0.7818609E-02  0.8332578E-01
       -1   -1    0    0    0  501  0.00000000000E+00  0.00000000000E+00  0.10740132462E+04  0.10740132462E+04  0.50400001928E-02 0.  1.
        1   -1    0    0  501    0  0.00000000000E+00  0.00000000000E+00 -0.17063364120E+04  0.17063364120E+04  0.50400001928E-02 0. -1.
    10030    2    1    2    0    0  0.00000000000E+00  0.00000000000E+00 -0.63232316581E+03  0.27803496583E+04  0.27074917611E+04 0.  0.
        1    1    3    3  502    0  0.75600653112E+03 -0.11160396455E+04 -0.44416555720E+03  0.14192862317E+04  0.50400001928E-02 0. -1.
       -1    1    3    3    0  502 -0.75600653112E+03  0.11160396455E+04 -0.18815760860E+03  0.13610634265E+04  0.50400001928E-02 0.  1.
</event>
<event>
 5   0  0.7335091E-07  0.2701063E+04  0.7818609E-02  0.8334660E-01
        1   -1    0    0  501    0  0.00000000000E+00  0.00000000000E+00  0.23404112775E+04  0.23404112775E+04  0.50400001928E-02 0.  1.
       -1   -1    0    0    0  501  0.00000000000E+00  0.00000000000E+00 -0.77932244875E+03  0.77932244877E+03  0.50400001928E-02 0. -1.
    10030    2    1    2    0    0  0.00000000000E+00  0.00000000000E+00  0.15610888287E+04  0.31197337263E+04  0.27010627893E+04 0.  0.
        3    1    3    3  502    0 -0.12851364621E+04 -0.37582842953E+03  0.98427157302E+03  0.16618102402E+04  0.10100000352E+00 0. -1.
       -3    1    3    3    0  502  0.12851364621E+04  0.37582842953E+03  0.57681725572E+03  0.14579234861E+04  0.10100000352E+00 0.  1.
</event>
<event>
 5   0  0.7335091E-07  0.2699580E+04  0.7818609E-02  0.8335141E-01
        1   -1    0    0  501    0  0.00000000000E+00  0.00000000000E+00  0.70366487076E+03  0.70366487078E+03  0.50400001928E-02 0.  1.
       -1   -1    0    0    0  501  0.00000000000E+00  0.00000000000E+00 -0.25892060446E+04  0.25892060447E+04  0.50400001928E-02 0. -1.
    10030    2    1    2    0    0  0.00000000000E+00  0.00000000000E+00 -0.18855411739E+04  0.32928709154E+04  0.26995802169E+04 0.  0.
        3    1    3    3  502    0 -0.38379902583E+03  0.93893652469E+03 -0.20290041883E+04  0.22684270974E+04  0.10100000352E+00 0. -1.
       -3    1    3    3    0  502  0.38379902583E+03 -0.93893652469E+03  0.14346301446E+03  0.10244438181E+04  0.10100000352E+00 0.  1.
</event>
<event>
 5   0  0.1932012E-06  0.2698658E+04  0.7818609E-02  0.8335441E-01
        2   -1    0    0  501    0  0.00000000000E+00  0.00000000000E+00  0.96640600586E+03  0.96640600586E+03  0.25500000920E-02 0.  1.
       -2   -1    0    0    0  501  0.00000000000E+00  0.00000000000E+00 -0.18839785169E+04  0.18839785169E+04  0.25500000920E-02 0. -1.
    10030    2    1    2    0    0  0.00000000000E+00  0.00000000000E+00 -0.91757251107E+03  0.28503845228E+04  0.26986575579E+04 0.  0.
        2    1    3    3  502    0 -0.20839571976E+03  0.89284804066E+03  0.58686490624E+03  0.10885847775E+04  0.25500000920E-02 0.  1.
       -2    1    3    3    0  502  0.20839571976E+03 -0.89284804066E+03 -0.15044374173E+04  0.17617997452E+04  0.25500000920E-02 0. -1.
</event>
<event>
 5   0  0.7806808E-07  0.2696156E+04  0.7818609E-02  0.8336253E-01
       -1   -1    0    0    0  501  0.00000000000E+00  0.00000000000E+00  0.99116463496E+03  0.99116463497E+03  0.50400001928E-02 0.  1.
        1   -1    0    0  501    0  0.00000000000E+00  0.00000000000E+00 -0.18335143126E+04  0.18335143126E+04  0.50400001928E-02 0. -1.
    10030    2    1    2    0    0  0.00000000000E+00  0.00000000000E+00 -0.84234967765E+03  0.28246789476E+04  0.26961561857E+04 0.  0.
        5    1    3    3  502    0 -0.54534413667E+03  0.91844543677E+03 -0.12827831108E+04  0.16692803381E+04  0.46999998093E+01 0. -1.
       -5    1    3    3    0  502  0.54534413667E+03 -0.91844543677E+03  0.44043343319E+03  0.11553986095E+04  0.46999998093E+01 0.  1.
</event>
<event>
 5   0  0.1991277E-06  0.2698064E+04  0.7818609E-02  0.8335633E-01
        2   -1    0    0  501    0  0.00000000000E+00  0.00000000000E+00  0.19718301177E+04  0.19718301177E+04  0.25500000920E-02 0. -1.
       -2   -1    0    0    0  501  0.00000000000E+00  0.00000000000E+00 -0.92294313825E+03  0.92294313825E+03  0.25500000920E-02 0.  1.
    10030    2    1    2    0    0  0.00000000000E+00  0.00000000000E+00  0.10488869794E+04  0.28947732559E+04  0.26980638072E+04 0.  0.
        5    1    3    3  502    0 -0.11684513156E+04  0.67411190242E+03  0.51088688234E+03  0.14424745510E+04  0.46999998093E+01 0. -1.
       -5    1    3    3    0  502  0.11684513156E+04 -0.67411190242E+03  0.53800009708E+03  0.14522987049E+04  0.46999998093E+01 0.  1.
</event>
<event>
 5   0  0.7436613E-07  0.2722536E+04  0.7818609E-02  0.8327730E-01
        1   -1    0    0  501    0  0.00000000000E+00  0.00000000000E+00  0.10587258966E+04  0.10587258966E+04  0.50400001928E-02 0. -1.
       -1   -1    0    0    0  501  0.00000000000E+00  0.00000000000E+00 -0.17502653403E+04  0.17502653403E+04  0.50400001928E-02 0.  1.
    10030    2    1    2    0    0  0.00000000000E+00  0.00000000000E+00 -0.69153944372E+03  0.28089912370E+04  0.27225364951E+04 0.  0.
        2    1    3    3  502    0 -0.28788337815E+03 -0.12243380521E+04 -0.88304651795E+03  0.15367666245E+04  0.25500000920E-02 0. -1.
       -2    1    3    3    0  502  0.28788337815E+03  0.12243380521E+04  0.19150707423E+03  0.12722246125E+04  0.25500000920E-02 0.  1.
</event>
<event>
 5   0  0.7436613E-07  0.2698265E+04  0.7818609E-02  0.8335568E-01
        1   -1    0    0  501    0  0.00000000000E+00  0.00000000000E+00  0.29240967191E+04  0.29240967191E+04  0.50400001928E-02 0. -1.
       -1   -1    0    0    0  501  0.00000000000E+00  0.00000000000E+00 -0.62246849129E+03  0.62246849131E+03  0.50400001928E-02 0.  1.
    10030    2    1    2    0    0  0.00000000000E+00  0.00000000000E+00  0.23016282278E+04  0.35465652104E+04  0.26982646817E+04 0.  0.
        2    1    3    3  502    0  0.26791827796E+03 -0.16337107174E+03 -0.57383439420E+03  0.65403075059E+03  0.25500000920E-02 0.  1.
       -2    1    3    3    0  502 -0.26791827796E+03  0.16337107174E+03  0.28754626220E+04  0.28925344598E+04  0.25500000920E-02 0. -1.
</event>
<event>
 5   0  0.7566905E-07  0.2693138E+04  0.7818609E-02  0.8337235E-01
       -1   -1    0    0    0  501  0.00000000000E+00  0.00000000000E+00  0.87050205820E+03  0.87050205822E+03  0.50400001928E-02 0.  1.
        1   -1    0    0  501    0  0.00000000000E+00  0.00000000000E+00 -0.20829906739E+04  0.20829906739E+04  0.50400001928E-02 0. -1.
    10030    2    1    2    0    0  0.00000000000E+00  0.00000000000E+00 -0.12124886157E+04  0.29534927321E+04  0.26931377008E+04 0.  0.
        1    1    3    3  502    0  0.91783745546E+03 -0.83486650054E+03 -0.11801095621E+04  0.17123335677E+04  0.50400001928E-02 0.  1.
       -1    1    3    3    0  502 -0.91783745546E+03  0.83486650054E+03 -0.32379053595E+02  0.12411591645E+04  0.50400001928E-02 0. -1.
</event>
<event>
 5   0  0.7436613E-07  0.2702358E+04  0.7818609E-02  0.8334240E-01
       -1   -1    0    0    0  501  0.00000000000E+00  0.00000000000E+00  0.87038633232E+03  0.87038633233E+03  0.50400001928E-02 0. -1.
        1   -1    0    0  501    0  0.00000000000E+00  0.00000000000E+00 -0.20975562417E+04  0.20975562417E+04  0.50400001928E-02 0.  1.
    10030    2    1    2    0    0  0.00000000000E+00  0.00000000000E+00 -0.12271699094E+04  0.29679425741E+04  0.27023576996E+04 0.  0.
        2    1    3    3  502    0 -0.43945646545E+03  0.62581291901E+03 -0.18370304808E+04  0.19898353656E+04  0.25500000920E-02 0.  1.
       -2    1    3    3    0  502  0.43945646545E+03 -0.62581291901E+03  0.60986057145E+03  0.97810720846E+03  0.25500000920E-02 0. -1.
</event>
<event>
 5   0  0.2030645E-06  0.2696011E+04  0.7818609E-02  0.8336300E-01
        2   -1    0    0  501    0  0.00000000000E+00  0.00000000000E+00  0.16851434330E+04  0.16851434330E+04  0.25500000920E-02 0.  1.
       -2   -1    0    0    0  501  0.00000000000E+00  0.00000000000E+00 -0.10783173067E+04  0.10783173067E+04  0.25500000920E-02 0. -1.
    10030    2    1    2    0    0  0.00000000000E+00  0.00000000000E+00  0.60682612625E+03  0.27634607397E+04  0.26960113710E+04 0.  0.
        1    1    3    3  502    0  0.12350184490E+04  0.34717367939E+03  0.72767550969E+03  0.14748938200E+04  0.50400001928E-02 0.  1.
       -1    1    3    3    0  502 -0.12350184490E+04 -0.34717367939E+03 -0.12084938344E+03  0.12885669197E+04  0.50400001928E-02 0. -1.
</event>
<event>
 5   0  0.2030645E-06  0.2721762E+04  0.7818609E-02  0.8327978E-01
        2   -1    0    0  501    0  0.00000000000E+00  0.00000000000E+00  0.21116600659E+04  0.21116600659E+04  0.25500000920E-02 0. -1.
       -2   -1    0    0    0  501  0.00000000000E+00  0.00000000000E+00 -0.87703369953E+03  0.87703369954E+03  0.25500000920E-02 0.  1.
    10030    2    1    2    0    0  0.00000000000E+00  0.00000000000E+00  0.12346263663E+04  0.29886937654E+04  0.27217619585E+04 0.  0.
        1    1    3    3  502    0 -0.44500995656E+03  0.33278205817E+03  0.19814096941E+04  0.20578537693E+04  0.50400001928E-02 0. -1.
       -1    1    3    3    0  502  0.44500995656E+03 -0.33278205817E+03 -0.74678332781E+03  0.93083999613E+03  0.50400001928E-02 0.  1.
</event>
<event>
 5   0  0.7768032E-07  0.2698946E+04  0.7818609E-02  0.8335347E-01
        1   -1    0    0  501    0  0.00000000000E+00  0.00000000000E+00  0.25173195136E+04  0.25173195136E+04  0.50400001928E-02 0.  1.
       -1   -1    0    0    0  501  0.00000000000E+00  0.00000000000E+00 -0.72341909092E+03  0.72341909093E+03  0.50400001928E-02 0. -1.
    10030    2    1    2    0    0  0.00000000000E+00  0.00000000000E+00  0.17939004227E+04  0.32407386045E+04  0.26989457157E+04 0.  0.
        4    1    3    3  502    0  0.95985010910E+02 -0.88800985547E+03 -0.31770075592E+03  0.94800316927E+03  0.12699999809E+01 0. -1.
       -4    1    3    3    0  502 -0.95985010910E+02  0.88800985547E+03  0.21116011786E+04  0.22927354353E+04  0.12699999809E+01 0.  1.
</event>
<event>
 5   0  0.1991277E-06  0.2696712E+04  0.7818609E-02  0.8336073E-01
        2   -1    0    0  501    0  0.00000000000E+00  0.00000000000E+00  0.29107500701E+04  0.29107500701E+04  0.25500000920E-02 0.  1.
       -2   -1    0    0    0  501  0.00000000000E+00  0.00000000000E+00 -0.62460322180E+03  0.62460322180E+03  0.25500000920E-02 0. -1.
    10030    2    1    2    0    0  0.00000000000E+00  0.00000000000E+00  0.22861468483E+04  0.35353532919E+04  0.26967119769E+04 0.  0.
        5    1    3    3  502    0 -0.88673573730E+03 -0.78398347311E+03  0.19897631700E+04  0.23151911188E+04  0.46999998093E+01 0.  1.
       -5    1    3    3    0  502  0.88673573730E+03  0.78398347311E+03  0.29638367832E+03  0.12201621731E+04  0.46999998093E+01 0. -1.
</event>
<event>
 5   0  0.7806808E-07  0.2696737E+04  0.7818609E-02  0.8336064E-01
        1   -1    0    0  501    0  0.00000000000E+00  0.00000000000E+00  0.15782725214E+04  0.15782725214E+04  0.50400001928E-02 0.  1.
       -1   -1    0    0    0  501  0.00000000000E+00  0.00000000000E+00 -0.11519543858E+04  0.11519543858E+04  0.50400001928E-02 0. -1.
    10030    2    1    2    0    0  0.00000000000E+00  0.00000000000E+00  0.42631813558E+03  0.27302269072E+04  0.26967372530E+04 0.  0.
        5    1    3    3  502    0 -0.25981215324E+03 -0.29954322032E+03  0.15179020483E+04  0.15688458223E+04  0.46999998093E+01 0.  1.
       -5    1    3    3    0  502  0.25981215324E+03  0.29954322032E+03 -0.10915839127E+04  0.11613810849E+04  0.46999998093E+01 0. -1.
</event>
<event>
 5   0  0.7436613E-07  0.2732206E+04  0.7818609E-02  0.8324630E-01
        1   -1    0    0  501    0  0.00000000000E+00  0.00000000000E+00  0.24961344280E+04  0.24961344280E+04  0.50400001928E-02 0. -1.
       -1   -1    0    0    0  501  0.00000000000E+00  0.00000000000E+00 -0.74765100305E+03  0.74765100307E+03  0.50400001928E-02 0.  1.
    10030    2    1    2    0    0  0.00000000000E+00  0.00000000000E+00  0.17484834249E+04  0.32437854311E+04  0.27322060017E+04 0.  0.
        2    1    3    3  502    0  0.73905404806E+03 -0.26816572652E+03  0.22006202534E+04  0.23368447194E+04  0.25500000920E-02 0. -1.
       -2    1    3    3    0  502 -0.73905404806E+03  0.26816572652E+03 -0.45213682847E+03  0.90694071168E+03  0.25500000920E-02 0.  1.
</event>
<event>
 5   0  0.1991277E-06  0.2697576E+04  0.7818609E-02  0.8335792E-01
        2   -1    0    0  501    0  0.00000000000E+00  0.00000000000E+00  0.93063595749E+03  0.93063595750E+03  0.25500000920E-02 0. -1.
       -2   -1    0    0    0  501  0.00000000000E+00  0.00000000000E+00 -0.19548240235E+04  0.19548240235E+04  0.25500000920E-02 0.  1.
    10030    2    1    2    0    0  0.00000000000E+00  0.00000000000E+00 -0.10241880660E+04  0.28854599809E+04  0.26975763395E+04 0.  0.
        5    1    3    3  502    0  0.10120907443E+04 -0.67434093811E+03 -0.11359333725E+04  0.16641604767E+04  0.46999998093E+01 0.  1.
       -5    1    3    3    0  502 -0.10120907443E+04  0.67434093811E+03  0.11174530651E+03  0.12212995042E+04  0.46999998093E+01 0. -1.
</event>
<event>
 5   0  0.2030645E-06  0.2698894E+04  0.7818609E-02  0.8335364E-01
        2   -1    0    0  501    0  0.00000000000E+00  0.00000000000E+00  0.11437548953E+04  0.11437548953E+04  0.25500000920E-02 0.  1.
       -2   -1    0    0    0  501  0.00000000000E+00  0.00000000000E+00 -0.15921311731E+04  0.15921311731E+04  0.25500000920E-02 0. -1.
    10030    2    1    2    0    0  0.00000000000E+00  0.00000000000E+00 -0.44837627780E+03  0.27358860684E+04  0.26988944575E+04 0.  0.
        1    1    3    3  502    0  0.67721399066E+03  0.73240103697E+03  0.69710170175E+03  0.12169555664E+04  0.50400001928E-02 0.  1.
       -1    1    3    3    0  502 -0.67721399066E+03 -0.73240103697E+03 -0.11454779796E+04  0.15189305020E+04  0.50400001928E-02 0. -1.
</event>
<event>
 5   0  0.7768032E-07  0.2697464E+04  0.7818609E-02  0.8335828E-01
       -1   -1    0    0    0  501  0.00000000000E+00  0.00000000000E+00  0.10355619631E+04  0.10355619631E+04  0.50400001928E-02 0. -1.
        1   -1    0    0  501    0  0.00000000000E+00  0.00000000000E+00 -0.17566100058E+04  0.17566100058E+04  0.50400001928E-02 0.  1.
    10030    2    1    2    0    0  0.00000000000E+00  0.00000000000E+00 -0.72104804270E+03  0.27921719689E+04  0.26974643693E+04 0.  0.
        4    1    3    3  502    0 -0.64030338379E+03 -0.10282772436E+04  0.25337063923E+03  0.12375543652E+04  0.12699999809E+01 0. -1.
       -4    1    3    3    0  502  0.64030338379E+03  0.10282772436E+04 -0.97441868193E+03  0.15546176037E+04  0.12699999809E+01 0.  1.
</event>
<event>
 5   0  0.6561875E-07  0.2699378E+04  0.7818609E-02  0.8335207E-01
       -3   -1    0    0    0  501  0.00000000000E+00  0.00000000000E+00  0.15357979316E+04  0.15357979349E+04  0.10100000352E+00 0. -1.
        3   -1    0    0  501    0  0.00000000000E+00  0.00000000000E+00 -0.11861330311E+04  0.11861330354E+04  0.10100000352E+00 0.  1.
    10030    2    1    2    0    0  0.00000000000E+00  0.00000000000E+00  0.34966490040E+03  0.27219309703E+04  0.26993781996E+04 0.  0.
        2    1    3    3  502    0  0.44246212628E+03 -0.12350217978E+03  0.14545436079E+04  0.15253598359E+04  0.25500000920E-02 0. -1.
       -2    1    3    3    0  502 -0.44246212628E+03  0.12350217978E+03 -0.11048787075E+04  0.11965711345E+04  0.25500000920E-02 0.  1.
</event>
<event>
 5   0  0.7335091E-07  0.2704093E+04  0.7818609E-02  0.8333678E-01
       -1   -1    0    0    0  501  0.00000000000E+00  0.00000000000E+00  0.16522459830E+04  0.16522459830E+04  0.50400001928E-02 0.  1.
        1   -1    0    0  501    0  0.00000000000E+00  0.00000000000E+00 -0.11063910398E+04  0.11063910398E+04  0.50400001928E-02 0. -1.
    10030    2    1    2    0    0  0.00000000000E+00  0.00000000000E+00  0.54585494321E+03  0.27586370228E+04  0.27040933055E+04 0.  0.
        3    1    3    3  502    0 -0.17992360373E+03 -0.45718776173E+03 -0.10120978179E+04  0.11250489571E+04  0.10100000352E+00 0. -1.
       -3    1    3    3    0  502  0.17992360373E+03  0.45718776173E+03  0.15579527611E+04  0.16335880658E+04  0.10100000352E+00 0.  1.
</event>
<event>
 5   0  0.7335091E-07  0.2700257E+04  0.7818609E-02  0.8334922E-01
       -1   -1    0    0    0  501  0.00000000000E+00  0.00000000000E+00  0.10566838850E+04  0.10566838851E+04  0.50400001928E-02 0. -1.
        1   -1    0    0  501    0  0.00000000000E+00  0.00000000000E+00 -0.17250636990E+04  0.17250636990E+04  0.50400001928E-02 0.  1.
    10030    2    1    2    0    0  0.00000000000E+00  0.00000000000E+00 -0.66837981392E+03  0.27817475840E+04  0.27002570332E+04 0.  0.
        3    1    3    3  502    0 -0.39886031432E+03 -0.55863419964E+03 -0.15318964057E+04  0.16786507461E+04  0.10100000352E+00 0.  1.
       -3    1    3    3    0  502  0.39886031432E+03  0.55863419964E+03  0.86351659179E+03  0.11030968379E+04  0.10100000352E+00 0. -1.
</event>
<event>
 5   0  0.7806808E-07  0.2722658E+04  0.7818609E-02  0.8327691E-01
       -1   -1    0    0    0  501  0.00000000000E+00  0.00000000000E+00  0.93497342838E+03  0.93497342840E+03  0.50400001928E-02 0. -1.
        1   -1    0    0  501    0  0.00000000000E+00  0.00000000000E+00 -0.19821055025E+04  0.19821055025E+04  0.50400001928E-02 0.  1.
    10030    2    1    2    0    0  0.00000000000E+00  0.00000000000E+00 -0.10471320742E+04  0.29170789309E+04  0.27226575085E+04 0.  0.
        5    1    3    3  502    0 -0.72310138470E+03 -0.74977970986E+03 -0.14625924451E+04  0.17956179928E+04  0.46999998093E+01 0.  1.
       -5    1    3    3    0  502  0.72310138470E+03  0.74977970986E+03  0.41546037091E+03  0.11214609381E+04  0.46999998093E+01 0. -1.
</event>
<event>
 5   0  0.7768032E-07  0.2703045E+04  0.7818609E-02  0.8334018E-01
       -1   -1    0    0    0  501  0.00000000000E+00  0.00000000000E+00  0.93469389357E+03  0.93469389359E+03  0.50400001928E-02 0. -1.
        1   -1    0    0  501    0  0.00000000000E+00  0.00000000000E+00 -0.19542370542E+04  0.19542370542E+04  0.50400001928E-02 0.  1.
    10030    2    1    2    0    0  0.00000000000E+00  0.00000000000E+00 -0.10195431607E+04  0.28889309478E+04  0.27030452761E+04 0.  0.
        4    1    3    3  502    0  0.11959938752E+04  0.25649747502E+03 -0.11241227534E+04  0.16612783878E+04  0.12699999809E+01 0. -1.
       -4    1    3    3    0  502 -0.11959938752E+04 -0.25649747502E+03  0.10457959272E+03  0.12276525601E+04  0.12699999809E+01 0.  1.
</event>
<event>
 5   0  0.7806808E-07  0.2700974E+04  0.7818609E-02  0.8334689E-01
        1   -1    0    0  501    0  0.00000000000E+00  0.00000000000E+00  0.21212506095E+04  0.21212506095E+04  0.50400001928E-02 0.  1.
       -1   -1    0    0    0  501  0.00000000000E+00  0.00000000000E+00 -0.85978271570E+03  0.85978271572E+03  0.50400001928E-02 0. -1.
    10030    2    1    2    0    0  0.00000000000E+00  0.00000000000E+00  0.12614678938E+04  0.29810333252E+04  0.27009736095E+04 0.  0.
        5    1    3    3  502    0  0.83661870292E+03  0.79033307300E+03 -0.14909460671E+03  0.11605207935E+04  0.46999998093E+01 0. -1.
       -5    1    3    3    0  502 -0.83661870292E+03 -0.79033307300E+03  0.14105625005E+04  0.18205125317E+04  0.46999998093E+01 0.  1.
</event>
<event>
 5   0  0.1999104E-06  0.2704874E+04  0.7818609E-02  0.8333425E-01
        2   -1    0    0  501    0  0.00000000000E+00  0.00000000000E+00  0.17176795403E+04  0.17176795403E+04  0.25500000920E-02 0.  1.
       -2   -1    0    0    0  501  0.00000000000E+00  0.00000000000E+00 -0.10648587948E+04  0.10648587948E+04  0.25500000920E-02 0. -1.
    10030    2    1    2    0    0  0.00000000000E+00  0.00000000000E+00  0.65282074551E+03  0.27825383351E+04  0.27048742412E+04 0.  0.
        4    1    3    3  502    0 -0.71472988382E+03 -0.86967154015E+03 -0.44472428923E+03  0.12103506520E+04  0.12699999809E+01 0. -1.
       -4    1    3    3    0  502  0.71472988382E+03  0.86967154015E+03  0.10975450347E+04  0.15721876831E+04  0.12699999809E+01 0.  1.
</event>
<event>
 5   0  0.7806808E-07  0.2702897E+04  0.7818609E-02  0.8334066E-01
       -1   -1    0    0    0  501  0.00000000000E+00  0.00000000000E+00  0.85197730530E+03  0.85197730531E+03  0.50400001928E-02 0. -1.
        1   -1    0    0  501    0  0.00000000000E+00  0.00000000000E+00 -0.21437347604E+04  0.21437347604E+04  0.50400001928E-02 0.  1.
    10030    2    1    2    0    0  0.00000000000E+00  0.00000000000E+00 -0.12917574551E+04  0.29957120657E+04  0.27028972341E+04 0.  0.
        5    1    3    3  502    0 -0.12216430501E+04 -0.54083358293E+03 -0.42015229785E+03  0.14005223132E+04  0.46999998093E+01 0.  1.
       -5    1    3    3    0  502  0.12216430501E+04  0.54083358293E+03 -0.87160515725E+03  0.15951897525E+04  0.46999998093E+01 0. -1.
</event>
<event>
 5   0  0.2063087E-06  0.2695746E+04  0.7818609E-02  0.8336387E-01
       -2   -1    0    0    0  501  0.00000000000E+00  0.00000000000E+00  0.12992886536E+04  0.12992886536E+04  0.25500000920E-02 0. -1.
        2   -1    0    0  501    0  0.00000000000E+00  0.00000000000E+00 -0.13982740899E+04  0.13982740899E+04  0.25500000920E-02 0.  1.
    10030    2    1    2    0    0  0.00000000000E+00  0.00000000000E+00 -0.98985436309E+02  0.26975627435E+04  0.26957460263E+04 0.  0.
        3    1    3    3  502    0 -0.56685755724E+03 -0.60957221889E+03 -0.11103278408E+04  0.13877080761E+04  0.10100000352E+00 0.  1.
       -3    1    3    3    0  502  0.56685755724E+03  0.60957221889E+03  0.10113424045E+04  0.13098546674E+04  0.10100000352E+00 0. -1.
</event>
<event>
 5   0  0.2063087E-06  0.2700486E+04  0.7818609E-02  0.8334847E-01
        2   -1    0    0  501    0  0.00000000000E+00  0.00000000000E+00  0.18711603108E+04  0.18711603108E+04  0.25500000920E-02 0. -1.
       -2   -1    0    0    0  501  0.00000000000E+00  0.00000000000E+00 -0.97434498725E+03  0.97434498726E+03  0.25500000920E-02 0.  1.
    10030    2    1    2    0    0  0.00000000000E+00  0.00000000000E+00  0.89681532354E+03  0.28455052981E+04  0.27004856372E+04 0.  0.
        3    1    3    3  502    0  0.70248652162E+03  0.10965182564E+03  0.16579378349E+04  0.18039591765E+04  0.10100000352E+00 0. -1.
       -3    1    3    3    0  502 -0.70248652162E+03 -0.10965182564E+03 -0.76112251132E+03  0.10415461216E+04  0.10100000352E+00 0.  1.
</event>
<event>
 5   0  0.7436613E-07  0.2702750E+04  0.7818609E-02  0.8334113E-01
        1   -1    0    0  501    0  0.00000000000E+00  0.00000000000E+00  0.12228113292E+04  0.12228113292E+04  0.50400001928E-02 0. -1.
       -1   -1    0    0    0  501  0.00000000000E+00  0.00000000000E+00 -0.14934552068E+04  0.14934552068E+04  0.50400001928E-02 0.  1.
    10030    2    1    2    0    0  0.00000000000E+00  0.00000000000E+00 -0.27064387762E+03  0.27162665360E+04  0.27027496714E+04 0.  0.
        2    1    3    3  502    0 -0.88542964266E+03  0.10208915971E+04 -0.13236761510E+03  0.13578389046E+04  0.25500000920E-02 0.  1.
       -2    1    3    3    0  502  0.88542964266E+03 -0.10208915971E+04 -0.13827626253E+03  0.13584276315E+04  0.25500000920E-02 0. -1.
</event>
<event>
 5   0  0.1991277E-06  0.2690053E+04  0.7818609E-02  0.8338240E-01
        2   -1    0    0  501    0  0.00000000000E+00  0.00000000000E+00  0.22853097346E+04  0.22853097346E+04  0.25500000920E-02 0. -1.
       -2   -1    0    0    0  501  0.00000000000E+00  0.00000000000E+00 -0.79161973678E+03  0.79161973678E+03  0.25500000920E-02 0.  1.
    10030    2    1    2    0    0  0.00000000000E+00  0.00000000000E+00  0.14936899978E+04  0.30769294714E+04  0.26900530036E+04 0.  0.
        5    1    3    3  502    0  0.12352020304E+04 -0.13851438244E+03  0.13347314441E+04  0.18238531761E+04  0.46999998093E+01 0. -1.
       -5    1    3    3    0  502 -0.12352020304E+04  0.13851438244E+03  0.15895855370E+03  0.12530762953E+04  0.46999998093E+01 0.  1.
</event>
<event>
 5   0  0.7806808E-07  0.2702243E+04  0.7818609E-02  0.8334278E-01
        1   -1    0    0  501    0  0.00000000000E+00  0.00000000000E+00  0.13399298614E+04  0.13399298614E+04  0.50400001928E-02 0.  1.
       -1   -1    0    0    0  501  0.00000000000E+00  0.00000000000E+00 -0.13624061745E+04  0.13624061745E+04  0.50400001928E-02 0. -1.
    10030    2    1    2    0    0  0.00000000000E+00  0.00000000000E+00 -0.22476313075E+02  0.27023360360E+04  0.27022425625E+04 0.  0.
        5    1    3    3  502    0  0.11954794084E+04  0.62472403492E+03 -0.89057882767E+02  0.13518152730E+04  0.46999998093E+01 0.  1.
       -5    1    3    3    0  502 -0.11954794084E+04 -0.62472403492E+03  0.66581569692E+02  0.13505207630E+04  0.46999998093E+01 0. -1.
</event>
<event>
 5   0  0.7436613E-07  0.2700481E+04  0.7818609E-02  0.8334849E-01
        1   -1    0    0  501    0  0.00000000000E+00  0.00000000000E+00  0.25848042157E+04  0.25848042157E+04  0.50400001928E-02 0. -1.
       -1   -1    0    0    0  501  0.00000000000E+00  0.00000000000E+00 -0.70533357079E+03  0.70533357081E+03  0.50400001928E-02 0.  1.
    10030    2    1    2    0    0  0.00000000000E+00  0.00000000000E+00  0.18794706449E+04  0.32901377865E+04  0.27004808367E+04 0.  0.
        2    1    3    3  502    0  0.11391300291E+04  0.72310782816E+03  0.10024187398E+04  0.16808764036E+04  0.25500000920E-02 0. -1.
       -2    1    3    3    0  502 -0.11391300291E+04 -0.72310782816E+03  0.87705190512E+03  0.16092613829E+04  0.25500000920E-02 0.  1.
</event>
<event>
 5   0  0.1991277E-06  0.2698478E+04  0.7818609E-02  0.8335499E-01
        2   -1    0    0  501    0  0.00000000000E+00  0.00000000000E+00  0.12156475367E+04  0.12156475367E+04  0.25500000920E-02 0.  1.
       -2   -1    0    0    0  501  0.00000000000E+00  0.00000000000E+00 -0.14975115433E+04  0.14975115433E+04  0.25500000920E-02 0. -1.
    10030    2    1    2    0    0  0.00000000000E+00  0.00000000000E+00 -0.28186400661E+03  0.27131590799E+04  0.26984782517E+04 0.  0.
        5    1    3    3  502    0 -0.12313624119E+04  0.29152828344E+03  0.32978379892E+03  0.13076779319E+04  0.46999998093E+01 0.  1.
       -5    1    3    3    0  502  0.12313624119E+04 -0.29152828344E+03 -0.61164780553E+03  0.14054811480E+04  0.46999998093E+01 0. -1.
</event>
<event>
 5   0  0.2030645E-06  0.2704476E+04  0.7818609E-02  0.8333554E-01
        2   -1    0    0  501    0  0.00000000000E+00  0.00000000000E+00  0.17342607625E+04  0.17342607625E+04  0.25500000920E-02 0. -1.
       -2   -1    0    0    0  501  0.00000000000E+00  0.00000000000E+00 -0.10543672611E+04  0.10543672611E+04  0.25500000920E-02 0.  1.
    10030    2    1    2    0    0  0.00000000000E+00  0.00000000000E+00  0.67989350140E+03  0.27886280236E+04  0.27044761194E+04 0.  0.
        1    1    3    3  502    0  0.88797588575E+03  0.88404793234E+03 -0.18430830104E+03  0.12664957442E+04  0.50400001928E-02 0. -1.
       -1    1    3    3    0  502 -0.88797588575E+03 -0.88404793234E+03  0.86420180245E+03  0.15221322793E+04  0.50400001928E-02 0.  1.
</event>
<event>
 5   0  0.7436613E-07  0.2698128E+04  0.7818609E-02  0.8335613E-01
       -1   -1    0    0    0  501  0.00000000000E+00  0.00000000000E+00  0.14093486240E+04  0.14093486240E+04  0.50400001928E-02 0.  1.
        1   -1    0    0  501    0  0.00000000000E+00  0.00000000000E+00 -0.12913578663E+04  0.12913578663E+04  0.50400001928E-02 0. -1.
    10030    2    1    2    0    0  0.00000000000E+00  0.00000000000E+00  0.11799075776E+03  0.27007064903E+04  0.26981278190E+04 0.  0.
        2    1    3    3  502    0 -0.83618540030E+03 -0.10538503165E+03 -0.99541605967E+03  0.13042872231E+04  0.25500000920E-02 0. -1.
       -2    1    3    3    0  502  0.83618540030E+03  0.10538503165E+03  0.11134068174E+04  0.13964192672E+04  0.25500000920E-02 0.  1.
</event>
<event>
 5   0  0.2030645E-06  0.2697887E+04  0.7818609E-02  0.8335691E-01
        2   -1    0    0  501    0  0.00000000000E+00  0.00000000000E+00  0.19970858066E+04  0.19970858066E+04  0.25500000920E-02 0. -1.
       -2   -1    0    0    0  501  0.00000000000E+00  0.00000000000E+00 -0.91115202586E+03  0.91115202586E+03  0.25500000920E-02 0.  1.
    10030    2    1    2    0    0  0.00000000000E+00  0.00000000000E+00  0.10859337807E+04  0.29082378324E+04  0.26978871574E+04 0.  0.
        1    1    3    3  502    0 -0.52787438719E+03  0.11789510628E+04  0.12398250056E+03  0.12976704657E+04  0.50400001928E-02 0.  1.
       -1    1    3    3    0  502  0.52787438719E+03 -0.11789510628E+04  0.96195128016E+03  0.16105673667E+04  0.50400001928E-02 0. -1.
</event>
<event>
 5   0  0.7768032E-07  0.2698002E+04  0.7818609E-02  0.8335653E-01
       -1   -1    0    0    0  501  0.00000000000E+00  0.00000000000E+00  0.16429355894E+04  0.16429355894E+04  0.50400001928E-02 0.  1.
        1   -1    0    0  501    0  0.00000000000E+00  0.00000000000E+00 -0.11076540229E+04  0.11076540229E+04  0.50400001928E-02 0. -1.
    10030    2    1    2    0    0  0.00000000000E+00  0.00000000000E+00  0.53528156644E+03  0.27505896123E+04  0.26980023832E+04 0.  0.
        4    1    3    3  502    0 -0.80493203336E+03 -0.10401177833E+04  0.57355952607E+03  0.14348284651E+04  0.12699999809E+01 0.  1.
       -4    1    3    3    0  502  0.80493203336E+03  0.10401177833E+04 -0.38277959629E+02  0.13157611472E+04  0.12699999809E+01 0. -1.
</event>
<event>
 5   0  0.2063087E-06  0.2691854E+04  0.7818609E-02  0.8337653E-01
        2   -1    0    0  501    0  0.00000000000E+00  0.00000000000E+00  0.25549298163E+04  0.25549298163E+04  0.25500000920E-02 0. -1.
       -2   -1    0    0    0  501  0.00000000000E+00  0.00000000000E+00 -0.70902922813E+03  0.70902922813E+03  0.25500000920E-02 0.  1.
    10030    2    1    2    0    0  0.00000000000E+00  0.00000000000E+00  0.18459005882E+04  0.32639590445E+04  0.26918543167E+04 0.  0.
        3    1    3    3  502    0  0.52995979707E+03 -0.35447328118E+03  0.23602026972E+04  0.24448037704E+04  0.10100000352E+00 0. -1.
       -3    1    3    3    0  502 -0.52995979707E+03  0.35447328118E+03 -0.51430210899E+03  0.81915527410E+03  0.10100000352E+00 0.  1.
</event>
<event>
 5   0  0.7768032E-07  0.2700486E+04  0.7818609E-02  0.8334847E-01
        1   -1    0    0  501    0  0.00000000000E+00  0.00000000000E+00  0.25095875066E+04  0.25095875066E+04  0.50400001928E-02 0.  1.
       -1   -1    0    0    0  501  0.00000000000E+00  0.00000000000E+00 -0.72647655176E+03  0.72647655178E+03  0.50400001928E-02 0. -1.
    10030    2    1    2    0    0  0.00000000000E+00  0.00000000000E+00  0.17831109548E+04  0.32360640584E+04  0.27004862363E+04 0.  0.
        4    1    3    3  502    0 -0.53108908220E+03  0.73651469940E+02  0.23765496806E+04  0.24362820341E+04  0.12699999809E+01 0.  1.
       -4    1    3    3    0  502  0.53108908220E+03 -0.73651469940E+02 -0.59343872577E+03  0.79978202431E+03  0.12699999809E+01 0. -1.
</event>
<event>
 5   0  0.2063087E-06  0.2705163E+04  0.7818609E-02  0.8333332E-01
        2   -1    0    0  501    0  0.00000000000E+00  0.00000000000E+00  0.10027991682E+04  0.10027991682E+04  0.25500000920E-02 0. -1.
       -2   -1    0    0    0  501  0.00000000000E+00  0.00000000000E+00 -0.18243696115E+04  0.18243696115E+04  0.25500000920E-02 0.  1.
    10030    2    1    2    0    0  0.00000000000E+00  0.00000000000E+00 -0.82157044329E+03  0.28271687797E+04  0.27051627152E+04 0.  0.
        3    1    3    3  502    0 -0.92964465313E+03  0.32506330351E+03  0.55815998217E+03  0.11320105601E+04  0.10100000352E+00 0. -1.
       -3    1    3    3    0  502  0.92964465313E+03 -0.32506330351E+03 -0.13797304255E+04  0.16951582196E+04  0.10100000352E+00 0.  1.
</event>
<event>
 5   0  0.1999104E-06  0.2699306E+04  0.7818609E-02  0.8335230E-01
        2   -1    0    0  501    0  0.00000000000E+00  0.00000000000E+00  0.19932259324E+04  0.19932259324E+04  0.25500000920E-02 0. -1.
       -2   -1    0    0    0  501  0.00000000000E+00  0.00000000000E+00 -0.91387670780E+03  0.91387670780E+03  0.25500000920E-02 0.  1.
    10030    2    1    2    0    0  0.00000000000E+00  0.00000000000E+00  0.10793492246E+04  0.29071026402E+04  0.26993056537E+04 0.  0.
        4    1    3    3  502    0  0.48102619975E+02 -0.37461479571E+02  0.19917414151E+04  0.19926747608E+04  0.12699999809E+01 0. -1.
       -4    1    3    3    0  502 -0.48102619975E+02  0.37461479571E+02 -0.91239219052E+03  0.91442787946E+03  0.12699999809E+01 0.  1.
</event>
<event>
 5   0  0.1932012E-06  0.2695926E+04  0.7818609E-02  0.8336328E-01
       -2   -1    0    0    0  501  0.00000000000E+00  0.00000000000E+00  0.11153712696E+04  0.11153712696E+04  0.25500000920E-02 0. -1.
        2   -1    0    0  501    0  0.00000000000E+00  0.00000000000E+00 -0.16290573181E+04  0.16290573181E+04  0.25500000920E-02 0.  1.
    10030    2    1    2    0    0  0.00000000000E+00  0.00000000000E+00 -0.51368604857E+03  0.27444285877E+04  0.26959256141E+04 0.  0.
        2    1    3    3  502    0 -0.52517729197E+03 -0.10183100986E+04  0.46602900569E+03  0.12369113465E+04  0.25500000920E-02 0. -1.
       -2    1    3    3    0  502  0.52517729197E+03  0.10183100986E+04 -0.97971505426E+03  0.15075172412E+04  0.25500000920E-02 0.  1.
</event>
<event>
 5   0  0.1932012E-06  0.2700613E+04  0.7818609E-02  0.8334806E-01
       -2   -1    0    0    0  501  0.00000000000E+00  0.00000000000E+00  0.67320540859E+03  0.67320540860E+03  0.25500000920E-02 0. -1.
        2   -1    0    0  501    0  0.00000000000E+00  0.00000000000E+00 -0.27084271839E+04  0.27084271839E+04  0.25500000920E-02 0.  1.
    10030    2    1    2    0    0  0.00000000000E+00  0.00000000000E+00 -0.20352217753E+04  0.33816325925E+04  0.27006131370E+04 0.  0.
        2    1    3    3  502    0 -0.61394133886E+03 -0.11495394169E+04 -0.57496671678E+03  0.14244127084E+04  0.25500000920E-02 0. -1.
       -2    1    3    3    0  502  0.61394133886E+03  0.11495394169E+04 -0.14602550585E+04  0.19572198840E+04  0.25500000920E-02 0.  1.
</event>
<event>
 5   0  0.7768032E-07  0.2650643E+04  0.7818609E-02  0.8351200E-01
       -1   -1    0    0    0  501  0.00000000000E+00  0.00000000000E+00  0.97732989018E+03  0.97732989019E+03  0.50400001928E-02 0. -1.
        1   -1    0    0  501    0  0.00000000000E+00  0.00000000000E+00 -0.17972204803E+04  0.17972204803E+04  0.50400001928E-02 0.  1.
    10030    2    1    2    0    0  0.00000000000E+00  0.00000000000E+00 -0.81989059013E+03  0.27745503705E+04  0.26506431632E+04 0.  0.
        4    1    3    3  502    0  0.67941595577E+03 -0.77977152006E+03  0.45754518381E+03  0.11309283234E+04  0.12699999809E+01 0. -1.
       -4    1    3    3    0  502 -0.67941595577E+03  0.77977152006E+03 -0.12774357739E+04  0.16436220471E+04  0.12699999809E+01 0.  1.
</event>
<event>
 5   0  0.1932012E-06  0.2674795E+04  0.7818609E-02  0.8343230E-01
        2   -1    0    0  501    0  0.00000000000E+00  0.00000000000E+00  0.24392865167E+04  0.24392865167E+04  0.25500000920E-02 0. -1.
       -2   -1    0    0    0  501  0.00000000000E+00  0.00000000000E+00 -0.73326048043E+03  0.73326048044E+03  0.25500000920E-02 0.  1.
    10030    2    1    2    0    0  0.00000000000E+00  0.00000000000E+00  0.17060260363E+04  0.31725469972E+04  0.26747952469E+04 0.  0.
        2    1    3    3  502    0 -0.33544094195E+03  0.10597819392E+04  0.17350156579E+04  0.20605673290E+04  0.25500000920E-02 0.  1.
       -2    1    3    3    0  502  0.33544094195E+03 -0.10597819392E+04 -0.28989621555E+02  0.11119796682E+04  0.25500000920E-02 0. -1.
</event>
<event>
 5   0  0.6561875E-07  0.2698886E+04  0.7818609E-02  0.8335367E-01
        4   -1    0    0  501    0  0.00000000000E+00  0.00000000000E+00  0.11121582174E+04  0.11121589425E+04  0.12699999809E+01 0. -1.
       -4   -1    0    0    0  501  0.00000000000E+00  0.00000000000E+00 -0.16373522135E+04  0.16373527061E+04  0.12699999809E+01 0.  1.
    10030    2    1    2    0    0  0.00000000000E+00  0.00000000000E+00 -0.52519399612E+03  0.27495116486E+04  0.26988859872E+04 0.  0.
        1    1    3    3  502    0  0.96714554070E+02 -0.13278409817E+04 -0.48691125597E+03  0.14176028883E+04  0.50400001928E-02 0.  1.
       -1    1    3    3    0  502 -0.96714554070E+02  0.13278409817E+04 -0.38282740152E+02  0.13319087603E+04  0.50400001928E-02 0. -1.
</event>
<event>
 5   0  0.1991277E-06  0.2633495E+04  0.7818609E-02  0.8356912E-01
       -2   -1    0    0    0  501  0.00000000000E+00  0.00000000000E+00  0.14479210823E+04  0.14479210824E+04  0.25500000920E-02 0.  1.
        2   -1    0    0  501    0  0.00000000000E+00  0.00000000000E+00 -0.11974572078E+04  0.11974572078E+04  0.25500000920E-02 0. -1.
    10030    2    1    2    0    0  0.00000000000E+00  0.00000000000E+00  0.25046387454E+03  0.26453782902E+04  0.26334946641E+04 0.  0.
        5    1    3    3  502    0  0.90217853572E+03  0.95910114001E+03  0.12581707917E+03  0.13227445462E+04  0.46999998093E+01 0.  1.
       -5    1    3    3    0  502 -0.90217853572E+03 -0.95910114001E+03  0.12464679536E+03  0.13226337440E+04  0.46999998093E+01 0. -1.
</event>
<event>
 5   0  0.2063087E-06  0.2702539E+04  0.7818609E-02  0.8334182E-01
        2   -1    0    0  501    0  0.00000000000E+00  0.00000000000E+00  0.10859201664E+04  0.10859201664E+04  0.25500000920E-02 0.  1.
       -2   -1    0    0    0  501  0.00000000000E+00  0.00000000000E+00 -0.16814582738E+04  0.16814582738E+04  0.25500000920E-02 0. -1.
    10030    2    1    2    0    0  0.00000000000E+00  0.00000000000E+00 -0.59553810745E+03  0.27673784402E+04  0.27025391383E+04 0.  0.
        3    1    3    3  502    0  0.72338380056E+03 -0.10849452190E+04  0.65046767742E+02  0.13056114825E+04  0.10100000352E+00 0.  1.
       -3    1    3    3    0  502 -0.72338380056E+03  0.10849452190E+04 -0.66058487519E+03  0.14617669577E+04  0.10100000352E+00 0. -1.
</event>
<event>
 5   0  0.7806808E-07  0.2692438E+04  0.7818609E-02  0.8337463E-01
        1   -1    0    0  501    0  0.00000000000E+00  0.00000000000E+00  0.15613161263E+04  0.15613161263E+04  0.50400001928E-02 0. -1.
       -1   -1    0    0    0  501  0.00000000000E+00  0.00000000000E+00 -0.11607546882E+04  0.11607546882E+04  0.50400001928E-02 0.  1.
    10030    2    1    2    0    0  0.00000000000E+00  0.00000000000E+00  0.40056143816E+03  0.27220708145E+04  0.26924375673E+04 0.  0.
        5    1    3    3  502    0 -0.25796822174E+03 -0.53905211874E+02  0.15349732643E+04  0.15574396898E+04  0.46999998093E+01 0. -1.
       -5    1    3    3    0  502  0.25796822174E+03  0.53905211874E+02 -0.11344118262E+04  0.11646311247E+04  0.46999998093E+01 0.  1.
</event>
<event>
 5   0  0.7566905E-07  0.2695098E+04  0.7818609E-02  0.8336597E-01
        1   -1    0    0  501    0  0.00000000000E+00  0.00000000000E+00  0.11434569443E+04  0.11434569443E+04  0.50400001928E-02 0.  1.
       -1   -1    0    0    0  501  0.00000000000E+00  0.00000000000E+00 -0.15880683468E+04  0.15880683468E+04  0.50400001928E-02 0. -1.
    10030    2    1    2    0    0  0.00000000000E+00  0.00000000000E+00 -0.44461140248E+03  0.27315252912E+04  0.26950976081E+04 0.  0.
        1    1    3    3  502    0 -0.47958267366E+03  0.12591529435E+04 -0.24312854611E+03  0.13691519879E+04  0.50400001928E-02 0. -1.
       -1    1    3    3    0  502  0.47958267366E+03 -0.12591529435E+04 -0.20148285637E+03  0.13623733033E+04  0.50400001928E-02 0.  1.
</event>
<event>
 5   0  0.2063087E-06  0.2696881E+04  0.7818609E-02  0.8336018E-01
       -2   -1    0    0    0  501  0.00000000000E+00  0.00000000000E+00  0.18372362129E+04  0.18372362129E+04  0.25500000920E-02 0. -1.
        2   -1    0    0  501    0  0.00000000000E+00  0.00000000000E+00 -0.98968843048E+03  0.98968843048E+03  0.25500000920E-02 0.  1.
    10030    2    1    2    0    0  0.00000000000E+00  0.00000000000E+00  0.84754778243E+03  0.28269246434E+04  0.26968807345E+04 0.  0.
        3    1    3    3  502    0 -0.76444154870E+01 -0.24260001477E+03  0.18141493557E+04  0.18303144810E+04  0.10100000352E+00 0. -1.
       -3    1    3    3    0  502  0.76444154870E+01  0.24260001477E+03 -0.96660157326E+03  0.99661016244E+03  0.10100000352E+00 0.  1.
</event>
<event>
 5   0  0.7436613E-07  0.2712795E+04  0.7818609E-02  0.8330865E-01
       -1   -1    0    0    0  501  0.00000000000E+00  0.00000000000E+00  0.15511197577E+04  0.15511197577E+04  0.50400001928E-02 0.  1.
        1   -1    0    0  501    0  0.00000000000E+00  0.00000000000E+00 -0.11861203228E+04  0.11861203228E+04  0.50400001928E-02 0. -1.
    10030    2    1    2    0    0  0.00000000000E+00  0.00000000000E+00  0.36499943489E+03  0.27372400806E+04  0.27127953611E+04 0.  0.
        2    1    3    3  502    0  0.74372121862E+02  0.33565284002E+03 -0.11414289466E+04  0.11920797296E+04  0.25500000920E-02 0. -1.
       -2    1    3    3    0  502 -0.74372121862E+02 -0.33565284002E+03  0.15064283815E+04  0.15451603510E+04  0.25500000920E-02 0.  1.
</event>
<event>
 5   0  0.1999104E-06  0.2695772E+04  0.7818609E-02  0.8336378E-01
        2   -1    0    0  501    0  0.00000000000E+00  0.00000000000E+00  0.14428556304E+04  0.14428556304E+04  0.25500000920E-02 0.  1.
       -2   -1    0    0    0  501  0.00000000000E+00  0.00000000000E+00 -0.12591668757E+04  0.12591668757E+04  0.25500000920E-02 0. -1.
    10030    2    1    2    0    0  0.00000000000E+00  0.00000000000E+00  0.18368875469E+03  0.27020225060E+04  0.26957715157E+04 0.  0.
        4    1    3    3  502    0  0.24956607562E+03 -0.39243349621E+01  0.14194896260E+04  0.14412671639E+04  0.12699999809E+01 0.  1.
       -4    1    3    3    0  502 -0.24956607562E+03  0.39243349621E+01 -0.12358008713E+04  0.12607553422E+04  0.12699999809E+01 0. -1.
</event>
<event>
 5   0  0.7768032E-07  0.2698185E+04  0.7818609E-02  0.8335594E-01
       -1   -1    0    0    0  501  0.00000000000E+00  0.00000000000E+00  0.11089378269E+04  0.11089378269E+04  0.50400001928E-02 0.  1.
        1   -1    0    0  501    0  0.00000000000E+00  0.00000000000E+00 -0.16412553831E+04  0.16412553831E+04  0.50400001928E-02 0. -1.
    10030    2    1    2    0    0  0.00000000000E+00  0.00000000000E+00 -0.53231755616E+03  0.27501932100E+04  0.26981847067E+04 0.  0.
        4    1    3    3  502    0  0.12664125144E+04 -0.21670179777E+03 -0.68553608152E+03  0.14562697751E+04  0.12699999809E+01 0. -1.
       -4    1    3    3    0  502 -0.12664125144E+04  0.21670179777E+03  0.15321852536E+03  0.12939234349E+04  0.12699999809E+01 0.  1.
</event>
<event>
 5   0  0.1999104E-06  0.2702012E+04  0.7818609E-02  0.8334352E-01
        2   -1    0    0  501    0  0.00000000000E+00  0.00000000000E+00  0.17997514456E+04  0.17997514456E+04  0.25500000920E-02 0.  1.
       -2   -1    0    0    0  501  0.00000000000E+00  0.00000000000E+00 -0.10141497009E+04  0.10141497009E+04  0.25500000920E-02 0. -1.
    10030    2    1    2    0    0  0.00000000000E+00  0.00000000000E+00  0.78560174471E+03  0.28139011464E+04  0.27020121318E+04 0.  0.
        4    1    3    3  502    0 -0.10377544359E+04  0.60835879535E+03 -0.24762879647E+03  0.12281515895E+04  0.12699999809E+01 0. -1.
       -4    1    3    3    0  502  0.10377544359E+04 -0.60835879535E+03  0.10332305412E+04  0.15857495569E+04  0.12699999809E+01 0.  1.
</event>
<event>
 5   0  0.2030645E-06  0.2698701E+04  0.7818609E-02  0.8335426E-01
        2   -1    0    0  501    0  0.00000000000E+00  0.00000000000E+00  0.25095492133E+04  0.25095492133E+04  0.25500000920E-02 0. -1.
       -2   -1    0    0    0  501  0.00000000000E+00  0.00000000000E+00 -0.72552754276E+03  0.72552754276E+03  0.25500000920E-02 0.  1.
    10030    2    1    2    0    0  0.00000000000E+00  0.00000000000E+00  0.17840216706E+04  0.32350767561E+04  0.26987012241E+04 0.  0.
        1    1    3    3  502    0 -0.43094012642E+03  0.13120661341E+02 -0.64073731888E+03  0.77228612324E+03  0.50400001928E-02 0.  1.
       -1    1    3    3    0  502  0.43094012642E+03 -0.13120661341E+02  0.24247589895E+04  0.24627906329E+04  0.50400001928E-02 0. -1.
</event>
<event>
 5   0  0.1932012E-06  0.2697153E+04  0.7818609E-02  0.8335929E-01
       -2   -1    0    0    0  501  0.00000000000E+00  0.00000000000E+00  0.16192288281E+04  0.16192288281E+04  0.25500000920E-02 0.  1.
        2   -1    0    0  501    0  0.00000000000E+00  0.00000000000E+00 -0.11231635092E+04  0.11231635092E+04  0.25500000920E-02 0. -1.
    10030    2    1    2    0    0  0.00000000000E+00  0.00000000000E+00  0.49606531885E+03  0.27423923373E+04  0.26971531160E+04 0.  0.
        2    1    3    3  502    0 -0.11731706318E+04  0.38873806028E+03 -0.30065944316E+03  0.12719444609E+04  0.25500000920E-02 0. -1.
       -2    1    3    3    0  502  0.11731706318E+04 -0.38873806028E+03  0.79672476201E+03  0.14704478764E+04  0.25500000920E-02 0.  1.
</event>
<event>
 5   0  0.7335091E-07  0.2705217E+04  0.7818609E-02  0.8333314E-01
       -1   -1    0    0    0  501  0.00000000000E+00  0.00000000000E+00  0.13249278172E+04  0.13249278172E+04  0.50400001928E-02 0.  1.
        1   -1    0    0  501    0  0.00000000000E+00  0.00000000000E+00 -0.13808677358E+04  0.13808677358E+04  0.50400001928E-02 0. -1.
    10030    2    1    2    0    0  0.00000000000E+00  0.00000000000E+00 -0.55939918595E+02  0.27057955531E+04  0.27052172372E+04 0.  0.
        3    1    3    3  502    0  0.26042062629E+03 -0.22120186080E+03  0.12810500159E+04  0.13258349518E+04  0.10100000352E+00 0.  1.
       -3    1    3    3    0  502 -0.26042062629E+03  0.22120186080E+03 -0.13369899345E+04  0.13799606013E+04  0.10100000352E+00 0. -1.
</event>
<event>
 5   0  0.7566905E-07  0.2707458E+04  0.7818609E-02  0.8332589E-01
        1   -1    0    0  501    0  0.00000000000E+00  0.00000000000E+00  0.18699406976E+04  0.18699406976E+04  0.50400001928E-02 0.  1.
       -1   -1    0    0    0  501  0.00000000000E+00  0.00000000000E+00 -0.98002159535E+03  0.98002159536E+03  0.50400001928E-02 0. -1.
    10030    2    1    2    0    0  0.00000000000E+00  0.00000000000E+00  0.88991910227E+03  0.28499622930E+04  0.27074580445E+04 0.  0.
        1    1    3    3  502    0 -0.12806043834E+04 -0.42918017833E+03  0.54165905520E+03  0.14551761901E+04  0.50400001928E-02 0.  1.
       -1    1    3    3    0  502  0.12806043834E+04  0.42918017833E+03  0.34826004707E+03  0.13947861028E+04  0.50400001928E-02 0. -1.
</event>
<event>
 5   0  0.7436613E-07  0.2702037E+04  0.7818609E-02  0.8334344E-01
       -1   -1    0    0    0  501  0.00000000000E+00  0.00000000000E+00  0.13423637954E+04  0.13423637954E+04  0.50400001928E-02 0. -1.
        1   -1    0    0  501    0  0.00000000000E+00  0.00000000000E+00 -0.13597288373E+04  0.13597288373E+04  0.50400001928E-02 0.  1.
    10030    2    1    2    0    0  0.00000000000E+00  0.00000000000E+00 -0.17365041856E+02  0.27020926327E+04  0.27020368338E+04 0.  0.
        2    1    3    3  502    0 -0.22456050410E+03  0.16902299322E+03  0.13128040261E+04  0.13425537618E+04  0.25500000920E-02 0. -1.
       -2    1    3    3    0  502  0.22456050410E+03 -0.16902299322E+03 -0.13301690680E+04  0.13595388710E+04  0.25500000920E-02 0.  1.
</event>
<event>
 5   0  0.1932012E-06  0.2697422E+04  0.7818609E-02  0.8335842E-01
       -2   -1    0    0    0  501  0.00000000000E+00  0.00000000000E+00  0.11230721256E+04  0.11230721256E+04  0.25500000920E-02 0.  1.
        2   -1    0    0  501    0  0.00000000000E+00  0.00000000000E+00 -0.16196832929E+04  0.16196832929E+04  0.25500000920E-02 0. -1.
    10030    2    1    2    0    0  0.00000000000E+00  0.00000000000E+00 -0.49661116738E+03  0.27427554185E+04  0.26974218495E+04 0.  0.
        2    1    3    3  502    0  0.41742804538E+03  0.12695278585E+04 -0.63386563314E+02  0.13378957407E+04  0.25500000920E-02 0. -1.
       -2    1    3    3    0  502 -0.41742804538E+03 -0.12695278585E+04 -0.43322460407E+03  0.14048596778E+04  0.25500000920E-02 0.  1.
</event>
<event>
 5   0  0.1991277E-06  0.2697878E+04  0.7818609E-02  0.8335694E-01
       -2   -1    0    0    0  501  0.00000000000E+00  0.00000000000E+00  0.18846153570E+04  0.18846153570E+04  0.25500000920E-02 0.  1.
        2   -1    0    0  501    0  0.00000000000E+00  0.00000000000E+00 -0.96552106749E+03  0.96552106749E+03  0.25500000920E-02 0. -1.
    10030    2    1    2    0    0  0.00000000000E+00  0.00000000000E+00  0.91909428956E+03  0.28501364245E+04  0.26978775594E+04 0.  0.
        5    1    3    3  502    0 -0.34260230195E+03  0.54583649727E+03 -0.79236354735E+03  0.10213598290E+04  0.46999998093E+01 0. -1.
       -5    1    3    3    0  502  0.34260230195E+03 -0.54583649727E+03  0.17114578369E+04  0.18287765956E+04  0.46999998093E+01 0.  1.
</event>
<event>
 5   0  0.7566905E-07  0.2698930E+04  0.7818609E-02  0.8335352E-01
        1   -1    0    0  501    0  0.00000000000E+00  0.00000000000E+00  0.80869442432E+03  0.80869442433E+03  0.50400001928E-02 0.  1.
       -1   -1    0    0    0  501  0.00000000000E+00  0.00000000000E+00 -0.22518461155E+04  0.22518461155E+04  0.50400001928E-02 0. -1.
    10030    2    1    2    0    0  0.00000000000E+00  0.00000000000E+00 -0.14431516912E+04  0.30605405399E+04  0.26989297124E+04 0.  0.
        1    1    3    3  502    0  0.11766650889E+04  0.65688606912E+03 -0.64126807595E+03  0.14924023534E+04  0.50400001928E-02 0.  1.
       -1    1    3    3    0  502 -0.11766650889E+04 -0.65688606912E+03 -0.80188361526E+03  0.15681381864E+04  0.50400001928E-02 0. -1.
</event>
<event>
 5   0  0.2030645E-06  0.2704615E+04  0.7818609E-02  0.8333509E-01
       -2   -1    0    0    0  501  0.00000000000E+00  0.00000000000E+00  0.10480664152E+04  0.10480664152E+04  0.25500000920E-02 0.  1.
        2   -1    0    0  501    0  0.00000000000E+00  0.00000000000E+00 -0.17448661799E+04  0.17448661799E+04  0.25500000920E-02 0. -1.
    10030    2    1    2    0    0  0.00000000000E+00  0.00000000000E+00 -0.69679976465E+03  0.27929325951E+04  0.27046150500E+04 0.  0.
        1    1    3    3  502    0 -0.25497883210E+03  0.11769880672E+03 -0.17144218764E+04  0.17372707286E+04  0.50400001928E-02 0. -1.
       -1    1    3    3    0  502  0.25497883210E+03 -0.11769880672E+03  0.10176221118E+04  0.10556618665E+04  0.50400001928E-02 0.  1.
</event>
<event>
 5   0  0.7566905E-07  0.2696509E+04  0.7818609E-02  0.8336138E-01
       -1   -1    0    0    0  501  0.00000000000E+00  0.00000000000E+00  0.16848384410E+04  0.16848384410E+04  0.50400001928E-02 0. -1.
        1   -1    0    0  501    0  0.00000000000E+00  0.00000000000E+00 -0.10789110168E+04  0.10789110169E+04  0.50400001928E-02 0.  1.
    10030    2    1    2    0    0  0.00000000000E+00  0.00000000000E+00  0.60592742415E+03  0.27637494579E+04  0.26965094145E+04 0.  0.
        1    1    3    3  502    0 -0.13097464116E+04 -0.47753448838E+02  0.62719795543E+03  0.14529601956E+04  0.50400001928E-02 0. -1.
       -1    1    3    3    0  502  0.13097464116E+04  0.47753448838E+02 -0.21270531283E+02  0.13107892623E+04  0.50400001928E-02 0.  1.
</event>
<event>
 5   0  0.1991277E-06  0.2699148E+04  0.7818609E-02  0.8335281E-01
       -2   -1    0    0    0  501  0.00000000000E+00  0.00000000000E+00  0.11236290172E+04  0.11236290172E+04  0.25500000920E-02 0. -1.
        2   -1    0    0  501    0  0.00000000000E+00  0.00000000000E+00 -0.16209536373E+04  0.16209536373E+04  0.25500000920E-02 0.  1.
    10030    2    1    2    0    0  0.00000000000E+00  0.00000000000E+00 -0.49732462012E+03  0.27445826545E+04  0.26991484156E+04 0.  0.
        5    1    3    3  502    0 -0.95702240860E+03 -0.87780016506E+03 -0.62213689065E+03  0.14399657708E+04  0.46999998093E+01 0. -1.
       -5    1    3    3    0  502  0.95702240860E+03  0.87780016506E+03  0.12481227054E+03  0.13046168837E+04  0.46999998093E+01 0.  1.
</event>
<event>
 5   0  0.2030645E-06  0.2714568E+04  0.7818609E-02  0.8330294E-01
        2   -1    0    0  501    0  0.00000000000E+00  0.00000000000E+00  0.14917898511E+04  0.14917898511E+04  0.25500000920E-02 0. -1.
       -2   -1    0    0    0  501  0.00000000000E+00  0.00000000000E+00 -0.12349054704E+04  0.12349054704E+04  0.25500000920E-02 0.  1.
    10030    2    1    2    0    0  0.00000000000E+00  0.00000000000E+00  0.25688438071E+03  0.27266953216E+04  0.27145676989E+04 0.  0.
        1    1    3    3  502    0 -0.94932056965E+03  0.83585158406E+03 -0.36606001147E+03  0.13167601705E+04  0.50400001928E-02 0. -1.
       -1    1    3    3    0  502  0.94932056965E+03 -0.83585158406E+03  0.62294439218E+03  0.14099351511E+04  0.50400001928E-02 0.  1.
</event>
<event>
 5   0  0.1991277E-06  0.2699362E+04  0.7818609E-02  0.8335212E-01
       -2   -1    0    0    0  501  0.00000000000E+00  0.00000000000E+00  0.14013669215E+04  0.14013669215E+04  0.25500000920E-02 0.  1.
        2   -1    0    0  501    0  0.00000000000E+00  0.00000000000E+00 -0.12999013763E+04  0.12999013763E+04  0.25500000920E-02 0. -1.
    10030    2    1    2    0    0  0.00000000000E+00  0.00000000000E+00  0.10146554515E+03  0.27012682978E+04  0.26993619913E+04 0.  0.
        5    1    3    3  502    0  0.64566961445E+03  0.55369954553E+03 -0.99793106432E+03  0.13112440417E+04  0.46999998093E+01 0. -1.
       -5    1    3    3    0  502 -0.64566961445E+03 -0.55369954553E+03  0.10993966095E+04  0.13900242561E+04  0.46999998093E+01 0.  1.
</event>
<event>
 5   0  0.1991277E-06  0.2692996E+04  0.7818609E-02  0.8337281E-01
        2   -1    0    0  501    0  0.00000000000E+00  0.00000000000E+00  0.10264751395E+04  0.10264751395E+04  0.25500000920E-02 0. -1.
       -2   -1    0    0    0  501  0.00000000000E+00  0.00000000000E+00 -0.17662943586E+04  0.17662943586E+04  0.25500000920E-02 0.  1.
    10030    2    1    2    0    0  0.00000000000E+00  0.00000000000E+00 -0.73981921907E+03  0.27927694981E+04  0.26929962853E+04 0.  0.
        5    1    3    3  502    0 -0.62031478151E+03 -0.76351299506E+03  0.58355127531E+03  0.11438079833E+04  0.46999998093E+01 0. -1.
       -5    1    3    3    0  502  0.62031478151E+03  0.76351299506E+03 -0.13233704944E+04  0.16489615148E+04  0.46999998093E+01 0.  1.
</event>
<event>
 5   0  0.7436613E-07  0.2695153E+04  0.7818609E-02  0.8336579E-01
       -1   -1    0    0    0  501  0.00000000000E+00  0.00000000000E+00  0.19838569152E+04  0.19838569152E+04  0.50400001928E-02 0.  1.
        1   -1    0    0  501    0  0.00000000000E+00  0.00000000000E+00 -0.91536952258E+03  0.91536952259E+03  0.50400001928E-02 0. -1.
    10030    2    1    2    0    0  0.00000000000E+00  0.00000000000E+00  0.10684873926E+04  0.28992264378E+04  0.26951528026E+04 0.  0.
        2    1    3    3  502    0 -0.98924786644E+02  0.10508284772E+04  0.14354980264E+04  0.17817635045E+04  0.25500000920E-02 0.  1.
       -2    1    3    3    0  502  0.98924786644E+02 -0.10508284772E+04 -0.36701063384E+03  0.11174629333E+04  0.25500000920E-02 0. -1.
</event>
<event>
 5   0  0.2063087E-06  0.2690828E+04  0.7818609E-02  0.8337987E-01
       -2   -1    0    0    0  501  0.00000000000E+00  0.00000000000E+00  0.13345389155E+04  0.13345389155E+04  0.25500000920E-02 0.  1.
        2   -1    0    0  501    0  0.00000000000E+00  0.00000000000E+00 -0.13563774460E+04  0.13563774460E+04  0.25500000920E-02 0. -1.
    10030    2    1    2    0    0  0.00000000000E+00  0.00000000000E+00 -0.21838530554E+02  0.26909163615E+04  0.26908277431E+04 0.  0.
        3    1    3    3  502    0  0.13062629251E+04 -0.24520995500E+03 -0.21994223475E+03  0.13471545376E+04  0.10100000352E+00 0. -1.
       -3    1    3    3    0  502 -0.13062629251E+04  0.24520995500E+03  0.19810370420E+03  0.13437618239E+04  0.10100000352E+00 0.  1.
</event>
<event>
 5   0  0.7436613E-07  0.2699029E+04  0.7818609E-02  0.8335320E-01
        1   -1    0    0  501    0  0.00000000000E+00  0.00000000000E+00  0.12262656303E+04  0.12262656304E+04  0.50400001928E-02 0. -1.
       -1   -1    0    0    0  501  0.00000000000E+00  0.00000000000E+00 -0.14851512484E+04  0.14851512484E+04  0.50400001928E-02 0.  1.
    10030    2    1    2    0    0  0.00000000000E+00  0.00000000000E+00 -0.25888561804E+03  0.27114168788E+04  0.26990294046E+04 0.  0.
        2    1    3    3  502    0  0.50015887781E+03 -0.12076061105E+03  0.11238598862E+04  0.12360433132E+04  0.25500000920E-02 0. -1.
       -2    1    3    3    0  502 -0.50015887781E+03  0.12076061105E+03 -0.13827455043E+04  0.14753735655E+04  0.25500000920E-02 0.  1.
</event>
<event>
 5   0  0.1999104E-06  0.2701048E+04  0.7818609E-02  0.8334665E-01
       -2   -1    0    0    0  501  0.00000000000E+00  0.00000000000E+00  0.98747402727E+03  0.98747402727E+03  0.25500000920E-02 0. -1.
        2   -1    0    0  501    0  0.00000000000E+00  0.00000000000E+00 -0.18470517849E+04  0.18470517849E+04  0.25500000920E-02 0.  1.
    10030    2    1    2    0    0  0.00000000000E+00  0.00000000000E+00 -0.85957775762E+03  0.28345258122E+04  0.27010484369E+04 0.  0.
        4    1    3    3  502    0  0.32304929317E+03  0.30097268161E+03 -0.17691707215E+04  0.18234341380E+04  0.12699999809E+01 0.  1.
       -4    1    3    3    0  502 -0.32304929317E+03 -0.30097268161E+03  0.90959296384E+03  0.10110916742E+04  0.12699999809E+01 0. -1.
</event>
<event>
 5   0  0.7335091E-07  0.2730129E+04  0.7818609E-02  0.8325295E-01
        1   -1    0    0  501    0  0.00000000000E+00  0.00000000000E+00  0.13691491096E+04  0.13691491096E+04  0.50400001928E-02 0.  1.
       -1   -1    0    0    0  501  0.00000000000E+00  0.00000000000E+00 -0.13609922625E+04  0.13609922625E+04  0.50400001928E-02 0. -1.
    10030    2    1    2    0    0  0.00000000000E+00  0.00000000000E+00  0.81568471158E+01  0.27301413721E+04  0.27301291870E+04 0.  0.
        3    1    3    3  502    0  0.69458005044E+03  0.68444822351E+03  0.95932638214E+03  0.13679246817E+04  0.10100000352E+00 0.  1.
       -3    1    3    3    0  502 -0.69458005044E+03 -0.68444822351E+03 -0.95116953503E+03  0.13622166904E+04  0.10100000352E+00 0. -1.
</event>
<event>
 5   0  0.2063087E-06  0.2700093E+04  0.7818609E-02  0.8334975E-01
       -2   -1    0    0    0  501  0.00000000000E+00  0.00000000000E+00  0.21872659052E+04  0.21872659052E+04  0.25500000920E-02 0.  1.
        2   -1    0    0  501    0  0.00000000000E+00  0.00000000000E+00 -0.83328968363E+03  0.83328968364E+03  0.25500000920E-02 0. -1.
    10030    2    1    2    0    0  0.00000000000E+00  0.00000000000E+00  0.13539762215E+04  0.30205555888E+04  0.27000934163E+04 0.  0.
        3    1    3    3  502    0  0.67835760713E+03  0.36768794258E+03  0.19162891082E+04  0.20657994634E+04  0.10100000352E+00 0.  1.
       -3    1    3    3    0  502 -0.67835760713E+03 -0.36768794258E+03 -0.56231288672E+03  0.95475612543E+03  0.10100000352E+00 0. -1.
</event>
<event>
 5   0  0.7768032E-07  0.2700275E+04  0.7818609E-02  0.8334916E-01
       -1   -1    0    0    0  501  0.00000000000E+00  0.00000000000E+00  0.14933563764E+04  0.14933563764E+04  0.50400001928E-02 0. -1.
        1   -1    0    0  501    0  0.00000000000E+00  0.00000000000E+00 -0.12206538457E+04  0.12206538457E+04  0.50400001928E-02 0.  1.
    10030    2    1    2    0    0  0.00000000000E+00  0.00000000000E+00  0.27270253070E+03  0.27140102221E+04  0.27002749518E+04 0.  0.
        4    1    3    3  502    0  0.41711558627E+03 -0.10032431376E+04  0.94191887047E+03  0.14379481830E+04  0.12699999809E+01 0. -1.
       -4    1    3    3    0  502 -0.41711558627E+03  0.10032431376E+04 -0.66921633977E+03  0.12760620391E+04  0.12699999809E+01 0.  1.
</event>
<event>
 5   0  0.2030645E-06  0.2698796E+04  0.7818609E-02  0.8335396E-01
       -2   -1    0    0    0  501  0.00000000000E+00  0.00000000000E+00  0.96036629821E+03  0.96036629822E+03  0.25500000920E-02 0. -1.
        2   -1    0    0  501    0  0.00000000000E+00  0.00000000000E+00 -0.18960206899E+04  0.18960206899E+04  0.25500000920E-02 0.  1.
    10030    2    1    2    0    0  0.00000000000E+00  0.00000000000E+00 -0.93565439173E+03  0.28563869882E+04  0.26987955620E+04 0.  0.
        1    1    3    3  502    0 -0.65873538721E+03  0.70858217499E+03 -0.14634222064E+04  0.17543162666E+04  0.50400001928E-02 0.  1.
       -1    1    3    3    0  502  0.65873538721E+03 -0.70858217499E+03  0.52776781467E+03  0.11020707216E+04  0.50400001928E-02 0. -1.
</event>
<event>
 5   0  0.7806808E-07  0.2698286E+04  0.7818609E-02  0.8335561E-01
       -1   -1    0    0    0  501  0.00000000000E+00  0.00000000000E+00  0.14704912483E+04  0.14704912484E+04  0.50400001928E-02 0.  1.
        1   -1    0    0  501    0  0.00000000000E+00  0.00000000000E+00 -0.12378089344E+04  0.12378089344E+04  0.50400001928E-02 0. -1.
    10030    2    1    2    0    0  0.00000000000E+00  0.00000000000E+00  0.23268231394E+03  0.27083001828E+04  0.26982862748E+04 0.  0.
        5    1    3    3  502    0  0.30772618494E+02  0.19803676793E+03  0.14554587850E+04  0.14691997415E+04  0.46999998093E+01 0.  1.
       -5    1    3    3    0  502 -0.30772618494E+02 -0.19803676793E+03 -0.12227764710E+04  0.12391004413E+04  0.46999998093E+01 0. -1.
</event>
<event>
 5   0  0.7768032E-07  0.2698318E+04  0.7818609E-02  0.8335551E-01
       -1   -1    0    0    0  501  0.00000000000E+00  0.00000000000E+00  0.94183389382E+03  0.94183389384E+03  0.50400001928E-02 0. -1.
        1   -1    0    0  501    0  0.00000000000E+00  0.00000000000E+00 -0.19326447785E+04  0.19326447785E+04  0.50400001928E-02 0.  1.
    10030    2    1    2    0    0  0.00000000000E+00  0.00000000000E+00 -0.99081088466E+03  0.28744786723E+04  0.26983182593E+04 0.  0.
        4    1    3    3  502    0 -0.26894262973E+03  0.12787229984E+04 -0.85313530657E+03  0.15605460932E+04  0.12699999809E+01 0.  1.
       -4    1    3    3    0  502  0.26894262973E+03 -0.12787229984E+04 -0.13767557809E+03  0.13139325791E+04  0.12699999809E+01 0. -1.
</event>
<event>
 5   0  0.2063087E-06  0.2696314E+04  0.7818609E-02  0.8336202E-01
        2   -1    0    0  501    0  0.00000000000E+00  0.00000000000E+00  0.13118127574E+04  0.13118127574E+04  0.25500000920E-02 0. -1.
       -2   -1    0    0    0  501  0.00000000000E+00  0.00000000000E+00 -0.13855085986E+04  0.13855085986E+04  0.25500000920E-02 0.  1.
    10030    2    1    2    0    0  0.00000000000E+00  0.00000000000E+00 -0.73695841165E+02  0.26973213560E+04  0.26963144143E+04 0.  0.
        3    1    3    3  502    0  0.50651400153E+03 -0.87716998129E+03  0.85317205209E+03  0.13243436754E+04  0.10100000352E+00 0. -1.
       -3    1    3    3    0  502 -0.50651400153E+03  0.87716998129E+03 -0.92686789325E+03  0.13729776807E+04  0.10100000352E+00 0.  1.
</event>
<event>
 5   0  0.7806808E-07  0.2701658E+04  0.7818609E-02  0.8334467E-01
       -1   -1    0    0    0  501  0.00000000000E+00  0.00000000000E+00  0.13430447908E+04  0.13430447908E+04  0.50400001928E-02 0. -1.
        1   -1    0    0  501    0  0.00000000000E+00  0.00000000000E+00 -0.13586583212E+04  0.13586583213E+04  0.50400001928E-02 0.  1.
    10030    2    1    2    0    0  0.00000000000E+00  0.00000000000E+00 -0.15613530489E+02  0.27017031120E+04  0.27016579952E+04 0.  0.
        5    1    3    3  502    0  0.23561838121E+03 -0.27549471074E+03 -0.13090984656E+04  0.13583719077E+04  0.46999998093E+01 0.  1.
       -5    1    3    3    0  502 -0.23561838121E+03  0.27549471074E+03  0.12934849351E+04  0.13433312043E+04  0.46999998093E+01 0. -1.
</event>
<event>
 5   0  0.7335091E-07  0.2698266E+04  0.7818609E-02  0.8335568E-01
        1   -1    0    0  501    0  0.00000000000E+00  0.00000000000E+00  0.18955139516E+04  0.18955139516E+04  0.50400001928E-02 0.  1.
       -1   -1    0    0    0  501  0.00000000000E+00  0.00000000000E+00 -0.96024628855E+03  0.96024628856E+03  0.50400001928E-02 0. -1.
    10030    2    1    2    0    0  0.00000000000E+00  0.00000000000E+00  0.93526766304E+03  0.28557602402E+04  0.26982662856E+04 0.  0.
        3    1    3    3  502    0  0.11034299378E+04  0.74481283866E+03  0.23610392056E+03  0.13520535728E+04  0.10100000352E+00 0. -1.
       -3    1    3    3    0  502 -0.11034299378E+04 -0.74481283866E+03  0.69916374249E+03  0.15037066673E+04  0.10100000352E+00 0.  1.
</event>
<event>
 5   0  0.7436613E-07  0.2687532E+04  0.7818609E-02  0.8339062E-01
       -1   -1    0    0    0  501  0.00000000000E+00  0.00000000000E+00  0.11343093123E+04  0.11343093123E+04  0.50400001928E-02 0. -1.
        1   -1    0    0  501    0  0.00000000000E+00  0.00000000000E+00 -0.15918995152E+04  0.15918995152E+04  0.50400001928E-02 0.  1.
    10030    2    1    2    0    0  0.00000000000E+00  0.00000000000E+00 -0.45759020289E+03  0.27262088275E+04  0.26875315397E+04 0.  0.
        2    1    3    3  502    0  0.12952754840E+04  0.21828508302E+02  0.13340282764E+03  0.13023100160E+04  0.25500000920E-02 0. -1.
       -2    1    3    3    0  502 -0.12952754840E+04 -0.21828508302E+02 -0.59099303052E+03  0.14238988115E+04  0.25500000920E-02 0.  1.
</event>
<event>
 5   0  0.1932012E-06  0.2696710E+04  0.7818609E-02  0.8336073E-01
       -2   -1    0    0    0  501  0.00000000000E+00  0.00000000000E+00  0.12670975698E+04  0.12670975698E+04  0.25500000920E-02 0.  1.
        2   -1    0    0  501    0  0.00000000000E+00  0.00000000000E+00 -0.14348238511E+04  0.14348238511E+04  0.25500000920E-02 0. -1.
    10030    2    1    2    0    0  0.00000000000E+00  0.00000000000E+00 -0.16772628132E+03  0.27019214209E+04  0.26967104515E+04 0.  0.
        2    1    3    3  502    0  0.57493546048E+03  0.40102921300E+02 -0.13051947429E+04  0.14267769079E+04  0.25500000920E-02 0. -1.
       -2    1    3    3    0  502 -0.57493546048E+03 -0.40102921300E+02  0.11374684616E+04  0.12751445130E+04  0.25500000920E-02 0.  1.
</event>
<event>
 5   0  0.7768032E-07  0.2707203E+04  0.7818609E-02  0.8332672E-01
       -1   -1    0    0    0  501  0.00000000000E+00  0.00000000000E+00  0.12795590954E+04  0.12795590954E+04  0.50400001928E-02 0.  1.
        1   -1    0    0  501    0  0.00000000000E+00  0.00000000000E+00 -0.14319283367E+04  0.14319283368E+04  0.50400001928E-02 0. -1.
    10030    2    1    2    0    0  0.00000000000E+00  0.00000000000E+00 -0.15236924132E+03  0.27114874322E+04  0.27072029309E+04 0.  0.
        4    1    3    3  502    0  0.11390819386E+04 -0.37383504308E+03  0.55328039041E+03  0.13203715786E+04  0.12699999809E+01 0.  1.
       -4    1    3    3    0  502 -0.11390819386E+04  0.37383504308E+03 -0.70564963173E+03  0.13911158536E+04  0.12699999809E+01 0. -1.
</event>
<event>
 5   0  0.7436613E-07  0.2702774E+04  0.7818609E-02  0.8334106E-01
        1   -1    0    0  501    0  0.00000000000E+00  0.00000000000E+00  0.14861653894E+04  0.14861653894E+04  0.50400001928E-02 0.  1.
       -1   -1    0    0    0  501  0.00000000000E+00  0.00000000000E+00 -0.12288313640E+04  0.12288313640E+04  0.50400001928E-02 0. -1.
    10030    2    1    2    0    0  0.00000000000E+00  0.00000000000E+00  0.25733402540E+03  0.27149967534E+04  0.27027738660E+04 0.  0.
        2    1    3    3  502    0 -0.48699559684E+03 -0.72327946047E+03  0.11657840451E+04  0.14557988629E+04  0.25500000920E-02 0.  1.
       -2    1    3    3    0  502  0.48699559684E+03  0.72327946047E+03 -0.90845001972E+03  0.12591978906E+04  0.25500000920E-02 0. -1.
</event>
<event>
 5   0  0.7335091E-07  0.2696098E+04  0.7818609E-02  0.8336272E-01
        1   -1    0    0  501    0  0.00000000000E+00  0.00000000000E+00  0.15905530030E+04  0.15905530030E+04  0.50400001928E-02 0. -1.
       -1   -1    0    0    0  501  0.00000000000E+00  0.00000000000E+00 -0.11425180106E+04  0.11425180106E+04  0.50400001928E-02 0.  1.
    10030    2    1    2    0    0  0.00000000000E+00  0.00000000000E+00  0.44803499247E+03  0.27330710136E+04  0.26960975151E+04 0.  0.
        3    1    3    3  502    0 -0.47533063273E+03 -0.98280799414E+03  0.10256751414E+04  0.14979520252E+04  0.10100000352E+00 0. -1.
       -3    1    3    3    0  502  0.47533063273E+03  0.98280799414E+03 -0.57764014896E+03  0.12351189885E+04  0.10100000352E+00 0.  1.
</event>
<event>
 5   0  0.2030645E-06  0.2705153E+04  0.7818609E-02  0.8333335E-01
        2   -1    0    0  501    0  0.00000000000E+00  0.00000000000E+00  0.14539430797E+04  0.14539430797E+04  0.25500000920E-02 0.  1.
       -2   -1    0    0    0  501  0.00000000000E+00  0.00000000000E+00 -0.12582771736E+04  0.12582771737E+04  0.25500000920E-02 0. -1.
    10030    2    1    2    0    0  0.00000000000E+00  0.00000000000E+00  0.19566590608E+03  0.27122202534E+04  0.27051531484E+04 0.  0.
        1    1    3    3  502    0  0.45625184292E+03  0.66285098483E+02 -0.11770643606E+04  0.12641360557E+04  0.50400001928E-02 0. -1.
       -1    1    3    3    0  502 -0.45625184292E+03 -0.66285098483E+02  0.13727302667E+04  0.14480841976E+04  0.50400001928E-02 0.  1.
</event>
<event>
 5   0  0.1999104E-06  0.2697016E+04  0.7818609E-02  0.8335974E-01
       -2   -1    0    0    0  501  0.00000000000E+00  0.00000000000E+00  0.13532537582E+04  0.13532537582E+04  0.25500000920E-02 0.  1.
        2   -1    0    0  501    0  0.00000000000E+00  0.00000000000E+00 -0.13437791243E+04  0.13437791243E+04  0.25500000920E-02 0. -1.
    10030    2    1    2    0    0  0.00000000000E+00  0.00000000000E+00  0.94746339593E+01  0.26970328825E+04  0.26970162403E+04 0.  0.
        4    1    3    3  502    0 -0.58317911673E+03  0.11975605654E+04 -0.20555745929E+03  0.13477776790E+04  0.12699999809E+01 0.  1.
       -4    1    3    3    0  502  0.58317911673E+03 -0.11975605654E+04  0.21503209325E+03  0.13492552035E+04  0.12699999809E+01 0. -1.
</event>
<event>
 5   0  0.7566905E-07  0.2698873E+04  0.7818609E-02  0.8335371E-01
       -1   -1    0    0    0  501  0.00000000000E+00  0.00000000000E+00  0.88737417648E+03  0.88737417650E+03  0.50400001928E-02 0.  1.
        1   -1    0    0  501    0  0.00000000000E+00  0.00000000000E+00 -0.20520984733E+04  0.20520984733E+04  0.50400001928E-02 0. -1.
    10030    2    1    2    0    0  0.00000000000E+00  0.00000000000E+00 -0.11647242968E+04  0.29394726498E+04  0.26988732411E+04 0.  0.
        1    1    3    3  502    0  0.91407895788E+03 -0.68152378271E+03  0.20376151655E+03  0.11582459857E+04  0.50400001928E-02 0.  1.
       -1    1    3    3    0  502 -0.91407895788E+03  0.68152378271E+03 -0.13684858134E+04  0.17812266641E+04  0.50400001928E-02 0. -1.
</event>
<event>
 5   0  0.2030645E-06  0.2694035E+04  0.7818609E-02  0.8336943E-01
        2   -1    0    0  501    0  0.00000000000E+00  0.00000000000E+00  0.13209863414E+04  0.13209863414E+04  0.25500000920E-02 0.  1.
       -2   -1    0    0    0  501  0.00000000000E+00  0.00000000000E+00 -0.13735617383E+04  0.13735617383E+04  0.25500000920E-02 0. -1.
    10030    2    1    2    0    0  0.00000000000E+00  0.00000000000E+00 -0.52575396842E+02  0.26945480797E+04  0.26940351114E+04 0.  0.
        1    1    3    3  502    0  0.53750940785E+03 -0.77855014279E+03  0.93274815285E+03  0.13285615549E+04  0.50400001928E-02 0.  1.
       -1    1    3    3    0  502 -0.53750940785E+03  0.77855014279E+03 -0.98532354969E+03  0.13659865248E+04  0.50400001928E-02 0. -1.
</event>
<event>
 5   0  0.1999104E-06  0.2712197E+04  0.7818609E-02  0.8331058E-01
       -2   -1    0    0    0  501  0.00000000000E+00  0.00000000000E+00  0.10382986868E+04  0.10382986868E+04  0.25500000920E-02 0. -1.
        2   -1    0    0  501    0  0.00000000000E+00  0.00000000000E+00 -0.17711701057E+04  0.17711701057E+04  0.25500000920E-02 0.  1.
    10030    2    1    2    0    0  0.00000000000E+00  0.00000000000E+00 -0.73287141884E+03  0.28094687925E+04  0.27121973342E+04 0.  0.
        4    1    3    3  502    0  0.12030570814E+04 -0.26039265798E+03  0.22305335498E+03  0.12509616659E+04  0.12699999809E+01 0. -1.
       -4    1    3    3    0  502 -0.12030570814E+04  0.26039265798E+03 -0.95592477382E+03  0.15585071266E+04  0.12699999809E+01 0.  1.
</event>
<event>
 5   0  0.1991277E-06  0.2698275E+04  0.7818609E-02  0.8335565E-01
       -2   -1    0    0    0  501  0.00000000000E+00  0.00000000000E+00  0.60084762434E+03  0.60084762435E+03  0.25500000920E-02 0. -1.
        2   -1    0    0  501    0  0.00000000000E+00  0.00000000000E+00 -0.30293412721E+04  0.30293412721E+04  0.25500000920E-02 0.  1.
    10030    2    1    2    0    0  0.00000000000E+00  0.00000000000E+00 -0.24284936477E+04  0.36301888964E+04  0.26982753801E+04 0.  0.
        5    1    3    3  502    0 -0.11196435729E+04 -0.47553882935E+03 -0.42929126363E+03  0.12899813904E+04  0.46999998093E+01 0. -1.
       -5    1    3    3    0  502  0.11196435729E+04  0.47553882935E+03 -0.19992023841E+04  0.23402075060E+04  0.46999998093E+01 0.  1.
</event>
<event>
 5   0  0.2030645E-06  0.2697939E+04  0.7818609E-02  0.8335674E-01
       -2   -1    0    0    0  501  0.00000000000E+00  0.00000000000E+00  0.10583170499E+04  0.10583170499E+04  0.25500000920E-02 0.  1.
        2   -1    0    0  501    0  0.00000000000E+00  0.00000000000E+00 -0.17194450991E+04  0.17194450991E+04  0.25500000920E-02 0. -1.
    10030    2    1    2    0    0  0.00000000000E+00  0.00000000000E+00 -0.66112804916E+03  0.27777621490E+04  0.26979385203E+04 0.  0.
        1    1    3    3  502    0  0.11943596045E+04  0.38851415792E+03 -0.83734668101E+03  0.15094991156E+04  0.50400001928E-02 0. -1.
       -1    1    3    3    0  502 -0.11943596045E+04 -0.38851415792E+03  0.17621863185E+03  0.12682630334E+04  0.50400001928E-02 0.  1.
</event>
<event>
 5   0  0.1991277E-06  0.2698307E+04  0.7818609E-02  0.8335554E-01
       -2   -1    0    0    0  501  0.00000000000E+00  0.00000000000E+00  0.10162064740E+04  0.10162064740E+04  0.25500000920E-02 0.  1.
        2   -1    0    0  501    0  0.00000000000E+00  0.00000000000E+00 -0.17911865110E+04  0.17911865110E+04  0.25500000920E-02 0. -1.
    10030    2    1    2    0    0  0.00000000000E+00  0.00000000000E+00 -0.77498003701E+03  0.28073929850E+04  0.26983071201E+04 0.  0.
        5    1    3    3  502    0 -0.12970710531E+04 -0.36915431842E+03 -0.34685987986E+03  0.13924805543E+04  0.46999998093E+01 0.  1.
       -5    1    3    3    0  502  0.12970710531E+04  0.36915431842E+03 -0.42812015714E+03  0.14149124307E+04  0.46999998093E+01 0. -1.
</event>
<event>
 5   0  0.2030645E-06  0.2702126E+04  0.7818609E-02  0.8334315E-01
       -2   -1    0    0    0  501  0.00000000000E+00  0.00000000000E+00  0.11940238369E+04  0.11940238369E+04  0.25500000920E-02 0.  1.
        2   -1    0    0  501    0  0.00000000000E+00  0.00000000000E+00 -0.15287561046E+04  0.15287561046E+04  0.25500000920E-02 0. -1.
    10030    2    1    2    0    0  0.00000000000E+00  0.00000000000E+00 -0.33473226766E+03  0.27227799415E+04  0.27021259998E+04 0.  0.
        1    1    3    3  502    0  0.88004088623E+03 -0.93475888929E+02  0.86130005292E+03  0.12349281293E+04  0.50400001928E-02 0.  1.
       -1    1    3    3    0  502 -0.88004088623E+03  0.93475888929E+02 -0.11960323206E+04  0.14878518122E+04  0.50400001928E-02 0. -1.
</event>
<event>
 5   0  0.7768032E-07  0.2696215E+04  0.7818609E-02  0.8336234E-01
       -1   -1    0    0    0  501  0.00000000000E+00  0.00000000000E+00  0.12284898237E+04  0.12284898238E+04  0.50400001928E-02 0.  1.
        1   -1    0    0  501    0  0.00000000000E+00  0.00000000000E+00 -0.14793717951E+04  0.14793717951E+04  0.50400001928E-02 0. -1.
    10030    2    1    2    0    0  0.00000000000E+00  0.00000000000E+00 -0.25088197132E+03  0.27078616188E+04  0.26962145284E+04 0.  0.
        4    1    3    3  502    0 -0.74240074463E+02 -0.11991326689E+04 -0.73960601423E+03  0.14108328800E+04  0.12699999809E+01 0. -1.
       -4    1    3    3    0  502  0.74240074463E+02  0.11991326689E+04  0.48872404291E+03  0.12970287388E+04  0.12699999809E+01 0.  1.
</event>
<event>
 5   0  0.7335091E-07  0.2709304E+04  0.7818609E-02  0.8331993E-01
       -1   -1    0    0    0  501  0.00000000000E+00  0.00000000000E+00  0.12712118397E+04  0.12712118397E+04  0.50400001928E-02 0. -1.
        1   -1    0    0  501    0  0.00000000000E+00  0.00000000000E+00 -0.14435687051E+04  0.14435687051E+04  0.50400001928E-02 0.  1.
    10030    2    1    2    0    0  0.00000000000E+00  0.00000000000E+00 -0.17235686540E+03  0.27147805449E+04  0.27093036961E+04 0.  0.
        3    1    3    3  502    0  0.13393537268E+04  0.19643592017E+03 -0.13752793437E+03  0.13606503662E+04  0.10100000352E+00 0.  1.
       -3    1    3    3    0  502 -0.13393537268E+04 -0.19643592017E+03 -0.34828931035E+02  0.13541301787E+04  0.10100000352E+00 0. -1.
</event>
<event>
 5   0  0.2030645E-06  0.2704192E+04  0.7818609E-02  0.8333646E-01
        2   -1    0    0  501    0  0.00000000000E+00  0.00000000000E+00  0.91837399012E+03  0.91837399013E+03  0.25500000920E-02 0.  1.
       -2   -1    0    0    0  501  0.00000000000E+00  0.00000000000E+00 -0.19906526360E+04  0.19906526360E+04  0.25500000920E-02 0. -1.
    10030    2    1    2    0    0  0.00000000000E+00  0.00000000000E+00 -0.10722786459E+04  0.29090266261E+04  0.27041920082E+04 0.  0.
        1    1    3    3  502    0 -0.11069782788E+04  0.60489885342E+03 -0.12591811566E+02  0.12615316430E+04  0.50400001928E-02 0. -1.
       -1    1    3    3    0  502  0.11069782788E+04 -0.60489885342E+03 -0.10596868343E+04  0.16474949831E+04  0.50400001928E-02 0.  1.
</event>
<event>
 5   0  0.7436613E-07  0.2717064E+04  0.7818609E-02  0.8329489E-01
       -1   -1    0    0    0  501  0.00000000000E+00  0.00000000000E+00  0.10159783713E+04  0.10159783713E+04  0.50400001928E-02 0.  1.
        1   -1    0    0  501    0  0.00000000000E+00  0.00000000000E+00 -0.18165830371E+04  0.18165830371E+04  0.50400001928E-02 0. -1.
    10030    2    1    2    0    0  0.00000000000E+00  0.00000000000E+00 -0.80060466575E+03  0.28325614084E+04  0.27170639120E+04 0.  0.
        2    1    3    3  502    0 -0.20342128046E+03 -0.12910348977E+04 -0.13789340960E+02  0.13070353746E+04  0.25500000920E-02 0. -1.
       -2    1    3    3    0  502  0.20342128046E+03  0.12910348977E+04 -0.78681532479E+03  0.15255260338E+04  0.25500000920E-02 0.  1.
</event>
<event>
 5   0  0.1932012E-06  0.2704653E+04  0.7818609E-02  0.8333497E-01
       -2   -1    0    0    0  501  0.00000000000E+00  0.00000000000E+00  0.14936569969E+04  0.14936569969E+04  0.25500000920E-02 0.  1.
        2   -1    0    0  501    0  0.00000000000E+00  0.00000000000E+00 -0.12243689175E+04  0.12243689175E+04  0.25500000920E-02 0. -1.
    10030    2    1    2    0    0  0.00000000000E+00  0.00000000000E+00  0.26928807939E+03  0.27180259145E+04  0.27046531759E+04 0.  0.
        2    1    3    3  502    0  0.98468641912E+03 -0.36626614208E+03  0.99034041162E+03  0.14437909689E+04  0.25500000920E-02 0.  1.
       -2    1    3    3    0  502 -0.98468641912E+03  0.36626614208E+03 -0.72105233224E+03  0.12742349456E+04  0.25500000920E-02 0. -1.
</event>
<event>
 5   0  0.7768032E-07  0.2702462E+04  0.7818609E-02  0.8334207E-01
       -1   -1    0    0    0  501  0.00000000000E+00  0.00000000000E+00  0.14980328345E+04  0.14980328345E+04  0.50400001928E-02 0.  1.
        1   -1    0    0  501    0  0.00000000000E+00  0.00000000000E+00 -0.12188150497E+04  0.12188150497E+04  0.50400001928E-02 0. -1.
    10030    2    1    2    0    0  0.00000000000E+00  0.00000000000E+00  0.27921778478E+03  0.27168478842E+04  0.27024618138E+04 0.  0.
        4    1    3    3  502    0  0.18383010909E+03 -0.13131815678E+04 -0.12174425892E+03  0.13315639739E+04  0.12699999809E+01 0. -1.
       -4    1    3    3    0  502 -0.18383010909E+03  0.13131815678E+04  0.40096204370E+03  0.13852839104E+04  0.12699999809E+01 0.  1.
</event>
<event>
 5   0  0.1991277E-06  0.2688756E+04  0.7818609E-02  0.8338662E-01
        2   -1    0    0  501    0  0.00000000000E+00  0.00000000000E+00  0.17699540362E+04  0.17699540362E+04  0.25500000920E-02 0.  1.
       -2   -1    0    0    0  501  0.00000000000E+00  0.00000000000E+00 -0.10211294200E+04  0.10211294200E+04  0.25500000920E-02 0. -1.
    10030    2    1    2    0    0  0.00000000000E+00  0.00000000000E+00  0.74882461625E+03  0.27910834562E+04  0.26887559490E+04 0.  0.
        5    1    3    3  502    0 -0.11441155381E+04 -0.65360483641E+03  0.97559413417E+02  0.13212643853E+04  0.46999998093E+01 0.  1.
       -5    1    3    3    0  502  0.11441155381E+04  0.65360483641E+03  0.65126520283E+03  0.14698190709E+04  0.46999998093E+01 0. -1.
</event>
<event>
 5   0  0.7566905E-07  0.2699545E+04  0.7818609E-02  0.8335153E-01
       -1   -1    0    0    0  501  0.00000000000E+00  0.00000000000E+00  0.67988523081E+03  0.67988523083E+03  0.50400001928E-02 0. -1.
        1   -1    0    0  501    0  0.00000000000E+00  0.00000000000E+00 -0.26796962422E+04  0.26796962422E+04  0.50400001928E-02 0.  1.
    10030    2    1    2    0    0  0.00000000000E+00  0.00000000000E+00 -0.19998110114E+04  0.33595814730E+04  0.26995450714E+04 0.  0.
        1    1    3    3  502    0  0.35498460397E+03  0.87148486497E+03 -0.22041704414E+04  0.23966366586E+04  0.50400001928E-02 0.  1.
       -1    1    3    3    0  502 -0.35498460397E+03 -0.87148486497E+03  0.20435942998E+03  0.96294481439E+03  0.50400001928E-02 0. -1.
</event>
<event>
 5   0  0.2030645E-06  0.2700596E+04  0.7818609E-02  0.8334812E-01
       -2   -1    0    0    0  501  0.00000000000E+00  0.00000000000E+00  0.13829443014E+04  0.13829443014E+04  0.25500000920E-02 0. -1.
        2   -1    0    0  501    0  0.00000000000E+00  0.00000000000E+00 -0.13184219401E+04  0.13184219401E+04  0.25500000920E-02 0.  1.
    10030    2    1    2    0    0  0.00000000000E+00  0.00000000000E+00  0.64522361275E+02  0.27013662415E+04  0.27005955706E+04 0.  0.
        1    1    3    3  502    0  0.75030893704E+03  0.11019689680E+04 -0.18228779343E+03  0.13455586004E+04  0.50400001928E-02 0.  1.
       -1    1    3    3    0  502 -0.75030893704E+03 -0.11019689680E+04  0.24681015471E+03  0.13558076412E+04  0.50400001928E-02 0. -1.
</event>
<event>
 5   0  0.7436613E-07  0.2697743E+04  0.7818609E-02  0.8335738E-01
       -1   -1    0    0    0  501  0.00000000000E+00  0.00000000000E+00  0.82272493493E+03  0.82272493495E+03  0.50400001928E-02 0. -1.
        1   -1    0    0  501    0  0.00000000000E+00  0.00000000000E+00 -0.22114970449E+04  0.22114970449E+04  0.50400001928E-02 0.  1.
    10030    2    1    2    0    0  0.00000000000E+00  0.00000000000E+00 -0.13887721100E+04  0.30342219798E+04  0.26977425840E+04 0.  0.
        2    1    3    3  502    0 -0.84543186177E+03  0.10481598347E+04 -0.60683284729E+03  0.14770376354E+04  0.25500000920E-02 0. -1.
       -2    1    3    3    0  502  0.84543186177E+03 -0.10481598347E+04 -0.78193926267E+03  0.15571843444E+04  0.25500000920E-02 0.  1.
</event>
<event>
 5   0  0.7436613E-07  0.2709253E+04  0.7818609E-02  0.8332009E-01
        1   -1    0    0  501    0  0.00000000000E+00  0.00000000000E+00  0.17178216822E+04  0.17178216823E+04  0.50400001928E-02 0. -1.
       -1   -1    0    0    0  501  0.00000000000E+00  0.00000000000E+00 -0.10682206768E+04  0.10682206768E+04  0.50400001928E-02 0.  1.
    10030    2    1    2    0    0  0.00000000000E+00  0.00000000000E+00  0.64960100549E+03  0.27860423590E+04  0.27092527678E+04 0.  0.
        2    1    3    3  502    0  0.87768499764E+03  0.78493092939E+03 -0.36393257294E+03  0.12324343539E+04  0.25500000920E-02 0.  1.
       -2    1    3    3    0  502 -0.87768499764E+03 -0.78493092939E+03  0.10135335784E+04  0.15536080051E+04  0.25500000920E-02 0. -1.
</event>
<event>
 5   0  0.7806808E-07  0.2697381E+04  0.7818609E-02  0.8335855E-01
        1   -1    0    0  501    0  0.00000000000E+00  0.00000000000E+00  0.16563986285E+04  0.16563986285E+04  0.50400001928E-02 0. -1.
       -1   -1    0    0    0  501  0.00000000000E+00  0.00000000000E+00 -0.10981450897E+04  0.10981450897E+04  0.50400001928E-02 0.  1.
    10030    2    1    2    0    0  0.00000000000E+00  0.00000000000E+00  0.55825353885E+03  0.27545437182E+04  0.26973809672E+04 0.  0.
        5    1    3    3  502    0 -0.11634063538E+04 -0.15804562296E+03  0.95685607231E+03  0.15146248367E+04  0.46999998093E+01 0. -1.
       -5    1    3    3    0  502  0.11634063538E+04  0.15804562296E+03 -0.39860253346E+03  0.12399188815E+04  0.46999998093E+01 0.  1.
</event>
<event>
 5   0  0.7806808E-07  0.2690088E+04  0.7818609E-02  0.8338228E-01
        1   -1    0    0  501    0  0.00000000000E+00  0.00000000000E+00  0.21772232187E+04  0.21772232187E+04  0.50400001928E-02 0.  1.
       -1   -1    0    0    0  501  0.00000000000E+00  0.00000000000E+00 -0.83094051643E+03  0.83094051645E+03  0.50400001928E-02 0. -1.
    10030    2    1    2    0    0  0.00000000000E+00  0.00000000000E+00  0.13462827023E+04  0.30081637352E+04  0.26900877203E+04 0.  0.
        5    1    3    3  502    0 -0.88048272361E+03  0.99115894921E+03  0.92684880962E+03  0.16176268714E+04  0.46999998093E+01 0. -1.
       -5    1    3    3    0  502  0.88048272361E+03 -0.99115894921E+03  0.41943389265E+03  0.13905368638E+04  0.46999998093E+01 0.  1.
</event>
<event>
 5   0  0.7768032E-07  0.2700017E+04  0.7818609E-02  0.8334999E-01
       -1   -1    0    0    0  501  0.00000000000E+00  0.00000000000E+00  0.92392699920E+03  0.92392699921E+03  0.50400001928E-02 0. -1.
        1   -1    0    0  501    0  0.00000000000E+00  0.00000000000E+00 -0.19725836659E+04  0.19725836659E+04  0.50400001928E-02 0.  1.
    10030    2    1    2    0    0  0.00000000000E+00  0.00000000000E+00 -0.10486566667E+04  0.28965106651E+04  0.27000172645E+04 0.  0.
        4    1    3    3  502    0 -0.84664822468E+02  0.13429970948E+04 -0.64042798003E+03  0.14902882068E+04  0.12699999809E+01 0. -1.
       -4    1    3    3    0  502  0.84664822468E+02 -0.13429970948E+04 -0.40822868664E+03  0.14062224583E+04  0.12699999809E+01 0.  1.
</event>
<event>
 5   0  0.1999104E-06  0.2702902E+04  0.7818609E-02  0.8334064E-01
       -2   -1    0    0    0  501  0.00000000000E+00  0.00000000000E+00  0.14454222259E+04  0.14454222259E+04  0.25500000920E-02 0. -1.
        2   -1    0    0  501    0  0.00000000000E+00  0.00000000000E+00 -0.12635888615E+04  0.12635888615E+04  0.25500000920E-02 0.  1.
    10030    2    1    2    0    0  0.00000000000E+00  0.00000000000E+00  0.18183336439E+03  0.27090110874E+04  0.27029017184E+04 0.  0.
        4    1    3    3  502    0  0.83828532093E+03 -0.95030535628E+03  0.56167532837E+03  0.13861036530E+04  0.12699999809E+01 0. -1.
       -4    1    3    3    0  502 -0.83828532093E+03  0.95030535628E+03 -0.37984196398E+03  0.13229074344E+04  0.12699999809E+01 0.  1.
</event>
<event>
 5   0  0.2030645E-06  0.2702006E+04  0.7818609E-02  0.8334354E-01
        2   -1    0    0  501    0  0.00000000000E+00  0.00000000000E+00  0.24989209323E+04  0.24989209323E+04  0.25500000920E-02 0.  1.
       -2   -1    0    0    0  501  0.00000000000E+00  0.00000000000E+00 -0.73039887692E+03  0.73039887692E+03  0.25500000920E-02 0. -1.
    10030    2    1    2    0    0  0.00000000000E+00  0.00000000000E+00  0.17685220554E+04  0.32293198092E+04  0.27020059530E+04 0.  0.
        1    1    3    3  502    0  0.33220736637E+03 -0.51084653231E+03  0.23253457153E+04  0.24038632676E+04  0.50400001928E-02 0.  1.
       -1    1    3    3    0  502 -0.33220736637E+03  0.51084653231E+03 -0.55682365989E+03  0.82545654160E+03  0.50400001928E-02 0. -1.
</event>
<event>
 5   0  0.1991277E-06  0.2677624E+04  0.7818609E-02  0.8342302E-01
        2   -1    0    0  501    0  0.00000000000E+00  0.00000000000E+00  0.18908216991E+04  0.18908216991E+04  0.25500000920E-02 0.  1.
       -2   -1    0    0    0  501  0.00000000000E+00  0.00000000000E+00 -0.94795708983E+03  0.94795708983E+03  0.25500000920E-02 0. -1.
    10030    2    1    2    0    0  0.00000000000E+00  0.00000000000E+00  0.94286460925E+03  0.28387787889E+04  0.26776241971E+04 0.  0.
        5    1    3    3  502    0 -0.41036710525E+03 -0.12568815601E+04  0.24843181243E+03  0.13453225905E+04  0.46999998093E+01 0. -1.
       -5    1    3    3    0  502  0.41036710525E+03  0.12568815601E+04  0.69443279682E+03  0.14934561984E+04  0.46999998093E+01 0.  1.
</event>
<event>
 5   0  0.1932012E-06  0.2699414E+04  0.7818609E-02  0.8335195E-01
       -2   -1    0    0    0  501  0.00000000000E+00  0.00000000000E+00  0.73169865008E+03  0.73169865008E+03  0.25500000920E-02 0. -1.
        2   -1    0    0  501    0  0.00000000000E+00  0.00000000000E+00 -0.24896981955E+04  0.24896981955E+04  0.25500000920E-02 0.  1.
    10030    2    1    2    0    0  0.00000000000E+00  0.00000000000E+00 -0.17579995454E+04  0.32213968456E+04  0.26994138688E+04 0.  0.
        2    1    3    3  502    0 -0.12901424516E+03  0.10642687832E+04  0.99559967343E+02  0.10766730727E+04  0.25500000920E-02 0. -1.
       -2    1    3    3    0  502  0.12901424516E+03 -0.10642687832E+04 -0.18575595128E+04  0.21447237729E+04  0.25500000920E-02 0.  1.
</event>
<event>
 5   0  0.7436613E-07  0.2689068E+04  0.7818609E-02  0.8338561E-01
        1   -1    0    0  501    0  0.00000000000E+00  0.00000000000E+00  0.18198775081E+04  0.18198775081E+04  0.50400001928E-02 0. -1.
       -1   -1    0    0    0  501  0.00000000000E+00  0.00000000000E+00 -0.99334790404E+03  0.99334790405E+03  0.50400001928E-02 0.  1.
    10030    2    1    2    0    0  0.00000000000E+00  0.00000000000E+00  0.82652960408E+03  0.28132254122E+04  0.26890678744E+04 0.  0.
        2    1    3    3  502    0 -0.11275419296E+04  0.40699722672E+03  0.10502911299E+04  0.15937719420E+04  0.25500000920E-02 0. -1.
       -2    1    3    3    0  502  0.11275419296E+04 -0.40699722672E+03 -0.22376152587E+03  0.12194534702E+04  0.25500000920E-02 0.  1.
</event>
<event>
 5   0  0.7566905E-07  0.2704602E+04  0.7818609E-02  0.8333513E-01
        1   -1    0    0  501    0  0.00000000000E+00  0.00000000000E+00  0.18406533246E+04  0.18406533246E+04  0.50400001928E-02 0. -1.
       -1   -1    0    0    0  501  0.00000000000E+00  0.00000000000E+00 -0.99351607073E+03  0.99351607075E+03  0.50400001928E-02 0.  1.
    10030    2    1    2    0    0  0.00000000000E+00  0.00000000000E+00  0.84713725389E+03  0.28341693954E+04  0.27046024911E+04 0.  0.
        1    1    3    3  502    0 -0.46057711964E+03 -0.28071453610E+03 -0.87591380951E+03  0.10286675535E+04  0.50400001928E-02 0.  1.
       -1    1    3    3    0  502  0.46057711964E+03  0.28071453610E+03  0.17230510634E+04  0.18055018419E+04  0.50400001928E-02 0. -1.
</event>
<event>
 5   0  0.1991277E-06  0.2691592E+04  0.7818609E-02  0.8337738E-01
        2   -1    0    0  501    0  0.00000000000E+00  0.00000000000E+00  0.93065508974E+03  0.93065508974E+03  0.25500000920E-02 0.  1.
       -2   -1    0    0    0  501  0.00000000000E+00  0.00000000000E+00 -0.19461206188E+04  0.19461206188E+04  0.25500000920E-02 0. -1.
    10030    2    1    2    0    0  0.00000000000E+00  0.00000000000E+00 -0.10154655290E+04  0.28767757085E+04  0.26915921378E+04 0.  0.
        5    1    3    3  502    0 -0.13522863459E+03 -0.11364582628E+04 -0.12644865724E+04  0.17055124005E+04  0.46999998093E+01 0. -1.
       -5    1    3    3    0  502  0.13522863459E+03  0.11364582628E+04  0.24902104332E+03  0.11712633080E+04  0.46999998093E+01 0.  1.
</event>
<event>
 5   0  0.2030645E-06  0.2701037E+04  0.7818609E-02  0.8334668E-01
       -2   -1    0    0    0  501  0.00000000000E+00  0.00000000000E+00  0.87694519646E+03  0.87694519646E+03  0.25500000920E-02 0. -1.
        2   -1    0    0  501    0  0.00000000000E+00  0.00000000000E+00 -0.20798344482E+04  0.20798344482E+04  0.25500000920E-02 0.  1.
    10030    2    1    2    0    0  0.00000000000E+00  0.00000000000E+00 -0.12028892517E+04  0.29567796446E+04  0.27010374516E+04 0.  0.
        1    1    3    3  502    0 -0.11874958625E+04 -0.35821345129E+03 -0.16595439684E+02  0.12404590718E+04  0.50400001928E-02 0. -1.
       -1    1    3    3    0  502  0.11874958625E+04  0.35821345129E+03 -0.11862938120E+04  0.17163205728E+04  0.50400001928E-02 0.  1.
</event>
<event>
 5   0  0.7806808E-07  0.2707068E+04  0.7818609E-02  0.8332715E-01
       -1   -1    0    0    0  501  0.00000000000E+00  0.00000000000E+00  0.90868871870E+03  0.90868871872E+03  0.50400001928E-02 0.  1.
        1   -1    0    0  501    0  0.00000000000E+00  0.00000000000E+00 -0.20161517387E+04  0.20161517387E+04  0.50400001928E-02 0. -1.
    10030    2    1    2    0    0  0.00000000000E+00  0.00000000000E+00 -0.11074630200E+04  0.29248404575E+04  0.27070680377E+04 0.  0.
        5    1    3    3  502    0 -0.60647307225E+03  0.11781109294E+04 -0.25533023901E+03  0.13494334257E+04  0.46999998093E+01 0.  1.
       -5    1    3    3    0  502  0.60647307225E+03 -0.11781109294E+04 -0.85213278101E+03  0.15754070318E+04  0.46999998093E+01 0. -1.
</event>
<event>
 5   0  0.7335091E-07  0.2683184E+04  0.7818609E-02  0.8340482E-01
        1   -1    0    0  501    0  0.00000000000E+00  0.00000000000E+00  0.14435163751E+04  0.14435163751E+04  0.50400001928E-02 0. -1.
       -1   -1    0    0    0  501  0.00000000000E+00  0.00000000000E+00 -0.12468642131E+04  0.12468642131E+04  0.50400001928E-02 0.  1.
    10030    2    1    2    0    0  0.00000000000E+00  0.00000000000E+00  0.19665216200E+03  0.26903805881E+04  0.26831838618E+04 0.  0.
        3    1    3    3  502    0  0.57268351749E+03  0.47599850229E+03 -0.10206096669E+04  0.12634021876E+04  0.10100000352E+00 0.  1.
       -3    1    3    3    0  502 -0.57268351749E+03 -0.47599850229E+03  0.12172618288E+04  0.14269784005E+04  0.10100000352E+00 0. -1.
</event>
<event>
 5   0  0.1991277E-06  0.2696249E+04  0.7818609E-02  0.8336223E-01
       -2   -1    0    0    0  501  0.00000000000E+00  0.00000000000E+00  0.74688939287E+03  0.74688939287E+03  0.25500000920E-02 0.  1.
        2   -1    0    0  501    0  0.00000000000E+00  0.00000000000E+00 -0.24333460019E+04  0.24333460019E+04  0.25500000920E-02 0. -1.
    10030    2    1    2    0    0  0.00000000000E+00  0.00000000000E+00 -0.16864566091E+04  0.31802353948E+04  0.26962494826E+04 0.  0.
        5    1    3    3  502    0  0.61601252542E+03  0.76386590728E+03 -0.19335231543E+04  0.21682934382E+04  0.46999998093E+01 0. -1.
       -5    1    3    3    0  502 -0.61601252542E+03 -0.76386590728E+03  0.24706654527E+03  0.10119419566E+04  0.46999998093E+01 0.  1.
</event>
<event>
 5   0  0.7335091E-07  0.2698306E+04  0.7818609E-02  0.8335555E-01
        1   -1    0    0  501    0  0.00000000000E+00  0.00000000000E+00  0.19574824532E+04  0.19574824532E+04  0.50400001928E-02 0.  1.
       -1   -1    0    0    0  501  0.00000000000E+00  0.00000000000E+00 -0.92987500612E+03  0.92987500614E+03  0.50400001928E-02 0. -1.
    10030    2    1    2    0    0  0.00000000000E+00  0.00000000000E+00  0.10276074471E+04  0.28873574594E+04  0.26983061414E+04 0.  0.
        3    1    3    3  502    0 -0.83229296343E+03 -0.80947994555E+03 -0.22154416514E+03  0.11819691986E+04  0.10100000352E+00 0. -1.
       -3    1    3    3    0  502  0.83229296343E+03  0.80947994555E+03  0.12491516122E+04  0.17053882607E+04  0.10100000352E+00 0.  1.
</event>
<event>
 5   0  0.1991277E-06  0.2702876E+04  0.7818609E-02  0.8334072E-01
       -2   -1    0    0    0  501  0.00000000000E+00  0.00000000000E+00  0.15184103117E+04  0.15184103117E+04  0.25500000920E-02 0.  1.
        2   -1    0    0  501    0  0.00000000000E+00  0.00000000000E+00 -0.12028272707E+04  0.12028272707E+04  0.25500000920E-02 0. -1.
    10030    2    1    2    0    0  0.00000000000E+00  0.00000000000E+00  0.31558304098E+03  0.27212375824E+04  0.27028764907E+04 0.  0.
        5    1    3    3  502    0 -0.98752168832E+03 -0.54408977633E+03  0.90792369366E+03  0.14476119277E+04  0.46999998093E+01 0.  1.
       -5    1    3    3    0  502  0.98752168832E+03  0.54408977633E+03 -0.59234065269E+03  0.12736256548E+04  0.46999998093E+01 0. -1.
</event>
<event>
 5   0  0.7436613E-07  0.2694399E+04  0.7818609E-02  0.8336825E-01
       -1   -1    0    0    0  501  0.00000000000E+00  0.00000000000E+00  0.16401821980E+04  0.16401821981E+04  0.50400001928E-02 0.  1.
        1   -1    0    0  501    0  0.00000000000E+00  0.00000000000E+00 -0.11065515454E+04  0.11065515454E+04  0.50400001928E-02 0. -1.
    10030    2    1    2    0    0  0.00000000000E+00  0.00000000000E+00  0.53363065261E+03  0.27467337435E+04  0.26943987426E+04 0.  0.
        2    1    3    3  502    0 -0.11780710740E+04  0.41710524661E+03  0.77969575685E+03  0.14730083894E+04  0.25500000920E-02 0.  1.
       -2    1    3    3    0  502  0.11780710740E+04 -0.41710524661E+03 -0.24606510424E+03  0.12737253541E+04  0.25500000920E-02 0. -1.
</event>
<event>
 5   0  0.2030645E-06  0.2699105E+04  0.7818609E-02  0.8335296E-01
        2   -1    0    0  501    0  0.00000000000E+00  0.00000000000E+00  0.24774843635E+04  0.24774843635E+04  0.25500000920E-02 0.  1.
       -2   -1    0    0    0  501  0.00000000000E+00  0.00000000000E+00 -0.73513738028E+03  0.73513738028E+03  0.25500000920E-02 0. -1.
    10030    2    1    2    0    0  0.00000000000E+00  0.00000000000E+00  0.17423469832E+04  0.32126217438E+04  0.26991045661E+04 0.  0.
        1    1    3    3  502    0 -0.11881579429E+03 -0.12901960975E+04  0.42175470742E+03  0.13625711710E+04  0.50400001928E-02 0. -1.
       -1    1    3    3    0  502  0.11881579429E+03  0.12901960975E+04  0.13205922758E+04  0.18500505728E+04  0.50400001928E-02 0.  1.
</event>
<event>
 5   0  0.7436613E-07  0.2700102E+04  0.7818609E-02  0.8334972E-01
        1   -1    0    0  501    0  0.00000000000E+00  0.00000000000E+00  0.11345895833E+04  0.11345895833E+04  0.50400001928E-02 0. -1.
       -1   -1    0    0    0  501  0.00000000000E+00  0.00000000000E+00 -0.16064288261E+04  0.16064288261E+04  0.50400001928E-02 0.  1.
    10030    2    1    2    0    0  0.00000000000E+00  0.00000000000E+00 -0.47183924281E+03  0.27410184095E+04  0.27001017851E+04 0.  0.
        2    1    3    3  502    0 -0.80637071284E+00 -0.13083225306E+04 -0.57402665499E+03  0.14287109907E+04  0.25500000920E-02 0.  1.
       -2    1    3    3    0  502  0.80637071284E+00  0.13083225306E+04  0.10218741217E+03  0.13123074188E+04  0.25500000920E-02 0. -1.
</event>
<event>
 5   0  0.1999104E-06  0.2698448E+04  0.7818609E-02  0.8335509E-01
       -2   -1    0    0    0  501  0.00000000000E+00  0.00000000000E+00  0.14464447349E+04  0.14464447349E+04  0.25500000920E-02 0.  1.
        2   -1    0    0  501    0  0.00000000000E+00  0.00000000000E+00 -0.12585381947E+04  0.12585381947E+04  0.25500000920E-02 0. -1.
    10030    2    1    2    0    0  0.00000000000E+00  0.00000000000E+00  0.18790654020E+03  0.27049829296E+04  0.26984484026E+04 0.  0.
        4    1    3    3  502    0  0.71580157881E+03  0.95670950965E+02 -0.10484905215E+04  0.12731295369E+04  0.12699999809E+01 0. -1.
       -4    1    3    3    0  502 -0.71580157881E+03 -0.95670950965E+02  0.12363970617E+04  0.14318533927E+04  0.12699999809E+01 0.  1.
</event>
<event>
 5   0  0.7768032E-07  0.2692340E+04  0.7818609E-02  0.8337495E-01
        1   -1    0    0  501    0  0.00000000000E+00  0.00000000000E+00  0.11603116373E+04  0.11603116373E+04  0.50400001928E-02 0.  1.
       -1   -1    0    0    0  501  0.00000000000E+00  0.00000000000E+00 -0.15617995978E+04  0.15617995978E+04  0.50400001928E-02 0. -1.
    10030    2    1    2    0    0  0.00000000000E+00  0.00000000000E+00 -0.40148796048E+03  0.27221112351E+04  0.26923404305E+04 0.  0.
        4    1    3    3  502    0 -0.76763588726E+03  0.19018420097E+03  0.90067681976E+03  0.11986055366E+04  0.12699999809E+01 0.  1.
       -4    1    3    3    0  502  0.76763588726E+03 -0.19018420097E+03 -0.13021647802E+04  0.15235056985E+04  0.12699999809E+01 0. -1.
</event>
<event>
 5   0  0.7436613E-07  0.2697547E+04  0.7818609E-02  0.8335801E-01
       -1   -1    0    0    0  501  0.00000000000E+00  0.00000000000E+00  0.10273015547E+04  0.10273015547E+04  0.50400001928E-02 0. -1.
        1   -1    0    0  501    0  0.00000000000E+00  0.00000000000E+00 -0.17708432577E+04  0.17708432577E+04  0.50400001928E-02 0.  1.
    10030    2    1    2    0    0  0.00000000000E+00  0.00000000000E+00 -0.74354170295E+03  0.27981448124E+04  0.26975470575E+04 0.  0.
        2    1    3    3  502    0  0.11163462008E+04 -0.33337392178E+03 -0.10766894122E+04  0.15863880679E+04  0.25500000920E-02 0.  1.
       -2    1    3    3    0  502 -0.11163462008E+04  0.33337392178E+03  0.33314770921E+03  0.12117567445E+04  0.25500000920E-02 0. -1.
</event>
<event>
 5   0  0.7806808E-07  0.2699726E+04  0.7818609E-02  0.8335094E-01
       -1   -1    0    0    0  501  0.00000000000E+00  0.00000000000E+00  0.10984600960E+04  0.10984600960E+04  0.50400001928E-02 0.  1.
        1   -1    0    0  501    0  0.00000000000E+00  0.00000000000E+00 -0.16588045688E+04  0.16588045688E+04  0.50400001928E-02 0. -1.
    10030    2    1    2    0    0  0.00000000000E+00  0.00000000000E+00 -0.56034447279E+03  0.27572646648E+04  0.26997263757E+04 0.  0.
        5    1    3    3  502    0  0.11600831956E+04 -0.78887655188E+02 -0.98041761754E+03  0.15209395378E+04  0.46999998093E+01 0. -1.
       -5    1    3    3    0  502 -0.11600831956E+04  0.78887655188E+02  0.42007314475E+03  0.12363251270E+04  0.46999998093E+01 0.  1.
</event>
<event>
 5   0  0.7436613E-07  0.2702003E+04  0.7818609E-02  0.8334355E-01
        1   -1    0    0  501    0  0.00000000000E+00  0.00000000000E+00  0.14139355480E+04  0.14139355480E+04  0.50400001928E-02 0. -1.
       -1   -1    0    0    0  501  0.00000000000E+00  0.00000000000E+00 -0.12908682795E+04  0.12908682795E+04  0.50400001928E-02 0.  1.
    10030    2    1    2    0    0  0.00000000000E+00  0.00000000000E+00  0.12306726854E+03  0.27048038276E+04  0.27020026264E+04 0.  0.
        2    1    3    3  502    0 -0.10287413200E+04  0.87563335022E+03  0.48789342867E+02  0.13518220547E+04  0.25500000920E-02 0. -1.
       -2    1    3    3    0  502  0.10287413200E+04 -0.87563335022E+03  0.74277925669E+02  0.13529817729E+04  0.25500000920E-02 0.  1.
</event>
<event>
 5   0  0.7335091E-07  0.2723252E+04  0.7818609E-02  0.8327500E-01
        1   -1    0    0  501    0  0.00000000000E+00  0.00000000000E+00  0.12798919435E+04  0.12798919435E+04  0.50400001928E-02 0. -1.
       -1   -1    0    0    0  501  0.00000000000E+00  0.00000000000E+00 -0.14485801027E+04  0.14485801028E+04  0.50400001928E-02 0.  1.
    10030    2    1    2    0    0  0.00000000000E+00  0.00000000000E+00 -0.16868815926E+03  0.27284720463E+04  0.27232524694E+04 0.  0.
        3    1    3    3  502    0  0.58338586604E+03 -0.11108573341E+04 -0.61420826474E+03  0.13969949492E+04  0.10100000352E+00 0.  1.
       -3    1    3    3    0  502 -0.58338586604E+03  0.11108573341E+04  0.44552010548E+03  0.13314770971E+04  0.10100000352E+00 0. -1.
</event>
<event>
 5   0  0.7806808E-07  0.2699806E+04  0.7818609E-02  0.8335068E-01
       -1   -1    0    0    0  501  0.00000000000E+00  0.00000000000E+00  0.96900030017E+03  0.96900030018E+03  0.50400001928E-02 0.  1.
        1   -1    0    0  501    0  0.00000000000E+00  0.00000000000E+00 -0.18805343733E+04  0.18805343733E+04  0.50400001928E-02 0. -1.
    10030    2    1    2    0    0  0.00000000000E+00  0.00000000000E+00 -0.91153407310E+03  0.28495346735E+04  0.26998061947E+04 0.  0.
        5    1    3    3  502    0 -0.61073071169E+03  0.10623497462E+04  0.14188496125E+03  0.12335851887E+04  0.46999998093E+01 0.  1.
       -5    1    3    3    0  502  0.61073071169E+03 -0.10623497462E+04 -0.10534190344E+04  0.16159494848E+04  0.46999998093E+01 0. -1.
</event>
<event>
 5   0  0.7806808E-07  0.2700544E+04  0.7818609E-02  0.8334829E-01
       -1   -1    0    0    0  501  0.00000000000E+00  0.00000000000E+00  0.14515361045E+04  0.14515361045E+04  0.50400001928E-02 0.  1.
        1   -1    0    0  501    0  0.00000000000E+00  0.00000000000E+00 -0.12560722301E+04  0.12560722301E+04  0.50400001928E-02 0. -1.
    10030    2    1    2    0    0  0.00000000000E+00  0.00000000000E+00  0.19546387437E+03  0.27076083346E+04  0.27005437910E+04 0.  0.
        5    1    3    3  502    0 -0.13072174212E+04  0.24586525437E+03 -0.13513626230E+03  0.13369932719E+04  0.46999998093E+01 0. -1.
       -5    1    3    3    0  502  0.13072174212E+04 -0.24586525437E+03  0.33060013666E+03  0.13706150627E+04  0.46999998093E+01 0.  1.
</event>
<event>
 5   0  0.7806808E-07  0.2699211E+04  0.7818609E-02  0.8335261E-01
       -1   -1    0    0    0  501  0.00000000000E+00  0.00000000000E+00  0.12693198855E+04  0.12693198855E+04  0.50400001928E-02 0. -1.
        1   -1    0    0  501    0  0.00000000000E+00  0.00000000000E+00 -0.14349695112E+04  0.14349695112E+04  0.50400001928E-02 0.  1.
    10030    2    1    2    0    0  0.00000000000E+00  0.00000000000E+00 -0.16564962570E+03  0.27042893966E+04  0.26992112445E+04 0.  0.
        5    1    3    3  502    0  0.11848668844E+04  0.10059161884E+03 -0.72229282998E+03  0.13913149283E+04  0.46999998093E+01 0.  1.
       -5    1    3    3    0  502 -0.11848668844E+04 -0.10059161884E+03  0.55664320428E+03  0.13129744683E+04  0.46999998093E+01 0. -1.
</event>
<event>
 5   0  0.1999104E-06  0.2698907E+04  0.7818609E-02  0.8335360E-01
       -2   -1    0    0    0  501  0.00000000000E+00  0.00000000000E+00  0.90514304826E+03  0.90514304827E+03  0.25500000920E-02 0. -1.
        2   -1    0    0  501    0  0.00000000000E+00  0.00000000000E+00 -0.20118637894E+04  0.20118637895E+04  0.25500000920E-02 0.  1.
    10030    2    1    2    0    0  0.00000000000E+00  0.00000000000E+00 -0.11067207412E+04  0.29170068377E+04  0.26989068328E+04 0.  0.
        4    1    3    3  502    0  0.51560265117E+03  0.11271170314E+02  0.79442799144E+03  0.94714865763E+03  0.12699999809E+01 0. -1.
       -4    1    3    3    0  502 -0.51560265117E+03 -0.11271170314E+02 -0.19011487326E+04  0.19698581801E+04  0.12699999809E+01 0.  1.
</event>
<event>
 5   0  0.7768032E-07  0.2702324E+04  0.7818609E-02  0.8334251E-01
        1   -1    0    0  501    0  0.00000000000E+00  0.00000000000E+00  0.95295594615E+03  0.95295594616E+03  0.50400001928E-02 0.  1.
       -1   -1    0    0    0  501  0.00000000000E+00  0.00000000000E+00 -0.19157640040E+04  0.19157640040E+04  0.50400001928E-02 0. -1.
    10030    2    1    2    0    0  0.00000000000E+00  0.00000000000E+00 -0.96280805781E+03  0.28687199501E+04  0.27023239621E+04 0.  0.
        4    1    3    3  502    0  0.14122707214E+03 -0.12117239769E+04  0.13523956462E+03  0.12274002749E+04  0.12699999809E+01 0. -1.
       -4    1    3    3    0  502 -0.14122707214E+03  0.12117239769E+04 -0.10980476224E+04  0.16413196752E+04  0.12699999809E+01 0.  1.
</event>
<event>
 5   0  0.2063087E-06  0.2706620E+04  0.7818609E-02  0.8332860E-01
       -2   -1    0    0    0  501  0.00000000000E+00  0.00000000000E+00  0.13958000035E+04  0.13958000035E+04  0.25500000920E-02 0. -1.
        2   -1    0    0  501    0  0.00000000000E+00  0.00000000000E+00 -0.13121135809E+04  0.13121135809E+04  0.25500000920E-02 0.  1.
    10030    2    1    2    0    0  0.00000000000E+00  0.00000000000E+00  0.83686422608E+02  0.27079135844E+04  0.27066201365E+04 0.  0.
        3    1    3    3  502    0 -0.73575010140E+03 -0.92865023035E+01  0.11781824850E+04  0.13890746664E+04  0.10100000352E+00 0. -1.
       -3    1    3    3    0  502  0.73575010140E+03  0.92865023035E+01 -0.10944960624E+04  0.13188389180E+04  0.10100000352E+00 0.  1.
</event>
<event>
 5   0  0.2030645E-06  0.2703046E+04  0.7818609E-02  0.8334017E-01
       -2   -1    0    0    0  501  0.00000000000E+00  0.00000000000E+00  0.11985210547E+04  0.11985210547E+04  0.25500000920E-02 0.  1.
        2   -1    0    0  501    0  0.00000000000E+00  0.00000000000E+00 -0.15240570186E+04  0.15240570186E+04  0.25500000920E-02 0. -1.
    10030    2    1    2    0    0  0.00000000000E+00  0.00000000000E+00 -0.32553596390E+03  0.27225780733E+04  0.27030460043E+04 0.  0.
        1    1    3    3  502    0 -0.70670128214E+03  0.11519419158E+04 -0.14791197156E+03  0.13595127182E+04  0.50400001928E-02 0.  1.
       -1    1    3    3    0  502  0.70670128214E+03 -0.11519419158E+04 -0.17762399234E+03  0.13630653551E+04  0.50400001928E-02 0. -1.
</event>
<event>
 5   0  0.7768032E-07  0.2698870E+04  0.7818609E-02  0.8335372E-01
        1   -1    0    0  501    0  0.00000000000E+00  0.00000000000E+00  0.14298623004E+04  0.14298623004E+04  0.50400001928E-02 0.  1.
       -1   -1    0    0    0  501  0.00000000000E+00  0.00000000000E+00 -0.12735319564E+04  0.12735319564E+04  0.50400001928E-02 0. -1.
    10030    2    1    2    0    0  0.00000000000E+00  0.00000000000E+00  0.15633034403E+03  0.27033942568E+04  0.26988703806E+04 0.  0.
        4    1    3    3  502    0  0.64019468750E+03  0.43573205571E+03  0.11851248257E+04  0.14157097611E+04  0.12699999809E+01 0.  1.
       -4    1    3    3    0  502 -0.64019468750E+03 -0.43573205571E+03 -0.10287944816E+04  0.12876844958E+04  0.12699999809E+01 0. -1.
</event>
<event>
 5   0  0.2030645E-06  0.2699565E+04  0.7818609E-02  0.8335146E-01
        2   -1    0    0  501    0  0.00000000000E+00  0.00000000000E+00  0.82560106926E+03  0.82560106926E+03  0.25500000920E-02 0. -1.
       -2   -1    0    0    0  501  0.00000000000E+00  0.00000000000E+00 -0.22067712706E+04  0.22067712706E+04  0.25500000920E-02 0.  1.
    10030    2    1    2    0    0  0.00000000000E+00  0.00000000000E+00 -0.13811702014E+04  0.30323723399E+04  0.26995649432E+04 0.  0.
        1    1    3    3  502    0  0.60356869212E+03 -0.75984752136E+03  0.36329593774E+03  0.10361695615E+04  0.50400001928E-02 0. -1.
       -1    1    3    3    0  502 -0.60356869212E+03  0.75984752136E+03 -0.17444661391E+04  0.19962027783E+04  0.50400001928E-02 0.  1.
</event>
<event>
 5   0  0.2063087E-06  0.2713052E+04  0.7818609E-02  0.8330782E-01
        2   -1    0    0  501    0  0.00000000000E+00  0.00000000000E+00  0.16512097074E+04  0.16512097074E+04  0.25500000920E-02 0.  1.
       -2   -1    0    0    0  501  0.00000000000E+00  0.00000000000E+00 -0.11144330611E+04  0.11144330611E+04  0.25500000920E-02 0. -1.
    10030    2    1    2    0    0  0.00000000000E+00  0.00000000000E+00  0.53677664625E+03  0.27656427685E+04  0.27130519264E+04 0.  0.
        3    1    3    3  502    0  0.28754778198E+03  0.25202935493E+03  0.15951397766E+04  0.16403272356E+04  0.10100000352E+00 0.  1.
       -3    1    3    3    0  502 -0.28754778198E+03 -0.25202935493E+03 -0.10583631304E+04  0.11253155329E+04  0.10100000352E+00 0. -1.
</event>
<event>
 5   0  0.7436613E-07  0.2702414E+04  0.7818609E-02  0.8334222E-01
        1   -1    0    0  501    0  0.00000000000E+00  0.00000000000E+00  0.19652413080E+04  0.19652413080E+04  0.50400001928E-02 0. -1.
       -1   -1    0    0    0  501  0.00000000000E+00  0.00000000000E+00 -0.92902600068E+03  0.92902600070E+03  0.50400001928E-02 0.  1.
    10030    2    1    2    0    0  0.00000000000E+00  0.00000000000E+00  0.10362153073E+04  0.28942673087E+04  0.27024139377E+04 0.  0.
        2    1    3    3  502    0 -0.12689485381E+04  0.28502305312E+03  0.91058212825E+03  0.15876486845E+04  0.25500000920E-02 0. -1.
       -2    1    3    3    0  502  0.12689485381E+04 -0.28502305312E+03  0.12563317902E+03  0.13066186241E+04  0.25500000920E-02 0.  1.
</event>
<event>
 5   0  0.2063087E-06  0.2701214E+04  0.7818609E-02  0.8334611E-01
        2   -1    0    0  501    0  0.00000000000E+00  0.00000000000E+00  0.16776200893E+04  0.16776200893E+04  0.25500000920E-02 0.  1.
       -2   -1    0    0    0  501  0.00000000000E+00  0.00000000000E+00 -0.10873378489E+04  0.10873378489E+04  0.25500000920E-02 0. -1.
    10030    2    1    2    0    0  0.00000000000E+00  0.00000000000E+00  0.59028224045E+03  0.27649579383E+04  0.27012144078E+04 0.  0.
        3    1    3    3  502    0  0.32671649759E+03  0.84177057271E+03  0.13232425852E+04  0.16019651420E+04  0.10100000352E+00 0. -1.
       -3    1    3    3    0  502 -0.32671649759E+03 -0.84177057271E+03 -0.73296034474E+03  0.11629927962E+04  0.10100000352E+00 0.  1.
</event>
<event>
 5   0  0.7566905E-07  0.2695682E+04  0.7818609E-02  0.8336407E-01
        1   -1    0    0  501    0  0.00000000000E+00  0.00000000000E+00  0.20832634846E+04  0.20832634846E+04  0.50400001928E-02 0.  1.
       -1   -1    0    0    0  501  0.00000000000E+00  0.00000000000E+00 -0.87203326896E+03  0.87203326898E+03  0.50400001928E-02 0. -1.
    10030    2    1    2    0    0  0.00000000000E+00  0.00000000000E+00  0.12112302157E+04  0.29552967536E+04  0.26956817814E+04 0.  0.
        1    1    3    3  502    0  0.69000635053E+03  0.99900254627E+03  0.12472691504E+04  0.17406306859E+04  0.50400001928E-02 0.  1.
       -1    1    3    3    0  502 -0.69000635053E+03 -0.99900254627E+03 -0.36038934685E+02  0.12146660677E+04  0.50400001928E-02 0. -1.
</event>
<event>
 5   0  0.7436613E-07  0.2734417E+04  0.7818609E-02  0.8323923E-01
        1   -1    0    0  501    0  0.00000000000E+00  0.00000000000E+00  0.89619611823E+03  0.89619611825E+03  0.50400001928E-02 0. -1.
       -1   -1    0    0    0  501  0.00000000000E+00  0.00000000000E+00 -0.20857704613E+04  0.20857704614E+04  0.50400001928E-02 0.  1.
    10030    2    1    2    0    0  0.00000000000E+00  0.00000000000E+00 -0.11895743431E+04  0.29819665796E+04  0.27344172257E+04 0.  0.
        2    1    3    3  502    0  0.90202783568E+03  0.88159777628E+02 -0.17110951592E+04  0.19363039551E+04  0.25500000920E-02 0.  1.
       -2    1    3    3    0  502 -0.90202783568E+03 -0.88159777628E+02  0.52152081605E+03  0.10456626245E+04  0.25500000920E-02 0. -1.
</event>
<event>
 5   0  0.7566905E-07  0.2691473E+04  0.7818609E-02  0.8337777E-01
       -1   -1    0    0    0  501  0.00000000000E+00  0.00000000000E+00  0.95903118666E+03  0.95903118667E+03  0.50400001928E-02 0.  1.
        1   -1    0    0  501    0  0.00000000000E+00  0.00000000000E+00 -0.18883706167E+04  0.18883706167E+04  0.50400001928E-02 0. -1.
    10030    2    1    2    0    0  0.00000000000E+00  0.00000000000E+00 -0.92933943005E+03  0.28474018034E+04  0.26914726924E+04 0.  0.
        1    1    3    3  502    0 -0.12586759965E+04 -0.36220482028E+03 -0.79168737657E+03  0.15304334348E+04  0.50400001928E-02 0.  1.
       -1    1    3    3    0  502  0.12586759965E+04  0.36220482028E+03 -0.13765205348E+03  0.13169683686E+04  0.50400001928E-02 0. -1.
</event>
<event>
 5   0  0.2030645E-06  0.2697173E+04  0.7818609E-02  0.8335923E-01
        2   -1    0    0  501    0  0.00000000000E+00  0.00000000000E+00  0.12475570288E+04  0.12475570288E+04  0.25500000920E-02 0. -1.
       -2   -1    0    0    0  501  0.00000000000E+00  0.00000000000E+00 -0.14577980381E+04  0.14577980381E+04  0.25500000920E-02 0.  1.
    10030    2    1    2    0    0  0.00000000000E+00  0.00000000000E+00 -0.21024100934E+03  0.27053550669E+04  0.26971734753E+04 0.  0.
        1    1    3    3  502    0 -0.78757000293E+03  0.31019920509E+03  0.94791941203E+03  0.12708427393E+04  0.50400001928E-02 0. -1.
       -1    1    3    3    0  502  0.78757000293E+03 -0.31019920509E+03 -0.11581604214E+04  0.14345123276E+04  0.50400001928E-02 0.  1.
</event>
<event>
 5   0  0.7566905E-07  0.2698127E+04  0.7818609E-02  0.8335613E-01
       -1   -1    0    0    0  501  0.00000000000E+00  0.00000000000E+00  0.12174952200E+04  0.12174952200E+04  0.50400001928E-02 0.  1.
        1   -1    0    0  501    0  0.00000000000E+00  0.00000000000E+00 -0.14948499224E+04  0.14948499224E+04  0.50400001928E-02 0. -1.
    10030    2    1    2    0    0  0.00000000000E+00  0.00000000000E+00 -0.27735470232E+03  0.27123451424E+04  0.26981272284E+04 0.  0.
        1    1    3    3  502    0  0.53804835652E+03  0.58322530098E+03 -0.12354466310E+04  0.14683242706E+04  0.50400001928E-02 0. -1.
       -1    1    3    3    0  502 -0.53804835652E+03 -0.58322530098E+03  0.95809192866E+03  0.12440208718E+04  0.50400001928E-02 0.  1.
</event>
<event>
 5   0  0.7768032E-07  0.2695059E+04  0.7818609E-02  0.8336610E-01
        1   -1    0    0  501    0  0.00000000000E+00  0.00000000000E+00  0.16971472773E+04  0.16971472773E+04  0.50400001928E-02 0. -1.
       -1   -1    0    0    0  501  0.00000000000E+00  0.00000000000E+00 -0.10699342514E+04  0.10699342514E+04  0.50400001928E-02 0.  1.
    10030    2    1    2    0    0  0.00000000000E+00  0.00000000000E+00  0.62721302596E+03  0.27670815287E+04  0.26950591843E+04 0.  0.
        4    1    3    3  502    0  0.66975131657E+03  0.11587544973E+04  0.47449639227E+03  0.14200095952E+04  0.12699999809E+01 0. -1.
       -4    1    3    3    0  502 -0.66975131657E+03 -0.11587544973E+04  0.15271663370E+03  0.13470719336E+04  0.12699999809E+01 0.  1.
</event>
<event>
 5   0  0.1932012E-06  0.2706001E+04  0.7818609E-02  0.8333060E-01
        2   -1    0    0  501    0  0.00000000000E+00  0.00000000000E+00  0.26834904355E+04  0.26834904355E+04  0.25500000920E-02 0.  1.
       -2   -1    0    0    0  501  0.00000000000E+00  0.00000000000E+00 -0.68217519090E+03  0.68217519091E+03  0.25500000920E-02 0. -1.
    10030    2    1    2    0    0  0.00000000000E+00  0.00000000000E+00  0.20013152446E+04  0.33656656264E+04  0.27060011827E+04 0.  0.
        2    1    3    3  502    0  0.44656995400E+03 -0.22448593217E+03  0.25644545013E+04  0.26127084696E+04  0.25500000920E-02 0.  1.
       -2    1    3    3    0  502 -0.44656995400E+03  0.22448593217E+03 -0.56313925673E+03  0.75295715684E+03  0.25500000920E-02 0. -1.
</event>
<event>
 5   0  0.1932012E-06  0.2703391E+04  0.7818609E-02  0.8333905E-01
        2   -1    0    0  501    0  0.00000000000E+00  0.00000000000E+00  0.90527604119E+03  0.90527604119E+03  0.25500000920E-02 0. -1.
       -2   -1    0    0    0  501  0.00000000000E+00  0.00000000000E+00 -0.20182588564E+04  0.20182588564E+04  0.25500000920E-02 0.  1.
    10030    2    1    2    0    0  0.00000000000E+00  0.00000000000E+00 -0.11129828152E+04  0.29235348976E+04  0.27033914904E+04 0.  0.
        2    1    3    3  502    0  0.23156621485E+03  0.49738757647E+03  0.77944481101E+03  0.95317969267E+03  0.25500000920E-02 0. -1.
       -2    1    3    3    0  502 -0.23156621485E+03 -0.49738757647E+03 -0.18924276263E+04  0.19703552050E+04  0.25500000920E-02 0.  1.
</event>
<event>
 5   0  0.7436613E-07  0.2698190E+04  0.7818609E-02  0.8335593E-01
        1   -1    0    0  501    0  0.00000000000E+00  0.00000000000E+00  0.14412447796E+04  0.14412447796E+04  0.50400001928E-02 0.  1.
       -1   -1    0    0    0  501  0.00000000000E+00  0.00000000000E+00 -0.12628368330E+04  0.12628368330E+04  0.50400001928E-02 0. -1.
    10030    2    1    2    0    0  0.00000000000E+00  0.00000000000E+00  0.17840794655E+03  0.27040816126E+04  0.26981897584E+04 0.  0.
        2    1    3    3  502    0  0.53915797504E+02  0.13195148813E+04  0.36554247220E+03  0.13702728685E+04  0.25500000920E-02 0. -1.
       -2    1    3    3    0  502 -0.53915797504E+02 -0.13195148813E+04 -0.18713452565E+03  0.13338087441E+04  0.25500000920E-02 0.  1.
</event>
<event>
 5   0  0.2030645E-06  0.2698423E+04  0.7818609E-02  0.8335517E-01
       -2   -1    0    0    0  501  0.00000000000E+00  0.00000000000E+00  0.81631217738E+03  0.81631217739E+03  0.25500000920E-02 0. -1.
        2   -1    0    0  501    0  0.00000000000E+00  0.00000000000E+00 -0.22299945812E+04  0.22299945812E+04  0.25500000920E-02 0.  1.
    10030    2    1    2    0    0  0.00000000000E+00  0.00000000000E+00 -0.14136824038E+04  0.30463067586E+04  0.26984230448E+04 0.  0.
        1    1    3    3  502    0  0.42400890061E+03 -0.11776273191E+04 -0.13812699881E+03  0.12592333852E+04  0.50400001928E-02 0. -1.
       -1    1    3    3    0  502 -0.42400890061E+03  0.11776273191E+04 -0.12755554050E+04  0.17870733734E+04  0.50400001928E-02 0.  1.
</event>
<event>
 5   0  0.7335091E-07  0.2686097E+04  0.7818609E-02  0.8339530E-01
       -1   -1    0    0    0  501  0.00000000000E+00  0.00000000000E+00  0.15937841735E+04  0.15937841735E+04  0.50400001928E-02 0. -1.
        1   -1    0    0  501    0  0.00000000000E+00  0.00000000000E+00 -0.11317592149E+04  0.11317592149E+04  0.50400001928E-02 0.  1.
    10030    2    1    2    0    0  0.00000000000E+00  0.00000000000E+00  0.46202495864E+03  0.27255433884E+04  0.26860974851E+04 0.  0.
        3    1    3    3  502    0  0.39057417819E+02  0.81674966105E+03 -0.85007945852E+03  0.11795086209E+04  0.10100000352E+00 0.  1.
       -3    1    3    3    0  502 -0.39057417819E+02 -0.81674966105E+03  0.13121044172E+04  0.15460347675E+04  0.10100000352E+00 0. -1.
</event>
<event>
 5   0  0.1999104E-06  0.2694320E+04  0.7818609E-02  0.8336850E-01
        2   -1    0    0  501    0  0.00000000000E+00  0.00000000000E+00  0.10800854471E+04  0.10800854471E+04  0.25500000920E-02 0. -1.
       -2   -1    0    0    0  501  0.00000000000E+00  0.00000000000E+00 -0.16802745982E+04  0.16802745982E+04  0.25500000920E-02 0.  1.
    10030    2    1    2    0    0  0.00000000000E+00  0.00000000000E+00 -0.60018915110E+03  0.27603600454E+04  0.26943200558E+04 0.  0.
        4    1    3    3  502    0  0.83019247215E+03  0.86546697318E+03 -0.92880198621E+03  0.15168808012E+04  0.12699999809E+01 0.  1.
       -4    1    3    3    0  502 -0.83019247215E+03 -0.86546697318E+03  0.32861283510E+03  0.12434792442E+04  0.12699999809E+01 0. -1.
</event>
<event>
 5   0  0.6561875E-07  0.2698625E+04  0.7818609E-02  0.8335451E-01
       -4   -1    0    0    0  501  0.00000000000E+00  0.00000000000E+00  0.19112197049E+04  0.19112201268E+04  0.12699999809E+01 0. -1.
        4   -1    0    0  501    0  0.00000000000E+00  0.00000000000E+00 -0.95260777709E+03  0.95260862366E+03  0.12699999809E+01 0.  1.
    10030    2    1    2    0    0  0.00000000000E+00  0.00000000000E+00  0.95861192777E+03  0.28638287505E+04  0.26986252582E+04 0.  0.
        4    1    3    3  502    0  0.13180326565E+03  0.12909006663E+04  0.87187951491E+03  0.15633208668E+04  0.12699999809E+01 0. -1.
       -4    1    3    3    0  502 -0.13180326565E+03 -0.12909006663E+04  0.86732412863E+02  0.13005078837E+04  0.12699999809E+01 0.  1.
</event>
<event>
 5   0  0.2063087E-06  0.2692812E+04  0.7818609E-02  0.8337341E-01
        2   -1    0    0  501    0  0.00000000000E+00  0.00000000000E+00  0.13458872232E+04  0.13458872232E+04  0.25500000920E-02 0. -1.
       -2   -1    0    0    0  501  0.00000000000E+00  0.00000000000E+00 -0.13469251111E+04  0.13469251111E+04  0.25500000920E-02 0.  1.
    10030    2    1    2    0    0  0.00000000000E+00  0.00000000000E+00 -0.10378878675E+01  0.26928123343E+04  0.26928121342E+04 0.  0.
        3    1    3    3  502    0  0.77819665264E+03  0.23336983066E+03 -0.10741846045E+04  0.13468199890E+04  0.10100000352E+00 0.  1.
       -3    1    3    3    0  502 -0.77819665264E+03 -0.23336983066E+03  0.10731467166E+04  0.13459923453E+04  0.10100000352E+00 0. -1.
</event>
<event>
 5   0  0.7566905E-07  0.2709930E+04  0.7818609E-02  0.8331790E-01
       -1   -1    0    0    0  501  0.00000000000E+00  0.00000000000E+00  0.10638447049E+04  0.10638447049E+04  0.50400001928E-02 0.  1.
        1   -1    0    0  501    0  0.00000000000E+00  0.00000000000E+00 -0.17257507234E+04  0.17257507234E+04  0.50400001928E-02 0. -1.
    10030    2    1    2    0    0  0.00000000000E+00  0.00000000000E+00 -0.66190601848E+03  0.27895954283E+04  0.27099304560E+04 0.  0.
        1    1    3    3  502    0 -0.66326774132E+03  0.91070927992E+03  0.44391408377E+03  0.12109398016E+04  0.50400001928E-02 0.  1.
       -1    1    3    3    0  502  0.66326774132E+03 -0.91070927992E+03 -0.11058201022E+04  0.15786556267E+04  0.50400001928E-02 0. -1.
</event>
<event>
 5   0  0.7436613E-07  0.2694045E+04  0.7818609E-02  0.8336940E-01
        1   -1    0    0  501    0  0.00000000000E+00  0.00000000000E+00  0.19381435574E+04  0.19381435574E+04  0.50400001928E-02 0. -1.
       -1   -1    0    0    0  501  0.00000000000E+00  0.00000000000E+00 -0.93618929992E+03  0.93618929994E+03  0.50400001928E-02 0.  1.
    10030    2    1    2    0    0  0.00000000000E+00  0.00000000000E+00  0.10019542574E+04  0.28743328573E+04  0.26940447362E+04 0.  0.
        2    1    3    3  502    0 -0.79190660490E+03  0.13326345003E+02  0.16634684971E+04  0.18423954796E+04  0.25500000920E-02 0. -1.
       -2    1    3    3    0  502  0.79190660490E+03 -0.13326345003E+02 -0.66151423963E+03  0.10319373777E+04  0.25500000920E-02 0.  1.
</event>
<event>
 5   0  0.7436613E-07  0.2704618E+04  0.7818609E-02  0.8333508E-01
        1   -1    0    0  501    0  0.00000000000E+00  0.00000000000E+00  0.11331764050E+04  0.11331764050E+04  0.50400001928E-02 0.  1.
       -1   -1    0    0    0  501  0.00000000000E+00  0.00000000000E+00 -0.16138168266E+04  0.16138168266E+04  0.50400001928E-02 0. -1.
    10030    2    1    2    0    0  0.00000000000E+00  0.00000000000E+00 -0.48064042158E+03  0.27469932316E+04  0.27046176439E+04 0.  0.
        2    1    3    3  502    0  0.59682524908E+03  0.11267322058E+04 -0.69794966269E+03  0.14535678771E+04  0.25500000920E-02 0. -1.
       -2    1    3    3    0  502 -0.59682524908E+03 -0.11267322058E+04  0.21730924112E+03  0.12934253546E+04  0.25500000920E-02 0.  1.
</event>
<event>
 5   0  0.1932012E-06  0.2700642E+04  0.7818609E-02  0.8334797E-01
       -2   -1    0    0    0  501  0.00000000000E+00  0.00000000000E+00  0.11782950560E+04  0.11782950560E+04  0.25500000920E-02 0.  1.
        2   -1    0    0  501    0  0.00000000000E+00  0.00000000000E+00 -0.15474620149E+04  0.15474620149E+04  0.25500000920E-02 0. -1.
    10030    2    1    2    0    0  0.00000000000E+00  0.00000000000E+00 -0.36916695889E+03  0.27257570708E+04  0.27006420284E+04 0.  0.
        2    1    3    3  502    0 -0.12829409636E+04  0.23880239681E+03  0.16563439786E+03  0.13154462568E+04  0.25500000920E-02 0.  1.
       -2    1    3    3    0  502  0.12829409636E+04 -0.23880239681E+03 -0.53480135675E+03  0.14103108140E+04  0.25500000920E-02 0. -1.
</event>
<event>
 5   0  0.1999104E-06  0.2696305E+04  0.7818609E-02  0.8336205E-01
        2   -1    0    0  501    0  0.00000000000E+00  0.00000000000E+00  0.17423328620E+04  0.17423328620E+04  0.25500000920E-02 0.  1.
       -2   -1    0    0    0  501  0.00000000000E+00  0.00000000000E+00 -0.10431503098E+04  0.10431503098E+04  0.25500000920E-02 0. -1.
    10030    2    1    2    0    0  0.00000000000E+00  0.00000000000E+00  0.69918255219E+03  0.27854831719E+04  0.26963049270E+04 0.  0.
        4    1    3    3  502    0  0.12690877426E+03  0.71964159236E+03 -0.82080642983E+03  0.10989607211E+04  0.12699999809E+01 0. -1.
       -4    1    3    3    0  502 -0.12690877426E+03 -0.71964159236E+03  0.15199889820E+04  0.16865224507E+04  0.12699999809E+01 0.  1.
</event>
<event>
 5   0  0.1991277E-06  0.2691600E+04  0.7818609E-02  0.8337735E-01
        2   -1    0    0  501    0  0.00000000000E+00  0.00000000000E+00  0.18848734574E+04  0.18848734574E+04  0.25500000920E-02 0. -1.
       -2   -1    0    0    0  501  0.00000000000E+00  0.00000000000E+00 -0.96090169981E+03  0.96090169981E+03  0.25500000920E-02 0.  1.
    10030    2    1    2    0    0  0.00000000000E+00  0.00000000000E+00  0.92397175759E+03  0.28457751572E+04  0.26916003486E+04 0.  0.
        5    1    3    3  502    0 -0.18452665517E+03 -0.46655211168E+03  0.17822890150E+04  0.18515661431E+04  0.46999998093E+01 0. -1.
       -5    1    3    3    0  502  0.18452665517E+03  0.46655211168E+03 -0.85831725739E+03  0.99420901410E+03  0.46999998093E+01 0.  1.
</event>
<event>
 5   0  0.7566905E-07  0.2701780E+04  0.7818609E-02  0.8334428E-01
        1   -1    0    0  501    0  0.00000000000E+00  0.00000000000E+00  0.15350923532E+04  0.15350923533E+04  0.50400001928E-02 0.  1.
       -1   -1    0    0    0  501  0.00000000000E+00  0.00000000000E+00 -0.11887912087E+04  0.11887912087E+04  0.50400001928E-02 0. -1.
    10030    2    1    2    0    0  0.00000000000E+00  0.00000000000E+00  0.34630114455E+03  0.27238835620E+04  0.27017803716E+04 0.  0.
        1    1    3    3  502    0  0.91694434532E+03 -0.61265602225E+03 -0.61346964381E+03  0.12619347598E+04  0.50400001928E-02 0. -1.
       -1    1    3    3    0  502 -0.91694434532E+03  0.61265602225E+03  0.95977078835E+03  0.14619488022E+04  0.50400001928E-02 0.  1.
</event>
<event>
 5   0  0.7768032E-07  0.2700538E+04  0.7818609E-02  0.8334830E-01
        1   -1    0    0  501    0  0.00000000000E+00  0.00000000000E+00  0.18902248092E+04  0.18902248092E+04  0.50400001928E-02 0.  1.
       -1   -1    0    0    0  501  0.00000000000E+00  0.00000000000E+00 -0.96455554368E+03  0.96455554369E+03  0.50400001928E-02 0. -1.
    10030    2    1    2    0    0  0.00000000000E+00  0.00000000000E+00  0.92566926556E+03  0.28547803529E+04  0.27005383305E+04 0.  0.
        4    1    3    3  502    0 -0.58622428669E+03  0.87489698563E+03 -0.43048817978E+03  0.11377281466E+04  0.12699999809E+01 0. -1.
       -4    1    3    3    0  502  0.58622428669E+03 -0.87489698563E+03  0.13561574453E+04  0.17170522063E+04  0.12699999809E+01 0.  1.
</event>
<event>
 5   0  0.1932012E-06  0.2727840E+04  0.7818609E-02  0.8326028E-01
        2   -1    0    0  501    0  0.00000000000E+00  0.00000000000E+00  0.16026792923E+04  0.16026792923E+04  0.25500000920E-02 0.  1.
       -2   -1    0    0    0  501  0.00000000000E+00  0.00000000000E+00 -0.11607300902E+04  0.11607300902E+04  0.25500000920E-02 0. -1.
    10030    2    1    2    0    0  0.00000000000E+00  0.00000000000E+00  0.44194920203E+03  0.27634093825E+04  0.27278402296E+04 0.  0.
        2    1    3    3  502    0  0.10721333319E+04 -0.36480831935E+03 -0.54901730479E+03  0.12585606828E+04  0.25500000920E-02 0. -1.
       -2    1    3    3    0  502 -0.10721333319E+04  0.36480831935E+03  0.99096650682E+03  0.15048486997E+04  0.25500000920E-02 0.  1.
</event>
<event>
 5   0  0.2030645E-06  0.2700657E+04  0.7818609E-02  0.8334792E-01
       -2   -1    0    0    0  501  0.00000000000E+00  0.00000000000E+00  0.15948130482E+04  0.15948130482E+04  0.25500000920E-02 0. -1.
        2   -1    0    0  501    0  0.00000000000E+00  0.00000000000E+00 -0.11433235780E+04  0.11433235780E+04  0.25500000920E-02 0.  1.
    10030    2    1    2    0    0  0.00000000000E+00  0.00000000000E+00  0.45148947021E+03  0.27381366261E+04  0.27006572240E+04 0.  0.
        1    1    3    3  502    0  0.86606914869E+03  0.10077020768E+04 -0.18109472166E+02  0.13288593601E+04  0.50400001928E-02 0. -1.
       -1    1    3    3    0  502 -0.86606914869E+03 -0.10077020768E+04  0.46959894238E+03  0.14092772660E+04  0.50400001928E-02 0.  1.
</event>
<event>
 5   0  0.2030645E-06  0.2716429E+04  0.7818609E-02  0.8329694E-01
        2   -1    0    0  501    0  0.00000000000E+00  0.00000000000E+00  0.21808568668E+04  0.21808568668E+04  0.25500000920E-02 0.  1.
       -2   -1    0    0    0  501  0.00000000000E+00  0.00000000000E+00 -0.84588131420E+03  0.84588131421E+03  0.25500000920E-02 0. -1.
    10030    2    1    2    0    0  0.00000000000E+00  0.00000000000E+00  0.13349755526E+04  0.30267381810E+04  0.27164285911E+04 0.  0.
        1    1    3    3  502    0 -0.58267061765E+03 -0.94641635629E+03  0.15374024091E+04  0.18970543313E+04  0.50400001928E-02 0.  1.
       -1    1    3    3    0  502  0.58267061765E+03  0.94641635629E+03 -0.20242685652E+03  0.11296838498E+04  0.50400001928E-02 0. -1.
</event>
<event>
 5   0  0.7436613E-07  0.2694153E+04  0.7818609E-02  0.8336905E-01
        1   -1    0    0  501    0  0.00000000000E+00  0.00000000000E+00  0.24875643800E+04  0.24875643800E+04  0.50400001928E-02 0.  1.
       -1   -1    0    0    0  501  0.00000000000E+00  0.00000000000E+00 -0.72947443757E+03  0.72947443758E+03  0.50400001928E-02 0. -1.
    10030    2    1    2    0    0  0.00000000000E+00  0.00000000000E+00  0.17580899425E+04  0.32170388176E+04  0.26941526513E+04 0.  0.
        2    1    3    3  502    0 -0.97937793826E+03  0.82627926626E+03  0.13752661667E+04  0.18797009340E+04  0.25500000920E-02 0.  1.
       -2    1    3    3    0  502  0.97937793826E+03 -0.82627926626E+03  0.38282377575E+03  0.13373378837E+04  0.25500000920E-02 0. -1.
</event>
<event>
 5   0  0.1991277E-06  0.2693147E+04  0.7818609E-02  0.8337232E-01
       -2   -1    0    0    0  501  0.00000000000E+00  0.00000000000E+00  0.10061882937E+04  0.10061882937E+04  0.25500000920E-02 0.  1.
        2   -1    0    0  501    0  0.00000000000E+00  0.00000000000E+00 -0.18021086781E+04  0.18021086781E+04  0.25500000920E-02 0. -1.
    10030    2    1    2    0    0  0.00000000000E+00  0.00000000000E+00 -0.79592038432E+03  0.28082969718E+04  0.26931473453E+04 0.  0.
        5    1    3    3  502    0  0.73432718646E+03  0.55883602973E+03  0.62463495548E+03  0.11143271703E+04  0.46999998093E+01 0.  1.
       -5    1    3    3    0  502 -0.73432718646E+03 -0.55883602973E+03 -0.14205553398E+04  0.16939698015E+04  0.46999998093E+01 0. -1.
</event>
<event>
 5   0  0.7768032E-07  0.2700192E+04  0.7818609E-02  0.8334943E-01
        1   -1    0    0  501    0  0.00000000000E+00  0.00000000000E+00  0.16566392341E+04  0.16566392341E+04  0.50400001928E-02 0. -1.
       -1   -1    0    0    0  501  0.00000000000E+00  0.00000000000E+00 -0.11002749375E+04  0.11002749375E+04  0.50400001928E-02 0.  1.
    10030    2    1    2    0    0  0.00000000000E+00  0.00000000000E+00  0.55636429656E+03  0.27569141716E+04  0.27001915708E+04 0.  0.
        4    1    3    3  502    0  0.73553839127E+02  0.65815578669E+03  0.14794078337E+04  0.16208727150E+04  0.12699999809E+01 0. -1.
       -4    1    3    3    0  502 -0.73553839127E+02 -0.65815578669E+03 -0.92304353715E+03  0.11360414566E+04  0.12699999809E+01 0.  1.
</event>
<event>
 5   0  0.7566905E-07  0.2649602E+04  0.7818609E-02  0.8351545E-01
       -1   -1    0    0    0  501  0.00000000000E+00  0.00000000000E+00  0.99286894729E+03  0.99286894731E+03  0.50400001928E-02 0.  1.
        1   -1    0    0  501    0  0.00000000000E+00  0.00000000000E+00 -0.17677029119E+04  0.17677029119E+04  0.50400001928E-02 0. -1.
    10030    2    1    2    0    0  0.00000000000E+00  0.00000000000E+00 -0.77483396456E+03  0.27605718592E+04  0.26496017280E+04 0.  0.
        1    1    3    3  502    0  0.92503197387E+03  0.58860551580E+03  0.38733737902E+03  0.11628288142E+04  0.50400001928E-02 0.  1.
       -1    1    3    3    0  502 -0.92503197387E+03 -0.58860551580E+03 -0.11621713436E+04  0.15977430450E+04  0.50400001928E-02 0. -1.
</event>
<event>
 5   0  0.7566905E-07  0.2694924E+04  0.7818609E-02  0.8336654E-01
        1   -1    0    0  501    0  0.00000000000E+00  0.00000000000E+00  0.21466451992E+04  0.21466451992E+04  0.50400001928E-02 0.  1.
       -1   -1    0    0    0  501  0.00000000000E+00  0.00000000000E+00 -0.84581009746E+03  0.84581009748E+03  0.50400001928E-02 0. -1.
    10030    2    1    2    0    0  0.00000000000E+00  0.00000000000E+00  0.13008351018E+04  0.29924552967E+04  0.26949242551E+04 0.  0.
        1    1    3    3  502    0 -0.23872612702E+03  0.12804147514E+04  0.26704321578E+03  0.13295729308E+04  0.50400001928E-02 0. -1.
       -1    1    3    3    0  502  0.23872612702E+03 -0.12804147514E+04  0.10337918860E+04  0.16628823659E+04  0.50400001928E-02 0.  1.
</event>
<event>
 5   0  0.7436613E-07  0.2700007E+04  0.7818609E-02  0.8335003E-01
        1   -1    0    0  501    0  0.00000000000E+00  0.00000000000E+00  0.14413075678E+04  0.14413075678E+04  0.50400001928E-02 0.  1.
       -1   -1    0    0    0  501  0.00000000000E+00  0.00000000000E+00 -0.12644830899E+04  0.12644830899E+04  0.50400001928E-02 0. -1.
    10030    2    1    2    0    0  0.00000000000E+00  0.00000000000E+00  0.17682447795E+03  0.27057906577E+04  0.27000067013E+04 0.  0.
        2    1    3    3  502    0 -0.36257589948E+03 -0.12657369018E+04  0.38730920913E+03  0.13724283628E+04  0.25500000920E-02 0.  1.
       -2    1    3    3    0  502  0.36257589948E+03  0.12657369018E+04 -0.21048473118E+03  0.13333622949E+04  0.25500000920E-02 0. -1.
</event>
<event>
 5   0  0.7335091E-07  0.2700266E+04  0.7818609E-02  0.8334919E-01
        1   -1    0    0  501    0  0.00000000000E+00  0.00000000000E+00  0.14496838992E+04  0.14496838992E+04  0.50400001928E-02 0. -1.
       -1   -1    0    0    0  501  0.00000000000E+00  0.00000000000E+00 -0.12574184678E+04  0.12574184678E+04  0.50400001928E-02 0.  1.
    10030    2    1    2    0    0  0.00000000000E+00  0.00000000000E+00  0.19226543142E+03  0.27071023670E+04  0.27002661405E+04 0.  0.
        3    1    3    3  502    0  0.67693349571E+03  0.28291754895E+03  0.12323943626E+04  0.14342514328E+04  0.10100000352E+00 0. -1.
       -3    1    3    3    0  502 -0.67693349571E+03 -0.28291754895E+03 -0.10401289312E+04  0.12728509343E+04  0.10100000352E+00 0.  1.
</event>
<event>
 5   0  0.2063087E-06  0.2700079E+04  0.7818609E-02  0.8334979E-01
        2   -1    0    0  501    0  0.00000000000E+00  0.00000000000E+00  0.22909394203E+04  0.22909394203E+04  0.25500000920E-02 0.  1.
       -2   -1    0    0    0  501  0.00000000000E+00  0.00000000000E+00 -0.79557161281E+03  0.79557161281E+03  0.25500000920E-02 0. -1.
    10030    2    1    2    0    0  0.00000000000E+00  0.00000000000E+00  0.14953678075E+04  0.30865110332E+04  0.27000787911E+04 0.  0.
        3    1    3    3  502    0 -0.49905657415E+03  0.12448113295E+04  0.92475168563E+03  0.16290421727E+04  0.10100000352E+00 0. -1.
       -3    1    3    3    0  502  0.49905657415E+03 -0.12448113295E+04  0.57061612190E+03  0.14574688604E+04  0.10100000352E+00 0.  1.
</event>
<event>
 5   0  0.7335091E-07  0.2697739E+04  0.7818609E-02  0.8335739E-01
        1   -1    0    0  501    0  0.00000000000E+00  0.00000000000E+00  0.96215809868E+03  0.96215809870E+03  0.50400001928E-02 0. -1.
       -1   -1    0    0    0  501  0.00000000000E+00  0.00000000000E+00 -0.18910087009E+04  0.18910087009E+04  0.50400001928E-02 0.  1.
    10030    2    1    2    0    0  0.00000000000E+00  0.00000000000E+00 -0.92885060222E+03  0.28531667996E+04  0.26977393027E+04 0.  0.
        3    1    3    3  502    0  0.50649905348E+03 -0.97338081455E+03  0.36527123106E+03  0.11564750684E+04  0.10100000352E+00 0. -1.
       -3    1    3    3    0  502 -0.50649905348E+03  0.97338081455E+03 -0.12941218333E+04  0.16966917312E+04  0.10100000352E+00 0.  1.
</event>
<event>
 5   0  0.1999104E-06  0.2698675E+04  0.7818609E-02  0.8335435E-01
       -2   -1    0    0    0  501  0.00000000000E+00  0.00000000000E+00  0.21408114452E+04  0.21408114453E+04  0.25500000920E-02 0.  1.
        2   -1    0    0  501    0  0.00000000000E+00  0.00000000000E+00 -0.85047719531E+03  0.85047719531E+03  0.25500000920E-02 0. -1.
    10030    2    1    2    0    0  0.00000000000E+00  0.00000000000E+00  0.12903342499E+04  0.29912886406E+04  0.26986747219E+04 0.  0.
        4    1    3    3  502    0  0.78636485312E+03 -0.10959051628E+04  0.68561934756E+03  0.15130939531E+04  0.12699999809E+01 0. -1.
       -4    1    3    3    0  502 -0.78636485312E+03  0.10959051628E+04  0.60471490238E+03  0.14781946875E+04  0.12699999809E+01 0.  1.
</event>
<event>
 5   0  0.2063087E-06  0.2651642E+04  0.7818609E-02  0.8350868E-01
       -2   -1    0    0    0  501  0.00000000000E+00  0.00000000000E+00  0.81749344472E+03  0.81749344472E+03  0.25500000920E-02 0. -1.
        2   -1    0    0  501    0  0.00000000000E+00  0.00000000000E+00 -0.21502329740E+04  0.21502329740E+04  0.25500000920E-02 0.  1.
    10030    2    1    2    0    0  0.00000000000E+00  0.00000000000E+00 -0.13327395293E+04  0.29677264188E+04  0.26516420278E+04 0.  0.
        3    1    3    3  502    0 -0.41312381237E+03 -0.12178523484E+04 -0.30549703902E+03  0.13218033431E+04  0.10100000352E+00 0. -1.
       -3    1    3    3    0  502  0.41312381237E+03  0.12178523484E+04 -0.10272424903E+04  0.16459230756E+04  0.10100000352E+00 0.  1.
</event>
<event>
 5   0  0.1932012E-06  0.2699101E+04  0.7818609E-02  0.8335297E-01
        2   -1    0    0  501    0  0.00000000000E+00  0.00000000000E+00  0.14173941490E+04  0.14173941490E+04  0.25500000920E-02 0. -1.
       -2   -1    0    0    0  501  0.00000000000E+00  0.00000000000E+00 -0.12849537752E+04  0.12849537752E+04  0.25500000920E-02 0.  1.
    10030    2    1    2    0    0  0.00000000000E+00  0.00000000000E+00  0.13244037388E+03  0.27023479242E+04  0.26991005633E+04 0.  0.
        2    1    3    3  502    0 -0.11230576781E+04  0.73987586627E+03 -0.46214152423E+02  0.13456636258E+04  0.25500000920E-02 0. -1.
       -2    1    3    3    0  502  0.11230576781E+04 -0.73987586627E+03  0.17865452630E+03  0.13566842984E+04  0.25500000920E-02 0.  1.
</event>
<event>
 5   0  0.7806808E-07  0.2699183E+04  0.7818609E-02  0.8335270E-01
       -1   -1    0    0    0  501  0.00000000000E+00  0.00000000000E+00  0.19226213224E+04  0.19226213224E+04  0.50400001928E-02 0.  1.
        1   -1    0    0  501    0  0.00000000000E+00  0.00000000000E+00 -0.94735071998E+03  0.94735071999E+03  0.50400001928E-02 0. -1.
    10030    2    1    2    0    0  0.00000000000E+00  0.00000000000E+00  0.97527060243E+03  0.28699720424E+04  0.26991826126E+04 0.  0.
        5    1    3    3  502    0 -0.83509902553E+03 -0.15071286657E+03  0.16034505030E+04  0.18141610612E+04  0.46999998093E+01 0.  1.
       -5    1    3    3    0  502  0.83509902553E+03  0.15071286657E+03 -0.62817990053E+03  0.10558109812E+04  0.46999998093E+01 0. -1.
</event>
<event>
 5   0  0.7566905E-07  0.2735113E+04  0.7818609E-02  0.8323701E-01
       -1   -1    0    0    0  501  0.00000000000E+00  0.00000000000E+00  0.94552470437E+03  0.94552470438E+03  0.50400001928E-02 0.  1.
        1   -1    0    0  501    0  0.00000000000E+00  0.00000000000E+00 -0.19779604508E+04  0.19779604508E+04  0.50400001928E-02 0. -1.
    10030    2    1    2    0    0  0.00000000000E+00  0.00000000000E+00 -0.10324357464E+04  0.29234851552E+04  0.27351127732E+04 0.  0.
        1    1    3    3  502    0  0.66909978586E+03  0.56969861496E+03 -0.16362198850E+04  0.18572739560E+04  0.50400001928E-02 0. -1.
       -1    1    3    3    0  502 -0.66909978586E+03 -0.56969861496E+03  0.60378413859E+03  0.10662111992E+04  0.50400001928E-02 0.  1.
</event>
<event>
 5   0  0.1999104E-06  0.2698319E+04  0.7818609E-02  0.8335551E-01
       -2   -1    0    0    0  501  0.00000000000E+00  0.00000000000E+00  0.11470171968E+04  0.11470171968E+04  0.25500000920E-02 0.  1.
        2   -1    0    0  501    0  0.00000000000E+00  0.00000000000E+00 -0.15869257452E+04  0.15869257452E+04  0.25500000920E-02 0. -1.
    10030    2    1    2    0    0  0.00000000000E+00  0.00000000000E+00 -0.43990854849E+03  0.27339429420E+04  0.26983188246E+04 0.  0.
        4    1    3    3  502    0  0.25094136419E+03 -0.53005910110E+03  0.10111158732E+04  0.11688845712E+04  0.12699999809E+01 0.  1.
       -4    1    3    3    0  502 -0.25094136419E+03  0.53005910110E+03 -0.14510244217E+04  0.15650583708E+04  0.12699999809E+01 0. -1.
</event>
<event>
 5   0  0.1999104E-06  0.2699079E+04  0.7818609E-02  0.8335304E-01
        2   -1    0    0  501    0  0.00000000000E+00  0.00000000000E+00  0.26528654329E+04  0.26528654329E+04  0.25500000920E-02 0.  1.
       -2   -1    0    0    0  501  0.00000000000E+00  0.00000000000E+00 -0.68652447862E+03  0.68652447863E+03  0.25500000920E-02 0. -1.
    10030    2    1    2    0    0  0.00000000000E+00  0.00000000000E+00  0.19663409542E+04  0.33393899115E+04  0.26990791453E+04 0.  0.
        4    1    3    3  502    0 -0.36623247754E+03  0.20387336445E+03  0.25702877374E+04  0.26042410108E+04  0.12699999809E+01 0.  1.
       -4    1    3    3    0  502  0.36623247754E+03 -0.20387336445E+03 -0.60394678319E+03  0.73514890068E+03  0.12699999809E+01 0. -1.
</event>
<event>
 5   0  0.7436613E-07  0.2701534E+04  0.7818609E-02  0.8334508E-01
        1   -1    0    0  501    0  0.00000000000E+00  0.00000000000E+00  0.18053261684E+04  0.18053261684E+04  0.50400001928E-02 0. -1.
       -1   -1    0    0    0  501  0.00000000000E+00  0.00000000000E+00 -0.10106600376E+04  0.10106600376E+04  0.50400001928E-02 0.  1.
    10030    2    1    2    0    0  0.00000000000E+00  0.00000000000E+00  0.79466613088E+03  0.28159862060E+04  0.27015336483E+04 0.  0.
        2    1    3    3  502    0 -0.12646670592E+04  0.25895894988E+03 -0.17167592479E+02  0.12910217793E+04  0.25500000920E-02 0.  1.
       -2    1    3    3    0  502  0.12646670592E+04 -0.25895894988E+03  0.81183372336E+03  0.15249644267E+04  0.25500000920E-02 0. -1.
</event>
<event>
 5   0  0.2063087E-06  0.2705301E+04  0.7818609E-02  0.8333287E-01
        2   -1    0    0  501    0  0.00000000000E+00  0.00000000000E+00  0.12082627651E+04  0.12082627651E+04  0.25500000920E-02 0. -1.
       -2   -1    0    0    0  501  0.00000000000E+00  0.00000000000E+00 -0.15142931042E+04  0.15142931042E+04  0.25500000920E-02 0.  1.
    10030    2    1    2    0    0  0.00000000000E+00  0.00000000000E+00 -0.30603033910E+03  0.27225558693E+04  0.27053014421E+04 0.  0.
        3    1    3    3  502    0  0.48903505798E+02  0.78939055698E+03 -0.12573447852E+04  0.14854106919E+04  0.10100000352E+00 0.  1.
       -3    1    3    3    0  502 -0.48903505798E+02 -0.78939055698E+03  0.95131444614E+03  0.12371451774E+04  0.10100000352E+00 0. -1.
</event>
<event>
 5   0  0.1999104E-06  0.2703592E+04  0.7818609E-02  0.8333840E-01
        2   -1    0    0  501    0  0.00000000000E+00  0.00000000000E+00  0.15142485877E+04  0.15142485877E+04  0.25500000920E-02 0.  1.
       -2   -1    0    0    0  501  0.00000000000E+00  0.00000000000E+00 -0.12067715954E+04  0.12067715954E+04  0.25500000920E-02 0. -1.
    10030    2    1    2    0    0  0.00000000000E+00  0.00000000000E+00  0.30747699224E+03  0.27210201831E+04  0.27035918213E+04 0.  0.
        4    1    3    3  502    0 -0.92116428085E+03  0.55518859692E+03 -0.67042529145E+03  0.12673790651E+04  0.12699999809E+01 0. -1.
       -4    1    3    3    0  502  0.92116428085E+03 -0.55518859692E+03  0.97790228369E+03  0.14536411180E+04  0.12699999809E+01 0.  1.
</event>
<event>
 5   0  0.7806808E-07  0.2704495E+04  0.7818609E-02  0.8333548E-01
       -1   -1    0    0    0  501  0.00000000000E+00  0.00000000000E+00  0.17975790901E+04  0.17975790901E+04  0.50400001928E-02 0.  1.
        1   -1    0    0  501    0  0.00000000000E+00  0.00000000000E+00 -0.10172425141E+04  0.10172425141E+04  0.50400001928E-02 0. -1.
    10030    2    1    2    0    0  0.00000000000E+00  0.00000000000E+00  0.78033657595E+03  0.28148216042E+04  0.27044954228E+04 0.  0.
        5    1    3    3  502    0  0.22995167157E+03 -0.63665284534E+03  0.16085403391E+04  0.17451729797E+04  0.46999998093E+01 0.  1.
       -5    1    3    3    0  502 -0.22995167157E+03  0.63665284534E+03 -0.82820376310E+03  0.10696486245E+04  0.46999998093E+01 0. -1.
</event>
<event>
 5   0  0.7436613E-07  0.2657058E+04  0.7818609E-02  0.8349074E-01
        1   -1    0    0  501    0  0.00000000000E+00  0.00000000000E+00  0.66968748840E+03  0.66968748842E+03  0.50400001928E-02 0.  1.
       -1   -1    0    0    0  501  0.00000000000E+00  0.00000000000E+00 -0.26355410465E+04  0.26355410465E+04  0.50400001928E-02 0. -1.
    10030    2    1    2    0    0  0.00000000000E+00  0.00000000000E+00 -0.19658535581E+04  0.33052285350E+04  0.26570576690E+04 0.  0.
        2    1    3    3  502    0  0.79513885603E+03 -0.82627665073E+03 -0.18173984087E+04  0.21489336611E+04  0.25500000920E-02 0. -1.
       -2    1    3    3    0  502 -0.79513885603E+03  0.82627665073E+03 -0.14845514945E+03  0.11562948739E+04  0.25500000920E-02 0.  1.
</event>
<event>
 5   0  0.1999104E-06  0.2697998E+04  0.7818609E-02  0.8335655E-01
        2   -1    0    0  501    0  0.00000000000E+00  0.00000000000E+00  0.16013353558E+04  0.16013353558E+04  0.25500000920E-02 0. -1.
       -2   -1    0    0    0  501  0.00000000000E+00  0.00000000000E+00 -0.11364252443E+04  0.11364252443E+04  0.25500000920E-02 0.  1.
    10030    2    1    2    0    0  0.00000000000E+00  0.00000000000E+00  0.46491011149E+03  0.27377606001E+04  0.26979977190E+04 0.  0.
        4    1    3    3  502    0  0.95855892771E+03  0.29063246300E+02  0.11951822356E+04  0.15323648650E+04  0.12699999809E+01 0. -1.
       -4    1    3    3    0  502 -0.95855892771E+03 -0.29063246300E+02 -0.73027212412E+03  0.12053957352E+04  0.12699999809E+01 0.  1.
</event>
<event>
 5   0  0.2063087E-06  0.2697788E+04  0.7818609E-02  0.8335723E-01
        2   -1    0    0  501    0  0.00000000000E+00  0.00000000000E+00  0.13596810555E+04  0.13596810555E+04  0.25500000920E-02 0. -1.
       -2   -1    0    0    0  501  0.00000000000E+00  0.00000000000E+00 -0.13381923130E+04  0.13381923130E+04  0.25500000920E-02 0.  1.
    10030    2    1    2    0    0  0.00000000000E+00  0.00000000000E+00  0.21488742537E+02  0.26978733685E+04  0.26977877875E+04 0.  0.
        3    1    3    3  502    0  0.91357690982E+01  0.10163623663E+04  0.89758635329E+03  0.13560004402E+04  0.10100000352E+00 0. -1.
       -3    1    3    3    0  502 -0.91357690982E+01 -0.10163623663E+04 -0.87609761075E+03  0.13418729283E+04  0.10100000352E+00 0.  1.
</event>
<event>
 5   0  0.6561875E-07  0.2696779E+04  0.7818609E-02  0.8336051E-01
        3   -1    0    0  501    0  0.00000000000E+00  0.00000000000E+00  0.12054638491E+04  0.12054638533E+04  0.10100000352E+00 0.  1.
       -3   -1    0    0    0  501  0.00000000000E+00  0.00000000000E+00 -0.15082612607E+04  0.15082612641E+04  0.10100000352E+00 0. -1.
    10030    2    1    2    0    0  0.00000000000E+00  0.00000000000E+00 -0.30279741165E+03  0.27137251175E+04  0.26967791420E+04 0.  0.
        5    1    3    3  502    0  0.92860185609E+03  0.88772299831E+03 -0.56358071977E+03  0.14028538222E+04  0.46999998093E+01 0. -1.
       -5    1    3    3    0  502 -0.92860185609E+03 -0.88772299831E+03  0.26078330812E+03  0.13108712952E+04  0.46999998093E+01 0.  1.
</event>
<event>
 5   0  0.1932012E-06  0.2686055E+04  0.7818609E-02  0.8339544E-01
        2   -1    0    0  501    0  0.00000000000E+00  0.00000000000E+00  0.22606473525E+04  0.22606473525E+04  0.25500000920E-02 0.  1.
       -2   -1    0    0    0  501  0.00000000000E+00  0.00000000000E+00 -0.79787879188E+03  0.79787879188E+03  0.25500000920E-02 0. -1.
    10030    2    1    2    0    0  0.00000000000E+00  0.00000000000E+00  0.14627685606E+04  0.30585261444E+04  0.26860547861E+04 0.  0.
        2    1    3    3  502    0 -0.56556869995E+03  0.19922701949E+03  0.20997603501E+04  0.21837016480E+04  0.25500000920E-02 0.  1.
       -2    1    3    3    0  502  0.56556869995E+03 -0.19922701949E+03 -0.63699178945E+03  0.87482449640E+03  0.25500000920E-02 0. -1.
</event>
<event>
 5   0  0.1999104E-06  0.2695974E+04  0.7818609E-02  0.8336313E-01
       -2   -1    0    0    0  501  0.00000000000E+00  0.00000000000E+00  0.82162864592E+03  0.82162864593E+03  0.25500000920E-02 0. -1.
        2   -1    0    0  501    0  0.00000000000E+00  0.00000000000E+00 -0.22115448112E+04  0.22115448112E+04  0.25500000920E-02 0.  1.
    10030    2    1    2    0    0  0.00000000000E+00  0.00000000000E+00 -0.13899161653E+04  0.30331734572E+04  0.26959737155E+04 0.  0.
        4    1    3    3  502    0 -0.35516412885E+03 -0.24209318831E+02  0.76778663484E+03  0.84630111608E+03  0.12699999809E+01 0. -1.
       -4    1    3    3    0  502  0.35516412885E+03  0.24209318831E+02 -0.21577028002E+04  0.21868723411E+04  0.12699999809E+01 0.  1.
</event>
<event>
 5   0  0.7566905E-07  0.2698229E+04  0.7818609E-02  0.8335580E-01
        1   -1    0    0  501    0  0.00000000000E+00  0.00000000000E+00  0.18713572885E+04  0.18713572885E+04  0.50400001928E-02 0. -1.
       -1   -1    0    0    0  501  0.00000000000E+00  0.00000000000E+00 -0.97261464137E+03  0.97261464138E+03  0.50400001928E-02 0.  1.
    10030    2    1    2    0    0  0.00000000000E+00  0.00000000000E+00  0.89874264715E+03  0.28439719299E+04  0.26982286768E+04 0.  0.
        1    1    3    3  502    0  0.82216095649E+03 -0.48249711744E+02 -0.67691241513E+03  0.10660614855E+04  0.50400001928E-02 0.  1.
       -1    1    3    3    0  502 -0.82216095649E+03  0.48249711744E+02  0.15756550623E+04  0.17779104444E+04  0.50400001928E-02 0. -1.
</event>
<event>
 5   0  0.1932012E-06  0.2696087E+04  0.7818609E-02  0.8336276E-01
        2   -1    0    0  501    0  0.00000000000E+00  0.00000000000E+00  0.14336507352E+04  0.14336507352E+04  0.25500000920E-02 0.  1.
       -2   -1    0    0    0  501  0.00000000000E+00  0.00000000000E+00 -0.12675483292E+04  0.12675483292E+04  0.25500000920E-02 0. -1.
    10030    2    1    2    0    0  0.00000000000E+00  0.00000000000E+00  0.16610240602E+03  0.27011990644E+04  0.26960872345E+04 0.  0.
        2    1    3    3  502    0 -0.65519325077E+02  0.10171514762E+04 -0.80085260746E+03  0.12962464297E+04  0.25500000920E-02 0. -1.
       -2    1    3    3    0  502  0.65519325077E+02 -0.10171514762E+04  0.96695501348E+03  0.14049526347E+04  0.25500000920E-02 0.  1.
</event>
<event>
 5   0  0.7806808E-07  0.2699741E+04  0.7818609E-02  0.8335089E-01
       -1   -1    0    0    0  501  0.00000000000E+00  0.00000000000E+00  0.11096539503E+04  0.11096539503E+04  0.50400001928E-02 0.  1.
        1   -1    0    0  501    0  0.00000000000E+00  0.00000000000E+00 -0.16420887992E+04  0.16420887992E+04  0.50400001928E-02 0. -1.
    10030    2    1    2    0    0  0.00000000000E+00  0.00000000000E+00 -0.53243484895E+03  0.27517427495E+04  0.26997409674E+04 0.  0.
        5    1    3    3  502    0  0.92068293727E+03 -0.50493661150E+03  0.59836062577E+03  0.12085841225E+04  0.46999998093E+01 0.  1.
       -5    1    3    3    0  502 -0.92068293727E+03  0.50493661150E+03 -0.11307954747E+04  0.15431586271E+04  0.46999998093E+01 0. -1.
</event>
<event>
 5   0  0.7335091E-07  0.2691894E+04  0.7818609E-02  0.8337640E-01
        1   -1    0    0  501    0  0.00000000000E+00  0.00000000000E+00  0.15164523295E+04  0.15164523295E+04  0.50400001928E-02 0.  1.
       -1   -1    0    0    0  501  0.00000000000E+00  0.00000000000E+00 -0.11946125558E+04  0.11946125558E+04  0.50400001928E-02 0. -1.
    10030    2    1    2    0    0  0.00000000000E+00  0.00000000000E+00  0.32183977371E+03  0.27110648852E+04  0.26918937520E+04 0.  0.
        3    1    3    3  502    0 -0.40526812837E+03  0.36768342798E+03 -0.10775285926E+04  0.12085119930E+04  0.10100000352E+00 0. -1.
       -3    1    3    3    0  502  0.40526812837E+03 -0.36768342798E+03  0.13993683663E+04  0.15025528922E+04  0.10100000352E+00 0.  1.
</event>
<event>
 5   0  0.6561875E-07  0.2701484E+04  0.7818609E-02  0.8334524E-01
        4   -1    0    0  501    0  0.00000000000E+00  0.00000000000E+00  0.10932966948E+04  0.10932974324E+04  0.12699999809E+01 0.  1.
       -4   -1    0    0    0  501  0.00000000000E+00  0.00000000000E+00 -0.16688084237E+04  0.16688089069E+04  0.12699999809E+01 0. -1.
    10030    2    1    2    0    0  0.00000000000E+00  0.00000000000E+00 -0.57551172890E+03  0.27621063393E+04  0.27014843475E+04 0.  0.
        2    1    3    3  502    0  0.59318737243E+03  0.12068521797E+04 -0.41765398125E+03  0.14081187061E+04  0.25500000920E-02 0.  1.
       -2    1    3    3    0  502 -0.59318737243E+03 -0.12068521797E+04 -0.15785774765E+03  0.13539876332E+04  0.25500000920E-02 0. -1.
</event>
<event>
 5   0  0.7806808E-07  0.2700382E+04  0.7818609E-02  0.8334881E-01
        1   -1    0    0  501    0  0.00000000000E+00  0.00000000000E+00  0.15039121627E+04  0.15039121627E+04  0.50400001928E-02 0.  1.
       -1   -1    0    0    0  501  0.00000000000E+00  0.00000000000E+00 -0.12121824576E+04  0.12121824576E+04  0.50400001928E-02 0. -1.
    10030    2    1    2    0    0  0.00000000000E+00  0.00000000000E+00  0.29172970511E+03  0.27160946204E+04  0.27003821518E+04 0.  0.
        5    1    3    3  502    0 -0.26888167343E+03 -0.84458782966E+03 -0.87857406380E+03  0.12480145960E+04  0.46999998093E+01 0. -1.
       -5    1    3    3    0  502  0.26888167343E+03  0.84458782966E+03  0.11703037689E+04  0.14680800243E+04  0.46999998093E+01 0.  1.
</event>
<event>
 5   0  0.2063087E-06  0.2727590E+04  0.7818609E-02  0.8326108E-01
        2   -1    0    0  501    0  0.00000000000E+00  0.00000000000E+00  0.27214194814E+04  0.27214194814E+04  0.25500000920E-02 0.  1.
       -2   -1    0    0    0  501  0.00000000000E+00  0.00000000000E+00 -0.68344368735E+03  0.68344368735E+03  0.25500000920E-02 0. -1.
    10030    2    1    2    0    0  0.00000000000E+00  0.00000000000E+00  0.20379757941E+04  0.34048631688E+04  0.27275901197E+04 0.  0.
        3    1    3    3  502    0 -0.11177652050E+04  0.39931761191E+03  0.18573834224E+04  0.22042519812E+04  0.10100000352E+00 0.  1.
       -3    1    3    3    0  502  0.11177652050E+04 -0.39931761191E+03  0.18059237170E+03  0.12006111876E+04  0.10100000352E+00 0. -1.
</event>
<event>
 5   0  0.7566905E-07  0.2698748E+04  0.7818609E-02  0.8335411E-01
       -1   -1    0    0    0  501  0.00000000000E+00  0.00000000000E+00  0.12919792185E+04  0.12919792185E+04  0.50400001928E-02 0. -1.
        1   -1    0    0  501    0  0.00000000000E+00  0.00000000000E+00 -0.14093187806E+04  0.14093187806E+04  0.50400001928E-02 0.  1.
    10030    2    1    2    0    0  0.00000000000E+00  0.00000000000E+00 -0.11733956208E+03  0.27012979991E+04  0.26987482852E+04 0.  0.
        1    1    3    3  502    0 -0.38884850481E+02 -0.13390950032E+04  0.10310939541E+03  0.13436216010E+04  0.50400001928E-02 0.  1.
       -1    1    3    3    0  502  0.38884850481E+02  0.13390950032E+04 -0.22044895750E+03  0.13576763981E+04  0.50400001928E-02 0. -1.
</event>
<event>
 5   0  0.7806808E-07  0.2701177E+04  0.7818609E-02  0.8334623E-01
       -1   -1    0    0    0  501  0.00000000000E+00  0.00000000000E+00  0.11125081331E+04  0.11125081331E+04  0.50400001928E-02 0. -1.
        1   -1    0    0  501    0  0.00000000000E+00  0.00000000000E+00 -0.16396182821E+04  0.16396182821E+04  0.50400001928E-02 0.  1.
    10030    2    1    2    0    0  0.00000000000E+00  0.00000000000E+00 -0.52711014900E+03  0.27521264152E+04  0.27011765392E+04 0.  0.
        5    1    3    3  502    0  0.10485928768E+04  0.47491724810E+03 -0.98325922427E+03  0.15139069344E+04  0.46999998093E+01 0.  1.
       -5    1    3    3    0  502 -0.10485928768E+04 -0.47491724810E+03  0.45614907527E+03  0.12382194808E+04  0.46999998093E+01 0. -1.
</event>
<event>
 5   0  0.2063087E-06  0.2714417E+04  0.7818609E-02  0.8330342E-01
       -2   -1    0    0    0  501  0.00000000000E+00  0.00000000000E+00  0.15385133624E+04  0.15385133624E+04  0.25500000920E-02 0. -1.
        2   -1    0    0  501    0  0.00000000000E+00  0.00000000000E+00 -0.11972693865E+04  0.11972693865E+04  0.25500000920E-02 0.  1.
    10030    2    1    2    0    0  0.00000000000E+00  0.00000000000E+00  0.34124397586E+03  0.27357827489E+04  0.27144170273E+04 0.  0.
        3    1    3    3  502    0  0.75854727801E+03 -0.10400845908E+04 -0.26269817898E+03  0.13138417988E+04  0.10100000352E+00 0.  1.
       -3    1    3    3    0  502 -0.75854727801E+03  0.10400845908E+04  0.60394215483E+03  0.14219409501E+04  0.10100000352E+00 0. -1.
</event>
<event>
 5   0  0.1991277E-06  0.2705735E+04  0.7818609E-02  0.8333146E-01
       -2   -1    0    0    0  501  0.00000000000E+00  0.00000000000E+00  0.19059115035E+04  0.19059115035E+04  0.25500000920E-02 0.  1.
        2   -1    0    0  501    0  0.00000000000E+00  0.00000000000E+00 -0.96030226205E+03  0.96030226206E+03  0.25500000920E-02 0. -1.
    10030    2    1    2    0    0  0.00000000000E+00  0.00000000000E+00  0.94560924148E+03  0.28662137656E+04  0.27057354846E+04 0.  0.
        5    1    3    3  502    0 -0.12272942405E+04  0.25061959216E+03  0.10141606485E+04  0.16117087962E+04  0.46999998093E+01 0.  1.
       -5    1    3    3    0  502  0.12272942405E+04 -0.25061959216E+03 -0.68551407046E+02  0.12545049694E+04  0.46999998093E+01 0. -1.
</event>
<event>
 5   0  0.1991277E-06  0.2695933E+04  0.7818609E-02  0.8336326E-01
       -2   -1    0    0    0  501  0.00000000000E+00  0.00000000000E+00  0.97212398252E+03  0.97212398253E+03  0.25500000920E-02 0.  1.
        2   -1    0    0  501    0  0.00000000000E+00  0.00000000000E+00 -0.18691176057E+04  0.18691176057E+04  0.25500000920E-02 0. -1.
    10030    2    1    2    0    0  0.00000000000E+00  0.00000000000E+00 -0.89699362322E+03  0.28412415883E+04  0.26959332712E+04 0.  0.
        5    1    3    3  502    0 -0.31852971995E+03 -0.13017049092E+04 -0.29542687685E+03  0.13722958801E+04  0.46999998093E+01 0.  1.
       -5    1    3    3    0  502  0.31852971995E+03  0.13017049092E+04 -0.60156674636E+03  0.14689457081E+04  0.46999998093E+01 0. -1.
</event>
<event>
 5   0  0.7768032E-07  0.2707761E+04  0.7818609E-02  0.8332491E-01
        1   -1    0    0  501    0  0.00000000000E+00  0.00000000000E+00  0.11133439601E+04  0.11133439601E+04  0.50400001928E-02 0. -1.
       -1   -1    0    0    0  501  0.00000000000E+00  0.00000000000E+00 -0.16463851346E+04  0.16463851346E+04  0.50400001928E-02 0.  1.
    10030    2    1    2    0    0  0.00000000000E+00  0.00000000000E+00 -0.53304117447E+03  0.27597290948E+04  0.27077613969E+04 0.  0.
        4    1    3    3  502    0  0.70167457365E+03 -0.91589559714E+03 -0.98847947183E+03  0.15193107751E+04  0.12699999809E+01 0.  1.
       -4    1    3    3    0  502 -0.70167457365E+03  0.91589559714E+03  0.45543829737E+03  0.12404183197E+04  0.12699999809E+01 0. -1.
</event>
<event>
 5   0  0.6561875E-07  0.2694359E+04  0.7818609E-02  0.8336837E-01
        3   -1    0    0  501    0  0.00000000000E+00  0.00000000000E+00  0.20377349312E+04  0.20377349337E+04  0.10100000352E+00 0. -1.
       -3   -1    0    0    0  501  0.00000000000E+00  0.00000000000E+00 -0.89064234528E+03  0.89064235101E+03  0.10100000352E+00 0.  1.
    10030    2    1    2    0    0  0.00000000000E+00  0.00000000000E+00  0.11470925859E+04  0.29283772847E+04  0.26943593155E+04 0.  0.
        4    1    3    3  502    0 -0.57467948571E+03 -0.69374621895E+03  0.16622206177E+04  0.18906399241E+04  0.12699999809E+01 0. -1.
       -4    1    3    3    0  502  0.57467948571E+03  0.69374621895E+03 -0.51512803180E+03  0.10377373606E+04  0.12699999809E+01 0.  1.
</event>
<event>
 5   0  0.7768032E-07  0.2689022E+04  0.7818609E-02  0.8338576E-01
        1   -1    0    0  501    0  0.00000000000E+00  0.00000000000E+00  0.15523864976E+04  0.15523864976E+04  0.50400001928E-02 0. -1.
       -1   -1    0    0    0  501  0.00000000000E+00  0.00000000000E+00 -0.11644714129E+04  0.11644714129E+04  0.50400001928E-02 0.  1.
    10030    2    1    2    0    0  0.00000000000E+00  0.00000000000E+00  0.38791508473E+03  0.27168579105E+04  0.26890219026E+04 0.  0.
        4    1    3    3  502    0  0.12031516907E+04  0.36702244025E+03  0.67366571224E+03  0.14269220607E+04  0.12699999809E+01 0. -1.
       -4    1    3    3    0  502 -0.12031516907E+04 -0.36702244025E+03 -0.28575062751E+03  0.12899358498E+04  0.12699999809E+01 0.  1.
</event>
<event>
 5   0  0.7335091E-07  0.2714868E+04  0.7818609E-02  0.8330197E-01
       -1   -1    0    0    0  501  0.00000000000E+00  0.00000000000E+00  0.11611395827E+04  0.11611395827E+04  0.50400001928E-02 0.  1.
        1   -1    0    0  501    0  0.00000000000E+00  0.00000000000E+00 -0.15869129267E+04  0.15869129267E+04  0.50400001928E-02 0. -1.
    10030    2    1    2    0    0  0.00000000000E+00  0.00000000000E+00 -0.42577334399E+03  0.27480525095E+04  0.27148682573E+04 0.  0.
        3    1    3    3  502    0  0.78511880727E+03  0.77449344572E+03 -0.10139995997E+04  0.14981478023E+04  0.10100000352E+00 0. -1.
       -3    1    3    3    0  502 -0.78511880727E+03 -0.77449344572E+03  0.58822625573E+03  0.12499047072E+04  0.10100000352E+00 0.  1.
</event>
<event>
 5   0  0.7566905E-07  0.2698478E+04  0.7818609E-02  0.8335499E-01
       -1   -1    0    0    0  501  0.00000000000E+00  0.00000000000E+00  0.66659984585E+03  0.66659984587E+03  0.50400001928E-02 0.  1.
        1   -1    0    0  501    0  0.00000000000E+00  0.00000000000E+00 -0.27309422946E+04  0.27309422946E+04  0.50400001928E-02 0. -1.
    10030    2    1    2    0    0  0.00000000000E+00  0.00000000000E+00 -0.20643424487E+04  0.33975421404E+04  0.26984778766E+04 0.  0.
        1    1    3    3  502    0  0.72729459653E+01  0.13375401336E+04 -0.80913932717E+03  0.15632571623E+04  0.50400001928E-02 0.  1.
       -1    1    3    3    0  502 -0.72729459653E+01 -0.13375401336E+04 -0.12552031215E+04  0.18342849781E+04  0.50400001928E-02 0. -1.
</event>
<event>
 5   0  0.1991277E-06  0.2696362E+04  0.7818609E-02  0.8336186E-01
        2   -1    0    0  501    0  0.00000000000E+00  0.00000000000E+00  0.24670148485E+04  0.24670148485E+04  0.25500000920E-02 0. -1.
       -2   -1    0    0    0  501  0.00000000000E+00  0.00000000000E+00 -0.73675772923E+03  0.73675772923E+03  0.25500000920E-02 0.  1.
    10030    2    1    2    0    0  0.00000000000E+00  0.00000000000E+00  0.17302571192E+04  0.32037725777E+04  0.26963621847E+04 0.  0.
        5    1    3    3  502    0  0.53000591771E+03 -0.14544986608E+03  0.23278532824E+04  0.23918580498E+04  0.46999998093E+01 0. -1.
       -5    1    3    3    0  502 -0.53000591771E+03  0.14544986608E+03 -0.59759616314E+03  0.81191452786E+03  0.46999998093E+01 0.  1.
</event>
<event>
 5   0  0.1991277E-06  0.2698948E+04  0.7818609E-02  0.8335347E-01
        2   -1    0    0  501    0  0.00000000000E+00  0.00000000000E+00  0.23824553853E+04  0.23824553853E+04  0.25500000920E-02 0. -1.
       -2   -1    0    0    0  501  0.00000000000E+00  0.00000000000E+00 -0.76437088102E+03  0.76437088103E+03  0.25500000920E-02 0.  1.
    10030    2    1    2    0    0  0.00000000000E+00  0.00000000000E+00  0.16180845043E+04  0.31468262663E+04  0.26989475889E+04 0.  0.
        5    1    3    3  502    0 -0.10554166415E+04  0.82769043026E+03  0.98230074511E+03  0.16625019036E+04  0.46999998093E+01 0. -1.
       -5    1    3    3    0  502  0.10554166415E+04 -0.82769043026E+03  0.63578375919E+03  0.14843243628E+04  0.46999998093E+01 0.  1.
</event>
<event>
 5   0  0.6561875E-07  0.2700842E+04  0.7818609E-02  0.8334732E-01
       -4   -1    0    0    0  501  0.00000000000E+00  0.00000000000E+00  0.13206556862E+04  0.13206562969E+04  0.12699999809E+01 0. -1.
        4   -1    0    0  501    0  0.00000000000E+00  0.00000000000E+00 -0.13808556724E+04  0.13808562564E+04  0.12699999809E+01 0.  1.
    10030    2    1    2    0    0  0.00000000000E+00  0.00000000000E+00 -0.60199986116E+02  0.27015125533E+04  0.27008417275E+04 0.  0.
        1    1    3    3  502    0 -0.57656780736E+03  0.11804515768E+04  0.28261186543E+03  0.13437878657E+04  0.50400001928E-02 0.  1.
       -1    1    3    3    0  502  0.57656780736E+03 -0.11804515768E+04 -0.34281185155E+03  0.13577246875E+04  0.50400001928E-02 0. -1.
</event>
<event>
 5   0  0.7566905E-07  0.2692805E+04  0.7818609E-02  0.8337343E-01
        1   -1    0    0  501    0  0.00000000000E+00  0.00000000000E+00  0.14307163620E+04  0.14307163620E+04  0.50400001928E-02 0. -1.
       -1   -1    0    0    0  501  0.00000000000E+00  0.00000000000E+00 -0.12670574363E+04  0.12670574363E+04  0.50400001928E-02 0.  1.
    10030    2    1    2    0    0  0.00000000000E+00  0.00000000000E+00  0.16365892576E+03  0.26977737983E+04  0.26928050844E+04 0.  0.
        1    1    3    3  502    0 -0.33149560492E+03 -0.87366373963E+03  0.10529591583E+04  0.14077999343E+04  0.50400001928E-02 0. -1.
       -1    1    3    3    0  502  0.33149560492E+03  0.87366373963E+03 -0.88930023255E+03  0.12899738639E+04  0.50400001928E-02 0.  1.
</event>
<event>
 5   0  0.2030645E-06  0.2685277E+04  0.7818609E-02  0.8339798E-01
        2   -1    0    0  501    0  0.00000000000E+00  0.00000000000E+00  0.12175891832E+04  0.12175891832E+04  0.25500000920E-02 0. -1.
       -2   -1    0    0    0  501  0.00000000000E+00  0.00000000000E+00 -0.14805311047E+04  0.14805311047E+04  0.25500000920E-02 0.  1.
    10030    2    1    2    0    0  0.00000000000E+00  0.00000000000E+00 -0.26294192151E+03  0.26981202879E+04  0.26852773849E+04 0.  0.
        1    1    3    3  502    0 -0.11707435468E+03 -0.11848034362E+03 -0.14701095446E+04  0.14795154847E+04  0.50400001928E-02 0.  1.
       -1    1    3    3    0  502  0.11707435468E+03  0.11848034362E+03  0.12071676231E+04  0.12186048033E+04  0.50400001928E-02 0. -1.
</event>
<event>
 5   0  0.2030645E-06  0.2717301E+04  0.7818609E-02  0.8329413E-01
        2   -1    0    0  501    0  0.00000000000E+00  0.00000000000E+00  0.18639820568E+04  0.18639820568E+04  0.25500000920E-02 0. -1.
       -2   -1    0    0    0  501  0.00000000000E+00  0.00000000000E+00 -0.99031592644E+03  0.99031592645E+03  0.25500000920E-02 0.  1.
    10030    2    1    2    0    0  0.00000000000E+00  0.00000000000E+00  0.87366613032E+03  0.28542979832E+04  0.27173009531E+04 0.  0.
        1    1    3    3  502    0  0.10106554966E+04 -0.56106710906E+03 -0.31310132099E+03  0.11976031358E+04  0.50400001928E-02 0.  1.
       -1    1    3    3    0  502 -0.10106554966E+04  0.56106710906E+03  0.11867674513E+04  0.16566948474E+04  0.50400001928E-02 0. -1.
</event>
<event>
 5   0  0.7335091E-07  0.2702941E+04  0.7818609E-02  0.8334051E-01
        1   -1    0    0  501    0  0.00000000000E+00  0.00000000000E+00  0.21226847234E+04  0.21226847234E+04  0.50400001928E-02 0.  1.
       -1   -1    0    0    0  501  0.00000000000E+00  0.00000000000E+00 -0.86045411971E+03  0.86045411972E+03  0.50400001928E-02 0. -1.
    10030    2    1    2    0    0  0.00000000000E+00  0.00000000000E+00  0.12622306037E+04  0.29831388431E+04  0.27029412240E+04 0.  0.
        3    1    3    3  502    0  0.10956667250E+04  0.17808591113E+02  0.15041058889E+04  0.18609506316E+04  0.10100000352E+00 0.  1.
       -3    1    3    3    0  502 -0.10956667250E+04 -0.17808591113E+02 -0.24187528520E+03  0.11221882115E+04  0.10100000352E+00 0. -1.
</event>
<event>
 5   0  0.1999104E-06  0.2670936E+04  0.7818609E-02  0.8344497E-01
       -2   -1    0    0    0  501  0.00000000000E+00  0.00000000000E+00  0.11737436716E+04  0.11737436716E+04  0.25500000920E-02 0.  1.
        2   -1    0    0  501    0  0.00000000000E+00  0.00000000000E+00 -0.15194754903E+04  0.15194754903E+04  0.25500000920E-02 0. -1.
    10030    2    1    2    0    0  0.00000000000E+00  0.00000000000E+00 -0.34573181873E+03  0.26932191619E+04  0.26709359714E+04 0.  0.
        4    1    3    3  502    0 -0.18977274150E+03  0.10079837110E+04 -0.10352368041E+04  0.14573131813E+04  0.12699999809E+01 0. -1.
       -4    1    3    3    0  502  0.18977274150E+03 -0.10079837110E+04  0.68950498538E+03  0.12359059806E+04  0.12699999809E+01 0.  1.
</event>
<event>
 5   0  0.7436613E-07  0.2704050E+04  0.7818609E-02  0.8333692E-01
       -1   -1    0    0    0  501  0.00000000000E+00  0.00000000000E+00  0.15808049277E+04  0.15808049277E+04  0.50400001928E-02 0.  1.
        1   -1    0    0  501    0  0.00000000000E+00  0.00000000000E+00 -0.11563552015E+04  0.11563552015E+04  0.50400001928E-02 0. -1.
    10030    2    1    2    0    0  0.00000000000E+00  0.00000000000E+00  0.42444972620E+03  0.27371601292E+04  0.27040502959E+04 0.  0.
        2    1    3    3  502    0  0.11679466665E+04  0.25494214670E+03 -0.42707554915E+03  0.12694441456E+04  0.25500000920E-02 0. -1.
       -2    1    3    3    0  502 -0.11679466665E+04 -0.25494214670E+03  0.85152527535E+03  0.14677159836E+04  0.25500000920E-02 0.  1.
</event>
<event>
 5   0  0.1932012E-06  0.2723340E+04  0.7818609E-02  0.8327472E-01
        2   -1    0    0  501    0  0.00000000000E+00  0.00000000000E+00  0.13168427799E+04  0.13168427799E+04  0.25500000920E-02 0.  1.
       -2   -1    0    0    0  501  0.00000000000E+00  0.00000000000E+00 -0.14080228932E+04  0.14080228932E+04  0.25500000920E-02 0. -1.
    10030    2    1    2    0    0  0.00000000000E+00  0.00000000000E+00 -0.91180113360E+02  0.27248656731E+04  0.27233397003E+04 0.  0.
        2    1    3    3  502    0  0.85884273783E+03  0.82470518363E+03  0.61538231914E+03  0.13403152192E+04  0.25500000920E-02 0.  1.
       -2    1    3    3    0  502 -0.85884273783E+03 -0.82470518363E+03 -0.70656243250E+03  0.13845504538E+04  0.25500000920E-02 0. -1.
</event>
<event>
 5   0  0.7566905E-07  0.2702925E+04  0.7818609E-02  0.8334056E-01
        1   -1    0    0  501    0  0.00000000000E+00  0.00000000000E+00  0.16467063711E+04  0.16467063711E+04  0.50400001928E-02 0.  1.
       -1   -1    0    0    0  501  0.00000000000E+00  0.00000000000E+00 -0.11091541469E+04  0.11091541469E+04  0.50400001928E-02 0. -1.
    10030    2    1    2    0    0  0.00000000000E+00  0.00000000000E+00  0.53755222422E+03  0.27558605181E+04  0.27029252304E+04 0.  0.
        1    1    3    3  502    0  0.33882606743E+03  0.47716043720E+03  0.15108149552E+04  0.16201996839E+04  0.50400001928E-02 0.  1.
       -1    1    3    3    0  502 -0.33882606743E+03 -0.47716043720E+03 -0.97326273096E+03  0.11356608342E+04  0.50400001928E-02 0. -1.
</event>
<event>
 5   0  0.1932012E-06  0.2700861E+04  0.7818609E-02  0.8334726E-01
       -2   -1    0    0    0  501  0.00000000000E+00  0.00000000000E+00  0.63923669371E+03  0.63923669372E+03  0.25500000920E-02 0. -1.
        2   -1    0    0  501    0  0.00000000000E+00  0.00000000000E+00 -0.28528755174E+04  0.28528755174E+04  0.25500000920E-02 0.  1.
    10030    2    1    2    0    0  0.00000000000E+00  0.00000000000E+00 -0.22136388237E+04  0.34921122111E+04  0.27008611318E+04 0.  0.
        2    1    3    3  502    0 -0.96462931227E+03 -0.94504502664E+03 -0.10983506690E+04  0.17406877964E+04  0.25500000920E-02 0.  1.
       -2    1    3    3    0  502  0.96462931227E+03  0.94504502664E+03 -0.11152881547E+04  0.17514244147E+04  0.25500000920E-02 0. -1.
</event>
<event>
 5   0  0.1991277E-06  0.2691160E+04  0.7818609E-02  0.8337879E-01
        2   -1    0    0  501    0  0.00000000000E+00  0.00000000000E+00  0.13722306495E+04  0.13722306495E+04  0.25500000920E-02 0.  1.
       -2   -1    0    0    0  501  0.00000000000E+00  0.00000000000E+00 -0.13194474052E+04  0.13194474052E+04  0.25500000920E-02 0. -1.
    10030    2    1    2    0    0  0.00000000000E+00  0.00000000000E+00  0.52783244276E+02  0.26916780547E+04  0.26911604707E+04 0.  0.
        5    1    3    3  502    0  0.10841215561E+04 -0.24152880081E+03  0.78608254727E+03  0.13607364077E+04  0.46999998093E+01 0.  1.
       -5    1    3    3    0  502 -0.10841215561E+04  0.24152880081E+03 -0.73329930300E+03  0.13309416470E+04  0.46999998093E+01 0. -1.
</event>
<event>
 5   0  0.1991277E-06  0.2702489E+04  0.7818609E-02  0.8334198E-01
        2   -1    0    0  501    0  0.00000000000E+00  0.00000000000E+00  0.15744496015E+04  0.15744496015E+04  0.25500000920E-02 0. -1.
       -2   -1    0    0    0  501  0.00000000000E+00  0.00000000000E+00 -0.11596829596E+04  0.11596829596E+04  0.25500000920E-02 0.  1.
    10030    2    1    2    0    0  0.00000000000E+00  0.00000000000E+00  0.41476664190E+03  0.27341325611E+04  0.27024894994E+04 0.  0.
        5    1    3    3  502    0 -0.85197617896E+03  0.55872464422E+03  0.11053589395E+04  0.15032887656E+04  0.46999998093E+01 0. -1.
       -5    1    3    3    0  502  0.85197617896E+03 -0.55872464422E+03 -0.69059229758E+03  0.12308437956E+04  0.46999998093E+01 0.  1.
</event>
<event>
 5   0  0.7436613E-07  0.2701920E+04  0.7818609E-02  0.8334382E-01
       -1   -1    0    0    0  501  0.00000000000E+00  0.00000000000E+00  0.11781309031E+04  0.11781309031E+04  0.50400001928E-02 0.  1.
        1   -1    0    0  501    0  0.00000000000E+00  0.00000000000E+00 -0.15491432205E+04  0.15491432205E+04  0.50400001928E-02 0. -1.
    10030    2    1    2    0    0  0.00000000000E+00  0.00000000000E+00 -0.37101231739E+03  0.27272741236E+04  0.27019204292E+04 0.  0.
        2    1    3    3  502    0  0.36485567296E+02  0.13323668172E+04 -0.40793951255E+03  0.13938964015E+04  0.25500000920E-02 0. -1.
       -2    1    3    3    0  502 -0.36485567296E+02 -0.13323668172E+04  0.36927195154E+02  0.13333777222E+04  0.25500000920E-02 0.  1.
</event>
<event>
 5   0  0.7335091E-07  0.2700109E+04  0.7818609E-02  0.8334970E-01
        1   -1    0    0  501    0  0.00000000000E+00  0.00000000000E+00  0.91725704315E+03  0.91725704316E+03  0.50400001928E-02 0. -1.
       -1   -1    0    0    0  501  0.00000000000E+00  0.00000000000E+00 -0.19870629328E+04  0.19870629328E+04  0.50400001928E-02 0.  1.
    10030    2    1    2    0    0  0.00000000000E+00  0.00000000000E+00 -0.10698058896E+04  0.29043199760E+04  0.27001092351E+04 0.  0.
        3    1    3    3  502    0  0.21250468704E+03 -0.12772274662E+04 -0.12365291333E+03  0.13006760918E+04  0.10100000352E+00 0. -1.
       -3    1    3    3    0  502 -0.21250468704E+03  0.12772274662E+04 -0.94615297632E+03  0.16036438842E+04  0.10100000352E+00 0.  1.
</event>
<event>
 5   0  0.7335091E-07  0.2680195E+04  0.7818609E-02  0.8341460E-01
        1   -1    0    0  501    0  0.00000000000E+00  0.00000000000E+00  0.14445996110E+04  0.14445996110E+04  0.50400001928E-02 0.  1.
       -1   -1    0    0    0  501  0.00000000000E+00  0.00000000000E+00 -0.12431552254E+04  0.12431552254E+04  0.50400001928E-02 0. -1.
    10030    2    1    2    0    0  0.00000000000E+00  0.00000000000E+00  0.20144438557E+03  0.26877548364E+04  0.26801951832E+04 0.  0.
        3    1    3    3  502    0 -0.89622785594E+03 -0.89059220733E+03 -0.34717242478E+03  0.13103081898E+04  0.10100000352E+00 0. -1.
       -3    1    3    3    0  502  0.89622785594E+03  0.89059220733E+03  0.54861681035E+03  0.13774466466E+04  0.10100000352E+00 0.  1.
</event>
<event>
 5   0  0.7335091E-07  0.2698822E+04  0.7818609E-02  0.8335387E-01
       -1   -1    0    0    0  501  0.00000000000E+00  0.00000000000E+00  0.95459818609E+03  0.95459818610E+03  0.50400001928E-02 0.  1.
        1   -1    0    0  501    0  0.00000000000E+00  0.00000000000E+00 -0.19075153340E+04  0.19075153340E+04  0.50400001928E-02 0. -1.
    10030    2    1    2    0    0  0.00000000000E+00  0.00000000000E+00 -0.95291714794E+03  0.28621135201E+04  0.26988224675E+04 0.  0.
        3    1    3    3  502    0 -0.11571575818E+04  0.44361058878E+03 -0.10427189946E+04  0.16195885081E+04  0.10100000352E+00 0. -1.
       -3    1    3    3    0  502  0.11571575818E+04 -0.44361058878E+03  0.89801846649E+02  0.12425250120E+04  0.10100000352E+00 0.  1.
</event>
<event>
 5   0  0.2030645E-06  0.2699012E+04  0.7818609E-02  0.8335326E-01
       -2   -1    0    0    0  501  0.00000000000E+00  0.00000000000E+00  0.10583734303E+04  0.10583734303E+04  0.25500000920E-02 0. -1.
        2   -1    0    0  501    0  0.00000000000E+00  0.00000000000E+00 -0.17207215150E+04  0.17207215150E+04  0.25500000920E-02 0.  1.
    10030    2    1    2    0    0  0.00000000000E+00  0.00000000000E+00 -0.66234808466E+03  0.27790949454E+04  0.26990116210E+04 0.  0.
        1    1    3    3  502    0 -0.41586138251E+03 -0.10733787626E+04  0.39405622764E+03  0.12167016759E+04  0.50400001928E-02 0. -1.
       -1    1    3    3    0  502  0.41586138251E+03  0.10733787626E+04 -0.10564043123E+04  0.15623932695E+04  0.50400001928E-02 0.  1.
</event>
<event>
 5   0  0.7806808E-07  0.2701336E+04  0.7818609E-02  0.8334572E-01
        1   -1    0    0  501    0  0.00000000000E+00  0.00000000000E+00  0.12708863244E+04  0.12708863244E+04  0.50400001928E-02 0.  1.
       -1   -1    0    0    0  501  0.00000000000E+00  0.00000000000E+00 -0.14354583396E+04  0.14354583396E+04  0.50400001928E-02 0. -1.
    10030    2    1    2    0    0  0.00000000000E+00  0.00000000000E+00 -0.16457201524E+03  0.27063446640E+04  0.27013362419E+04 0.  0.
        5    1    3    3  502    0  0.79428280976E+03  0.86098936859E+03 -0.75591229633E+03  0.13941353465E+04  0.46999998093E+01 0. -1.
       -5    1    3    3    0  502 -0.79428280976E+03 -0.86098936859E+03  0.59134028109E+03  0.13122093174E+04  0.46999998093E+01 0.  1.
</event>
<event>
 5   0  0.2030645E-06  0.2700427E+04  0.7818609E-02  0.8334866E-01
        2   -1    0    0  501    0  0.00000000000E+00  0.00000000000E+00  0.22005445418E+04  0.22005445418E+04  0.25500000920E-02 0. -1.
       -2   -1    0    0    0  501  0.00000000000E+00  0.00000000000E+00 -0.82846637997E+03  0.82846637998E+03  0.25500000920E-02 0.  1.
    10030    2    1    2    0    0  0.00000000000E+00  0.00000000000E+00  0.13720781619E+04  0.30290109218E+04  0.27004274999E+04 0.  0.
        1    1    3    3  502    0 -0.12790605069E+04  0.25733319621E+03  0.10759913377E+04  0.16911456215E+04  0.50400001928E-02 0.  1.
       -1    1    3    3    0  502  0.12790605069E+04 -0.25733319621E+03  0.29608682411E+03  0.13378653003E+04  0.50400001928E-02 0. -1.
</event>
<event>
 5   0  0.2063087E-06  0.2700258E+04  0.7818609E-02  0.8334921E-01
        2   -1    0    0  501    0  0.00000000000E+00  0.00000000000E+00  0.25411714232E+04  0.25411714232E+04  0.25500000920E-02 0.  1.
       -2   -1    0    0    0  501  0.00000000000E+00  0.00000000000E+00 -0.71732592987E+03  0.71732592988E+03  0.25500000920E-02 0. -1.
    10030    2    1    2    0    0  0.00000000000E+00  0.00000000000E+00  0.18238454933E+04  0.32584973531E+04  0.27002578796E+04 0.  0.
        3    1    3    3  502    0  0.48136225418E+03 -0.84412958621E+03  0.20430298184E+04  0.22623517028E+04  0.10100000352E+00 0.  1.
       -3    1    3    3    0  502 -0.48136225418E+03  0.84412958621E+03 -0.21918432506E+03  0.99614565030E+03  0.10100000352E+00 0. -1.
</event>
<event>
 5   0  0.1932012E-06  0.2699968E+04  0.7818609E-02  0.8335015E-01
       -2   -1    0    0    0  501  0.00000000000E+00  0.00000000000E+00  0.15516779195E+04  0.15516779195E+04  0.25500000920E-02 0.  1.
        2   -1    0    0  501    0  0.00000000000E+00  0.00000000000E+00 -0.11745070253E+04  0.11745070253E+04  0.25500000920E-02 0. -1.
    10030    2    1    2    0    0  0.00000000000E+00  0.00000000000E+00  0.37717089419E+03  0.27261849448E+04  0.26999678646E+04 0.  0.
        2    1    3    3  502    0  0.68828659794E+03  0.59996662037E+03 -0.81543319324E+03  0.12241853124E+04  0.25500000920E-02 0. -1.
       -2    1    3    3    0  502 -0.68828659794E+03 -0.59996662037E+03  0.11926040874E+04  0.15019996324E+04  0.25500000920E-02 0.  1.
</event>
<event>
 5   0  0.7436613E-07  0.2702104E+04  0.7818609E-02  0.8334323E-01
       -1   -1    0    0    0  501  0.00000000000E+00  0.00000000000E+00  0.94962274404E+03  0.94962274406E+03  0.50400001928E-02 0.  1.
        1   -1    0    0  501    0  0.00000000000E+00  0.00000000000E+00 -0.19221755992E+04  0.19221755992E+04  0.50400001928E-02 0. -1.
    10030    2    1    2    0    0  0.00000000000E+00  0.00000000000E+00 -0.97255285517E+03  0.28717983433E+04  0.27021041187E+04 0.  0.
        2    1    3    3  502    0 -0.11923460462E+04  0.61229602429E+02  0.18581672178E+03  0.12082905330E+04  0.25500000920E-02 0. -1.
       -2    1    3    3    0  502  0.11923460462E+04 -0.61229602429E+02 -0.11583695769E+04  0.16635078103E+04  0.25500000920E-02 0.  1.
</event>
<event>
 5   0  0.1991277E-06  0.2700869E+04  0.7818609E-02  0.8334723E-01
       -2   -1    0    0    0  501  0.00000000000E+00  0.00000000000E+00  0.72859640348E+03  0.72859640349E+03  0.25500000920E-02 0. -1.
        2   -1    0    0  501    0  0.00000000000E+00  0.00000000000E+00 -0.25029950939E+04  0.25029950939E+04  0.25500000920E-02 0.  1.
    10030    2    1    2    0    0  0.00000000000E+00  0.00000000000E+00 -0.17743986904E+04  0.32315914974E+04  0.27008689145E+04 0.  0.
        5    1    3    3  502    0  0.10215794809E+04  0.57026442497E+03 -0.80270748863E+02  0.11727282862E+04  0.46999998093E+01 0. -1.
       -5    1    3    3    0  502 -0.10215794809E+04 -0.57026442497E+03 -0.16941279415E+04  0.20588632112E+04  0.46999998093E+01 0.  1.
</event>
<event>
 5   0  0.1991277E-06  0.2702192E+04  0.7818609E-02  0.8334294E-01
        2   -1    0    0  501    0  0.00000000000E+00  0.00000000000E+00  0.95966444687E+03  0.95966444688E+03  0.25500000920E-02 0. -1.
       -2   -1    0    0    0  501  0.00000000000E+00  0.00000000000E+00 -0.19021864519E+04  0.19021864519E+04  0.25500000920E-02 0.  1.
    10030    2    1    2    0    0  0.00000000000E+00  0.00000000000E+00 -0.94252200505E+03  0.28618508988E+04  0.27021922280E+04 0.  0.
        5    1    3    3  502    0  0.34613566654E+02  0.33938537539E+03  0.91329068974E+03  0.97493718054E+03  0.46999998093E+01 0. -1.
       -5    1    3    3    0  502 -0.34613566654E+02 -0.33938537539E+03 -0.18558126948E+04  0.18869137183E+04  0.46999998093E+01 0.  1.
</event>
<event>
 5   0  0.2030645E-06  0.2706318E+04  0.7818609E-02  0.8332958E-01
       -2   -1    0    0    0  501  0.00000000000E+00  0.00000000000E+00  0.86967106630E+03  0.86967106630E+03  0.25500000920E-02 0.  1.
        2   -1    0    0  501    0  0.00000000000E+00  0.00000000000E+00 -0.21054382594E+04  0.21054382594E+04  0.25500000920E-02 0. -1.
    10030    2    1    2    0    0  0.00000000000E+00  0.00000000000E+00 -0.12357671931E+04  0.29751093257E+04  0.27063175986E+04 0.  0.
        1    1    3    3  502    0 -0.12325127668E+04  0.34254306267E+03 -0.13291611417E+03  0.12861143664E+04  0.50400001928E-02 0. -1.
       -1    1    3    3    0  502  0.12325127668E+04 -0.34254306267E+03 -0.11028510789E+04  0.16889949593E+04  0.50400001928E-02 0.  1.
</event>
<event>
 5   0  0.1999104E-06  0.2697759E+04  0.7818609E-02  0.8335732E-01
        2   -1    0    0  501    0  0.00000000000E+00  0.00000000000E+00  0.12710777672E+04  0.12710777672E+04  0.25500000920E-02 0.  1.
       -2   -1    0    0    0  501  0.00000000000E+00  0.00000000000E+00 -0.14314433839E+04  0.14314433839E+04  0.25500000920E-02 0. -1.
    10030    2    1    2    0    0  0.00000000000E+00  0.00000000000E+00 -0.16036561671E+03  0.27025211511E+04  0.26977589664E+04 0.  0.
        4    1    3    3  502    0  0.12627827284E+04  0.40655452160E+03 -0.32467807647E+03  0.13657687449E+04  0.12699999809E+01 0. -1.
       -4    1    3    3    0  502 -0.12627827284E+04 -0.40655452160E+03  0.16431245976E+03  0.13367524062E+04  0.12699999809E+01 0.  1.
</event>
<event>
 5   0  0.7436613E-07  0.2691889E+04  0.7818609E-02  0.8337641E-01
        1   -1    0    0  501    0  0.00000000000E+00  0.00000000000E+00  0.19527131195E+04  0.19527131196E+04  0.50400001928E-02 0. -1.
       -1   -1    0    0    0  501  0.00000000000E+00  0.00000000000E+00 -0.92771807890E+03  0.92771807891E+03  0.50400001928E-02 0.  1.
    10030    2    1    2    0    0  0.00000000000E+00  0.00000000000E+00  0.10249950406E+04  0.28804311985E+04  0.26918894955E+04 0.  0.
        2    1    3    3  502    0 -0.22428056931E+03  0.40366015256E+03  0.18652946869E+04  0.19216054646E+04  0.25500000920E-02 0. -1.
       -2    1    3    3    0  502  0.22428056931E+03 -0.40366015256E+03 -0.84029964623E+03  0.95882573390E+03  0.25500000920E-02 0.  1.
</event>
<event>
 5   0  0.7436613E-07  0.2699010E+04  0.7818609E-02  0.8335326E-01
       -1   -1    0    0    0  501  0.00000000000E+00  0.00000000000E+00  0.12467485577E+04  0.12467485577E+04  0.50400001928E-02 0.  1.
        1   -1    0    0  501    0  0.00000000000E+00  0.00000000000E+00 -0.14607309266E+04  0.14607309266E+04  0.50400001928E-02 0. -1.
    10030    2    1    2    0    0  0.00000000000E+00  0.00000000000E+00 -0.21398236890E+03  0.27074794843E+04  0.26990103193E+04 0.  0.
        2    1    3    3  502    0 -0.78395597677E+03 -0.10978730409E+04 -0.71496705727E+02  0.13509344789E+04  0.25500000920E-02 0. -1.
       -2    1    3    3    0  502  0.78395597677E+03  0.10978730409E+04 -0.14248566317E+03  0.13565450054E+04  0.25500000920E-02 0.  1.
</event>
<event>
 5   0  0.1991277E-06  0.2727081E+04  0.7818609E-02  0.8326271E-01
       -2   -1    0    0    0  501  0.00000000000E+00  0.00000000000E+00  0.18699121452E+04  0.18699121452E+04  0.25500000920E-02 0.  1.
        2   -1    0    0  501    0  0.00000000000E+00  0.00000000000E+00 -0.99429396079E+03  0.99429396079E+03  0.25500000920E-02 0. -1.
    10030    2    1    2    0    0  0.00000000000E+00  0.00000000000E+00  0.87561818441E+03  0.28642061060E+04  0.27270807492E+04 0.  0.
        5    1    3    3  502    0 -0.10589830246E+04  0.10601038556E+03  0.13330401514E+04  0.17057846826E+04  0.46999998093E+01 0.  1.
       -5    1    3    3    0  502  0.10589830246E+04 -0.10601038556E+03 -0.45742196695E+03  0.11584214234E+04  0.46999998093E+01 0. -1.
</event>
<event>
 5   0  0.2063087E-06  0.2704170E+04  0.7818609E-02  0.8333653E-01
        2   -1    0    0  501    0  0.00000000000E+00  0.00000000000E+00  0.14529482354E+04  0.14529482354E+04  0.25500000920E-02 0.  1.
       -2   -1    0    0    0  501  0.00000000000E+00  0.00000000000E+00 -0.12582233524E+04  0.12582233524E+04  0.25500000920E-02 0. -1.
    10030    2    1    2    0    0  0.00000000000E+00  0.00000000000E+00  0.19472488307E+03  0.27111715878E+04  0.27041696689E+04 0.  0.
        3    1    3    3  502    0 -0.67383992743E+02 -0.33671415786E+02 -0.12561179035E+04  0.12583745723E+04  0.10100000352E+00 0. -1.
       -3    1    3    3    0  502  0.67383992743E+02  0.33671415786E+02  0.14508427865E+04  0.14527970155E+04  0.10100000352E+00 0.  1.
</event>
<event>
 5   0  0.7436613E-07  0.2704063E+04  0.7818609E-02  0.8333688E-01
       -1   -1    0    0    0  501  0.00000000000E+00  0.00000000000E+00  0.12651695600E+04  0.12651695600E+04  0.50400001928E-02 0. -1.
        1   -1    0    0  501    0  0.00000000000E+00  0.00000000000E+00 -0.14448568201E+04  0.14448568201E+04  0.50400001928E-02 0.  1.
    10030    2    1    2    0    0  0.00000000000E+00  0.00000000000E+00 -0.17968726005E+03  0.27100263801E+04  0.27040627710E+04 0.  0.
        2    1    3    3  502    0 -0.69477876745E+03 -0.70280635803E+03  0.83486919324E+03  0.12937004609E+04  0.25500000920E-02 0. -1.
       -2    1    3    3    0  502  0.69477876745E+03  0.70280635803E+03 -0.10145564533E+04  0.14163259192E+04  0.25500000920E-02 0.  1.
</event>
<event>
 5   0  0.1999104E-06  0.2652718E+04  0.7818609E-02  0.8350511E-01
       -2   -1    0    0    0  501  0.00000000000E+00  0.00000000000E+00  0.98896480675E+03  0.98896480676E+03  0.25500000920E-02 0. -1.
        2   -1    0    0  501    0  0.00000000000E+00  0.00000000000E+00 -0.17788578657E+04  0.17788578657E+04  0.25500000920E-02 0.  1.
    10030    2    1    2    0    0  0.00000000000E+00  0.00000000000E+00 -0.78989305895E+03  0.27678226725E+04  0.26527177199E+04 0.  0.
        4    1    3    3  502    0  0.92928750711E+03 -0.79697665208E+03  0.13757076084E+03  0.12319392769E+04  0.12699999809E+01 0. -1.
       -4    1    3    3    0  502 -0.92928750711E+03  0.79697665208E+03 -0.92746381979E+03  0.15358833956E+04  0.12699999809E+01 0.  1.
</event>
<event>
 5   0  0.7768032E-07  0.2694852E+04  0.7818609E-02  0.8336677E-01
        1   -1    0    0  501    0  0.00000000000E+00  0.00000000000E+00  0.17793622544E+04  0.17793622544E+04  0.50400001928E-02 0. -1.
       -1   -1    0    0    0  501  0.00000000000E+00  0.00000000000E+00 -0.10203412778E+04  0.10203412778E+04  0.50400001928E-02 0.  1.
    10030    2    1    2    0    0  0.00000000000E+00  0.00000000000E+00  0.75902097655E+03  0.27997035322E+04  0.26948519487E+04 0.  0.
        4    1    3    3  502    0  0.72983034011E+02 -0.10363048740E+04 -0.51195550147E+03  0.11581685385E+04  0.12699999809E+01 0.  1.
       -4    1    3    3    0  502 -0.72983034011E+02  0.10363048740E+04  0.12709764780E+04  0.16415349937E+04  0.12699999809E+01 0. -1.
</event>
<event>
 5   0  0.7335091E-07  0.2700029E+04  0.7818609E-02  0.8334996E-01
       -1   -1    0    0    0  501  0.00000000000E+00  0.00000000000E+00  0.14440338382E+04  0.14440338382E+04  0.50400001928E-02 0. -1.
        1   -1    0    0  501    0  0.00000000000E+00  0.00000000000E+00 -0.12621165389E+04  0.12621165389E+04  0.50400001928E-02 0.  1.
    10030    2    1    2    0    0  0.00000000000E+00  0.00000000000E+00  0.18191729925E+03  0.27061503771E+04  0.27000288813E+04 0.  0.
        3    1    3    3  502    0  0.72776410617E+03  0.37514959197E+03 -0.98486263794E+03  0.12807545574E+04  0.10100000352E+00 0.  1.
       -3    1    3    3    0  502 -0.72776410617E+03 -0.37514959197E+03  0.11667799372E+04  0.14253958196E+04  0.10100000352E+00 0. -1.
</event>
<event>
 5   0  0.2063087E-06  0.2706665E+04  0.7818609E-02  0.8332846E-01
        2   -1    0    0  501    0  0.00000000000E+00  0.00000000000E+00  0.85712779293E+03  0.85712779294E+03  0.25500000920E-02 0.  1.
       -2   -1    0    0    0  501  0.00000000000E+00  0.00000000000E+00 -0.21367974998E+04  0.21367974998E+04  0.25500000920E-02 0. -1.
    10030    2    1    2    0    0  0.00000000000E+00  0.00000000000E+00 -0.12796697068E+04  0.29939252927E+04  0.27066647557E+04 0.  0.
        3    1    3    3  502    0  0.94250020292E+03  0.95417839621E+03 -0.43967263378E+03  0.14114088987E+04  0.10100000352E+00 0. -1.
       -3    1    3    3    0  502 -0.94250020292E+03 -0.95417839621E+03 -0.83999707306E+03  0.15825163940E+04  0.10100000352E+00 0.  1.
</event>
<event>
 5   0  0.7436613E-07  0.2701565E+04  0.7818609E-02  0.8334497E-01
       -1   -1    0    0    0  501  0.00000000000E+00  0.00000000000E+00  0.79331135947E+03  0.79331135949E+03  0.50400001928E-02 0. -1.
        1   -1    0    0  501    0  0.00000000000E+00  0.00000000000E+00 -0.22999961964E+04  0.22999961964E+04  0.50400001928E-02 0.  1.
    10030    2    1    2    0    0  0.00000000000E+00  0.00000000000E+00 -0.15066848369E+04  0.30933075559E+04  0.27015648128E+04 0.  0.
        2    1    3    3  502    0  0.63235448513E+03 -0.11922026286E+04 -0.82004632681E+03  0.15791438441E+04  0.25500000920E-02 0.  1.
       -2    1    3    3    0  502 -0.63235448513E+03  0.11922026286E+04 -0.68663851014E+03  0.15141637118E+04  0.25500000920E-02 0. -1.
</event>
<event>
 5   0  0.2030645E-06  0.2697479E+04  0.7818609E-02  0.8335823E-01
        2   -1    0    0  501    0  0.00000000000E+00  0.00000000000E+00  0.17381076669E+04  0.17381076669E+04  0.25500000920E-02 0.  1.
       -2   -1    0    0    0  501  0.00000000000E+00  0.00000000000E+00 -0.10465973625E+04  0.10465973625E+04  0.25500000920E-02 0. -1.
    10030    2    1    2    0    0  0.00000000000E+00  0.00000000000E+00  0.69151030436E+03  0.27847050294E+04  0.26974794902E+04 0.  0.
        1    1    3    3  502    0 -0.86115905978E+03  0.85520241337E+03  0.95310989799E+03  0.15431735391E+04  0.50400001928E-02 0.  1.
       -1    1    3    3    0  502  0.86115905978E+03 -0.85520241337E+03 -0.26159959363E+03  0.12415314903E+04  0.50400001928E-02 0. -1.
</event>
<event>
 5   0  0.2063087E-06  0.2698543E+04  0.7818609E-02  0.8335478E-01
       -2   -1    0    0    0  501  0.00000000000E+00  0.00000000000E+00  0.12001339945E+04  0.12001339945E+04  0.25500000920E-02 0. -1.
        2   -1    0    0  501    0  0.00000000000E+00  0.00000000000E+00 -0.15169416045E+04  0.15169416045E+04  0.25500000920E-02 0.  1.
    10030    2    1    2    0    0  0.00000000000E+00  0.00000000000E+00 -0.31680761000E+03  0.27170755990E+04  0.26985427084E+04 0.  0.
        3    1    3    3  502    0  0.12020991622E+04 -0.59954788227E+03 -0.28589536147E+03  0.13734031552E+04  0.10100000352E+00 0.  1.
       -3    1    3    3    0  502 -0.12020991622E+04  0.59954788227E+03 -0.30912248530E+02  0.13436724438E+04  0.10100000352E+00 0. -1.
</event>
<event>
 5   0  0.7566905E-07  0.2692328E+04  0.7818609E-02  0.8337499E-01
       -1   -1    0    0    0  501  0.00000000000E+00  0.00000000000E+00  0.11743446816E+04  0.11743446816E+04  0.50400001928E-02 0.  1.
        1   -1    0    0  501    0  0.00000000000E+00  0.00000000000E+00 -0.15431218299E+04  0.15431218299E+04  0.50400001928E-02 0. -1.
    10030    2    1    2    0    0  0.00000000000E+00  0.00000000000E+00 -0.36877714824E+03  0.27174665115E+04  0.26923275536E+04 0.  0.
        1    1    3    3  502    0  0.38621787076E+03  0.84812901536E+02 -0.14831822668E+04  0.15349876575E+04  0.50400001928E-02 0. -1.
       -1    1    3    3    0  502 -0.38621787076E+03 -0.84812901536E+02  0.11144051186E+04  0.11824788540E+04  0.50400001928E-02 0.  1.
</event>
<event>
 5   0  0.7566905E-07  0.2709776E+04  0.7818609E-02  0.8331840E-01
        1   -1    0    0  501    0  0.00000000000E+00  0.00000000000E+00  0.15440283512E+04  0.15440283512E+04  0.50400001928E-02 0.  1.
       -1   -1    0    0    0  501  0.00000000000E+00  0.00000000000E+00 -0.11889170158E+04  0.11889170158E+04  0.50400001928E-02 0. -1.
    10030    2    1    2    0    0  0.00000000000E+00  0.00000000000E+00  0.35511133535E+03  0.27329453670E+04  0.27097760643E+04 0.  0.
        1    1    3    3  502    0 -0.72032113734E+03  0.10019916186E+04  0.74168772858E+03  0.14397744377E+04  0.50400001928E-02 0.  1.
       -1    1    3    3    0  502  0.72032113734E+03 -0.10019916186E+04 -0.38657639323E+03  0.12931709293E+04  0.50400001928E-02 0. -1.
</event>
<event>
 5   0  0.2030645E-06  0.2704760E+04  0.7818609E-02  0.8333462E-01
        2   -1    0    0  501    0  0.00000000000E+00  0.00000000000E+00  0.20360785269E+04  0.20360785269E+04  0.25500000920E-02 0. -1.
       -2   -1    0    0    0  501  0.00000000000E+00  0.00000000000E+00 -0.89826173194E+03  0.89826173194E+03  0.25500000920E-02 0.  1.
    10030    2    1    2    0    0  0.00000000000E+00  0.00000000000E+00  0.11378167949E+04  0.29343402588E+04  0.27047598222E+04 0.  0.
        1    1    3    3  502    0  0.48772203568E+03 -0.99977502518E+03  0.14032853027E+04  0.17907072697E+04  0.50400001928E-02 0. -1.
       -1    1    3    3    0  502 -0.48772203568E+03  0.99977502518E+03 -0.26546850779E+03  0.11436329891E+04  0.50400001928E-02 0.  1.
</event>
<event>
 5   0  0.7436613E-07  0.2703854E+04  0.7818609E-02  0.8333756E-01
       -1   -1    0    0    0  501  0.00000000000E+00  0.00000000000E+00  0.10060017404E+04  0.10060017404E+04  0.50400001928E-02 0.  1.
        1   -1    0    0  501    0  0.00000000000E+00  0.00000000000E+00 -0.18168025158E+04  0.18168025159E+04  0.50400001928E-02 0. -1.
    10030    2    1    2    0    0  0.00000000000E+00  0.00000000000E+00 -0.81080077544E+03  0.28228042563E+04  0.27038539109E+04 0.  0.
        2    1    3    3  502    0  0.92038504772E+03 -0.61204146335E+03 -0.12181091926E+04  0.16448384097E+04  0.25500000920E-02 0.  1.
       -2    1    3    3    0  502 -0.92038504772E+03  0.61204146335E+03  0.40730841718E+03  0.11779658466E+04  0.25500000920E-02 0. -1.
</event>
<event>
 5   0  0.7566905E-07  0.2700717E+04  0.7818609E-02  0.8334772E-01
        1   -1    0    0  501    0  0.00000000000E+00  0.00000000000E+00  0.14311546524E+04  0.14311546524E+04  0.50400001928E-02 0.  1.
       -1   -1    0    0    0  501  0.00000000000E+00  0.00000000000E+00 -0.12741237999E+04  0.12741237999E+04  0.50400001928E-02 0. -1.
    10030    2    1    2    0    0  0.00000000000E+00  0.00000000000E+00  0.15703085244E+03  0.27052784523E+04  0.27007170929E+04 0.  0.
        1    1    3    3  502    0 -0.63869528157E+03  0.24347055417E+03  0.12450675204E+04  0.14203530209E+04  0.50400001928E-02 0.  1.
       -1    1    3    3    0  502  0.63869528157E+03 -0.24347055417E+03 -0.10880366680E+04  0.12849254314E+04  0.50400001928E-02 0. -1.
</event>
<event>
 5   0  0.2063087E-06  0.2686075E+04  0.7818609E-02  0.8339537E-01
       -2   -1    0    0    0  501  0.00000000000E+00  0.00000000000E+00  0.69291589309E+03  0.69291589309E+03  0.25500000920E-02 0.  1.
        2   -1    0    0  501    0  0.00000000000E+00  0.00000000000E+00 -0.26031297713E+04  0.26031297713E+04  0.25500000920E-02 0. -1.
    10030    2    1    2    0    0  0.00000000000E+00  0.00000000000E+00 -0.19102138783E+04  0.32960456644E+04  0.26860751965E+04 0.  0.
        3    1    3    3  502    0  0.12124100552E+04 -0.50617670551E+03 -0.12969269359E+04  0.18461236379E+04  0.10100000352E+00 0. -1.
       -3    1    3    3    0  502 -0.12124100552E+04  0.50617670551E+03 -0.61328694231E+03  0.14499220265E+04  0.10100000352E+00 0.  1.
</event>
<event>
 5   0  0.7768032E-07  0.2684985E+04  0.7818609E-02  0.8339893E-01
        1   -1    0    0  501    0  0.00000000000E+00  0.00000000000E+00  0.14843987565E+04  0.14843987566E+04  0.50400001928E-02 0. -1.
       -1   -1    0    0    0  501  0.00000000000E+00  0.00000000000E+00 -0.12141522179E+04  0.12141522179E+04  0.50400001928E-02 0.  1.
    10030    2    1    2    0    0  0.00000000000E+00  0.00000000000E+00  0.27024653869E+03  0.26985509744E+04  0.26849849478E+04 0.  0.
        4    1    3    3  502    0  0.38219302894E+03 -0.70556997499E+03 -0.94659716159E+03  0.12409465340E+04  0.12699999809E+01 0.  1.
       -4    1    3    3    0  502 -0.38219302894E+03  0.70556997499E+03  0.12168437003E+04  0.14576044404E+04  0.12699999809E+01 0. -1.
</event>
<event>
 5   0  0.7566905E-07  0.2704462E+04  0.7818609E-02  0.8333559E-01
        1   -1    0    0  501    0  0.00000000000E+00  0.00000000000E+00  0.22829426691E+04  0.22829426692E+04  0.50400001928E-02 0. -1.
       -1   -1    0    0    0  501  0.00000000000E+00  0.00000000000E+00 -0.80095234188E+03  0.80095234189E+03  0.50400001928E-02 0.  1.
    10030    2    1    2    0    0  0.00000000000E+00  0.00000000000E+00  0.14819903273E+04  0.30838950110E+04  0.27044617041E+04 0.  0.
        1    1    3    3  502    0 -0.24750719292E+03  0.10612686285E+04  0.16539306631E+04  0.19806659362E+04  0.50400001928E-02 0. -1.
       -1    1    3    3    0  502  0.24750719292E+03 -0.10612686285E+04 -0.17194033586E+03  0.11032290748E+04  0.50400001928E-02 0.  1.
</event>
<event>
 5   0  0.7566905E-07  0.2700789E+04  0.7818609E-02  0.8334749E-01
       -1   -1    0    0    0  501  0.00000000000E+00  0.00000000000E+00  0.11028969115E+04  0.11028969115E+04  0.50400001928E-02 0.  1.
        1   -1    0    0  501    0  0.00000000000E+00  0.00000000000E+00 -0.16534324064E+04  0.16534324064E+04  0.50400001928E-02 0. -1.
    10030    2    1    2    0    0  0.00000000000E+00  0.00000000000E+00 -0.55053549488E+03  0.27563293179E+04  0.27007891398E+04 0.  0.
        1    1    3    3  502    0 -0.13413174928E+04  0.12625938625E+03 -0.18122371698E+03  0.13593807725E+04  0.50400001928E-02 0. -1.
       -1    1    3    3    0  502  0.13413174928E+04 -0.12625938625E+03 -0.36931177791E+03  0.13969485454E+04  0.50400001928E-02 0.  1.
</event>
<event>
 5   0  0.1932012E-06  0.2700377E+04  0.7818609E-02  0.8334883E-01
       -2   -1    0    0    0  501  0.00000000000E+00  0.00000000000E+00  0.88841935262E+03  0.88841935263E+03  0.25500000920E-02 0.  1.
        2   -1    0    0  501    0  0.00000000000E+00  0.00000000000E+00 -0.20519688424E+04  0.20519688424E+04  0.25500000920E-02 0. -1.
    10030    2    1    2    0    0  0.00000000000E+00  0.00000000000E+00 -0.11635494898E+04  0.29403881950E+04  0.27003768852E+04 0.  0.
        2    1    3    3  502    0 -0.10736500550E+04 -0.11523436726E+03  0.30082697272E+03  0.11209372273E+04  0.25500000920E-02 0.  1.
       -2    1    3    3    0  502  0.10736500550E+04  0.11523436726E+03 -0.14643764625E+04  0.18194509677E+04  0.25500000920E-02 0. -1.
</event>
<event>
 5   0  0.1999104E-06  0.2701342E+04  0.7818609E-02  0.8334570E-01
       -2   -1    0    0    0  501  0.00000000000E+00  0.00000000000E+00  0.21152500400E+04  0.21152500400E+04  0.25500000920E-02 0. -1.
        2   -1    0    0  501    0  0.00000000000E+00  0.00000000000E+00 -0.86245715801E+03  0.86245715801E+03  0.25500000920E-02 0.  1.
    10030    2    1    2    0    0  0.00000000000E+00  0.00000000000E+00  0.12527928820E+04  0.29777071980E+04  0.27013422871E+04 0.  0.
        4    1    3    3  502    0 -0.27853829072E+03  0.12416779244E+04  0.12735064381E+03  0.12788930552E+04  0.12699999809E+01 0.  1.
       -4    1    3    3    0  502  0.27853829072E+03 -0.12416779244E+04  0.11254422382E+04  0.16988141428E+04  0.12699999809E+01 0. -1.
</event>
<event>
 5   0  0.2063087E-06  0.2691937E+04  0.7818609E-02  0.8337626E-01
       -2   -1    0    0    0  501  0.00000000000E+00  0.00000000000E+00  0.76586119883E+03  0.76586119883E+03  0.25500000920E-02 0.  1.
        2   -1    0    0  501    0  0.00000000000E+00  0.00000000000E+00 -0.23654828395E+04  0.23654828395E+04  0.25500000920E-02 0. -1.
    10030    2    1    2    0    0  0.00000000000E+00  0.00000000000E+00 -0.15996216407E+04  0.31313440384E+04  0.26919372380E+04 0.  0.
        3    1    3    3  502    0 -0.16368657784E+03  0.83337561422E+03 -0.20144394198E+04  0.21861551629E+04  0.10100000352E+00 0. -1.
       -3    1    3    3    0  502  0.16368657784E+03 -0.83337561422E+03  0.41481777912E+03  0.94518887542E+03  0.10100000352E+00 0.  1.
</event>
<event>
 5   0  0.7335091E-07  0.2699744E+04  0.7818609E-02  0.8335088E-01
       -1   -1    0    0    0  501  0.00000000000E+00  0.00000000000E+00  0.80785158115E+03  0.80785158117E+03  0.50400001928E-02 0. -1.
        1   -1    0    0  501    0  0.00000000000E+00  0.00000000000E+00 -0.22555553057E+04  0.22555553057E+04  0.50400001928E-02 0.  1.
    10030    2    1    2    0    0  0.00000000000E+00  0.00000000000E+00 -0.14477037245E+04  0.30634068869E+04  0.26997436324E+04 0.  0.
        3    1    3    3  502    0  0.26083749830E+03 -0.66808572712E+03 -0.20214773486E+04  0.21449348290E+04  0.10100000352E+00 0.  1.
       -3    1    3    3    0  502 -0.26083749830E+03  0.66808572712E+03  0.57377362406E+03  0.91847205792E+03  0.10100000352E+00 0. -1.
</event>
<event>
 5   0  0.1991277E-06  0.2699378E+04  0.7818609E-02  0.8335207E-01
        2   -1    0    0  501    0  0.00000000000E+00  0.00000000000E+00  0.15419295609E+04  0.15419295609E+04  0.25500000920E-02 0.  1.
       -2   -1    0    0    0  501  0.00000000000E+00  0.00000000000E+00 -0.11814158377E+04  0.11814158377E+04  0.25500000920E-02 0. -1.
    10030    2    1    2    0    0  0.00000000000E+00  0.00000000000E+00  0.36051372325E+03  0.27233453986E+04  0.26993777089E+04 0.  0.
        5    1    3    3  502    0 -0.21375484559E+03  0.62824747814E+03  0.13659587476E+04  0.15186347217E+04  0.46999998093E+01 0.  1.
       -5    1    3    3    0  502  0.21375484559E+03 -0.62824747814E+03 -0.10054450244E+04  0.12047106768E+04  0.46999998093E+01 0. -1.
</event>
<event>
 5   0  0.1932012E-06  0.2702284E+04  0.7818609E-02  0.8334264E-01
       -2   -1    0    0    0  501  0.00000000000E+00  0.00000000000E+00  0.78678107231E+03  0.78678107232E+03  0.25500000920E-02 0.  1.
        2   -1    0    0  501    0  0.00000000000E+00  0.00000000000E+00 -0.23203204719E+04  0.23203204719E+04  0.25500000920E-02 0. -1.
    10030    2    1    2    0    0  0.00000000000E+00  0.00000000000E+00 -0.15335393996E+04  0.31071015443E+04  0.27022836483E+04 0.  0.
        2    1    3    3  502    0 -0.99865218052E+03  0.90685120468E+03 -0.67845934128E+03  0.15099643581E+04  0.25500000920E-02 0.  1.
       -2    1    3    3    0  502  0.99865218052E+03 -0.90685120468E+03 -0.85508005834E+03  0.15971371861E+04  0.25500000920E-02 0. -1.
</event>
<event>
 5   0  0.7335091E-07  0.2697962E+04  0.7818609E-02  0.8335667E-01
        1   -1    0    0  501    0  0.00000000000E+00  0.00000000000E+00  0.16232090628E+04  0.16232090629E+04  0.50400001928E-02 0.  1.
       -1   -1    0    0    0  501  0.00000000000E+00  0.00000000000E+00 -0.11210811627E+04  0.11210811627E+04  0.50400001928E-02 0. -1.
    10030    2    1    2    0    0  0.00000000000E+00  0.00000000000E+00  0.50212790019E+03  0.27442902255E+04  0.26979615293E+04 0.  0.
        3    1    3    3  502    0  0.12188743299E+04 -0.31616587288E+03 -0.24111854016E+03  0.12820895647E+04  0.10100000352E+00 0. -1.
       -3    1    3    3    0  502 -0.12188743299E+04  0.31616587288E+03  0.74324644036E+03  0.14622006608E+04  0.10100000352E+00 0.  1.
</event>
<event>
 5   0  0.1991277E-06  0.2696360E+04  0.7818609E-02  0.8336187E-01
        2   -1    0    0  501    0  0.00000000000E+00  0.00000000000E+00  0.19003329440E+04  0.19003329440E+04  0.25500000920E-02 0.  1.
       -2   -1    0    0    0  501  0.00000000000E+00  0.00000000000E+00 -0.95645803651E+03  0.95645803651E+03  0.25500000920E-02 0. -1.
    10030    2    1    2    0    0  0.00000000000E+00  0.00000000000E+00  0.94387490753E+03  0.28567909805E+04  0.26963595579E+04 0.  0.
        5    1    3    3  502    0 -0.10363412286E+04 -0.85558286731E+03  0.35811428046E+03  0.13907886657E+04  0.46999998093E+01 0. -1.
       -5    1    3    3    0  502  0.10363412286E+04  0.85558286731E+03  0.58576062706E+03  0.14660023148E+04  0.46999998093E+01 0.  1.
</event>
<event>
 5   0  0.6561875E-07  0.2701633E+04  0.7818609E-02  0.8334475E-01
        3   -1    0    0  501    0  0.00000000000E+00  0.00000000000E+00  0.19873897668E+04  0.19873897694E+04  0.10100000352E+00 0. -1.
       -3   -1    0    0    0  501  0.00000000000E+00  0.00000000000E+00 -0.91814137603E+03  0.91814138158E+03  0.10100000352E+00 0.  1.
    10030    2    1    2    0    0  0.00000000000E+00  0.00000000000E+00  0.10692483908E+04  0.29055311510E+04  0.27016326819E+04 0.  0.
        1    1    3    3  502    0  0.11228850334E+04 -0.87228596903E+02  0.13367168694E+04  0.17479392482E+04  0.50400001928E-02 0. -1.
       -1    1    3    3    0  502 -0.11228850334E+04  0.87228596903E+02 -0.26746847862E+03  0.11575919028E+04  0.50400001928E-02 0.  1.
</event>
<event>
 5   0  0.1991277E-06  0.2695605E+04  0.7818609E-02  0.8336432E-01
       -2   -1    0    0    0  501  0.00000000000E+00  0.00000000000E+00  0.92257788800E+03  0.92257788800E+03  0.25500000920E-02 0. -1.
        2   -1    0    0  501    0  0.00000000000E+00  0.00000000000E+00 -0.19690167635E+04  0.19690167635E+04  0.25500000920E-02 0.  1.
    10030    2    1    2    0    0  0.00000000000E+00  0.00000000000E+00 -0.10464388755E+04  0.28915946515E+04  0.26956048131E+04 0.  0.
        5    1    3    3  502    0 -0.29707719076E+03 -0.47839778319E+03 -0.18367623911E+04  0.19211552430E+04  0.46999998093E+01 0.  1.
       -5    1    3    3    0  502  0.29707719076E+03  0.47839778319E+03  0.79032351562E+03  0.97043940851E+03  0.46999998093E+01 0. -1.
</event>
<event>
 5   0  0.2030645E-06  0.2702991E+04  0.7818609E-02  0.8334035E-01
        2   -1    0    0  501    0  0.00000000000E+00  0.00000000000E+00  0.11292420735E+04  0.11292420735E+04  0.25500000920E-02 0.  1.
       -2   -1    0    0    0  501  0.00000000000E+00  0.00000000000E+00 -0.16174916659E+04  0.16174916659E+04  0.25500000920E-02 0. -1.
    10030    2    1    2    0    0  0.00000000000E+00  0.00000000000E+00 -0.48824959241E+03  0.27467337394E+04  0.27029906716E+04 0.  0.
        1    1    3    3  502    0 -0.40134955104E+02 -0.12471419868E+04  0.28347464254E+03  0.12795826753E+04  0.50400001928E-02 0.  1.
       -1    1    3    3    0  502  0.40134955104E+02  0.12471419868E+04 -0.77172423495E+03  0.14671510641E+04  0.50400001928E-02 0. -1.
</event>
<event>
 5   0  0.1999104E-06  0.2701555E+04  0.7818609E-02  0.8334501E-01
        2   -1    0    0  501    0  0.00000000000E+00  0.00000000000E+00  0.16238030002E+04  0.16238030002E+04  0.25500000920E-02 0.  1.
       -2   -1    0    0    0  501  0.00000000000E+00  0.00000000000E+00 -0.11236580258E+04  0.11236580258E+04  0.25500000920E-02 0. -1.
    10030    2    1    2    0    0  0.00000000000E+00  0.00000000000E+00  0.50014497433E+03  0.27474610260E+04  0.27015545699E+04 0.  0.
        4    1    3    3  502    0  0.48235493605E+03  0.12504260420E+04  0.42135677776E+03  0.14049109288E+04  0.12699999809E+01 0.  1.
       -4    1    3    3    0  502 -0.48235493605E+03 -0.12504260420E+04  0.78788196570E+02  0.13425500972E+04  0.12699999809E+01 0. -1.
</event>
<event>
 5   0  0.7335091E-07  0.2710449E+04  0.7818609E-02  0.8331623E-01
       -1   -1    0    0    0  501  0.00000000000E+00  0.00000000000E+00  0.10611249580E+04  0.10611249580E+04  0.50400001928E-02 0.  1.
        1   -1    0    0  501    0  0.00000000000E+00  0.00000000000E+00 -0.17308363805E+04  0.17308363805E+04  0.50400001928E-02 0. -1.
    10030    2    1    2    0    0  0.00000000000E+00  0.00000000000E+00 -0.66971142250E+03  0.27919613385E+04  0.27104491743E+04 0.  0.
        3    1    3    3  502    0 -0.58096217951E+02 -0.14450990564E+03  0.10518752439E+04  0.10633436990E+04  0.10100000352E+00 0.  1.
       -3    1    3    3    0  502  0.58096217951E+02  0.14450990564E+03 -0.17215866664E+04  0.17286176395E+04  0.10100000352E+00 0. -1.
</event>
<event>
 5   0  0.7768032E-07  0.2668790E+04  0.7818609E-02  0.8345203E-01
        1   -1    0    0  501    0  0.00000000000E+00  0.00000000000E+00  0.12982623449E+04  0.12982623449E+04  0.50400001928E-02 0.  1.
       -1   -1    0    0    0  501  0.00000000000E+00  0.00000000000E+00 -0.13715331798E+04  0.13715331798E+04  0.50400001928E-02 0. -1.
    10030    2    1    2    0    0  0.00000000000E+00  0.00000000000E+00 -0.73270834895E+02  0.26697955248E+04  0.26687898997E+04 0.  0.
        4    1    3    3  502    0  0.11458859811E+04  0.60923251483E+03 -0.34721871539E+03  0.13434215229E+04  0.12699999809E+01 0. -1.
       -4    1    3    3    0  502 -0.11458859811E+04 -0.60923251483E+03  0.27394788049E+03  0.13263740019E+04  0.12699999809E+01 0.  1.
</event>
<event>
 5   0  0.2030645E-06  0.2711542E+04  0.7818609E-02  0.8331270E-01
        2   -1    0    0  501    0  0.00000000000E+00  0.00000000000E+00  0.20525315724E+04  0.20525315724E+04  0.25500000920E-02 0. -1.
       -2   -1    0    0    0  501  0.00000000000E+00  0.00000000000E+00 -0.89553578304E+03  0.89553578304E+03  0.25500000920E-02 0.  1.
    10030    2    1    2    0    0  0.00000000000E+00  0.00000000000E+00  0.11569957894E+04  0.29480673555E+04  0.27115423426E+04 0.  0.
        1    1    3    3  502    0 -0.45562203399E+03  0.25172647255E+03 -0.78256243946E+03  0.93987319704E+03  0.50400001928E-02 0.  1.
       -1    1    3    3    0  502  0.45562203399E+03 -0.25172647255E+03  0.19395582288E+04  0.20081941584E+04  0.50400001928E-02 0. -1.
</event>
<event>
 5   0  0.7566905E-07  0.2706505E+04  0.7818609E-02  0.8332897E-01
        1   -1    0    0  501    0  0.00000000000E+00  0.00000000000E+00  0.17682763193E+04  0.17682763193E+04  0.50400001928E-02 0. -1.
       -1   -1    0    0    0  501  0.00000000000E+00  0.00000000000E+00 -0.10356368002E+04  0.10356368002E+04  0.50400001928E-02 0.  1.
    10030    2    1    2    0    0  0.00000000000E+00  0.00000000000E+00  0.73263951910E+03  0.28039131196E+04  0.27065047787E+04 0.  0.
        1    1    3    3  502    0  0.23926739034E+03 -0.52821797658E+03 -0.90040001571E+03  0.10709730637E+04  0.50400001928E-02 0.  1.
       -1    1    3    3    0  502 -0.23926739034E+03  0.52821797658E+03  0.16330395348E+04  0.17329400558E+04  0.50400001928E-02 0. -1.
</event>
<event>
 5   0  0.1999104E-06  0.2697291E+04  0.7818609E-02  0.8335885E-01
       -2   -1    0    0    0  501  0.00000000000E+00  0.00000000000E+00  0.11754365199E+04  0.11754365200E+04  0.25500000920E-02 0. -1.
        2   -1    0    0  501    0  0.00000000000E+00  0.00000000000E+00 -0.15473777661E+04  0.15473777661E+04  0.25500000920E-02 0.  1.
    10030    2    1    2    0    0  0.00000000000E+00  0.00000000000E+00 -0.37194124616E+03  0.27228142861E+04  0.26972907418E+04 0.  0.
        4    1    3    3  502    0 -0.49885149400E+03 -0.79901465311E+03 -0.11602801649E+04  0.14944995493E+04  0.12699999809E+01 0.  1.
       -4    1    3    3    0  502  0.49885149400E+03  0.79901465311E+03  0.78833891870E+03  0.12283147368E+04  0.12699999809E+01 0. -1.
</event>
<event>
 5   0  0.1991277E-06  0.2700689E+04  0.7818609E-02  0.8334781E-01
        2   -1    0    0  501    0  0.00000000000E+00  0.00000000000E+00  0.21196531594E+04  0.21196531594E+04  0.25500000920E-02 0. -1.
       -2   -1    0    0    0  501  0.00000000000E+00  0.00000000000E+00 -0.86024961638E+03  0.86024961638E+03  0.25500000920E-02 0.  1.
    10030    2    1    2    0    0  0.00000000000E+00  0.00000000000E+00  0.12594035430E+04  0.29799027757E+04  0.27006894062E+04 0.  0.
        5    1    3    3  502    0 -0.12690355083E+04 -0.44669018120E+03  0.75754934618E+03  0.15439839187E+04  0.46999998093E+01 0. -1.
       -5    1    3    3    0  502  0.12690355083E+04  0.44669018120E+03  0.50185419680E+03  0.14359188571E+04  0.46999998093E+01 0.  1.
</event>
<event>
 5   0  0.6561875E-07  0.2705339E+04  0.7818609E-02  0.8333275E-01
        4   -1    0    0  501    0  0.00000000000E+00  0.00000000000E+00  0.16875548560E+04  0.16875553338E+04  0.12699999809E+01 0. -1.
       -4   -1    0    0    0  501  0.00000000000E+00  0.00000000000E+00 -0.10842395010E+04  0.10842402448E+04  0.12699999809E+01 0.  1.
    10030    2    1    2    0    0  0.00000000000E+00  0.00000000000E+00  0.60331535497E+03  0.27717955786E+04  0.27053394079E+04 0.  0.
        2    1    3    3  502    0  0.65171977842E+03 -0.56657990513E+03  0.13683688460E+04  0.16180805781E+04  0.25500000920E-02 0. -1.
       -2    1    3    3    0  502 -0.65171977842E+03  0.56657990513E+03 -0.76505349098E+03  0.11537150006E+04  0.25500000920E-02 0.  1.
</event>
<event>
 5   0  0.7768032E-07  0.2706928E+04  0.7818609E-02  0.8332761E-01
        1   -1    0    0  501    0  0.00000000000E+00  0.00000000000E+00  0.55134193055E+03  0.55134193057E+03  0.50400001928E-02 0.  1.
       -1   -1    0    0    0  501  0.00000000000E+00  0.00000000000E+00 -0.33225565849E+04  0.33225565849E+04  0.50400001928E-02 0. -1.
    10030    2    1    2    0    0  0.00000000000E+00  0.00000000000E+00 -0.27712146544E+04  0.38738985155E+04  0.27069279724E+04 0.  0.
        4    1    3    3  502    0 -0.12713161519E+04 -0.11743732857E+02 -0.72129011910E+03  0.14617262815E+04  0.12699999809E+01 0.  1.
       -4    1    3    3    0  502  0.12713161519E+04  0.11743732857E+02 -0.20499245353E+04  0.24121722340E+04  0.12699999809E+01 0. -1.
</event>
<event>
 5   0  0.7768032E-07  0.2698331E+04  0.7818609E-02  0.8335547E-01
       -1   -1    0    0    0  501  0.00000000000E+00  0.00000000000E+00  0.14113674212E+04  0.14113674212E+04  0.50400001928E-02 0.  1.
        1   -1    0    0  501    0  0.00000000000E+00  0.00000000000E+00 -0.12897044723E+04  0.12897044723E+04  0.50400001928E-02 0. -1.
    10030    2    1    2    0    0  0.00000000000E+00  0.00000000000E+00  0.12166294892E+03  0.27010718934E+04  0.26983305024E+04 0.  0.
        4    1    3    3  502    0  0.64878991822E+03  0.96012871386E+03 -0.63086240906E+03  0.13193803459E+04  0.12699999809E+01 0. -1.
       -4    1    3    3    0  502 -0.64878991822E+03 -0.96012871386E+03  0.75252535798E+03  0.13816915475E+04  0.12699999809E+01 0.  1.
</event>
<event>
 5   0  0.7566905E-07  0.2700656E+04  0.7818609E-02  0.8334792E-01
        1   -1    0    0  501    0  0.00000000000E+00  0.00000000000E+00  0.90053659797E+03  0.90053659798E+03  0.50400001928E-02 0.  1.
       -1   -1    0    0    0  501  0.00000000000E+00  0.00000000000E+00 -0.20247776009E+04  0.20247776009E+04  0.50400001928E-02 0. -1.
    10030    2    1    2    0    0  0.00000000000E+00  0.00000000000E+00 -0.11242410029E+04  0.29253141989E+04  0.27006564627E+04 0.  0.
        1    1    3    3  502    0 -0.11008665218E+04 -0.34097905341E+03 -0.13243732224E+04  0.17556019612E+04  0.50400001928E-02 0. -1.
       -1    1    3    3    0  502  0.11008665218E+04  0.34097905341E+03  0.20013221952E+03  0.11697122377E+04  0.50400001928E-02 0.  1.
</event>
<event>
 5   0  0.6561875E-07  0.2709133E+04  0.7818609E-02  0.8332048E-01
        4   -1    0    0  501    0  0.00000000000E+00  0.00000000000E+00  0.12356342015E+04  0.12356348542E+04  0.12699999809E+01 0. -1.
       -4   -1    0    0    0  501  0.00000000000E+00  0.00000000000E+00 -0.14849450310E+04  0.14849455741E+04  0.12699999809E+01 0.  1.
    10030    2    1    2    0    0  0.00000000000E+00  0.00000000000E+00 -0.24931082949E+03  0.27205804282E+04  0.27091330674E+04 0.  0.
        4    1    3    3  502    0 -0.11815661618E+04  0.69617769196E+02 -0.78615242438E+03  0.14209090315E+04  0.12699999809E+01 0.  1.
       -4    1    3    3    0  502  0.11815661618E+04 -0.69617769196E+02  0.53684159489E+03  0.12996713967E+04  0.12699999809E+01 0. -1.
</event>
<event>
 5   0  0.1999104E-06  0.2681930E+04  0.7818609E-02  0.8340892E-01
        2   -1    0    0  501    0  0.00000000000E+00  0.00000000000E+00  0.15185389468E+04  0.15185389468E+04  0.25500000920E-02 0.  1.
       -2   -1    0    0    0  501  0.00000000000E+00  0.00000000000E+00 -0.11841558361E+04  0.11841558361E+04  0.25500000920E-02 0. -1.
    10030    2    1    2    0    0  0.00000000000E+00  0.00000000000E+00  0.33438311073E+03  0.27026947829E+04  0.26819297203E+04 0.  0.
        4    1    3    3  502    0  0.12015688721E+04  0.21174253260E+03  0.72790091277E+03  0.14207195382E+04  0.12699999809E+01 0.  1.
       -4    1    3    3    0  502 -0.12015688721E+04 -0.21174253260E+03 -0.39351780203E+03  0.12819752447E+04  0.12699999809E+01 0. -1.
</event>
<event>
 5   0  0.2030645E-06  0.2695669E+04  0.7818609E-02  0.8336411E-01
       -2   -1    0    0    0  501  0.00000000000E+00  0.00000000000E+00  0.87228544542E+03  0.87228544543E+03  0.25500000920E-02 0.  1.
        2   -1    0    0  501    0  0.00000000000E+00  0.00000000000E+00 -0.20826421796E+04  0.20826421796E+04  0.25500000920E-02 0. -1.
    10030    2    1    2    0    0  0.00000000000E+00  0.00000000000E+00 -0.12103567341E+04  0.29549276250E+04  0.26956694614E+04 0.  0.
        1    1    3    3  502    0 -0.70346143099E+03 -0.10142242596E+04 -0.11986840517E+04  0.17205674324E+04  0.50400001928E-02 0. -1.
       -1    1    3    3    0  502  0.70346143099E+03  0.10142242596E+04 -0.11672682459E+02  0.12343601926E+04  0.50400001928E-02 0.  1.
</event>
<event>
 5   0  0.2030645E-06  0.2722093E+04  0.7818609E-02  0.8327872E-01
        2   -1    0    0  501    0  0.00000000000E+00  0.00000000000E+00  0.16696582346E+04  0.16696582346E+04  0.25500000920E-02 0.  1.
       -2   -1    0    0    0  501  0.00000000000E+00  0.00000000000E+00 -0.11094770482E+04  0.11094770482E+04  0.25500000920E-02 0. -1.
    10030    2    1    2    0    0  0.00000000000E+00  0.00000000000E+00  0.56018118643E+03  0.27791352828E+04  0.27220929371E+04 0.  0.
        1    1    3    3  502    0  0.49112721005E+03 -0.11559716446E+04  0.81545595956E+03  0.14974794829E+04  0.50400001928E-02 0.  1.
       -1    1    3    3    0  502 -0.49112721005E+03  0.11559716446E+04 -0.25527477313E+03  0.12816557999E+04  0.50400001928E-02 0. -1.
</event>
<event>
 5   0  0.7436613E-07  0.2699280E+04  0.7818609E-02  0.8335239E-01
        1   -1    0    0  501    0  0.00000000000E+00  0.00000000000E+00  0.81253154313E+03  0.81253154314E+03  0.50400001928E-02 0.  1.
       -1   -1    0    0    0  501  0.00000000000E+00  0.00000000000E+00 -0.22417936267E+04  0.22417936267E+04  0.50400001928E-02 0. -1.
    10030    2    1    2    0    0  0.00000000000E+00  0.00000000000E+00 -0.14292620835E+04  0.30543251698E+04  0.26992799298E+04 0.  0.
        2    1    3    3  502    0 -0.11247766453E+03 -0.67173105003E+03 -0.20330757767E+04  0.21441247497E+04  0.25500000920E-02 0. -1.
       -2    1    3    3    0  502  0.11247766453E+03  0.67173105003E+03  0.60381369319E+03  0.91020042006E+03  0.25500000920E-02 0.  1.
</event>
<event>
 5   0  0.7806808E-07  0.2699082E+04  0.7818609E-02  0.8335303E-01
       -1   -1    0    0    0  501  0.00000000000E+00  0.00000000000E+00  0.12879399786E+04  0.12879399786E+04  0.50400001928E-02 0.  1.
        1   -1    0    0  501    0  0.00000000000E+00  0.00000000000E+00 -0.14140887221E+04  0.14140887221E+04  0.50400001928E-02 0. -1.
    10030    2    1    2    0    0  0.00000000000E+00  0.00000000000E+00 -0.12614874350E+03  0.27020287007E+04  0.26990823614E+04 0.  0.
        5    1    3    3  502    0 -0.22410384267E+03 -0.19019236646E+02  0.12690378143E+04  0.12888224578E+04  0.46999998093E+01 0.  1.
       -5    1    3    3    0  502  0.22410384267E+03  0.19019236646E+02 -0.13951865578E+04  0.14132062428E+04  0.46999998093E+01 0. -1.
</event>
<event>
 5   0  0.1991277E-06  0.2697345E+04  0.7818609E-02  0.8335867E-01
        2   -1    0    0  501    0  0.00000000000E+00  0.00000000000E+00  0.13370378387E+04  0.13370378387E+04  0.25500000920E-02 0. -1.
       -2   -1    0    0    0  501  0.00000000000E+00  0.00000000000E+00 -0.13604083356E+04  0.13604083356E+04  0.25500000920E-02 0.  1.
    10030    2    1    2    0    0  0.00000000000E+00  0.00000000000E+00 -0.23370496896E+02  0.26974461743E+04  0.26973449322E+04 0.  0.
        5    1    3    3  502    0  0.12815418837E+04 -0.40943112129E+03 -0.10609158915E+03  0.13495410175E+04  0.46999998093E+01 0. -1.
       -5    1    3    3    0  502 -0.12815418837E+04  0.40943112129E+03  0.82721092253E+02  0.13479051568E+04  0.46999998093E+01 0.  1.
</event>
<event>
 5   0  0.7768032E-07  0.2707264E+04  0.7818609E-02  0.8332652E-01
        1   -1    0    0  501    0  0.00000000000E+00  0.00000000000E+00  0.13662449835E+04  0.13662449835E+04  0.50400001928E-02 0.  1.
       -1   -1    0    0    0  501  0.00000000000E+00  0.00000000000E+00 -0.13411357612E+04  0.13411357613E+04  0.50400001928E-02 0. -1.
    10030    2    1    2    0    0  0.00000000000E+00  0.00000000000E+00  0.25109222208E+02  0.27073807447E+04  0.27072643062E+04 0.  0.
        4    1    3    3  502    0  0.41203945892E+03  0.12858370580E+04  0.10829240892E+03  0.13545782791E+04  0.12699999809E+01 0.  1.
       -4    1    3    3    0  502 -0.41203945892E+03 -0.12858370580E+04 -0.83183186715E+02  0.13528024656E+04  0.12699999809E+01 0. -1.
</event>
<event>
 5   0  0.1932012E-06  0.2700028E+04  0.7818609E-02  0.8334996E-01
        2   -1    0    0  501    0  0.00000000000E+00  0.00000000000E+00  0.31184169745E+04  0.31184169745E+04  0.25500000920E-02 0.  1.
       -2   -1    0    0    0  501  0.00000000000E+00  0.00000000000E+00 -0.58444316956E+03  0.58444316956E+03  0.25500000920E-02 0. -1.
    10030    2    1    2    0    0  0.00000000000E+00  0.00000000000E+00  0.25339738049E+04  0.37028601440E+04  0.27000277781E+04 0.  0.
        2    1    3    3  502    0 -0.55102187867E+03 -0.93163154818E+02 -0.41836679123E+03  0.69809401673E+03  0.25500000920E-02 0. -1.
       -2    1    3    3    0  502  0.55102187867E+03  0.93163154818E+02  0.29523405961E+04  0.30047661273E+04  0.25500000920E-02 0.  1.
</event>
<event>
 5   0  0.7566905E-07  0.2697499E+04  0.7818609E-02  0.8335817E-01
        1   -1    0    0  501    0  0.00000000000E+00  0.00000000000E+00  0.11825247540E+04  0.11825247540E+04  0.50400001928E-02 0. -1.
       -1   -1    0    0    0  501  0.00000000000E+00  0.00000000000E+00 -0.15383402352E+04  0.15383402352E+04  0.50400001928E-02 0.  1.
    10030    2    1    2    0    0  0.00000000000E+00  0.00000000000E+00 -0.35581548122E+03  0.27208649892E+04  0.26974991442E+04 0.  0.
        1    1    3    3  502    0  0.87314955049E+02  0.72662873930E+03 -0.13206431223E+04  0.15098713464E+04  0.50400001928E-02 0.  1.
       -1    1    3    3    0  502 -0.87314955049E+02 -0.72662873930E+03  0.96482764103E+03  0.12109936429E+04  0.50400001928E-02 0. -1.
</event>
<event>
 5   0  0.2063087E-06  0.2696569E+04  0.7818609E-02  0.8336119E-01
       -2   -1    0    0    0  501  0.00000000000E+00  0.00000000000E+00  0.74247196244E+03  0.74247196245E+03  0.25500000920E-02 0.  1.
        2   -1    0    0  501    0  0.00000000000E+00  0.00000000000E+00 -0.24484028731E+04  0.24484028731E+04  0.25500000920E-02 0. -1.
    10030    2    1    2    0    0  0.00000000000E+00  0.00000000000E+00 -0.17059309106E+04  0.31908748355E+04  0.26965685499E+04 0.  0.
        3    1    3    3  502    0  0.84784811529E+03 -0.86442987411E+03 -0.15548036328E+04  0.19706597323E+04  0.10100000352E+00 0. -1.
       -3    1    3    3    0  502 -0.84784811529E+03  0.86442987411E+03 -0.15112727788E+03  0.12202151032E+04  0.10100000352E+00 0.  1.
</event>
<event>
 5   0  0.6561875E-07  0.2704084E+04  0.7818609E-02  0.8333681E-01
       -4   -1    0    0    0  501  0.00000000000E+00  0.00000000000E+00  0.10309376903E+04  0.10309384725E+04  0.12699999809E+01 0.  1.
        4   -1    0    0  501    0  0.00000000000E+00  0.00000000000E+00 -0.17731580769E+04  0.17731585317E+04  0.12699999809E+01 0. -1.
    10030    2    1    2    0    0  0.00000000000E+00  0.00000000000E+00 -0.74222038659E+03  0.28040970042E+04  0.27040837462E+04 0.  0.
        3    1    3    3  502    0  0.14493498919E+03 -0.12858221692E+04 -0.77761983739E+03  0.15096481125E+04  0.10100000352E+00 0. -1.
       -3    1    3    3    0  502 -0.14493498919E+03  0.12858221692E+04  0.35399450795E+02  0.12944488917E+04  0.10100000352E+00 0.  1.
</event>
<event>
 5   0  0.7566905E-07  0.2694733E+04  0.7818609E-02  0.8336716E-01
        1   -1    0    0  501    0  0.00000000000E+00  0.00000000000E+00  0.14184093724E+04  0.14184093724E+04  0.50400001928E-02 0. -1.
       -1   -1    0    0    0  501  0.00000000000E+00  0.00000000000E+00 -0.12798819668E+04  0.12798819668E+04  0.50400001928E-02 0.  1.
    10030    2    1    2    0    0  0.00000000000E+00  0.00000000000E+00  0.13852740566E+03  0.26982913392E+04  0.26947330683E+04 0.  0.
        1    1    3    3  502    0  0.11137539971E+04 -0.30874473492E+03 -0.62420063102E+03  0.13135439487E+04  0.50400001928E-02 0.  1.
       -1    1    3    3    0  502 -0.11137539971E+04  0.30874473492E+03  0.76272803668E+03  0.13847473905E+04  0.50400001928E-02 0. -1.
</event>
<event>
 5   0  0.7768032E-07  0.2699476E+04  0.7818609E-02  0.8335175E-01
       -1   -1    0    0    0  501  0.00000000000E+00  0.00000000000E+00  0.91135262113E+03  0.91135262115E+03  0.50400001928E-02 0.  1.
        1   -1    0    0  501    0  0.00000000000E+00  0.00000000000E+00 -0.19989990787E+04  0.19989990787E+04  0.50400001928E-02 0. -1.
    10030    2    1    2    0    0  0.00000000000E+00  0.00000000000E+00 -0.10876464575E+04  0.29103516998E+04  0.26994762826E+04 0.  0.
        4    1    3    3  502    0 -0.51739028215E+03  0.10433209602E+04  0.19181309610E+03  0.11802564157E+04  0.12699999809E+01 0.  1.
       -4    1    3    3    0  502  0.51739028215E+03 -0.10433209602E+04 -0.12794595537E+04  0.17300952842E+04  0.12699999809E+01 0. -1.
</event>
<event>
 5   0  0.6561875E-07  0.2700985E+04  0.7818609E-02  0.8334685E-01
       -3   -1    0    0    0  501  0.00000000000E+00  0.00000000000E+00  0.19502913174E+04  0.19502913200E+04  0.10100000352E+00 0.  1.
        3   -1    0    0  501    0  0.00000000000E+00  0.00000000000E+00 -0.93515769887E+03  0.93515770433E+03  0.10100000352E+00 0. -1.
    10030    2    1    2    0    0  0.00000000000E+00  0.00000000000E+00  0.10151336185E+04  0.28854490244E+04  0.27009849701E+04 0.  0.
        4    1    3    3  502    0 -0.11893032589E+04 -0.52003571885E+03  0.90578296116E+03  0.15828214606E+04  0.12699999809E+01 0.  1.
       -4    1    3    3    0  502  0.11893032589E+04  0.52003571885E+03  0.10935065738E+03  0.13026275637E+04  0.12699999809E+01 0. -1.
</event>
<event>
 5   0  0.7806808E-07  0.2699893E+04  0.7818609E-02  0.8335040E-01
        1   -1    0    0  501    0  0.00000000000E+00  0.00000000000E+00  0.13000378762E+04  0.13000378762E+04  0.50400001928E-02 0.  1.
       -1   -1    0    0    0  501  0.00000000000E+00  0.00000000000E+00 -0.14017708241E+04  0.14017708241E+04  0.50400001928E-02 0. -1.
    10030    2    1    2    0    0  0.00000000000E+00  0.00000000000E+00 -0.10173294797E+03  0.27018087003E+04  0.26998927128E+04 0.  0.
        5    1    3    3  502    0 -0.10263140808E+04  0.77630777036E+03 -0.45902689119E+03  0.13662730780E+04  0.46999998093E+01 0. -1.
       -5    1    3    3    0  502  0.10263140808E+04 -0.77630777036E+03  0.35729394322E+03  0.13355356224E+04  0.46999998093E+01 0.  1.
</event>
<event>
 5   0  0.6561875E-07  0.2719406E+04  0.7818609E-02  0.8328736E-01
       -4   -1    0    0    0  501  0.00000000000E+00  0.00000000000E+00  0.16806579857E+04  0.16806584655E+04  0.12699999809E+01 0.  1.
        4   -1    0    0  501    0  0.00000000000E+00  0.00000000000E+00 -0.11000393337E+04  0.11000400668E+04  0.12699999809E+01 0. -1.
    10030    2    1    2    0    0  0.00000000000E+00  0.00000000000E+00  0.58061865203E+03  0.27806985323E+04  0.27194055064E+04 0.  0.
        1    1    3    3  502    0  0.85077221514E+02 -0.10341618029E+04 -0.60816619932E+03  0.12027447336E+04  0.50400001928E-02 0. -1.
       -1    1    3    3    0  502 -0.85077221514E+02  0.10341618029E+04  0.11887848514E+04  0.15779537987E+04  0.50400001928E-02 0.  1.
</event>
<event>
 5   0  0.1991277E-06  0.2707468E+04  0.7818609E-02  0.8332586E-01
        2   -1    0    0  501    0  0.00000000000E+00  0.00000000000E+00  0.12394998199E+04  0.12394998199E+04  0.25500000920E-02 0. -1.
       -2   -1    0    0    0  501  0.00000000000E+00  0.00000000000E+00 -0.14784957672E+04  0.14784957672E+04  0.25500000920E-02 0.  1.
    10030    2    1    2    0    0  0.00000000000E+00  0.00000000000E+00 -0.23899594732E+03  0.27179955872E+04  0.27074676266E+04 0.  0.
        5    1    3    3  502    0  0.12934802545E+04  0.19908243577E+03 -0.46703506690E+03  0.13895570621E+04  0.46999998093E+01 0.  1.
       -5    1    3    3    0  502 -0.12934802545E+04 -0.19908243577E+03  0.22803911958E+03  0.13284385251E+04  0.46999998093E+01 0. -1.
</event>
<event>
 5   0  0.1991277E-06  0.2705146E+04  0.7818609E-02  0.8333337E-01
       -2   -1    0    0    0  501  0.00000000000E+00  0.00000000000E+00  0.21425484557E+04  0.21425484557E+04  0.25500000920E-02 0.  1.
        2   -1    0    0  501    0  0.00000000000E+00  0.00000000000E+00 -0.85386796228E+03  0.85386796228E+03  0.25500000920E-02 0. -1.
    10030    2    1    2    0    0  0.00000000000E+00  0.00000000000E+00  0.12886804935E+04  0.29964164180E+04  0.27051458253E+04 0.  0.
        5    1    3    3  502    0 -0.92640156892E+03 -0.84650492736E+03  0.12032936397E+04  0.17385994744E+04  0.46999998093E+01 0.  1.
       -5    1    3    3    0  502  0.92640156892E+03  0.84650492736E+03  0.85386853758E+02  0.12578169437E+04  0.46999998093E+01 0. -1.
</event>
<event>
 5   0  0.1991277E-06  0.2695571E+04  0.7818609E-02  0.8336443E-01
       -2   -1    0    0    0  501  0.00000000000E+00  0.00000000000E+00  0.81740072123E+03  0.81740072123E+03  0.25500000920E-02 0.  1.
        2   -1    0    0  501    0  0.00000000000E+00  0.00000000000E+00 -0.22223196668E+04  0.22223196668E+04  0.25500000920E-02 0. -1.
    10030    2    1    2    0    0  0.00000000000E+00  0.00000000000E+00 -0.14049189455E+04  0.30397203880E+04  0.26955709587E+04 0.  0.
        5    1    3    3  502    0 -0.70656550691E+03 -0.11560401970E+02  0.59173052050E+03  0.92170253192E+03  0.46999998093E+01 0.  1.
       -5    1    3    3    0  502  0.70656550691E+03  0.11560401970E+02 -0.19966494660E+04  0.21180178561E+04  0.46999998093E+01 0. -1.
</event>
<event>
 5   0  0.7436613E-07  0.2698121E+04  0.7818609E-02  0.8335615E-01
        1   -1    0    0  501    0  0.00000000000E+00  0.00000000000E+00  0.21801109269E+04  0.21801109269E+04  0.50400001928E-02 0.  1.
       -1   -1    0    0    0  501  0.00000000000E+00  0.00000000000E+00 -0.83480346737E+03  0.83480346739E+03  0.50400001928E-02 0. -1.
    10030    2    1    2    0    0  0.00000000000E+00  0.00000000000E+00  0.13453074596E+04  0.30149143943E+04  0.26981209469E+04 0.  0.
        2    1    3    3  502    0 -0.21330491422E+03  0.62701041671E+03 -0.64063800444E+03  0.92144348813E+03  0.25500000920E-02 0. -1.
       -2    1    3    3    0  502  0.21330491422E+03 -0.62701041671E+03  0.19859454640E+04  0.20934709062E+04  0.25500000920E-02 0.  1.
</event>
<event>
 5   0  0.2063087E-06  0.2698103E+04  0.7818609E-02  0.8335621E-01
        2   -1    0    0  501    0  0.00000000000E+00  0.00000000000E+00  0.15177291244E+04  0.15177291244E+04  0.25500000920E-02 0. -1.
       -2   -1    0    0    0  501  0.00000000000E+00  0.00000000000E+00 -0.11991204496E+04  0.11991204496E+04  0.25500000920E-02 0.  1.
    10030    2    1    2    0    0  0.00000000000E+00  0.00000000000E+00  0.31860867477E+03  0.27168495740E+04  0.26981030596E+04 0.  0.
        3    1    3    3  502    0  0.10521836768E+04  0.48791884044E+03  0.85313810523E+03  0.14397916243E+04  0.10100000352E+00 0. -1.
       -3    1    3    3    0  502 -0.10521836768E+04 -0.48791884044E+03 -0.53452943046E+03  0.12770579497E+04  0.10100000352E+00 0.  1.
</event>
<event>
 5   0  0.1932012E-06  0.2707482E+04  0.7818609E-02  0.8332582E-01
        2   -1    0    0  501    0  0.00000000000E+00  0.00000000000E+00  0.20375031252E+04  0.20375031252E+04  0.25500000920E-02 0.  1.
       -2   -1    0    0    0  501  0.00000000000E+00  0.00000000000E+00 -0.89944109075E+03  0.89944109075E+03  0.25500000920E-02 0. -1.
    10030    2    1    2    0    0  0.00000000000E+00  0.00000000000E+00  0.11380620344E+04  0.29369442159E+04  0.27074815112E+04 0.  0.
        2    1    3    3  502    0 -0.52415914692E+03 -0.80680165674E+03 -0.46401585976E+03  0.10681677971E+04  0.25500000920E-02 0. -1.
       -2    1    3    3    0  502  0.52415914692E+03  0.80680165674E+03  0.16020778942E+04  0.18687764189E+04  0.25500000920E-02 0.  1.
</event>
<event>
 5   0  0.2063087E-06  0.2702400E+04  0.7818609E-02  0.8334227E-01
        2   -1    0    0  501    0  0.00000000000E+00  0.00000000000E+00  0.15459315713E+04  0.15459315713E+04  0.25500000920E-02 0.  1.
       -2   -1    0    0    0  501  0.00000000000E+00  0.00000000000E+00 -0.11809973604E+04  0.11809973604E+04  0.25500000920E-02 0. -1.
    10030    2    1    2    0    0  0.00000000000E+00  0.00000000000E+00  0.36493421094E+03  0.27269289317E+04  0.27023997521E+04 0.  0.
        3    1    3    3  502    0 -0.31014983325E+03  0.27406506022E+02  0.15092389135E+04  0.15410211368E+04  0.10100000352E+00 0.  1.
       -3    1    3    3    0  502  0.31014983325E+03 -0.27406506022E+02 -0.11443047026E+04  0.11859077950E+04  0.10100000352E+00 0. -1.
</event>
<event>
 5   0  0.7436613E-07  0.2697584E+04  0.7818609E-02  0.8335789E-01
       -1   -1    0    0    0  501  0.00000000000E+00  0.00000000000E+00  0.12762522392E+04  0.12762522392E+04  0.50400001928E-02 0.  1.
        1   -1    0    0  501    0  0.00000000000E+00  0.00000000000E+00 -0.14254546834E+04  0.14254546834E+04  0.50400001928E-02 0. -1.
    10030    2    1    2    0    0  0.00000000000E+00  0.00000000000E+00 -0.14920244423E+03  0.27017069226E+04  0.26975839053E+04 0.  0.
        2    1    3    3  502    0  0.12735602027E+04 -0.43981008032E+03 -0.13675439108E+03  0.13542858857E+04  0.25500000920E-02 0.  1.
       -2    1    3    3    0  502 -0.12735602027E+04  0.43981008032E+03 -0.12448053154E+02  0.13474210369E+04  0.25500000920E-02 0. -1.
</event>
<event>
 5   0  0.1932012E-06  0.2697026E+04  0.7818609E-02  0.8335971E-01
        2   -1    0    0  501    0  0.00000000000E+00  0.00000000000E+00  0.15122077130E+04  0.15122077130E+04  0.25500000920E-02 0.  1.
       -2   -1    0    0    0  501  0.00000000000E+00  0.00000000000E+00 -0.12025377228E+04  0.12025377228E+04  0.25500000920E-02 0. -1.
    10030    2    1    2    0    0  0.00000000000E+00  0.00000000000E+00  0.30966999020E+03  0.27147454358E+04  0.26970256354E+04 0.  0.
        2    1    3    3  502    0 -0.56048903274E+03  0.33757418251E+03 -0.10320569680E+04  0.12219843983E+04  0.25500000920E-02 0. -1.
       -2    1    3    3    0  502  0.56048903274E+03 -0.33757418251E+03  0.13417269582E+04  0.14927610374E+04  0.25500000920E-02 0.  1.
</event>
<event>
 5   0  0.7768032E-07  0.2698770E+04  0.7818609E-02  0.8335404E-01
       -1   -1    0    0    0  501  0.00000000000E+00  0.00000000000E+00  0.96866443491E+03  0.96866443492E+03  0.50400001928E-02 0.  1.
        1   -1    0    0  501    0  0.00000000000E+00  0.00000000000E+00 -0.18797420186E+04  0.18797420187E+04  0.50400001928E-02 0. -1.
    10030    2    1    2    0    0  0.00000000000E+00  0.00000000000E+00 -0.91107758373E+03  0.28484064536E+04  0.26987695272E+04 0.  0.
        4    1    3    3  502    0 -0.12726864524E+04 -0.23944397644E+03 -0.55340306852E+02  0.12961976648E+04  0.12699999809E+01 0.  1.
       -4    1    3    3    0  502  0.12726864524E+04  0.23944397644E+03 -0.85573727688E+03  0.15522087887E+04  0.12699999809E+01 0. -1.
</event>
<event>
 5   0  0.7768032E-07  0.2700041E+04  0.7818609E-02  0.8334992E-01
        1   -1    0    0  501    0  0.00000000000E+00  0.00000000000E+00  0.12748224585E+04  0.12748224585E+04  0.50400001928E-02 0. -1.
       -1   -1    0    0    0  501  0.00000000000E+00  0.00000000000E+00 -0.14296539377E+04  0.14296539377E+04  0.50400001928E-02 0.  1.
    10030    2    1    2    0    0  0.00000000000E+00  0.00000000000E+00 -0.15483147917E+03  0.27044763962E+04  0.27000407017E+04 0.  0.
        4    1    3    3  502    0 -0.50335748887E+03 -0.11906202270E+04  0.31259270689E+03  0.13299101849E+04  0.12699999809E+01 0. -1.
       -4    1    3    3    0  502  0.50335748887E+03  0.11906202270E+04 -0.46742418606E+03  0.13745662113E+04  0.12699999809E+01 0.  1.
</event>
<event>
 5   0  0.1999104E-06  0.2698616E+04  0.7818609E-02  0.8335454E-01
       -2   -1    0    0    0  501  0.00000000000E+00  0.00000000000E+00  0.65605065117E+03  0.65605065117E+03  0.25500000920E-02 0.  1.
        2   -1    0    0  501    0  0.00000000000E+00  0.00000000000E+00 -0.27751405127E+04  0.27751405127E+04  0.25500000920E-02 0. -1.
    10030    2    1    2    0    0  0.00000000000E+00  0.00000000000E+00 -0.21190898615E+04  0.34311911638E+04  0.26986164903E+04 0.  0.
        4    1    3    3  502    0 -0.45922068648E+02 -0.12952435221E+04 -0.15367528278E+04  0.20103172597E+04  0.12699999809E+01 0.  1.
       -4    1    3    3    0  502  0.45922068648E+02  0.12952435221E+04 -0.58233703366E+03  0.14208739042E+04  0.12699999809E+01 0. -1.
</event>
<event>
 5   0  0.7335091E-07  0.2699636E+04  0.7818609E-02  0.8335123E-01
       -1   -1    0    0    0  501  0.00000000000E+00  0.00000000000E+00  0.13191428961E+04  0.13191428961E+04  0.50400001928E-02 0.  1.
        1   -1    0    0  501    0  0.00000000000E+00  0.00000000000E+00 -0.13812067747E+04  0.13812067747E+04  0.50400001928E-02 0. -1.
    10030    2    1    2    0    0  0.00000000000E+00  0.00000000000E+00 -0.62063878653E+02  0.27003496708E+04  0.26996363495E+04 0.  0.
        3    1    3    3  502    0 -0.75540339381E+03 -0.46043840058E+03  0.98873304465E+03  0.13267369189E+04  0.10100000352E+00 0.  1.
       -3    1    3    3    0  502  0.75540339381E+03  0.46043840058E+03 -0.10507969233E+04  0.13736127520E+04  0.10100000352E+00 0. -1.
</event>
<event>
 5   0  0.7436613E-07  0.2697541E+04  0.7818609E-02  0.8335803E-01
       -1   -1    0    0    0  501  0.00000000000E+00  0.00000000000E+00  0.15452938629E+04  0.15452938629E+04  0.50400001928E-02 0.  1.
        1   -1    0    0  501    0  0.00000000000E+00  0.00000000000E+00 -0.11772400278E+04  0.11772400278E+04  0.50400001928E-02 0. -1.
    10030    2    1    2    0    0  0.00000000000E+00  0.00000000000E+00  0.36805383510E+03  0.27225338907E+04  0.26975409470E+04 0.  0.
        2    1    3    3  502    0  0.41464014989E+03  0.51759585725E+03 -0.10013117917E+04  0.12010234092E+04  0.25500000920E-02 0. -1.
       -2    1    3    3    0  502 -0.41464014989E+03 -0.51759585725E+03  0.13693656268E+04  0.15215104815E+04  0.25500000920E-02 0.  1.
</event>
<event>
 5   0  0.2063087E-06  0.2701458E+04  0.7818609E-02  0.8334532E-01
        2   -1    0    0  501    0  0.00000000000E+00  0.00000000000E+00  0.25540806308E+04  0.25540806308E+04  0.25500000920E-02 0. -1.
       -2   -1    0    0    0  501  0.00000000000E+00  0.00000000000E+00 -0.71433482762E+03  0.71433482763E+03  0.25500000920E-02 0.  1.
    10030    2    1    2    0    0  0.00000000000E+00  0.00000000000E+00  0.18397458032E+04  0.32684154584E+04  0.27014579376E+04 0.  0.
        3    1    3    3  502    0  0.10047709226E+04  0.41158793579E+03 -0.52173510422E+02  0.10870562640E+04  0.10100000352E+00 0.  1.
       -3    1    3    3    0  502 -0.10047709226E+04 -0.41158793579E+03  0.18919193136E+04  0.21813591944E+04  0.10100000352E+00 0. -1.
</event>
<event>
 5   0  0.2063087E-06  0.2701963E+04  0.7818609E-02  0.8334368E-01
        2   -1    0    0  501    0  0.00000000000E+00  0.00000000000E+00  0.14724818700E+04  0.14724818700E+04  0.25500000920E-02 0.  1.
       -2   -1    0    0    0  501  0.00000000000E+00  0.00000000000E+00 -0.12395069856E+04  0.12395069856E+04  0.25500000920E-02 0. -1.
    10030    2    1    2    0    0  0.00000000000E+00  0.00000000000E+00  0.23297488442E+03  0.27119888556E+04  0.27019634076E+04 0.  0.
        3    1    3    3  502    0 -0.68422589645E+03  0.50617187162E+03  0.11695593189E+04  0.14464591427E+04  0.10100000352E+00 0.  1.
       -3    1    3    3    0  502  0.68422589645E+03 -0.50617187162E+03 -0.93658443446E+03  0.12655297128E+04  0.10100000352E+00 0. -1.
</event>
<event>
 5   0  0.1932012E-06  0.2701611E+04  0.7818609E-02  0.8334482E-01
       -2   -1    0    0    0  501  0.00000000000E+00  0.00000000000E+00  0.73816212411E+03  0.73816212411E+03  0.25500000920E-02 0.  1.
        2   -1    0    0  501    0  0.00000000000E+00  0.00000000000E+00 -0.24719173939E+04  0.24719173939E+04  0.25500000920E-02 0. -1.
    10030    2    1    2    0    0  0.00000000000E+00  0.00000000000E+00 -0.17337552698E+04  0.32100795180E+04  0.27016112186E+04 0.  0.
        2    1    3    3  502    0 -0.43686218875E+01  0.12471772095E+04 -0.25037479828E+03  0.12720682436E+04  0.25500000920E-02 0.  1.
       -2    1    3    3    0  502  0.43686218875E+01 -0.12471772095E+04 -0.14833804715E+04  0.19380112745E+04  0.25500000920E-02 0. -1.
</event>
<event>
 5   0  0.7566905E-07  0.2701598E+04  0.7818609E-02  0.8334487E-01
        1   -1    0    0  501    0  0.00000000000E+00  0.00000000000E+00  0.17196707618E+04  0.17196707618E+04  0.50400001928E-02 0. -1.
       -1   -1    0    0    0  501  0.00000000000E+00  0.00000000000E+00 -0.10610509329E+04  0.10610509329E+04  0.50400001928E-02 0.  1.
    10030    2    1    2    0    0  0.00000000000E+00  0.00000000000E+00  0.65861982891E+03  0.27807216947E+04  0.27015982426E+04 0.  0.
        1    1    3    3  502    0 -0.12783032387E+04 -0.22917081098E+02  0.77805324503E+03  0.14966466566E+04  0.50400001928E-02 0. -1.
       -1    1    3    3    0  502  0.12783032387E+04  0.22917081098E+02 -0.11943341612E+03  0.12840750381E+04  0.50400001928E-02 0.  1.
</event>
<event>
 5   0  0.1999104E-06  0.2701026E+04  0.7818609E-02  0.8334672E-01
       -2   -1    0    0    0  501  0.00000000000E+00  0.00000000000E+00  0.11938415766E+04  0.11938415766E+04  0.25500000920E-02 0.  1.
        2   -1    0    0  501    0  0.00000000000E+00  0.00000000000E+00 -0.15277446519E+04  0.15277446519E+04  0.25500000920E-02 0. -1.
    10030    2    1    2    0    0  0.00000000000E+00  0.00000000000E+00 -0.33390307526E+03  0.27215862285E+04  0.27010257932E+04 0.  0.
        4    1    3    3  502    0  0.11329660322E+03  0.12402821500E+04 -0.69317933758E+03  0.14253543906E+04  0.12699999809E+01 0. -1.
       -4    1    3    3    0  502 -0.11329660322E+03 -0.12402821500E+04  0.35927626232E+03  0.12962318379E+04  0.12699999809E+01 0.  1.
</event>
<event>
 5   0  0.7335091E-07  0.2702362E+04  0.7818609E-02  0.8334239E-01
       -1   -1    0    0    0  501  0.00000000000E+00  0.00000000000E+00  0.70037106293E+03  0.70037106295E+03  0.50400001928E-02 0.  1.
        1   -1    0    0  501    0  0.00000000000E+00  0.00000000000E+00 -0.26067465356E+04  0.26067465356E+04  0.50400001928E-02 0. -1.
    10030    2    1    2    0    0  0.00000000000E+00  0.00000000000E+00 -0.19063754727E+04  0.33071175986E+04  0.27023618129E+04 0.  0.
        3    1    3    3  502    0 -0.21329241099E+03 -0.29185860660E+03 -0.25464705877E+04  0.25720006927E+04  0.10100000352E+00 0. -1.
       -3    1    3    3    0  502  0.21329241099E+03  0.29185860660E+03  0.64009511504E+03  0.73511690589E+03  0.10100000352E+00 0.  1.
</event>
<event>
 5   0  0.2063087E-06  0.2698873E+04  0.7818609E-02  0.8335371E-01
       -2   -1    0    0    0  501  0.00000000000E+00  0.00000000000E+00  0.81434043179E+03  0.81434043180E+03  0.25500000920E-02 0.  1.
        2   -1    0    0  501    0  0.00000000000E+00  0.00000000000E+00 -0.22361393421E+04  0.22361393421E+04  0.25500000920E-02 0. -1.
    10030    2    1    2    0    0  0.00000000000E+00  0.00000000000E+00 -0.14217989104E+04  0.30504797739E+04  0.26988728591E+04 0.  0.
        3    1    3    3  502    0 -0.55989503896E+03 -0.43601283171E+03  0.58640749294E+03  0.92057775448E+03  0.10100000352E+00 0.  1.
       -3    1    3    3    0  502  0.55989503896E+03  0.43601283171E+03 -0.20082064033E+04  0.21299020195E+04  0.10100000352E+00 0. -1.
</event>
<event>
 5   0  0.1991277E-06  0.2693472E+04  0.7818609E-02  0.8337126E-01
       -2   -1    0    0    0  501  0.00000000000E+00  0.00000000000E+00  0.10064730187E+04  0.10064730187E+04  0.25500000920E-02 0.  1.
        2   -1    0    0  501    0  0.00000000000E+00  0.00000000000E+00 -0.18020329874E+04  0.18020329874E+04  0.25500000920E-02 0. -1.
    10030    2    1    2    0    0  0.00000000000E+00  0.00000000000E+00 -0.79555996868E+03  0.28085060060E+04  0.26934717972E+04 0.  0.
        5    1    3    3  502    0  0.64232861739E+03  0.11228973343E+04 -0.78819185462E+03  0.15148442051E+04  0.46999998093E+01 0.  1.
       -5    1    3    3    0  502 -0.64232861739E+03 -0.11228973343E+04 -0.73681140634E+01  0.12936618009E+04  0.46999998093E+01 0. -1.
</event>
<event>
 5   0  0.7566905E-07  0.2653377E+04  0.7818609E-02  0.8350293E-01
        1   -1    0    0  501    0  0.00000000000E+00  0.00000000000E+00  0.10502122640E+04  0.10502122640E+04  0.50400001928E-02 0. -1.
       -1   -1    0    0    0  501  0.00000000000E+00  0.00000000000E+00 -0.16759496779E+04  0.16759496779E+04  0.50400001928E-02 0.  1.
    10030    2    1    2    0    0  0.00000000000E+00  0.00000000000E+00 -0.62573741398E+03  0.27261619419E+04  0.26533773991E+04 0.  0.
        1    1    3    3  502    0  0.85421455459E+03  0.22120817589E+03  0.70500753278E+03  0.11294472912E+04  0.50400001928E-02 0. -1.
       -1    1    3    3    0  502 -0.85421455459E+03 -0.22120817589E+03 -0.13307449468E+04  0.15967146507E+04  0.50400001928E-02 0.  1.
</event>
<event>
 5   0  0.7566905E-07  0.2696707E+04  0.7818609E-02  0.8336074E-01
        1   -1    0    0  501    0  0.00000000000E+00  0.00000000000E+00  0.15729318141E+04  0.15729318141E+04  0.50400001928E-02 0.  1.
       -1   -1    0    0    0  501  0.00000000000E+00  0.00000000000E+00 -0.11558393753E+04  0.11558393753E+04  0.50400001928E-02 0. -1.
    10030    2    1    2    0    0  0.00000000000E+00  0.00000000000E+00  0.41709243876E+03  0.27287711894E+04  0.26967065286E+04 0.  0.
        1    1    3    3  502    0 -0.28479350756E+03  0.12708905977E+04  0.56167458384E+03  0.14183612345E+04  0.50400001928E-02 0.  1.
       -1    1    3    3    0  502  0.28479350756E+03 -0.12708905977E+04 -0.14458214508E+03  0.13104099549E+04  0.50400001928E-02 0. -1.
</event>
<event>
 5   0  0.2030645E-06  0.2701415E+04  0.7818609E-02  0.8334546E-01
        2   -1    0    0  501    0  0.00000000000E+00  0.00000000000E+00  0.16882397908E+04  0.16882397908E+04  0.25500000920E-02 0. -1.
       -2   -1    0    0    0  501  0.00000000000E+00  0.00000000000E+00 -0.10806584104E+04  0.10806584104E+04  0.25500000920E-02 0.  1.
    10030    2    1    2    0    0  0.00000000000E+00  0.00000000000E+00  0.60758138043E+03  0.27688982013E+04  0.27014148358E+04 0.  0.
        1    1    3    3  502    0  0.47252118464E+03  0.18334414456E+03  0.15870728029E+04  0.16660406438E+04  0.50400001928E-02 0. -1.
       -1    1    3    3    0  502 -0.47252118464E+03 -0.18334414456E+03 -0.97949142244E+03  0.11028575574E+04  0.50400001928E-02 0.  1.
</event>
<event>
 5   0  0.7768032E-07  0.2701155E+04  0.7818609E-02  0.8334630E-01
        1   -1    0    0  501    0  0.00000000000E+00  0.00000000000E+00  0.21995696166E+04  0.21995696166E+04  0.50400001928E-02 0.  1.
       -1   -1    0    0    0  501  0.00000000000E+00  0.00000000000E+00 -0.82928046453E+03  0.82928046455E+03  0.50400001928E-02 0. -1.
    10030    2    1    2    0    0  0.00000000000E+00  0.00000000000E+00  0.13702891520E+04  0.30288500811E+04  0.27011553924E+04 0.  0.
        4    1    3    3  502    0  0.50620878811E+03  0.12506372559E+04  0.75351378712E+03  0.15453561153E+04  0.12699999809E+01 0. -1.
       -4    1    3    3    0  502 -0.50620878811E+03 -0.12506372559E+04  0.61677536491E+03  0.14834939658E+04  0.12699999809E+01 0.  1.
</event>
<event>
 5   0  0.1991277E-06  0.2703502E+04  0.7818609E-02  0.8333870E-01
        2   -1    0    0  501    0  0.00000000000E+00  0.00000000000E+00  0.13047741177E+04  0.13047741177E+04  0.25500000920E-02 0. -1.
       -2   -1    0    0    0  501  0.00000000000E+00  0.00000000000E+00 -0.14004190726E+04  0.14004190726E+04  0.25500000920E-02 0.  1.
    10030    2    1    2    0    0  0.00000000000E+00  0.00000000000E+00 -0.95644954863E+02  0.27051931903E+04  0.27035018475E+04 0.  0.
        5    1    3    3  502    0  0.10848157421E+04  0.58015083793E+03 -0.60835887055E+03  0.13724149498E+04  0.46999998093E+01 0.  1.
       -5    1    3    3    0  502 -0.10848157421E+04 -0.58015083793E+03  0.51271391568E+03  0.13327782405E+04  0.46999998093E+01 0. -1.
</event>
<event>
 5   0  0.7436613E-07  0.2698984E+04  0.7818609E-02  0.8335335E-01
       -1   -1    0    0    0  501  0.00000000000E+00  0.00000000000E+00  0.12761656718E+04  0.12761656718E+04  0.50400001928E-02 0. -1.
        1   -1    0    0  501    0  0.00000000000E+00  0.00000000000E+00 -0.14270311508E+04  0.14270311509E+04  0.50400001928E-02 0.  1.
    10030    2    1    2    0    0  0.00000000000E+00  0.00000000000E+00 -0.15086547901E+03  0.27031968227E+04  0.26989836364E+04 0.  0.
        2    1    3    3  502    0  0.33119567777E+03 -0.82458206077E+02  0.12322233166E+04  0.12786180957E+04  0.25500000920E-02 0. -1.
       -2    1    3    3    0  502 -0.33119567777E+03  0.82458206077E+02 -0.13830887956E+04  0.14245787270E+04  0.25500000920E-02 0.  1.
</event>
<event>
 5   0  0.7806808E-07  0.2678446E+04  0.7818609E-02  0.8342033E-01
        1   -1    0    0  501    0  0.00000000000E+00  0.00000000000E+00  0.17108558874E+04  0.17108558874E+04  0.50400001928E-02 0. -1.
       -1   -1    0    0    0  501  0.00000000000E+00  0.00000000000E+00 -0.10483161127E+04  0.10483161127E+04  0.50400001928E-02 0.  1.
    10030    2    1    2    0    0  0.00000000000E+00  0.00000000000E+00  0.66253977470E+03  0.27591720001E+04  0.26784456637E+04 0.  0.
        5    1    3    3  502    0  0.10252935684E+04 -0.25612209759E+03 -0.51612235268E+03  0.11761079046E+04  0.46999998093E+01 0.  1.
       -5    1    3    3    0  502 -0.10252935684E+04  0.25612209759E+03  0.11786621274E+04  0.15830640956E+04  0.46999998093E+01 0. -1.
</event>
<event>
 5   0  0.7335091E-07  0.2700690E+04  0.7818609E-02  0.8334781E-01
       -1   -1    0    0    0  501  0.00000000000E+00  0.00000000000E+00  0.12477063385E+04  0.12477063386E+04  0.50400001928E-02 0. -1.
        1   -1    0    0  501    0  0.00000000000E+00  0.00000000000E+00 -0.14614270037E+04  0.14614270037E+04  0.50400001928E-02 0.  1.
    10030    2    1    2    0    0  0.00000000000E+00  0.00000000000E+00 -0.21372066520E+03  0.27091333423E+04  0.27006900866E+04 0.  0.
        3    1    3    3  502    0 -0.11986034526E+03 -0.12827484060E+04 -0.51262679452E+03  0.13865771583E+04  0.10100000352E+00 0.  1.
       -3    1    3    3    0  502  0.11986034526E+03  0.12827484060E+04  0.29890612933E+03  0.13225561840E+04  0.10100000352E+00 0. -1.
</event>
<event>
 5   0  0.1991277E-06  0.2628360E+04  0.7818609E-02  0.8358631E-01
       -2   -1    0    0    0  501  0.00000000000E+00  0.00000000000E+00  0.59277642186E+03  0.59277642187E+03  0.25500000920E-02 0.  1.
        2   -1    0    0  501    0  0.00000000000E+00  0.00000000000E+00 -0.29135256995E+04  0.29135256995E+04  0.25500000920E-02 0. -1.
    10030    2    1    2    0    0  0.00000000000E+00  0.00000000000E+00 -0.23207492776E+04  0.35063021214E+04  0.26283602030E+04 0.  0.
        5    1    3    3  502    0  0.18163788173E+03 -0.13008130827E+04 -0.11016130372E+04  0.17142579648E+04  0.46999998093E+01 0. -1.
       -5    1    3    3    0  502 -0.18163788173E+03  0.13008130827E+04 -0.12191362404E+04  0.17920441565E+04  0.46999998093E+01 0.  1.
</event>
<event>
 5   0  0.7436613E-07  0.2700210E+04  0.7818609E-02  0.8334937E-01
        1   -1    0    0  501    0  0.00000000000E+00  0.00000000000E+00  0.16940282949E+04  0.16940282949E+04  0.50400001928E-02 0. -1.
       -1   -1    0    0    0  501  0.00000000000E+00  0.00000000000E+00 -0.10760055762E+04  0.10760055762E+04  0.50400001928E-02 0.  1.
    10030    2    1    2    0    0  0.00000000000E+00  0.00000000000E+00  0.61802271865E+03  0.27700338711E+04  0.27002102819E+04 0.  0.
        2    1    3    3  502    0 -0.62794636268E+03 -0.10058194518E+04  0.97130178393E+03  0.15327806626E+04  0.25500000920E-02 0. -1.
       -2    1    3    3    0  502  0.62794636268E+03  0.10058194518E+04 -0.35327906529E+03  0.12372532085E+04  0.25500000920E-02 0.  1.
</event>
<event>
 5   0  0.7335091E-07  0.2696846E+04  0.7818609E-02  0.8336029E-01
        1   -1    0    0  501    0  0.00000000000E+00  0.00000000000E+00  0.18358162632E+04  0.18358162632E+04  0.50400001928E-02 0.  1.
       -1   -1    0    0    0  501  0.00000000000E+00  0.00000000000E+00 -0.99042815211E+03  0.99042815213E+03  0.50400001928E-02 0. -1.
    10030    2    1    2    0    0  0.00000000000E+00  0.00000000000E+00  0.84538811111E+03  0.28262444154E+04  0.26968456457E+04 0.  0.
        3    1    3    3  502    0  0.11928041526E+04 -0.58911575209E+03  0.19212625133E+03  0.13441546126E+04  0.10100000352E+00 0.  1.
       -3    1    3    3    0  502 -0.11928041526E+04  0.58911575209E+03  0.65326185977E+03  0.14820898028E+04  0.10100000352E+00 0. -1.
</event>
<event>
 5   0  0.1991277E-06  0.2665215E+04  0.7818609E-02  0.8346380E-01
       -2   -1    0    0    0  501  0.00000000000E+00  0.00000000000E+00  0.18497921801E+04  0.18497921801E+04  0.25500000920E-02 0. -1.
        2   -1    0    0  501    0  0.00000000000E+00  0.00000000000E+00 -0.96002294507E+03  0.96002294507E+03  0.25500000920E-02 0.  1.
    10030    2    1    2    0    0  0.00000000000E+00  0.00000000000E+00  0.88976923505E+03  0.28098151252E+04  0.26652151407E+04 0.  0.
        5    1    3    3  502    0 -0.10189142007E+04  0.70812933596E+03 -0.67473908095E+02  0.12426617090E+04  0.46999998093E+01 0.  1.
       -5    1    3    3    0  502  0.10189142007E+04 -0.70812933596E+03  0.95724314315E+03  0.15671534162E+04  0.46999998093E+01 0. -1.
</event>
<event>
 5   0  0.6561875E-07  0.2695896E+04  0.7818609E-02  0.8336338E-01
        4   -1    0    0  501    0  0.00000000000E+00  0.00000000000E+00  0.91224815114E+03  0.91224903516E+03  0.12699999809E+01 0. -1.
       -4   -1    0    0    0  501  0.00000000000E+00  0.00000000000E+00 -0.19917410549E+04  0.19917414598E+04  0.12699999809E+01 0.  1.
    10030    2    1    2    0    0  0.00000000000E+00  0.00000000000E+00 -0.10794929037E+04  0.29039904949E+04  0.26958961155E+04 0.  0.
        4    1    3    3  502    0 -0.12747909799E+04  0.38393935847E+03 -0.76687988508E+03  0.15364269733E+04  0.12699999809E+01 0.  1.
       -4    1    3    3    0  502  0.12747909799E+04 -0.38393935847E+03 -0.31261301864E+03  0.13675635216E+04  0.12699999809E+01 0. -1.
</event>
<event>
 5   0  0.2030645E-06  0.2694000E+04  0.7818609E-02  0.8336954E-01
        2   -1    0    0  501    0  0.00000000000E+00  0.00000000000E+00  0.89550019558E+03  0.89550019558E+03  0.25500000920E-02 0. -1.
       -2   -1    0    0    0  501  0.00000000000E+00  0.00000000000E+00 -0.20261403436E+04  0.20261403436E+04  0.25500000920E-02 0.  1.
    10030    2    1    2    0    0  0.00000000000E+00  0.00000000000E+00 -0.11306401480E+04  0.29216405392E+04  0.26940000549E+04 0.  0.
        1    1    3    3  502    0  0.12325943426E+04  0.19630493077E+03 -0.11146642247E+04  0.16734099238E+04  0.50400001928E-02 0.  1.
       -1    1    3    3    0  502 -0.12325943426E+04 -0.19630493077E+03 -0.15975923360E+02  0.12482306154E+04  0.50400001928E-02 0. -1.
</event>
<event>
 5   0  0.7768032E-07  0.2696877E+04  0.7818609E-02  0.8336019E-01
       -1   -1    0    0    0  501  0.00000000000E+00  0.00000000000E+00  0.76806928331E+03  0.76806928333E+03  0.50400001928E-02 0. -1.
        1   -1    0    0  501    0  0.00000000000E+00  0.00000000000E+00 -0.23673469579E+04  0.23673469579E+04  0.50400001928E-02 0.  1.
    10030    2    1    2    0    0  0.00000000000E+00  0.00000000000E+00 -0.15992776746E+04  0.31354162412E+04  0.26968770690E+04 0.  0.
        4    1    3    3  502    0  0.11789749719E+04  0.37826273202E+03 -0.14205424479E+04  0.18844116158E+04  0.12699999809E+01 0. -1.
       -4    1    3    3    0  502 -0.11789749719E+04 -0.37826273202E+03 -0.17873522674E+03  0.12510046254E+04  0.12699999809E+01 0.  1.
</event>
<event>
 5   0  0.7806808E-07  0.2698830E+04  0.7818609E-02  0.8335385E-01
        1   -1    0    0  501    0  0.00000000000E+00  0.00000000000E+00  0.19211460790E+04  0.19211460790E+04  0.50400001928E-02 0. -1.
       -1   -1    0    0    0  501  0.00000000000E+00  0.00000000000E+00 -0.94783055426E+03  0.94783055428E+03  0.50400001928E-02 0.  1.
    10030    2    1    2    0    0  0.00000000000E+00  0.00000000000E+00  0.97331552471E+03  0.28689766333E+04  0.26988300820E+04 0.  0.
        5    1    3    3  502    0 -0.14980769169E+03 -0.12856223485E+04  0.89233386171E+03  0.15721160829E+04  0.46999998093E+01 0. -1.
       -5    1    3    3    0  502  0.14980769169E+03  0.12856223485E+04  0.80981662999E+02  0.12968605504E+04  0.46999998093E+01 0.  1.
</event>
<event>
 5   0  0.7335091E-07  0.2699046E+04  0.7818609E-02  0.8335314E-01
        1   -1    0    0  501    0  0.00000000000E+00  0.00000000000E+00  0.25831708493E+04  0.25831708493E+04  0.50400001928E-02 0.  1.
       -1   -1    0    0    0  501  0.00000000000E+00  0.00000000000E+00 -0.70502993899E+03  0.70502993900E+03  0.50400001928E-02 0. -1.
    10030    2    1    2    0    0  0.00000000000E+00  0.00000000000E+00  0.18781409103E+04  0.32882007883E+04  0.26990463400E+04 0.  0.
        3    1    3    3  502    0 -0.24740057367E+02 -0.23448389999E+03 -0.67974134963E+03  0.71947417076E+03  0.10100000352E+00 0. -1.
       -3    1    3    3    0  502  0.24740057367E+02  0.23448389999E+03  0.25578822600E+04  0.25687266176E+04  0.10100000352E+00 0.  1.
</event>
<event>
 5   0  0.1932012E-06  0.2695042E+04  0.7818609E-02  0.8336615E-01
       -2   -1    0    0    0  501  0.00000000000E+00  0.00000000000E+00  0.13975429546E+04  0.13975429546E+04  0.25500000920E-02 0.  1.
        2   -1    0    0  501    0  0.00000000000E+00  0.00000000000E+00 -0.12992894095E+04  0.12992894095E+04  0.25500000920E-02 0. -1.
    10030    2    1    2    0    0  0.00000000000E+00  0.00000000000E+00  0.98253545053E+02  0.26968323641E+04  0.26950419368E+04 0.  0.
        2    1    3    3  502    0 -0.68308493547E+03 -0.16399703533E+03  0.11998092747E+04  0.13903389343E+04  0.25500000920E-02 0.  1.
       -2    1    3    3    0  502  0.68308493547E+03  0.16399703533E+03 -0.11015557296E+04  0.13064934298E+04  0.25500000920E-02 0. -1.
</event>
<event>
 5   0  0.7335091E-07  0.2701293E+04  0.7818609E-02  0.8334586E-01
       -1   -1    0    0    0  501  0.00000000000E+00  0.00000000000E+00  0.77356592109E+03  0.77356592111E+03  0.50400001928E-02 0.  1.
        1   -1    0    0  501    0  0.00000000000E+00  0.00000000000E+00 -0.23582289059E+04  0.23582289060E+04  0.50400001928E-02 0. -1.
    10030    2    1    2    0    0  0.00000000000E+00  0.00000000000E+00 -0.15846629849E+04  0.31317948271E+04  0.27012926652E+04 0.  0.
        3    1    3    3  502    0 -0.76807035394E+03 -0.80278450731E+03  0.98083837869E+02  0.11153544205E+04  0.10100000352E+00 0.  1.
       -3    1    3    3    0  502  0.76807035394E+03  0.80278450731E+03 -0.16827468227E+04  0.20164404066E+04  0.10100000352E+00 0. -1.
</event>
<event>
 5   0  0.7436613E-07  0.2697478E+04  0.7818609E-02  0.8335824E-01
        1   -1    0    0  501    0  0.00000000000E+00  0.00000000000E+00  0.19002375809E+04  0.19002375809E+04  0.50400001928E-02 0. -1.
       -1   -1    0    0    0  501  0.00000000000E+00  0.00000000000E+00 -0.95729939610E+03  0.95729939612E+03  0.50400001928E-02 0.  1.
    10030    2    1    2    0    0  0.00000000000E+00  0.00000000000E+00  0.94293818476E+03  0.28575369770E+04  0.26974775540E+04 0.  0.
        2    1    3    3  502    0 -0.83148449904E+03 -0.78954559056E+03  0.12237828237E+04  0.16770191148E+04  0.25500000920E-02 0. -1.
       -2    1    3    3    0  502  0.83148449904E+03  0.78954559056E+03 -0.28084463897E+03  0.11805178622E+04  0.25500000920E-02 0.  1.
</event>
<event>
 5   0  0.7768032E-07  0.2699815E+04  0.7818609E-02  0.8335065E-01
       -1   -1    0    0    0  501  0.00000000000E+00  0.00000000000E+00  0.14405513352E+04  0.14405513352E+04  0.50400001928E-02 0.  1.
        1   -1    0    0  501    0  0.00000000000E+00  0.00000000000E+00 -0.12649676873E+04  0.12649676873E+04  0.50400001928E-02 0. -1.
    10030    2    1    2    0    0  0.00000000000E+00  0.00000000000E+00  0.17558364788E+03  0.27055190226E+04  0.26998154685E+04 0.  0.
        4    1    3    3  502    0 -0.62345444440E+03  0.43485655040E+03  0.12056993173E+04  0.14253098331E+04  0.12699999809E+01 0.  1.
       -4    1    3    3    0  502  0.62345444440E+03 -0.43485655040E+03 -0.10301156694E+04  0.12802091895E+04  0.12699999809E+01 0. -1.
</event>
<event>
 5   0  0.2063087E-06  0.2752838E+04  0.7818609E-02  0.8318062E-01
        2   -1    0    0  501    0  0.00000000000E+00  0.00000000000E+00  0.17047533725E+04  0.17047533725E+04  0.25500000920E-02 0. -1.
       -2   -1    0    0    0  501  0.00000000000E+00  0.00000000000E+00 -0.11113213975E+04  0.11113213975E+04  0.25500000920E-02 0.  1.
    10030    2    1    2    0    0  0.00000000000E+00  0.00000000000E+00  0.59343197499E+03  0.28160747700E+04  0.27528377361E+04 0.  0.
        3    1    3    3  502    0  0.89571737608E+02  0.10219455686E+04  0.12354745780E+04  0.16058621624E+04  0.10100000352E+00 0. -1.
       -3    1    3    3    0  502 -0.89571737608E+02 -0.10219455686E+04 -0.64204260305E+03  0.12102126076E+04  0.10100000352E+00 0.  1.
</event>
<event>
 5   0  0.2063087E-06  0.2683943E+04  0.7818609E-02  0.8340234E-01
        2   -1    0    0  501    0  0.00000000000E+00  0.00000000000E+00  0.89952561202E+03  0.89952561203E+03  0.25500000920E-02 0.  1.
       -2   -1    0    0    0  501  0.00000000000E+00  0.00000000000E+00 -0.20020417421E+04  0.20020417421E+04  0.25500000920E-02 0. -1.
    10030    2    1    2    0    0  0.00000000000E+00  0.00000000000E+00 -0.11025161301E+04  0.29015673541E+04  0.26839432359E+04 0.  0.
        3    1    3    3  502    0 -0.94350902167E+03 -0.91186892688E+03 -0.85545128115E+03  0.15663687683E+04  0.10100000352E+00 0. -1.
       -3    1    3    3    0  502  0.94350902167E+03  0.91186892688E+03 -0.24706484894E+03  0.13351985858E+04  0.10100000352E+00 0.  1.
</event>
<event>
 5   0  0.7436613E-07  0.2702629E+04  0.7818609E-02  0.8334153E-01
        1   -1    0    0  501    0  0.00000000000E+00  0.00000000000E+00  0.24779408433E+04  0.24779408433E+04  0.50400001928E-02 0.  1.
       -1   -1    0    0    0  501  0.00000000000E+00  0.00000000000E+00 -0.73692257461E+03  0.73692257463E+03  0.50400001928E-02 0. -1.
    10030    2    1    2    0    0  0.00000000000E+00  0.00000000000E+00  0.17410182687E+04  0.32148634180E+04  0.27026287544E+04 0.  0.
        2    1    3    3  502    0  0.81792038557E+03  0.10164307031E+04  0.12892605845E+04  0.18342077271E+04  0.25500000920E-02 0.  1.
       -2    1    3    3    0  502 -0.81792038557E+03 -0.10164307031E+04  0.45175768423E+03  0.13806556909E+04  0.25500000920E-02 0. -1.
</event>
<event>
 5   0  0.7806808E-07  0.2714182E+04  0.7818609E-02  0.8330418E-01
        1   -1    0    0  501    0  0.00000000000E+00  0.00000000000E+00  0.14124749052E+04  0.14124749052E+04  0.50400001928E-02 0. -1.
       -1   -1    0    0    0  501  0.00000000000E+00  0.00000000000E+00 -0.13038783793E+04  0.13038783793E+04  0.50400001928E-02 0.  1.
    10030    2    1    2    0    0  0.00000000000E+00  0.00000000000E+00  0.10859652591E+03  0.27163532846E+04  0.27141816375E+04 0.  0.
        5    1    3    3  502    0 -0.11320734481E+04  0.41812339582E+03  0.67548476960E+03  0.13830109291E+04  0.46999998093E+01 0.  1.
       -5    1    3    3    0  502  0.11320734481E+04 -0.41812339582E+03 -0.56688824369E+03  0.13333423555E+04  0.46999998093E+01 0. -1.
</event>
<event>
 5   0  0.1991277E-06  0.2706075E+04  0.7818609E-02  0.8333036E-01
        2   -1    0    0  501    0  0.00000000000E+00  0.00000000000E+00  0.15633830607E+04  0.15633830607E+04  0.25500000920E-02 0. -1.
       -2   -1    0    0    0  501  0.00000000000E+00  0.00000000000E+00 -0.11709930562E+04  0.11709930562E+04  0.25500000920E-02 0.  1.
    10030    2    1    2    0    0  0.00000000000E+00  0.00000000000E+00  0.39239000445E+03  0.27343761169E+04  0.27060751714E+04 0.  0.
        5    1    3    3  502    0 -0.11252583603E+04  0.12225722390E+03  0.94525436584E+03  0.14746800034E+04  0.46999998093E+01 0. -1.
       -5    1    3    3    0  502  0.11252583603E+04 -0.12225722390E+03 -0.55286436139E+03  0.12596961135E+04  0.46999998093E+01 0.  1.
</event>
<event>
 5   0  0.2030645E-06  0.2702859E+04  0.7818609E-02  0.8334078E-01
        2   -1    0    0  501    0  0.00000000000E+00  0.00000000000E+00  0.20779802881E+04  0.20779802881E+04  0.25500000920E-02 0.  1.
       -2   -1    0    0    0  501  0.00000000000E+00  0.00000000000E+00 -0.87891212286E+03  0.87891212287E+03  0.25500000920E-02 0. -1.
    10030    2    1    2    0    0  0.00000000000E+00  0.00000000000E+00  0.11990681652E+04  0.29568924109E+04  0.27028592759E+04 0.  0.
        1    1    3    3  502    0 -0.90552859835E+02 -0.13005576559E+04  0.21011160875E+03  0.13205290322E+04  0.50400001928E-02 0.  1.
       -1    1    3    3    0  502  0.90552859835E+02  0.13005576559E+04  0.98895655646E+03  0.16363633788E+04  0.50400001928E-02 0. -1.
</event>
<event>
 5   0  0.6561875E-07  0.2681684E+04  0.7818609E-02  0.8340973E-01
       -3   -1    0    0    0  501  0.00000000000E+00  0.00000000000E+00  0.14709838450E+04  0.14709838485E+04  0.10100000352E+00 0. -1.
        3   -1    0    0  501    0  0.00000000000E+00  0.00000000000E+00 -0.12222137098E+04  0.12222137140E+04  0.10100000352E+00 0.  1.
    10030    2    1    2    0    0  0.00000000000E+00  0.00000000000E+00  0.24877013527E+03  0.26931975625E+04  0.26816835254E+04 0.  0.
        1    1    3    3  502    0 -0.11928722764E+04 -0.36687027001E+03 -0.36794272605E+03  0.13011225586E+04  0.50400001928E-02 0.  1.
       -1    1    3    3    0  502  0.11928722764E+04  0.36687027001E+03  0.61671286132E+03  0.13920750038E+04  0.50400001928E-02 0. -1.
</event>
<event>
 5   0  0.7768032E-07  0.2702533E+04  0.7818609E-02  0.8334184E-01
       -1   -1    0    0    0  501  0.00000000000E+00  0.00000000000E+00  0.77729956981E+03  0.77729956983E+03  0.50400001928E-02 0. -1.
        1   -1    0    0  501    0  0.00000000000E+00  0.00000000000E+00 -0.23490572404E+04  0.23490572404E+04  0.50400001928E-02 0.  1.
    10030    2    1    2    0    0  0.00000000000E+00  0.00000000000E+00 -0.15717576706E+04  0.31263568102E+04  0.27025330210E+04 0.  0.
        4    1    3    3  502    0  0.28817960443E+01  0.70274030130E+03  0.54927289350E+03  0.89193865274E+03  0.12699999809E+01 0. -1.
       -4    1    3    3    0  502 -0.28817960443E+01 -0.70274030130E+03 -0.21210305641E+04  0.22344181575E+04  0.12699999809E+01 0.  1.
</event>
<event>
 5   0  0.1999104E-06  0.2697712E+04  0.7818609E-02  0.8335748E-01
        2   -1    0    0  501    0  0.00000000000E+00  0.00000000000E+00  0.27318428934E+04  0.27318428934E+04  0.25500000920E-02 0.  1.
       -2   -1    0    0    0  501  0.00000000000E+00  0.00000000000E+00 -0.66600198688E+03  0.66600198688E+03  0.25500000920E-02 0. -1.
    10030    2    1    2    0    0  0.00000000000E+00  0.00000000000E+00  0.20658409066E+04  0.33978448803E+04  0.26977122121E+04 0.  0.
        4    1    3    3  502    0 -0.96868318097E+03  0.63135170826E+03  0.15806121850E+03  0.11670205852E+04  0.12699999809E+01 0. -1.
       -4    1    3    3    0  502  0.96868318097E+03 -0.63135170826E+03  0.19077796881E+04  0.22308242951E+04  0.12699999809E+01 0.  1.
</event>
<event>
 5   0  0.2063087E-06  0.2709602E+04  0.7818609E-02  0.8331896E-01
        2   -1    0    0  501    0  0.00000000000E+00  0.00000000000E+00  0.14592790693E+04  0.14592790694E+04  0.25500000920E-02 0.  1.
       -2   -1    0    0    0  501  0.00000000000E+00  0.00000000000E+00 -0.12578028589E+04  0.12578028589E+04  0.25500000920E-02 0. -1.
    10030    2    1    2    0    0  0.00000000000E+00  0.00000000000E+00  0.20147621041E+03  0.27170819283E+04  0.27096017312E+04 0.  0.
        3    1    3    3  502    0 -0.10214035649E+04  0.47012450421E+03 -0.65712810510E+03  0.13023439057E+04  0.10100000352E+00 0.  1.
       -3    1    3    3    0  502  0.10214035649E+04 -0.47012450421E+03  0.85860431551E+03  0.14147380226E+04  0.10100000352E+00 0. -1.
</event>
<event>
 5   0  0.1991277E-06  0.2704282E+04  0.7818609E-02  0.8333617E-01
        2   -1    0    0  501    0  0.00000000000E+00  0.00000000000E+00  0.22330812038E+04  0.22330812038E+04  0.25500000920E-02 0. -1.
       -2   -1    0    0    0  501  0.00000000000E+00  0.00000000000E+00 -0.81872764032E+03  0.81872764033E+03  0.25500000920E-02 0.  1.
    10030    2    1    2    0    0  0.00000000000E+00  0.00000000000E+00  0.14143535634E+04  0.30518088441E+04  0.27042820153E+04 0.  0.
        5    1    3    3  502    0  0.11977422326E+04  0.79312390690E+02  0.47881428504E+01  0.12003840749E+04  0.46999998093E+01 0. -1.
       -5    1    3    3    0  502 -0.11977422326E+04 -0.79312390690E+02  0.14095654206E+04  0.18514247692E+04  0.46999998093E+01 0.  1.
</event>
<event>
 5   0  0.1991277E-06  0.2698565E+04  0.7818609E-02  0.8335471E-01
       -2   -1    0    0    0  501  0.00000000000E+00  0.00000000000E+00  0.91062070570E+03  0.91062070570E+03  0.25500000920E-02 0. -1.
        2   -1    0    0  501    0  0.00000000000E+00  0.00000000000E+00 -0.19992549817E+04  0.19992549817E+04  0.25500000920E-02 0.  1.
    10030    2    1    2    0    0  0.00000000000E+00  0.00000000000E+00 -0.10886342760E+04  0.29098756874E+04  0.26985647906E+04 0.  0.
        5    1    3    3  502    0 -0.37376473303E+03 -0.12962897393E+04 -0.56778677397E+03  0.14637182360E+04  0.46999998093E+01 0.  1.
       -5    1    3    3    0  502  0.37376473303E+03  0.12962897393E+04 -0.52084750200E+03  0.14461574513E+04  0.46999998093E+01 0. -1.
</event>
<event>
 5   0  0.1991277E-06  0.2699518E+04  0.7818609E-02  0.8335161E-01
        2   -1    0    0  501    0  0.00000000000E+00  0.00000000000E+00  0.18780218919E+04  0.18780218919E+04  0.25500000920E-02 0.  1.
       -2   -1    0    0    0  501  0.00000000000E+00  0.00000000000E+00 -0.97008966709E+03  0.97008966709E+03  0.25500000920E-02 0. -1.
    10030    2    1    2    0    0  0.00000000000E+00  0.00000000000E+00  0.90793222482E+03  0.28481115590E+04  0.26995182029E+04 0.  0.
        5    1    3    3  502    0 -0.48868501929E+03 -0.12578177353E+04  0.42215624237E+03  0.14139153038E+04  0.46999998093E+01 0.  1.
       -5    1    3    3    0  502  0.48868501929E+03  0.12578177353E+04  0.48577598245E+03  0.14341962552E+04  0.46999998093E+01 0. -1.
</event>
<event>
 5   0  0.7806808E-07  0.2721209E+04  0.7818609E-02  0.8328156E-01
       -1   -1    0    0    0  501  0.00000000000E+00  0.00000000000E+00  0.11800503947E+04  0.11800503947E+04  0.50400001928E-02 0. -1.
        1   -1    0    0  501    0  0.00000000000E+00  0.00000000000E+00 -0.15687848788E+04  0.15687848788E+04  0.50400001928E-02 0.  1.
    10030    2    1    2    0    0  0.00000000000E+00  0.00000000000E+00 -0.38873448412E+03  0.27488352736E+04  0.27212094484E+04 0.  0.
        5    1    3    3  502    0  0.61295948692E+03 -0.33513288673E+03  0.98504301242E+03  0.12076279273E+04  0.46999998093E+01 0. -1.
       -5    1    3    3    0  502 -0.61295948692E+03  0.33513288673E+03 -0.13737774965E+04  0.15412073463E+04  0.46999998093E+01 0.  1.
</event>
<event>
 5   0  0.2030645E-06  0.2678565E+04  0.7818609E-02  0.8341994E-01
       -2   -1    0    0    0  501  0.00000000000E+00  0.00000000000E+00  0.76484492873E+03  0.76484492873E+03  0.25500000920E-02 0.  1.
        2   -1    0    0  501    0  0.00000000000E+00  0.00000000000E+00 -0.23451520885E+04  0.23451520885E+04  0.25500000920E-02 0. -1.
    10030    2    1    2    0    0  0.00000000000E+00  0.00000000000E+00 -0.15803071598E+04  0.31099970173E+04  0.26785650502E+04 0.  0.
        1    1    3    3  502    0 -0.12163125697E+04 -0.45608704743E+03 -0.41169869991E+03  0.13626912642E+04  0.50400001928E-02 0. -1.
       -1    1    3    3    0  502  0.12163125697E+04  0.45608704743E+03 -0.11686084599E+04  0.17473057531E+04  0.50400001928E-02 0.  1.
</event>
<event>
 5   0  0.7436613E-07  0.2692553E+04  0.7818609E-02  0.8337425E-01
        1   -1    0    0  501    0  0.00000000000E+00  0.00000000000E+00  0.11222902261E+04  0.11222902261E+04  0.50400001928E-02 0. -1.
       -1   -1    0    0    0  501  0.00000000000E+00  0.00000000000E+00 -0.16149663537E+04  0.16149663537E+04  0.50400001928E-02 0.  1.
    10030    2    1    2    0    0  0.00000000000E+00  0.00000000000E+00 -0.49267612758E+03  0.27372565798E+04  0.26925534010E+04 0.  0.
        2    1    3    3  502    0 -0.10640472282E+04  0.57357774758E+03  0.35618486571E+03  0.12601807787E+04  0.25500000920E-02 0.  1.
       -2    1    3    3    0  502  0.10640472282E+04 -0.57357774758E+03 -0.84886099329E+03  0.14770758011E+04  0.25500000920E-02 0. -1.
</event>
<event>
 5   0  0.7768032E-07  0.2702103E+04  0.7818609E-02  0.8334323E-01
        1   -1    0    0  501    0  0.00000000000E+00  0.00000000000E+00  0.19748130473E+04  0.19748130473E+04  0.50400001928E-02 0.  1.
       -1   -1    0    0    0  501  0.00000000000E+00  0.00000000000E+00 -0.92431048772E+03  0.92431048774E+03  0.50400001928E-02 0. -1.
    10030    2    1    2    0    0  0.00000000000E+00  0.00000000000E+00  0.10505025595E+04  0.28991235350E+04  0.27021031889E+04 0.  0.
        4    1    3    3  502    0 -0.12648713920E+02 -0.54079863004E+03 -0.80304693033E+03  0.96825055303E+03  0.12699999809E+01 0. -1.
       -4    1    3    3    0  502  0.12648713920E+02  0.54079863004E+03  0.18535494899E+04  0.19308729820E+04  0.12699999809E+01 0.  1.
</event>
<event>
 5   0  0.7335091E-07  0.2713803E+04  0.7818609E-02  0.8330540E-01
       -1   -1    0    0    0  501  0.00000000000E+00  0.00000000000E+00  0.10240450242E+04  0.10240450242E+04  0.50400001928E-02 0. -1.
        1   -1    0    0  501    0  0.00000000000E+00  0.00000000000E+00 -0.17979504347E+04  0.17979504347E+04  0.50400001928E-02 0.  1.
    10030    2    1    2    0    0  0.00000000000E+00  0.00000000000E+00 -0.77390541051E+03  0.28219954590E+04  0.27138033801E+04 0.  0.
        3    1    3    3  502    0  0.80994008198E+03  0.56790882954E+03 -0.13527755260E+04  0.16758654507E+04  0.10100000352E+00 0.  1.
       -3    1    3    3    0  502 -0.80994008198E+03 -0.56790882954E+03  0.57887011544E+03  0.11461300083E+04  0.10100000352E+00 0. -1.
</event>
<event>
 5   0  0.2030645E-06  0.2702516E+04  0.7818609E-02  0.8334189E-01
        2   -1    0    0  501    0  0.00000000000E+00  0.00000000000E+00  0.19067106026E+04  0.19067106026E+04  0.25500000920E-02 0. -1.
       -2   -1    0    0    0  501  0.00000000000E+00  0.00000000000E+00 -0.95761697704E+03  0.95761697705E+03  0.25500000920E-02 0.  1.
    10030    2    1    2    0    0  0.00000000000E+00  0.00000000000E+00  0.94909362552E+03  0.28643275796E+04  0.27025161930E+04 0.  0.
        1    1    3    3  502    0  0.66504984426E+03 -0.44390676061E+03  0.16290579371E+04  0.18147105196E+04  0.50400001928E-02 0.  1.
       -1    1    3    3    0  502 -0.66504984426E+03  0.44390676061E+03 -0.67996431163E+03  0.10496170600E+04  0.50400001928E-02 0. -1.
</event>
<event>
 5   0  0.7768032E-07  0.2696376E+04  0.7818609E-02  0.8336182E-01
       -1   -1    0    0    0  501  0.00000000000E+00  0.00000000000E+00  0.80686276285E+03  0.80686276286E+03  0.50400001928E-02 0. -1.
        1   -1    0    0  501    0  0.00000000000E+00  0.00000000000E+00 -0.22526897225E+04  0.22526897225E+04  0.50400001928E-02 0.  1.
    10030    2    1    2    0    0  0.00000000000E+00  0.00000000000E+00 -0.14458269596E+04  0.30595524854E+04  0.26963764228E+04 0.  0.
        4    1    3    3  502    0  0.35950176059E+03 -0.79205489355E+02 -0.21945570010E+04  0.22252184317E+04  0.12699999809E+01 0.  1.
       -4    1    3    3    0  502 -0.35950176059E+03  0.79205489355E+02  0.74873004132E+03  0.83433405366E+03  0.12699999809E+01 0. -1.
</event>
<event>
 5   0  0.7768032E-07  0.2713527E+04  0.7818609E-02  0.8330629E-01
       -1   -1    0    0    0  501  0.00000000000E+00  0.00000000000E+00  0.17718856264E+04  0.17718856264E+04  0.50400001928E-02 0. -1.
        1   -1    0    0  501    0  0.00000000000E+00  0.00000000000E+00 -0.10388974790E+04  0.10388974790E+04  0.50400001928E-02 0.  1.
    10030    2    1    2    0    0  0.00000000000E+00  0.00000000000E+00  0.73298814735E+03  0.28107831054E+04  0.27135272325E+04 0.  0.
        4    1    3    3  502    0 -0.36331735307E+03  0.54968180351E+03 -0.86203984064E+03  0.10850179187E+04  0.12699999809E+01 0.  1.
       -4    1    3    3    0  502  0.36331735307E+03 -0.54968180351E+03  0.15950279880E+04  0.17257651867E+04  0.12699999809E+01 0. -1.
</event>
<event>
 5   0  0.7806808E-07  0.2724388E+04  0.7818609E-02  0.8327135E-01
       -1   -1    0    0    0  501  0.00000000000E+00  0.00000000000E+00  0.16361649286E+04  0.16361649286E+04  0.50400001928E-02 0. -1.
        1   -1    0    0  501    0  0.00000000000E+00  0.00000000000E+00 -0.11340990941E+04  0.11340990942E+04  0.50400001928E-02 0.  1.
    10030    2    1    2    0    0  0.00000000000E+00  0.00000000000E+00  0.50206583444E+03  0.27702640227E+04  0.27243884917E+04 0.  0.
        5    1    3    3  502    0  0.60083236295E+02  0.33041778478E+03  0.15934008229E+04  0.16284146217E+04  0.46999998093E+01 0. -1.
       -5    1    3    3    0  502 -0.60083236295E+02 -0.33041778478E+03 -0.10913349884E+04  0.11418494011E+04  0.46999998093E+01 0.  1.
</event>
<event>
 5   0  0.1932012E-06  0.2698779E+04  0.7818609E-02  0.8335401E-01
       -2   -1    0    0    0  501  0.00000000000E+00  0.00000000000E+00  0.10584725915E+04  0.10584725915E+04  0.25500000920E-02 0.  1.
        2   -1    0    0  501    0  0.00000000000E+00  0.00000000000E+00 -0.17202631267E+04  0.17202631267E+04  0.25500000920E-02 0. -1.
    10030    2    1    2    0    0  0.00000000000E+00  0.00000000000E+00 -0.66179053520E+03  0.27787357182E+04  0.26987785162E+04 0.  0.
        2    1    3    3  502    0  0.12409964915E+04 -0.52954076985E+03 -0.35058379795E+03  0.13940569279E+04  0.25500000920E-02 0.  1.
       -2    1    3    3    0  502 -0.12409964915E+04  0.52954076985E+03 -0.31120673725E+03  0.13846787903E+04  0.25500000920E-02 0. -1.
</event>
<event>
 5   0  0.1999104E-06  0.2698824E+04  0.7818609E-02  0.8335387E-01
       -2   -1    0    0    0  501  0.00000000000E+00  0.00000000000E+00  0.11995002284E+04  0.11995002284E+04  0.25500000920E-02 0. -1.
        2   -1    0    0  501    0  0.00000000000E+00  0.00000000000E+00 -0.15180592417E+04  0.15180592417E+04  0.25500000920E-02 0.  1.
    10030    2    1    2    0    0  0.00000000000E+00  0.00000000000E+00 -0.31855901330E+03  0.27175594702E+04  0.26988237492E+04 0.  0.
        4    1    3    3  502    0  0.97141383072E+03 -0.89083002656E+03 -0.45057628457E+03  0.13929262607E+04  0.12699999809E+01 0.  1.
       -4    1    3    3    0  502 -0.97141383072E+03  0.89083002656E+03  0.13201727127E+03  0.13246332094E+04  0.12699999809E+01 0. -1.
</event>
<event>
 5   0  0.1991277E-06  0.2699755E+04  0.7818609E-02  0.8335084E-01
       -2   -1    0    0    0  501  0.00000000000E+00  0.00000000000E+00  0.28088005505E+04  0.28088005505E+04  0.25500000920E-02 0.  1.
        2   -1    0    0  501    0  0.00000000000E+00  0.00000000000E+00 -0.64873582601E+03  0.64873582601E+03  0.25500000920E-02 0. -1.
    10030    2    1    2    0    0  0.00000000000E+00  0.00000000000E+00  0.21600647245E+04  0.34575363765E+04  0.26997552076E+04 0.  0.
        5    1    3    3  502    0 -0.56594353242E+03  0.12161326903E+04  0.12737363720E+04  0.18497830245E+04  0.46999998093E+01 0. -1.
       -5    1    3    3    0  502  0.56594353242E+03 -0.12161326903E+04  0.88632835245E+03  0.16077533520E+04  0.46999998093E+01 0.  1.
</event>
<event>
 5   0  0.2063087E-06  0.2699815E+04  0.7818609E-02  0.8335065E-01
        2   -1    0    0  501    0  0.00000000000E+00  0.00000000000E+00  0.17141230015E+04  0.17141230015E+04  0.25500000920E-02 0.  1.
       -2   -1    0    0    0  501  0.00000000000E+00  0.00000000000E+00 -0.10630800258E+04  0.10630800258E+04  0.25500000920E-02 0. -1.
    10030    2    1    2    0    0  0.00000000000E+00  0.00000000000E+00  0.65104297569E+03  0.27772030273E+04  0.26998147526E+04 0.  0.
        3    1    3    3  502    0  0.38354720064E+03  0.39417908266E+03  0.15936456708E+04  0.16858802266E+04  0.10100000352E+00 0.  1.
       -3    1    3    3    0  502 -0.38354720064E+03 -0.39417908266E+03 -0.94260269508E+03  0.10913228007E+04  0.10100000352E+00 0. -1.
</event>
<event>
 5   0  0.1991277E-06  0.2689553E+04  0.7818609E-02  0.8338403E-01
        2   -1    0    0  501    0  0.00000000000E+00  0.00000000000E+00  0.12537470866E+04  0.12537470866E+04  0.25500000920E-02 0. -1.
       -2   -1    0    0    0  501  0.00000000000E+00  0.00000000000E+00 -0.14424154755E+04  0.14424154755E+04  0.25500000920E-02 0.  1.
    10030    2    1    2    0    0  0.00000000000E+00  0.00000000000E+00 -0.18866838885E+03  0.26961625621E+04  0.26895532715E+04 0.  0.
        5    1    3    3  502    0  0.25601819841E+02 -0.84159790284E+03  0.95679371215E+03  0.12745268851E+04  0.46999998093E+01 0. -1.
       -5    1    3    3    0  502 -0.25601819841E+02  0.84159790284E+03 -0.11454621010E+04  0.14216356770E+04  0.46999998093E+01 0.  1.
</event>
<event>
 5   0  0.1932012E-06  0.2703307E+04  0.7818609E-02  0.8333933E-01
        2   -1    0    0  501    0  0.00000000000E+00  0.00000000000E+00  0.18840001611E+04  0.18840001611E+04  0.25500000920E-02 0.  1.
       -2   -1    0    0    0  501  0.00000000000E+00  0.00000000000E+00 -0.96972773827E+03  0.96972773827E+03  0.25500000920E-02 0. -1.
    10030    2    1    2    0    0  0.00000000000E+00  0.00000000000E+00  0.91427242283E+03  0.28537278994E+04  0.27033070230E+04 0.  0.
        2    1    3    3  502    0  0.61501006288E+03 -0.10292950554E+04 -0.20150528005E+03  0.12158495246E+04  0.25500000920E-02 0. -1.
       -2    1    3    3    0  502 -0.61501006288E+03  0.10292950554E+04  0.11157777029E+04  0.16378783748E+04  0.25500000920E-02 0.  1.
</event>
<event>
 5   0  0.7566905E-07  0.2714253E+04  0.7818609E-02  0.8330395E-01
       -1   -1    0    0    0  501  0.00000000000E+00  0.00000000000E+00  0.93930966861E+03  0.93930966862E+03  0.50400001928E-02 0.  1.
        1   -1    0    0  501    0  0.00000000000E+00  0.00000000000E+00 -0.19607938144E+04  0.19607938144E+04  0.50400001928E-02 0. -1.
    10030    2    1    2    0    0  0.00000000000E+00  0.00000000000E+00 -0.10214841458E+04  0.29001034830E+04  0.27142531850E+04 0.  0.
        1    1    3    3  502    0  0.13754039783E+03 -0.25650176619E+02  0.93158322508E+03  0.94203110239E+03  0.50400001928E-02 0.  1.
       -1    1    3    3    0  502 -0.13754039783E+03  0.25650176619E+02 -0.19530673708E+04  0.19580723806E+04  0.50400001928E-02 0. -1.
</event>
<event>
 5   0  0.7768032E-07  0.2704933E+04  0.7818609E-02  0.8333406E-01
       -1   -1    0    0    0  501  0.00000000000E+00  0.00000000000E+00  0.15135223226E+04  0.15135223226E+04  0.50400001928E-02 0.  1.
        1   -1    0    0  501    0  0.00000000000E+00  0.00000000000E+00 -0.12085486165E+04  0.12085486165E+04  0.50400001928E-02 0. -1.
    10030    2    1    2    0    0  0.00000000000E+00  0.00000000000E+00  0.30497370612E+03  0.27220709392E+04  0.27049327600E+04 0.  0.
        4    1    3    3  502    0  0.55923222937E+03 -0.12077957720E+04  0.39411726646E+03  0.13881071089E+04  0.12699999809E+01 0. -1.
       -4    1    3    3    0  502 -0.55923222937E+03  0.12077957720E+04 -0.89143560337E+02  0.13339638303E+04  0.12699999809E+01 0.  1.
</event>
<event>
 5   0  0.1999104E-06  0.2702240E+04  0.7818609E-02  0.8334279E-01
       -2   -1    0    0    0  501  0.00000000000E+00  0.00000000000E+00  0.10440099829E+04  0.10440099829E+04  0.25500000920E-02 0. -1.
        2   -1    0    0  501    0  0.00000000000E+00  0.00000000000E+00 -0.17485707586E+04  0.17485707586E+04  0.25500000920E-02 0.  1.
    10030    2    1    2    0    0  0.00000000000E+00  0.00000000000E+00 -0.70456077569E+03  0.27925807414E+04  0.27022400543E+04 0.  0.
        4    1    3    3  502    0 -0.35334031457E+03 -0.88453506386E+03 -0.13425820232E+04  0.16461408685E+04  0.12699999809E+01 0.  1.
       -4    1    3    3    0  502  0.35334031457E+03  0.88453506386E+03  0.63802124749E+03  0.11464398729E+04  0.12699999809E+01 0. -1.
</event>
<event>
 5   0  0.1999104E-06  0.2696173E+04  0.7818609E-02  0.8336248E-01
       -2   -1    0    0    0  501  0.00000000000E+00  0.00000000000E+00  0.19079343844E+04  0.19079343844E+04  0.25500000920E-02 0. -1.
        2   -1    0    0  501    0  0.00000000000E+00  0.00000000000E+00 -0.95251541672E+03  0.95251541672E+03  0.25500000920E-02 0.  1.
    10030    2    1    2    0    0  0.00000000000E+00  0.00000000000E+00  0.95541896772E+03  0.28604498012E+04  0.26961727803E+04 0.  0.
        4    1    3    3  502    0 -0.83912316889E+03  0.91347608859E+03  0.10378653452E+04  0.16173225852E+04  0.12699999809E+01 0. -1.
       -4    1    3    3    0  502  0.83912316889E+03 -0.91347608859E+03 -0.82446377467E+02  0.12431272160E+04  0.12699999809E+01 0.  1.
</event>
<event>
 5   0  0.7436613E-07  0.2697247E+04  0.7818609E-02  0.8335899E-01
       -1   -1    0    0    0  501  0.00000000000E+00  0.00000000000E+00  0.87162226803E+03  0.87162226804E+03  0.50400001928E-02 0. -1.
        1   -1    0    0  501    0  0.00000000000E+00  0.00000000000E+00 -0.20866667719E+04  0.20866667719E+04  0.50400001928E-02 0.  1.
    10030    2    1    2    0    0  0.00000000000E+00  0.00000000000E+00 -0.12150445039E+04  0.29582890400E+04  0.26972469108E+04 0.  0.
        2    1    3    3  502    0 -0.24481529054E+03  0.69749532102E+03  0.62963060861E+03  0.97101439362E+03  0.25500000920E-02 0. -1.
       -2    1    3    3    0  502  0.24481529054E+03 -0.69749532102E+03 -0.18446751125E+04  0.19872746463E+04  0.25500000920E-02 0.  1.
</event>
<event>
 5   0  0.7436613E-07  0.2700006E+04  0.7818609E-02  0.8335003E-01
        1   -1    0    0  501    0  0.00000000000E+00  0.00000000000E+00  0.14375081687E+04  0.14375081687E+04  0.50400001928E-02 0. -1.
       -1   -1    0    0    0  501  0.00000000000E+00  0.00000000000E+00 -0.12678249564E+04  0.12678249564E+04  0.50400001928E-02 0.  1.
    10030    2    1    2    0    0  0.00000000000E+00  0.00000000000E+00  0.16968321226E+03  0.27053331251E+04  0.27000064676E+04 0.  0.
        2    1    3    3  502    0 -0.88228649507E+02 -0.47984407352E+02  0.14337597627E+04  0.14372730621E+04  0.25500000920E-02 0. -1.
       -2    1    3    3    0  502  0.88228649507E+02  0.47984407352E+02 -0.12640765504E+04  0.12680600630E+04  0.25500000920E-02 0.  1.
</event>
<event>
 5   0  0.1932012E-06  0.2697190E+04  0.7818609E-02  0.8335917E-01
       -2   -1    0    0    0  501  0.00000000000E+00  0.00000000000E+00  0.11756803568E+04  0.11756803568E+04  0.25500000920E-02 0.  1.
        2   -1    0    0  501    0  0.00000000000E+00  0.00000000000E+00 -0.15469409918E+04  0.15469409918E+04  0.25500000920E-02 0. -1.
    10030    2    1    2    0    0  0.00000000000E+00  0.00000000000E+00 -0.37126063502E+03  0.27226213487E+04  0.26971897503E+04 0.  0.
        2    1    3    3  502    0  0.12577124119E+04 -0.39043603086E+03 -0.47893383928E+03  0.14013059722E+04  0.25500000920E-02 0. -1.
       -2    1    3    3    0  502 -0.12577124119E+04  0.39043603086E+03  0.10767320426E+03  0.13213153765E+04  0.25500000920E-02 0.  1.
</event>
<event>
 5   0  0.2063087E-06  0.2666848E+04  0.7818609E-02  0.8345843E-01
        2   -1    0    0  501    0  0.00000000000E+00  0.00000000000E+00  0.16240467092E+04  0.16240467092E+04  0.25500000920E-02 0.  1.
       -2   -1    0    0    0  501  0.00000000000E+00  0.00000000000E+00 -0.10948077359E+04  0.10948077359E+04  0.25500000920E-02 0. -1.
    10030    2    1    2    0    0  0.00000000000E+00  0.00000000000E+00  0.52923897331E+03  0.27188544451E+04  0.26668475028E+04 0.  0.
        3    1    3    3  502    0 -0.46507018917E+03  0.86617755950E+03 -0.65376107765E+03  0.11806597318E+04  0.10100000352E+00 0. -1.
       -3    1    3    3    0  502  0.46507018917E+03 -0.86617755950E+03  0.11830000510E+04  0.15381947134E+04  0.10100000352E+00 0.  1.
</event>
<event>
 5   0  0.1932012E-06  0.2702157E+04  0.7818609E-02  0.8334305E-01
        2   -1    0    0  501    0  0.00000000000E+00  0.00000000000E+00  0.22757611989E+04  0.22757611989E+04  0.25500000920E-02 0.  1.
       -2   -1    0    0    0  501  0.00000000000E+00  0.00000000000E+00 -0.80211120812E+03  0.80211120812E+03  0.25500000920E-02 0. -1.
    10030    2    1    2    0    0  0.00000000000E+00  0.00000000000E+00  0.14736499907E+04  0.30778724070E+04  0.27021573341E+04 0.  0.
        2    1    3    3  502    0 -0.53837939318E+03 -0.12279466226E+04  0.54722216892E+03  0.14481565458E+04  0.25500000920E-02 0.  1.
       -2    1    3    3    0  502  0.53837939318E+03  0.12279466226E+04  0.92642782183E+03  0.16297158612E+04  0.25500000920E-02 0. -1.
</event>
<event>
 5   0  0.2030645E-06  0.2699666E+04  0.7818609E-02  0.8335113E-01
       -2   -1    0    0    0  501  0.00000000000E+00  0.00000000000E+00  0.74170709753E+03  0.74170709754E+03  0.25500000920E-02 0. -1.
        2   -1    0    0  501    0  0.00000000000E+00  0.00000000000E+00 -0.24565620243E+04  0.24565620243E+04  0.25500000920E-02 0.  1.
    10030    2    1    2    0    0  0.00000000000E+00  0.00000000000E+00 -0.17148549268E+04  0.31982691218E+04  0.26996662675E+04 0.  0.
        1    1    3    3  502    0  0.96487148370E+03 -0.22916789813E+03 -0.19422797123E+04  0.21808130104E+04  0.50400001928E-02 0.  1.
       -1    1    3    3    0  502 -0.96487148370E+03  0.22916789813E+03  0.22742478552E+03  0.10174561114E+04  0.50400001928E-02 0. -1.
</event>
<event>
 5   0  0.7806808E-07  0.2706382E+04  0.7818609E-02  0.8332937E-01
        1   -1    0    0  501    0  0.00000000000E+00  0.00000000000E+00  0.20823986925E+04  0.20823986925E+04  0.50400001928E-02 0.  1.
       -1   -1    0    0    0  501  0.00000000000E+00  0.00000000000E+00 -0.87933503557E+03  0.87933503559E+03  0.50400001928E-02 0. -1.
    10030    2    1    2    0    0  0.00000000000E+00  0.00000000000E+00  0.12030636569E+04  0.29617337281E+04  0.27063821817E+04 0.  0.
        5    1    3    3  502    0  0.33494885857E+03 -0.12908265257E+04  0.85270920219E+03  0.15828957422E+04  0.46999998093E+01 0. -1.
       -5    1    3    3    0  502 -0.33494885857E+03  0.12908265257E+04  0.35035445473E+03  0.13788379858E+04  0.46999998093E+01 0.  1.
</event>
<event>
 5   0  0.1991277E-06  0.2704241E+04  0.7818609E-02  0.8333630E-01
        2   -1    0    0  501    0  0.00000000000E+00  0.00000000000E+00  0.14571023052E+04  0.14571023052E+04  0.25500000920E-02 0.  1.
       -2   -1    0    0    0  501  0.00000000000E+00  0.00000000000E+00 -0.12547020330E+04  0.12547020330E+04  0.25500000920E-02 0. -1.
    10030    2    1    2    0    0  0.00000000000E+00  0.00000000000E+00  0.20240027221E+03  0.27118043382E+04  0.27042405400E+04 0.  0.
        5    1    3    3  502    0  0.11892590129E+04 -0.58347765363E+03 -0.17052633033E+03  0.13356213878E+04  0.46999998093E+01 0. -1.
       -5    1    3    3    0  502 -0.11892590129E+04  0.58347765363E+03  0.37292660254E+03  0.13761829504E+04  0.46999998093E+01 0.  1.
</event>
<event>
 5   0  0.1999104E-06  0.2689654E+04  0.7818609E-02  0.8338370E-01
        2   -1    0    0  501    0  0.00000000000E+00  0.00000000000E+00  0.17743233172E+04  0.17743233172E+04  0.25500000920E-02 0. -1.
       -2   -1    0    0    0  501  0.00000000000E+00  0.00000000000E+00 -0.10192952259E+04  0.10192952259E+04  0.25500000920E-02 0.  1.
    10030    2    1    2    0    0  0.00000000000E+00  0.00000000000E+00  0.75502809130E+03  0.27936185430E+04  0.26896537222E+04 0.  0.
        4    1    3    3  502    0 -0.28659895986E+03 -0.12020110734E+04  0.92867427781E+03  0.15457707176E+04  0.12699999809E+01 0. -1.
       -4    1    3    3    0  502  0.28659895986E+03  0.12020110734E+04 -0.17364618651E+03  0.12478478254E+04  0.12699999809E+01 0.  1.
</event>
<event>
 5   0  0.1932012E-06  0.2699398E+04  0.7818609E-02  0.8335200E-01
       -2   -1    0    0    0  501  0.00000000000E+00  0.00000000000E+00  0.82334949451E+03  0.82334949452E+03  0.25500000920E-02 0. -1.
        2   -1    0    0  501    0  0.00000000000E+00  0.00000000000E+00 -0.22125318533E+04  0.22125318533E+04  0.25500000920E-02 0.  1.
    10030    2    1    2    0    0  0.00000000000E+00  0.00000000000E+00 -0.13891823588E+04  0.30358813478E+04  0.26993976980E+04 0.  0.
        2    1    3    3  502    0 -0.28660880394E+03  0.64694593945E+03 -0.19872082189E+04  0.21094265003E+04  0.25500000920E-02 0.  1.
       -2    1    3    3    0  502  0.28660880394E+03 -0.64694593945E+03  0.59802586010E+03  0.92645484749E+03  0.25500000920E-02 0. -1.
</event>
<event>
 5   0  0.7806808E-07  0.2697269E+04  0.7818609E-02  0.8335892E-01
        1   -1    0    0  501    0  0.00000000000E+00  0.00000000000E+00  0.11487471552E+04  0.11487471552E+04  0.50400001928E-02 0. -1.
       -1   -1    0    0    0  501  0.00000000000E+00  0.00000000000E+00 -0.15833028106E+04  0.15833028106E+04  0.50400001928E-02 0.  1.
    10030    2    1    2    0    0  0.00000000000E+00  0.00000000000E+00 -0.43455565539E+03  0.27320499657E+04  0.26972686921E+04 0.  0.
        5    1    3    3  502    0  0.10347178469E+04  0.57551434155E+03 -0.87130902142E+03  0.14700541762E+04  0.46999998093E+01 0.  1.
       -5    1    3    3    0  502 -0.10347178469E+04 -0.57551434155E+03  0.43675336603E+03  0.12619957895E+04  0.46999998093E+01 0. -1.
</event>
<event>
 5   0  0.7806808E-07  0.2701135E+04  0.7818609E-02  0.8334637E-01
       -1   -1    0    0    0  501  0.00000000000E+00  0.00000000000E+00  0.24762169194E+04  0.24762169194E+04  0.50400001928E-02 0.  1.
        1   -1    0    0  501    0  0.00000000000E+00  0.00000000000E+00 -0.73662079301E+03  0.73662079303E+03  0.50400001928E-02 0. -1.
    10030    2    1    2    0    0  0.00000000000E+00  0.00000000000E+00  0.17395961264E+04  0.32128377124E+04  0.27011352212E+04 0.  0.
        5    1    3    3  502    0 -0.12384388721E+03  0.10227898006E+03 -0.72521030923E+03  0.74279901775E+03  0.46999998093E+01 0. -1.
       -5    1    3    3    0  502  0.12384388721E+03 -0.10227898006E+03  0.24648064356E+04  0.24700386947E+04  0.46999998093E+01 0.  1.
</event>
<event>
 5   0  0.2030645E-06  0.2698680E+04  0.7818609E-02  0.8335433E-01
        2   -1    0    0  501    0  0.00000000000E+00  0.00000000000E+00  0.17751681005E+04  0.17751681005E+04  0.25500000920E-02 0. -1.
       -2   -1    0    0    0  501  0.00000000000E+00  0.00000000000E+00 -0.10256597869E+04  0.10256597869E+04  0.25500000920E-02 0.  1.
    10030    2    1    2    0    0  0.00000000000E+00  0.00000000000E+00  0.74950831362E+03  0.28008278874E+04  0.26986800742E+04 0.  0.
        1    1    3    3  502    0 -0.87666073960E+02 -0.10342709777E+04 -0.52003760350E+03  0.11609655055E+04  0.50400001928E-02 0.  1.
       -1    1    3    3    0  502  0.87666073960E+02  0.10342709777E+04  0.12695459171E+04  0.16398623819E+04  0.50400001928E-02 0. -1.
</event>
<event>
 5   0  0.1991277E-06  0.2699449E+04  0.7818609E-02  0.8335184E-01
       -2   -1    0    0    0  501  0.00000000000E+00  0.00000000000E+00  0.96843314723E+03  0.96843314723E+03  0.25500000920E-02 0.  1.
        2   -1    0    0  501    0  0.00000000000E+00  0.00000000000E+00 -0.18811377717E+04  0.18811377718E+04  0.25500000920E-02 0. -1.
    10030    2    1    2    0    0  0.00000000000E+00  0.00000000000E+00 -0.91270462452E+03  0.28495709190E+04  0.26994489606E+04 0.  0.
        5    1    3    3  502    0  0.51532405499E+03 -0.12442126950E+04 -0.55141585448E+03  0.14552338803E+04  0.46999998093E+01 0.  1.
       -5    1    3    3    0  502 -0.51532405499E+03  0.12442126950E+04 -0.36128877004E+03  0.13943370386E+04  0.46999998093E+01 0. -1.
</event>
<event>
 5   0  0.1991277E-06  0.2704963E+04  0.7818609E-02  0.8333397E-01
        2   -1    0    0  501    0  0.00000000000E+00  0.00000000000E+00  0.17421009927E+04  0.17421009927E+04  0.25500000920E-02 0.  1.
       -2   -1    0    0    0  501  0.00000000000E+00  0.00000000000E+00 -0.10499999463E+04  0.10499999463E+04  0.25500000920E-02 0. -1.
    10030    2    1    2    0    0  0.00000000000E+00  0.00000000000E+00  0.69210104639E+03  0.27921009390E+04  0.27049628085E+04 0.  0.
        5    1    3    3  502    0 -0.91382217042E+03  0.90991517184E+03  0.76681839519E+03  0.15003496660E+04  0.46999998093E+01 0.  1.
       -5    1    3    3    0  502  0.91382217042E+03 -0.90991517184E+03 -0.74717348802E+02  0.12917512730E+04  0.46999998093E+01 0. -1.
</event>
<event>
 5   0  0.7768032E-07  0.2703859E+04  0.7818609E-02  0.8333754E-01
        1   -1    0    0  501    0  0.00000000000E+00  0.00000000000E+00  0.64769905008E+03  0.64769905010E+03  0.50400001928E-02 0.  1.
       -1   -1    0    0    0  501  0.00000000000E+00  0.00000000000E+00 -0.28218566859E+04  0.28218566859E+04  0.50400001928E-02 0. -1.
    10030    2    1    2    0    0  0.00000000000E+00  0.00000000000E+00 -0.21741576358E+04  0.34695557360E+04  0.27038593861E+04 0.  0.
        4    1    3    3  502    0  0.10024198614E+04 -0.89111897459E+03 -0.13047432385E+04  0.18711748012E+04  0.12699999809E+01 0. -1.
       -4    1    3    3    0  502 -0.10024198614E+04  0.89111897459E+03 -0.86941439733E+03  0.15983809348E+04  0.12699999809E+01 0.  1.
</event>
<event>
 5   0  0.7768032E-07  0.2698972E+04  0.7818609E-02  0.8335339E-01
        1   -1    0    0  501    0  0.00000000000E+00  0.00000000000E+00  0.16858878535E+04  0.16858878535E+04  0.50400001928E-02 0. -1.
       -1   -1    0    0    0  501  0.00000000000E+00  0.00000000000E+00 -0.10802098570E+04  0.10802098570E+04  0.50400001928E-02 0.  1.
    10030    2    1    2    0    0  0.00000000000E+00  0.00000000000E+00  0.60567799649E+03  0.27660977105E+04  0.26989721578E+04 0.  0.
        4    1    3    3  502    0 -0.41933620987E+03 -0.26850384731E+03 -0.98261777754E+03  0.11015790859E+04  0.12699999809E+01 0.  1.
       -4    1    3    3    0  502  0.41933620987E+03  0.26850384731E+03  0.15882957740E+04  0.16645186246E+04  0.12699999809E+01 0. -1.
</event>
<event>
 5   0  0.7436613E-07  0.2703405E+04  0.7818609E-02  0.8333901E-01
        1   -1    0    0  501    0  0.00000000000E+00  0.00000000000E+00  0.14616130381E+04  0.14616130381E+04  0.50400001928E-02 0.  1.
       -1   -1    0    0    0  501  0.00000000000E+00  0.00000000000E+00 -0.12500570236E+04  0.12500570236E+04  0.50400001928E-02 0. -1.
    10030    2    1    2    0    0  0.00000000000E+00  0.00000000000E+00  0.21155601445E+03  0.27116700617E+04  0.27034049968E+04 0.  0.
        2    1    3    3  502    0  0.25876991123E+03  0.30198317305E+03  0.14016037658E+04  0.14569313024E+04  0.25500000920E-02 0.  1.
       -2    1    3    3    0  502 -0.25876991123E+03 -0.30198317305E+03 -0.11900477513E+04  0.12547387593E+04  0.25500000920E-02 0. -1.
</event>
<event>
 5   0  0.2030645E-06  0.2700223E+04  0.7818609E-02  0.8334933E-01
        2   -1    0    0  501    0  0.00000000000E+00  0.00000000000E+00  0.95376100509E+03  0.95376100509E+03  0.25500000920E-02 0.  1.
       -2   -1    0    0    0  501  0.00000000000E+00  0.00000000000E+00 -0.19111717733E+04  0.19111717733E+04  0.25500000920E-02 0. -1.
    10030    2    1    2    0    0  0.00000000000E+00  0.00000000000E+00 -0.95741076817E+03  0.28649327783E+04  0.27002230362E+04 0.  0.
        1    1    3    3  502    0  0.81273005179E+03 -0.53222205626E+02  0.66374837981E+03  0.10506781867E+04  0.50400001928E-02 0. -1.
       -1    1    3    3    0  502 -0.81273005179E+03  0.53222205626E+02 -0.16211591480E+04  0.18142545917E+04  0.50400001928E-02 0.  1.
</event>
<event>
 5   0  0.1991277E-06  0.2713544E+04  0.7818609E-02  0.8330624E-01
       -2   -1    0    0    0  501  0.00000000000E+00  0.00000000000E+00  0.13908784340E+04  0.13908784340E+04  0.25500000920E-02 0. -1.
        2   -1    0    0  501    0  0.00000000000E+00  0.00000000000E+00 -0.13235015881E+04  0.13235015881E+04  0.25500000920E-02 0.  1.
    10030    2    1    2    0    0  0.00000000000E+00  0.00000000000E+00  0.67376845830E+02  0.27143800221E+04  0.27135436730E+04 0.  0.
        5    1    3    3  502    0 -0.90462567040E+03 -0.33979394505E+03  0.98634753410E+03  0.13808370927E+04  0.46999998093E+01 0. -1.
       -5    1    3    3    0  502  0.90462567040E+03  0.33979394505E+03 -0.91897068827E+03  0.13335429294E+04  0.46999998093E+01 0.  1.
</event>
<event>
 5   0  0.2063087E-06  0.2698292E+04  0.7818609E-02  0.8335559E-01
        2   -1    0    0  501    0  0.00000000000E+00  0.00000000000E+00  0.17679019368E+04  0.17679019368E+04  0.25500000920E-02 0. -1.
       -2   -1    0    0    0  501  0.00000000000E+00  0.00000000000E+00 -0.10295794325E+04  0.10295794325E+04  0.25500000920E-02 0.  1.
    10030    2    1    2    0    0  0.00000000000E+00  0.00000000000E+00  0.73832250438E+03  0.27974813693E+04  0.26982924028E+04 0.  0.
        3    1    3    3  502    0  0.30040958047E+02  0.78827078564E+03  0.15038911398E+04  0.16982231483E+04  0.10100000352E+00 0. -1.
       -3    1    3    3    0  502 -0.30040958047E+02 -0.78827078564E+03 -0.76556863546E+03  0.10992582210E+04  0.10100000352E+00 0.  1.
</event>
<event>
 5   0  0.7566905E-07  0.2699849E+04  0.7818609E-02  0.8335054E-01
        1   -1    0    0  501    0  0.00000000000E+00  0.00000000000E+00  0.13655639552E+04  0.13655639552E+04  0.50400001928E-02 0. -1.
       -1   -1    0    0    0  501  0.00000000000E+00  0.00000000000E+00 -0.13344642338E+04  0.13344642338E+04  0.50400001928E-02 0.  1.
    10030    2    1    2    0    0  0.00000000000E+00  0.00000000000E+00  0.31099721429E+02  0.27000281890E+04  0.26998490752E+04 0.  0.
        1    1    3    3  502    0  0.12118153765E+04 -0.38457229535E+03 -0.43824659266E+03  0.13447871330E+04  0.50400001928E-02 0.  1.
       -1    1    3    3    0  502 -0.12118153765E+04  0.38457229535E+03  0.46934631409E+03  0.13552410559E+04  0.50400001928E-02 0. -1.
</event>
<event>
 5   0  0.2030645E-06  0.2699903E+04  0.7818609E-02  0.8335036E-01
       -2   -1    0    0    0  501  0.00000000000E+00  0.00000000000E+00  0.20726486297E+04  0.20726486297E+04  0.25500000920E-02 0. -1.
        2   -1    0    0  501    0  0.00000000000E+00  0.00000000000E+00 -0.87924667281E+03  0.87924667281E+03  0.25500000920E-02 0.  1.
    10030    2    1    2    0    0  0.00000000000E+00  0.00000000000E+00  0.11934019569E+04  0.29518953025E+04  0.26999032661E+04 0.  0.
        1    1    3    3  502    0 -0.84783816670E+03 -0.98433998731E+03  0.99784368390E+03  0.16381229457E+04  0.50400001928E-02 0. -1.
       -1    1    3    3    0  502  0.84783816670E+03  0.98433998731E+03  0.19555827301E+03  0.13137723569E+04  0.50400001928E-02 0.  1.
</event>
<event>
 5   0  0.7768032E-07  0.2723530E+04  0.7818609E-02  0.8327410E-01
       -1   -1    0    0    0  501  0.00000000000E+00  0.00000000000E+00  0.10161845969E+04  0.10161845969E+04  0.50400001928E-02 0.  1.
        1   -1    0    0  501    0  0.00000000000E+00  0.00000000000E+00 -0.18248696436E+04  0.18248696436E+04  0.50400001928E-02 0. -1.
    10030    2    1    2    0    0  0.00000000000E+00  0.00000000000E+00 -0.80868504670E+03  0.28410542405E+04  0.27235303731E+04 0.  0.
        4    1    3    3  502    0  0.10374516066E+04  0.23865282690E+03 -0.12901873186E+04  0.16726762800E+04  0.12699999809E+01 0. -1.
       -4    1    3    3    0  502 -0.10374516066E+04 -0.23865282690E+03  0.48150227185E+03  0.11683779605E+04  0.12699999809E+01 0.  1.
</event>
<event>
 5   0  0.2063087E-06  0.2677585E+04  0.7818609E-02  0.8342315E-01
        2   -1    0    0  501    0  0.00000000000E+00  0.00000000000E+00  0.13133294996E+04  0.13133294996E+04  0.25500000920E-02 0.  1.
       -2   -1    0    0    0  501  0.00000000000E+00  0.00000000000E+00 -0.13647496467E+04  0.13647496467E+04  0.25500000920E-02 0. -1.
    10030    2    1    2    0    0  0.00000000000E+00  0.00000000000E+00 -0.51420147056E+02  0.26780791463E+04  0.26775854575E+04 0.  0.
        3    1    3    3  502    0 -0.32666769994E+03  0.32485312688E+03 -0.12829719219E+04  0.13631794830E+04  0.10100000352E+00 0. -1.
       -3    1    3    3    0  502  0.32666769994E+03 -0.32485312688E+03  0.12315517748E+04  0.13148996633E+04  0.10100000352E+00 0.  1.
</event>
<event>
 5   0  0.1999104E-06  0.2693656E+04  0.7818609E-02  0.8337066E-01
       -2   -1    0    0    0  501  0.00000000000E+00  0.00000000000E+00  0.65039367034E+03  0.65039367035E+03  0.25500000920E-02 0. -1.
        2   -1    0    0  501    0  0.00000000000E+00  0.00000000000E+00 -0.27889956902E+04  0.27889956902E+04  0.25500000920E-02 0.  1.
    10030    2    1    2    0    0  0.00000000000E+00  0.00000000000E+00 -0.21386020198E+04  0.34393893605E+04  0.26936556153E+04 0.  0.
        4    1    3    3  502    0 -0.17935743515E+03 -0.12941439798E+03  0.62704667513E+03  0.66491076216E+03  0.12699999809E+01 0. -1.
       -4    1    3    3    0  502  0.17935743515E+03  0.12941439798E+03 -0.27656486950E+04  0.27744785984E+04  0.12699999809E+01 0.  1.
</event>
<event>
 5   0  0.7566905E-07  0.2701375E+04  0.7818609E-02  0.8334559E-01
       -1   -1    0    0    0  501  0.00000000000E+00  0.00000000000E+00  0.92899779803E+03  0.92899779804E+03  0.50400001928E-02 0.  1.
        1   -1    0    0  501    0  0.00000000000E+00  0.00000000000E+00 -0.19637901285E+04  0.19637901285E+04  0.50400001928E-02 0. -1.
    10030    2    1    2    0    0  0.00000000000E+00  0.00000000000E+00 -0.10347923304E+04  0.28927879265E+04  0.27013749871E+04 0.  0.
        1    1    3    3  502    0  0.83227827060E+03  0.10457118144E+04 -0.72657384532E+03  0.15212198629E+04  0.50400001928E-02 0. -1.
       -1    1    3    3    0  502 -0.83227827060E+03 -0.10457118144E+04 -0.30821848513E+03  0.13715680636E+04  0.50400001928E-02 0.  1.
</event>
<event>
 5   0  0.2030645E-06  0.2709023E+04  0.7818609E-02  0.8332083E-01
        2   -1    0    0  501    0  0.00000000000E+00  0.00000000000E+00  0.23987741864E+04  0.23987741864E+04  0.25500000920E-02 0. -1.
       -2   -1    0    0    0  501  0.00000000000E+00  0.00000000000E+00 -0.76484968293E+03  0.76484968294E+03  0.25500000920E-02 0.  1.
    10030    2    1    2    0    0  0.00000000000E+00  0.00000000000E+00  0.16339245035E+04  0.31636238694E+04  0.27090232010E+04 0.  0.
        1    1    3    3  502    0 -0.78839554190E+03  0.10972986946E+04  0.70574579172E+03  0.15243716995E+04  0.50400001928E-02 0.  1.
       -1    1    3    3    0  502  0.78839554190E+03 -0.10972986946E+04  0.92817871180E+03  0.16392521699E+04  0.50400001928E-02 0. -1.
</event>
<event>
 5   0  0.7806808E-07  0.2702645E+04  0.7818609E-02  0.8334147E-01
        1   -1    0    0  501    0  0.00000000000E+00  0.00000000000E+00  0.14667806937E+04  0.14667806937E+04  0.50400001928E-02 0.  1.
       -1   -1    0    0    0  501  0.00000000000E+00  0.00000000000E+00 -0.12449528575E+04  0.12449528575E+04  0.50400001928E-02 0. -1.
    10030    2    1    2    0    0  0.00000000000E+00  0.00000000000E+00  0.22182783622E+03  0.27117335512E+04  0.27026452346E+04 0.  0.
        5    1    3    3  502    0 -0.10016804454E+03 -0.21491926759E+03 -0.12239080835E+04  0.12466743823E+04  0.46999998093E+01 0. -1.
       -5    1    3    3    0  502  0.10016804454E+03  0.21491926759E+03  0.14457359197E+04  0.14650591689E+04  0.46999998093E+01 0.  1.
</event>
<event>
 5   0  0.7806808E-07  0.2697558E+04  0.7818609E-02  0.8335798E-01
       -1   -1    0    0    0  501  0.00000000000E+00  0.00000000000E+00  0.10283602612E+04  0.10283602612E+04  0.50400001928E-02 0.  1.
        1   -1    0    0  501    0  0.00000000000E+00  0.00000000000E+00 -0.17690348304E+04  0.17690348304E+04  0.50400001928E-02 0. -1.
    10030    2    1    2    0    0  0.00000000000E+00  0.00000000000E+00 -0.74067456916E+03  0.27973950916E+04  0.26975582442E+04 0.  0.
        5    1    3    3  502    0  0.20973666535E+03  0.64466361980E+03 -0.15795116621E+04  0.17188542208E+04  0.46999998093E+01 0. -1.
       -5    1    3    3    0  502 -0.20973666535E+03 -0.64466361980E+03  0.83883709295E+03  0.10785408708E+04  0.46999998093E+01 0.  1.
</event>
<event>
 5   0  0.7566905E-07  0.2702188E+04  0.7818609E-02  0.8334295E-01
        1   -1    0    0  501    0  0.00000000000E+00  0.00000000000E+00  0.20200190535E+04  0.20200190535E+04  0.50400001928E-02 0. -1.
       -1   -1    0    0    0  501  0.00000000000E+00  0.00000000000E+00 -0.90368201639E+03  0.90368201641E+03  0.50400001928E-02 0.  1.
    10030    2    1    2    0    0  0.00000000000E+00  0.00000000000E+00  0.11163370371E+04  0.29237010699E+04  0.27021879220E+04 0.  0.
        1    1    3    3  502    0  0.12327871474E+04 -0.52703192087E+03  0.73898502526E+03  0.15308904807E+04  0.50400001928E-02 0. -1.
       -1    1    3    3    0  502 -0.12327871474E+04  0.52703192087E+03  0.37735201183E+03  0.13928105892E+04  0.50400001928E-02 0.  1.
</event>
<event>
 5   0  0.7335091E-07  0.2696519E+04  0.7818609E-02  0.8336135E-01
       -1   -1    0    0    0  501  0.00000000000E+00  0.00000000000E+00  0.10795725925E+04  0.10795725925E+04  0.50400001928E-02 0. -1.
        1   -1    0    0  501    0  0.00000000000E+00  0.00000000000E+00 -0.16838174277E+04  0.16838174277E+04  0.50400001928E-02 0.  1.
    10030    2    1    2    0    0  0.00000000000E+00  0.00000000000E+00 -0.60424483516E+03  0.27633900202E+04  0.26965186042E+04 0.  0.
        3    1    3    3  502    0 -0.18175552710E+03 -0.12819001626E+04  0.83371065636E+02  0.12974027298E+04  0.10100000352E+00 0. -1.
       -3    1    3    3    0  502  0.18175552710E+03  0.12819001626E+04 -0.68761590080E+03  0.14659872904E+04  0.10100000352E+00 0.  1.
</event>
<event>
 5   0  0.7335091E-07  0.2699556E+04  0.7818609E-02  0.8335149E-01
       -1   -1    0    0    0  501  0.00000000000E+00  0.00000000000E+00  0.12180932176E+04  0.12180932176E+04  0.50400001928E-02 0.  1.
        1   -1    0    0  501    0  0.00000000000E+00  0.00000000000E+00 -0.14956991208E+04  0.14956991208E+04  0.50400001928E-02 0. -1.
    10030    2    1    2    0    0  0.00000000000E+00  0.00000000000E+00 -0.27760590321E+03  0.27137923384E+04  0.26995562262E+04 0.  0.
        3    1    3    3  502    0  0.63060662144E+02  0.10640551698E+04 -0.97124643712E+03  0.14420505203E+04  0.10100000352E+00 0. -1.
       -3    1    3    3    0  502 -0.63060662144E+02 -0.10640551698E+04  0.69364053391E+03  0.12717418181E+04  0.10100000352E+00 0.  1.
</event>
<event>
 5   0  0.7768032E-07  0.2696811E+04  0.7818609E-02  0.8336041E-01
        1   -1    0    0  501    0  0.00000000000E+00  0.00000000000E+00  0.20138351408E+04  0.20138351408E+04  0.50400001928E-02 0. -1.
       -1   -1    0    0    0  501  0.00000000000E+00  0.00000000000E+00 -0.90285286692E+03  0.90285286694E+03  0.50400001928E-02 0.  1.
    10030    2    1    2    0    0  0.00000000000E+00  0.00000000000E+00  0.11109822738E+04  0.29166880077E+04  0.26968105832E+04 0.  0.
        4    1    3    3  502    0  0.10625885621E+03 -0.73722098271E+03  0.17711496633E+04  0.19213949268E+04  0.12699999809E+01 0. -1.
       -4    1    3    3    0  502 -0.10625885621E+03  0.73722098271E+03 -0.66016738949E+03  0.99529308091E+03  0.12699999809E+01 0.  1.
</event>
<event>
 5   0  0.7335091E-07  0.2701086E+04  0.7818609E-02  0.8334653E-01
       -1   -1    0    0    0  501  0.00000000000E+00  0.00000000000E+00  0.16135078476E+04  0.16135078476E+04  0.50400001928E-02 0. -1.
        1   -1    0    0  501    0  0.00000000000E+00  0.00000000000E+00 -0.11304354607E+04  0.11304354608E+04  0.50400001928E-02 0.  1.
    10030    2    1    2    0    0  0.00000000000E+00  0.00000000000E+00  0.48307238688E+03  0.27439433084E+04  0.27010860684E+04 0.  0.
        3    1    3    3  502    0 -0.72735075150E+03  0.43670160788E+03  0.13090274644E+04  0.15599039466E+04  0.10100000352E+00 0. -1.
       -3    1    3    3    0  502  0.72735075150E+03 -0.43670160788E+03 -0.82595507748E+03  0.11840393618E+04  0.10100000352E+00 0.  1.
</event>
<event>
 5   0  0.7566905E-07  0.2773876E+04  0.7818609E-02  0.8311425E-01
        1   -1    0    0  501    0  0.00000000000E+00  0.00000000000E+00  0.22865360936E+04  0.22865360936E+04  0.50400001928E-02 0. -1.
       -1   -1    0    0    0  501  0.00000000000E+00  0.00000000000E+00 -0.84127124765E+03  0.84127124767E+03  0.50400001928E-02 0.  1.
    10030    2    1    2    0    0  0.00000000000E+00  0.00000000000E+00  0.14452648459E+04  0.31278073412E+04  0.27738760407E+04 0.  0.
        1    1    3    3  502    0  0.63555831530E+02  0.79754776807E+03  0.20000906293E+04  0.21541783379E+04  0.50400001928E-02 0. -1.
       -1    1    3    3    0  502 -0.63555831530E+02 -0.79754776807E+03 -0.55482578342E+03  0.97362900329E+03  0.50400001928E-02 0.  1.
</event>
<event>
 5   0  0.7806808E-07  0.2699410E+04  0.7818609E-02  0.8335197E-01
       -1   -1    0    0    0  501  0.00000000000E+00  0.00000000000E+00  0.88548776337E+03  0.88548776339E+03  0.50400001928E-02 0. -1.
        1   -1    0    0  501    0  0.00000000000E+00  0.00000000000E+00 -0.20572878037E+04  0.20572878037E+04  0.50400001928E-02 0.  1.
    10030    2    1    2    0    0  0.00000000000E+00  0.00000000000E+00 -0.11718000403E+04  0.29427755671E+04  0.26994096954E+04 0.  0.
        5    1    3    3  502    0  0.10828606892E+04  0.25583339615E+03 -0.14187408556E+04  0.18030212711E+04  0.46999998093E+01 0.  1.
       -5    1    3    3    0  502 -0.10828606892E+04 -0.25583339615E+03  0.24694081531E+03  0.11397542959E+04  0.46999998093E+01 0. -1.
</event>
<event>
 5   0  0.2063087E-06  0.2705901E+04  0.7818609E-02  0.8333093E-01
       -2   -1    0    0    0  501  0.00000000000E+00  0.00000000000E+00  0.13338431557E+04  0.13338431557E+04  0.25500000920E-02 0.  1.
        2   -1    0    0  501    0  0.00000000000E+00  0.00000000000E+00 -0.13723318989E+04  0.13723318989E+04  0.25500000920E-02 0. -1.
    10030    2    1    2    0    0  0.00000000000E+00  0.00000000000E+00 -0.38488743244E+02  0.27061750546E+04  0.27059013365E+04 0.  0.
        3    1    3    3  502    0  0.12196427201E+04 -0.15820134854E+03  0.54465614370E+03  0.13450674171E+04  0.10100000352E+00 0. -1.
       -3    1    3    3    0  502 -0.12196427201E+04  0.15820134854E+03 -0.58314488695E+03  0.13611076375E+04  0.10100000352E+00 0.  1.
</event>
<event>
 5   0  0.1932012E-06  0.2699040E+04  0.7818609E-02  0.8335317E-01
        2   -1    0    0  501    0  0.00000000000E+00  0.00000000000E+00  0.15436350902E+04  0.15436350902E+04  0.25500000920E-02 0.  1.
       -2   -1    0    0    0  501  0.00000000000E+00  0.00000000000E+00 -0.11798148741E+04  0.11798148741E+04  0.25500000920E-02 0. -1.
    10030    2    1    2    0    0  0.00000000000E+00  0.00000000000E+00  0.36382021608E+03  0.27234499643E+04  0.26990395622E+04 0.  0.
        2    1    3    3  502    0  0.72243528663E+02 -0.71976174028E+03 -0.96765977034E+03  0.12081562487E+04  0.25500000920E-02 0. -1.
       -2    1    3    3    0  502 -0.72243528663E+02  0.71976174028E+03  0.13314799864E+04  0.15152937156E+04  0.25500000920E-02 0.  1.
</event>
<event>
 5   0  0.7806808E-07  0.2699539E+04  0.7818609E-02  0.8335155E-01
       -1   -1    0    0    0  501  0.00000000000E+00  0.00000000000E+00  0.16636364962E+04  0.16636364962E+04  0.50400001928E-02 0. -1.
        1   -1    0    0  501    0  0.00000000000E+00  0.00000000000E+00 -0.10951177185E+04  0.10951177185E+04  0.50400001928E-02 0.  1.
    10030    2    1    2    0    0  0.00000000000E+00  0.00000000000E+00  0.56851877773E+03  0.27587542147E+04  0.26995390748E+04 0.  0.
        5    1    3    3  502    0 -0.19038454967E+03  0.28655867813E+03 -0.10495495996E+04  0.11045083090E+04  0.46999998093E+01 0.  1.
       -5    1    3    3    0  502  0.19038454967E+03 -0.28655867813E+03  0.16180683773E+04  0.16542459057E+04  0.46999998093E+01 0. -1.
</event>
<event>
 5   0  0.2063087E-06  0.2705873E+04  0.7818609E-02  0.8333102E-01
       -2   -1    0    0    0  501  0.00000000000E+00  0.00000000000E+00  0.10449825886E+04  0.10449825886E+04  0.25500000920E-02 0.  1.
        2   -1    0    0  501    0  0.00000000000E+00  0.00000000000E+00 -0.17516440458E+04  0.17516440458E+04  0.25500000920E-02 0. -1.
    10030    2    1    2    0    0  0.00000000000E+00  0.00000000000E+00 -0.70666145718E+03  0.27966266343E+04  0.27058732633E+04 0.  0.
        3    1    3    3  502    0  0.49894518211E+02  0.13360988569E+04 -0.56712079739E+03  0.14523345439E+04  0.10100000352E+00 0. -1.
       -3    1    3    3    0  502 -0.49894518211E+02 -0.13360988569E+04 -0.13954065978E+03  0.13442920904E+04  0.10100000352E+00 0.  1.
</event>
<event>
 5   0  0.2030645E-06  0.2714289E+04  0.7818609E-02  0.8330383E-01
        2   -1    0    0  501    0  0.00000000000E+00  0.00000000000E+00  0.14918808739E+04  0.14918808739E+04  0.25500000920E-02 0. -1.
       -2   -1    0    0    0  501  0.00000000000E+00  0.00000000000E+00 -0.12345769917E+04  0.12345769917E+04  0.25500000920E-02 0.  1.
    10030    2    1    2    0    0  0.00000000000E+00  0.00000000000E+00  0.25730388224E+03  0.27264578656E+04  0.27142894475E+04 0.  0.
        1    1    3    3  502    0 -0.50607222327E+03  0.10871922629E+04  0.76691040348E+03  0.14234632692E+04  0.50400001928E-02 0.  1.
       -1    1    3    3    0  502  0.50607222327E+03 -0.10871922629E+04 -0.50960652125E+03  0.13029945964E+04  0.50400001928E-02 0. -1.
</event>
<event>
 5   0  0.1999104E-06  0.2699259E+04  0.7818609E-02  0.8335246E-01
        2   -1    0    0  501    0  0.00000000000E+00  0.00000000000E+00  0.23812106165E+04  0.23812106165E+04  0.25500000920E-02 0.  1.
       -2   -1    0    0    0  501  0.00000000000E+00  0.00000000000E+00 -0.76494676055E+03  0.76494676055E+03  0.25500000920E-02 0. -1.
    10030    2    1    2    0    0  0.00000000000E+00  0.00000000000E+00  0.16162638560E+04  0.31461573771E+04  0.26992586740E+04 0.  0.
        4    1    3    3  502    0 -0.39875524724E+03 -0.12887711451E+04  0.76208224470E+03  0.15494217541E+04  0.12699999809E+01 0.  1.
       -4    1    3    3    0  502  0.39875524724E+03  0.12887711451E+04  0.85418161125E+03  0.15967356229E+04  0.12699999809E+01 0. -1.
</event>
<event>
 5   0  0.1932012E-06  0.2696922E+04  0.7818609E-02  0.8336004E-01
       -2   -1    0    0    0  501  0.00000000000E+00  0.00000000000E+00  0.94259102483E+03  0.94259102484E+03  0.25500000920E-02 0.  1.
        2   -1    0    0  501    0  0.00000000000E+00  0.00000000000E+00 -0.19290939543E+04  0.19290939543E+04  0.25500000920E-02 0. -1.
    10030    2    1    2    0    0  0.00000000000E+00  0.00000000000E+00 -0.98650292947E+03  0.28716849791E+04  0.26969216877E+04 0.  0.
        2    1    3    3  502    0  0.11362595300E+04  0.93680296558E+02  0.27346807223E+03  0.11724531990E+04  0.25500000920E-02 0.  1.
       -2    1    3    3    0  502 -0.11362595300E+04 -0.93680296558E+02 -0.12599710017E+04  0.16992317801E+04  0.25500000920E-02 0. -1.
</event>
<event>
 5   0  0.7806808E-07  0.2701920E+04  0.7818609E-02  0.8334382E-01
       -1   -1    0    0    0  501  0.00000000000E+00  0.00000000000E+00  0.14115583509E+04  0.14115583509E+04  0.50400001928E-02 0. -1.
        1   -1    0    0  501    0  0.00000000000E+00  0.00000000000E+00 -0.12929627378E+04  0.12929627379E+04  0.50400001928E-02 0.  1.
    10030    2    1    2    0    0  0.00000000000E+00  0.00000000000E+00  0.11859561309E+03  0.27045210888E+04  0.27019195770E+04 0.  0.
        5    1    3    3  502    0  0.17080841766E+02 -0.89450732293E+03  0.10725150686E+04  0.13966910067E+04  0.46999998093E+01 0. -1.
       -5    1    3    3    0  502 -0.17080841766E+02  0.89450732293E+03 -0.95391945552E+03  0.13078300821E+04  0.46999998093E+01 0.  1.
</event>
<event>
 5   0  0.1932012E-06  0.2703516E+04  0.7818609E-02  0.8333865E-01
       -2   -1    0    0    0  501  0.00000000000E+00  0.00000000000E+00  0.10846065954E+04  0.10846065954E+04  0.25500000920E-02 0. -1.
        2   -1    0    0  501    0  0.00000000000E+00  0.00000000000E+00 -0.16847118262E+04  0.16847118262E+04  0.25500000920E-02 0.  1.
    10030    2    1    2    0    0  0.00000000000E+00  0.00000000000E+00 -0.60010523086E+03  0.27693184216E+04  0.27035159020E+04 0.  0.
        2    1    3    3  502    0  0.82933680638E+03 -0.90160628142E+03 -0.88541240846E+03  0.15115053947E+04  0.25500000920E-02 0.  1.
       -2    1    3    3    0  502 -0.82933680638E+03  0.90160628142E+03  0.28530717760E+03  0.12578130269E+04  0.25500000920E-02 0. -1.
</event>
<event>
 5   0  0.7806808E-07  0.2701241E+04  0.7818609E-02  0.8334602E-01
        1   -1    0    0  501    0  0.00000000000E+00  0.00000000000E+00  0.12809348298E+04  0.12809348299E+04  0.50400001928E-02 0. -1.
       -1   -1    0    0    0  501  0.00000000000E+00  0.00000000000E+00 -0.14240971177E+04  0.14240971177E+04  0.50400001928E-02 0.  1.
    10030    2    1    2    0    0  0.00000000000E+00  0.00000000000E+00 -0.14316228788E+03  0.27050319476E+04  0.27012408994E+04 0.  0.
        5    1    3    3  502    0 -0.41248000764E+03 -0.12589519197E+03 -0.13532852957E+04  0.14203494421E+04  0.46999998093E+01 0.  1.
       -5    1    3    3    0  502  0.41248000764E+03  0.12589519197E+03  0.12101230078E+04  0.12846825055E+04  0.46999998093E+01 0. -1.
</event>
<event>
 5   0  0.7768032E-07  0.2699379E+04  0.7818609E-02  0.8335206E-01
        1   -1    0    0  501    0  0.00000000000E+00  0.00000000000E+00  0.69994630924E+03  0.69994630925E+03  0.50400001928E-02 0. -1.
       -1   -1    0    0    0  501  0.00000000000E+00  0.00000000000E+00 -0.26025737876E+04  0.26025737876E+04  0.50400001928E-02 0.  1.
    10030    2    1    2    0    0  0.00000000000E+00  0.00000000000E+00 -0.19026274783E+04  0.33025200968E+04  0.26993791265E+04 0.  0.
        4    1    3    3  502    0 -0.76327420653E+03  0.36258254220E+03  0.33626669597E+03  0.90946716158E+03  0.12699999809E+01 0. -1.
       -4    1    3    3    0  502  0.76327420653E+03 -0.36258254220E+03 -0.22388941743E+04  0.23930529353E+04  0.12699999809E+01 0.  1.
</event>
<event>
 5   0  0.7436613E-07  0.2703141E+04  0.7818609E-02  0.8333987E-01
       -1   -1    0    0    0  501  0.00000000000E+00  0.00000000000E+00  0.11047616527E+04  0.11047616527E+04  0.50400001928E-02 0. -1.
        1   -1    0    0  501    0  0.00000000000E+00  0.00000000000E+00 -0.16535174490E+04  0.16535174490E+04  0.50400001928E-02 0.  1.
    10030    2    1    2    0    0  0.00000000000E+00  0.00000000000E+00 -0.54875579627E+03  0.27582791017E+04  0.27031408915E+04 0.  0.
        2    1    3    3  502    0 -0.47017002249E+03  0.10508163644E+04  0.44821060481E+03  0.12353815718E+04  0.25500000920E-02 0. -1.
       -2    1    3    3    0  502  0.47017002249E+03 -0.10508163644E+04 -0.99696640108E+03  0.15228975299E+04  0.25500000920E-02 0.  1.
</event>
<event>
 5   0  0.7768032E-07  0.2699608E+04  0.7818609E-02  0.8335132E-01
        1   -1    0    0  501    0  0.00000000000E+00  0.00000000000E+00  0.10940127228E+04  0.10940127228E+04  0.50400001928E-02 0. -1.
       -1   -1    0    0    0  501  0.00000000000E+00  0.00000000000E+00 -0.16654019791E+04  0.16654019791E+04  0.50400001928E-02 0.  1.
    10030    2    1    2    0    0  0.00000000000E+00  0.00000000000E+00 -0.57138925625E+03  0.27594147019E+04  0.26996080854E+04 0.  0.
        4    1    3    3  502    0  0.81180454347E+03  0.10678040971E+04 -0.43982354128E+03  0.14116226716E+04  0.12699999809E+01 0.  1.
       -4    1    3    3    0  502 -0.81180454347E+03 -0.10678040971E+04 -0.13156571497E+03  0.13477920303E+04  0.12699999809E+01 0. -1.
</event>
<event>
 5   0  0.2030645E-06  0.2692998E+04  0.7818609E-02  0.8337281E-01
       -2   -1    0    0    0  501  0.00000000000E+00  0.00000000000E+00  0.16402090350E+04  0.16402090350E+04  0.25500000920E-02 0.  1.
        2   -1    0    0  501    0  0.00000000000E+00  0.00000000000E+00 -0.11053828259E+04  0.11053828259E+04  0.25500000920E-02 0. -1.
    10030    2    1    2    0    0  0.00000000000E+00  0.00000000000E+00  0.53482620908E+03  0.27455918608E+04  0.26929975107E+04 0.  0.
        1    1    3    3  502    0  0.10883526849E+04  0.55166784359E+02 -0.53892105302E+03  0.12157264669E+04  0.50400001928E-02 0. -1.
       -1    1    3    3    0  502 -0.10883526849E+04 -0.55166784359E+02  0.10737472621E+04  0.15298653940E+04  0.50400001928E-02 0.  1.
</event>
<event>
 5   0  0.1999104E-06  0.2700116E+04  0.7818609E-02  0.8334967E-01
       -2   -1    0    0    0  501  0.00000000000E+00  0.00000000000E+00  0.87940312696E+03  0.87940312697E+03  0.25500000920E-02 0. -1.
        2   -1    0    0  501    0  0.00000000000E+00  0.00000000000E+00 -0.20726065191E+04  0.20726065191E+04  0.25500000920E-02 0.  1.
    10030    2    1    2    0    0  0.00000000000E+00  0.00000000000E+00 -0.11932033921E+04  0.29520096461E+04  0.27001160374E+04 0.  0.
        4    1    3    3  502    0  0.59051536196E+03  0.79387808017E+03 -0.16008253813E+04  0.18819124085E+04  0.12699999809E+01 0.  1.
       -4    1    3    3    0  502 -0.59051536196E+03 -0.79387808017E+03  0.40762198918E+03  0.10700972376E+04  0.12699999809E+01 0. -1.
</event>
<event>
 5   0  0.7335091E-07  0.2711577E+04  0.7818609E-02  0.8331258E-01
        1   -1    0    0  501    0  0.00000000000E+00  0.00000000000E+00  0.14216926095E+04  0.14216926096E+04  0.50400001928E-02 0. -1.
       -1   -1    0    0    0  501  0.00000000000E+00  0.00000000000E+00 -0.12929391708E+04  0.12929391708E+04  0.50400001928E-02 0.  1.
    10030    2    1    2    0    0  0.00000000000E+00  0.00000000000E+00  0.12875343879E+03  0.27146317803E+04  0.27115767101E+04 0.  0.
        3    1    3    3  502    0  0.57315914037E+03  0.17701945631E+03 -0.11528528430E+04  0.12995833855E+04  0.10100000352E+00 0.  1.
       -3    1    3    3    0  502 -0.57315914037E+03 -0.17701945631E+03  0.12816062817E+04  0.14150483948E+04  0.10100000352E+00 0. -1.
</event>
<event>
 5   0  0.2063087E-06  0.2701673E+04  0.7818609E-02  0.8334462E-01
        2   -1    0    0  501    0  0.00000000000E+00  0.00000000000E+00  0.17702933039E+04  0.17702933039E+04  0.25500000920E-02 0.  1.
       -2   -1    0    0    0  501  0.00000000000E+00  0.00000000000E+00 -0.10307666326E+04  0.10307666326E+04  0.25500000920E-02 0. -1.
    10030    2    1    2    0    0  0.00000000000E+00  0.00000000000E+00  0.73952667133E+03  0.28010599365E+04  0.27016730132E+04 0.  0.
        3    1    3    3  502    0  0.77525340145E+03 -0.36327908017E+03  0.14530792967E+04  0.16865435005E+04  0.10100000352E+00 0.  1.
       -3    1    3    3    0  502 -0.77525340145E+03  0.36327908017E+03 -0.71355262537E+03  0.11145164359E+04  0.10100000352E+00 0. -1.
</event>
<event>
 5   0  0.7335091E-07  0.2701105E+04  0.7818609E-02  0.8334646E-01
        1   -1    0    0  501    0  0.00000000000E+00  0.00000000000E+00  0.16758380603E+04  0.16758380604E+04  0.50400001928E-02 0. -1.
       -1   -1    0    0    0  501  0.00000000000E+00  0.00000000000E+00 -0.10884061188E+04  0.10884061188E+04  0.50400001928E-02 0.  1.
    10030    2    1    2    0    0  0.00000000000E+00  0.00000000000E+00  0.58743194154E+03  0.27642441792E+04  0.27011052545E+04 0.  0.
        3    1    3    3  502    0  0.10603226655E+04 -0.83599104801E+03  0.26428256193E+03  0.13758671702E+04  0.10100000352E+00 0.  1.
       -3    1    3    3    0  502 -0.10603226655E+04  0.83599104801E+03  0.32314937961E+03  0.13883770090E+04  0.10100000352E+00 0. -1.
</event>
<event>
 5   0  0.7436613E-07  0.2700481E+04  0.7818609E-02  0.8334849E-01
       -1   -1    0    0    0  501  0.00000000000E+00  0.00000000000E+00  0.10628547538E+04  0.10628547538E+04  0.50400001928E-02 0. -1.
        1   -1    0    0  501    0  0.00000000000E+00  0.00000000000E+00 -0.17153324236E+04  0.17153324237E+04  0.50400001928E-02 0.  1.
    10030    2    1    2    0    0  0.00000000000E+00  0.00000000000E+00 -0.65247766989E+03  0.27781871774E+04  0.27004808615E+04 0.  0.
        2    1    3    3  502    0 -0.13012718502E+04 -0.35663506527E+03 -0.37922047711E+03  0.14015367166E+04  0.25500000920E-02 0. -1.
       -2    1    3    3    0  502  0.13012718502E+04  0.35663506527E+03 -0.27325719277E+03  0.13766504608E+04  0.25500000920E-02 0.  1.
</event>
<event>
 5   0  0.1932012E-06  0.2703768E+04  0.7818609E-02  0.8333783E-01
       -2   -1    0    0    0  501  0.00000000000E+00  0.00000000000E+00  0.11678851720E+04  0.11678851720E+04  0.25500000920E-02 0. -1.
        2   -1    0    0  501    0  0.00000000000E+00  0.00000000000E+00 -0.15648719566E+04  0.15648719566E+04  0.25500000920E-02 0.  1.
    10030    2    1    2    0    0  0.00000000000E+00  0.00000000000E+00 -0.39698678462E+03  0.27327571286E+04  0.27037682994E+04 0.  0.
        2    1    3    3  502    0  0.83428337517E+03 -0.10300411773E+04  0.70018611878E+02  0.13273719083E+04  0.25500000920E-02 0.  1.
       -2    1    3    3    0  502 -0.83428337517E+03  0.10300411773E+04 -0.46700539650E+03  0.14053852203E+04  0.25500000920E-02 0. -1.
</event>
<event>
 5   0  0.6561875E-07  0.2701109E+04  0.7818609E-02  0.8334645E-01
        3   -1    0    0  501    0  0.00000000000E+00  0.00000000000E+00  0.15782798900E+04  0.15782798932E+04  0.10100000352E+00 0.  1.
       -3   -1    0    0    0  501  0.00000000000E+00  0.00000000000E+00 -0.11556872358E+04  0.11556872403E+04  0.10100000352E+00 0. -1.
    10030    2    1    2    0    0  0.00000000000E+00  0.00000000000E+00  0.42259265414E+03  0.27339671335E+04  0.27011093528E+04 0.  0.
        4    1    3    3  502    0 -0.25235426958E+03 -0.11317151510E+04 -0.48961170014E+03  0.12586433530E+04  0.12699999809E+01 0. -1.
       -4    1    3    3    0  502  0.25235426958E+03  0.11317151510E+04  0.91220435428E+03  0.14753237805E+04  0.12699999809E+01 0.  1.
</event>
<event>
 5   0  0.7566905E-07  0.2684786E+04  0.7818609E-02  0.8339958E-01
       -1   -1    0    0    0  501  0.00000000000E+00  0.00000000000E+00  0.10463342154E+04  0.10463342154E+04  0.50400001928E-02 0. -1.
        1   -1    0    0  501    0  0.00000000000E+00  0.00000000000E+00 -0.17222214469E+04  0.17222214469E+04  0.50400001928E-02 0.  1.
    10030    2    1    2    0    0  0.00000000000E+00  0.00000000000E+00 -0.67588723153E+03  0.27685556624E+04  0.26847861937E+04 0.  0.
        1    1    3    3  502    0  0.34805249817E+03 -0.63938199037E+02  0.99736904856E+03  0.10582880770E+04  0.50400001928E-02 0. -1.
       -1    1    3    3    0  502 -0.34805249817E+03  0.63938199037E+02 -0.16732562801E+04  0.17102675854E+04  0.50400001928E-02 0.  1.
</event>
<event>
 5   0  0.1999104E-06  0.2695634E+04  0.7818609E-02  0.8336423E-01
        2   -1    0    0  501    0  0.00000000000E+00  0.00000000000E+00  0.23486573151E+04  0.23486573151E+04  0.25500000920E-02 0.  1.
       -2   -1    0    0    0  501  0.00000000000E+00  0.00000000000E+00 -0.77346752059E+03  0.77346752059E+03  0.25500000920E-02 0. -1.
    10030    2    1    2    0    0  0.00000000000E+00  0.00000000000E+00  0.15751897945E+04  0.31221248357E+04  0.26956336177E+04 0.  0.
        4    1    3    3  502    0  0.52767430018E+03 -0.10722711347E+04  0.15094178354E+04  0.19252400806E+04  0.12699999809E+01 0.  1.
       -4    1    3    3    0  502 -0.52767430018E+03  0.10722711347E+04  0.65771959141E+02  0.11968847551E+04  0.12699999809E+01 0. -1.
</event>
<event>
 5   0  0.7566905E-07  0.2700490E+04  0.7818609E-02  0.8334846E-01
        1   -1    0    0  501    0  0.00000000000E+00  0.00000000000E+00  0.18542918009E+04  0.18542918009E+04  0.50400001928E-02 0. -1.
       -1   -1    0    0    0  501  0.00000000000E+00  0.00000000000E+00 -0.98321212757E+03  0.98321212759E+03  0.50400001928E-02 0.  1.
    10030    2    1    2    0    0  0.00000000000E+00  0.00000000000E+00  0.87107967335E+03  0.28375039285E+04  0.27004904642E+04 0.  0.
        1    1    3    3  502    0  0.11215280435E+04  0.27085969540E+03  0.11725339906E+04  0.16450003301E+04  0.50400001928E-02 0. -1.
       -1    1    3    3    0  502 -0.11215280435E+04 -0.27085969540E+03 -0.30145431722E+03  0.11925035984E+04  0.50400001928E-02 0.  1.
</event>
<event>
 5   0  0.1999104E-06  0.2649744E+04  0.7818609E-02  0.8351498E-01
       -2   -1    0    0    0  501  0.00000000000E+00  0.00000000000E+00  0.66992278031E+03  0.66992278032E+03  0.25500000920E-02 0. -1.
        2   -1    0    0  501    0  0.00000000000E+00  0.00000000000E+00 -0.26201307594E+04  0.26201307594E+04  0.25500000920E-02 0.  1.
    10030    2    1    2    0    0  0.00000000000E+00  0.00000000000E+00 -0.19502079791E+04  0.32900535397E+04  0.26497435975E+04 0.  0.
        4    1    3    3  502    0 -0.86099770314E+03 -0.29789092656E+03 -0.21694314246E+04  0.23529747912E+04  0.12699999809E+01 0.  1.
       -4    1    3    3    0  502  0.86099770314E+03  0.29789092656E+03  0.21922344554E+03  0.93707874852E+03  0.12699999809E+01 0. -1.
</event>
<event>
 5   0  0.1991277E-06  0.2693548E+04  0.7818609E-02  0.8337101E-01
       -2   -1    0    0    0  501  0.00000000000E+00  0.00000000000E+00  0.12884946596E+04  0.12884946596E+04  0.25500000920E-02 0.  1.
        2   -1    0    0  501    0  0.00000000000E+00  0.00000000000E+00 -0.14076896136E+04  0.14076896136E+04  0.25500000920E-02 0. -1.
    10030    2    1    2    0    0  0.00000000000E+00  0.00000000000E+00 -0.11919495401E+03  0.26961842732E+04  0.26935482542E+04 0.  0.
        5    1    3    3  502    0 -0.25062852065E+03  0.15915672344E+03  0.12553215879E+04  0.12899611998E+04  0.46999998093E+01 0.  1.
       -5    1    3    3    0  502  0.25062852065E+03 -0.15915672344E+03 -0.13745165419E+04  0.14062230734E+04  0.46999998093E+01 0. -1.
</event>
<event>
 5   0  0.7768032E-07  0.2698459E+04  0.7818609E-02  0.8335505E-01
        1   -1    0    0  501    0  0.00000000000E+00  0.00000000000E+00  0.85748941350E+03  0.85748941352E+03  0.50400001928E-02 0. -1.
       -1   -1    0    0    0  501  0.00000000000E+00  0.00000000000E+00 -0.21229657591E+04  0.21229657591E+04  0.50400001928E-02 0.  1.
    10030    2    1    2    0    0  0.00000000000E+00  0.00000000000E+00 -0.12654763456E+04  0.29804551727E+04  0.26984593113E+04 0.  0.
        4    1    3    3  502    0 -0.17314011308E+03  0.80346745685E+03  0.54907005083E+03  0.98844169610E+03  0.12699999809E+01 0. -1.
       -4    1    3    3    0  502  0.17314011308E+03 -0.80346745685E+03 -0.18145463965E+04  0.19920134766E+04  0.12699999809E+01 0.  1.
</event>
<event>
 5   0  0.1991277E-06  0.2698187E+04  0.7818609E-02  0.8335593E-01
        2   -1    0    0  501    0  0.00000000000E+00  0.00000000000E+00  0.16604370559E+04  0.16604370559E+04  0.25500000920E-02 0.  1.
       -2   -1    0    0    0  501  0.00000000000E+00  0.00000000000E+00 -0.10961290469E+04  0.10961290469E+04  0.25500000920E-02 0. -1.
    10030    2    1    2    0    0  0.00000000000E+00  0.00000000000E+00  0.56430800892E+03  0.27565661028E+04  0.26981870117E+04 0.  0.
        5    1    3    3  502    0  0.10147066923E+03  0.55204026430E+03 -0.97116798246E+03  0.11217103415E+04  0.46999998093E+01 0. -1.
       -5    1    3    3    0  502 -0.10147066923E+03 -0.55204026430E+03  0.15354759914E+04  0.16348557613E+04  0.46999998093E+01 0.  1.
</event>
<event>
 5   0  0.7436613E-07  0.2704238E+04  0.7818609E-02  0.8333631E-01
        1   -1    0    0  501    0  0.00000000000E+00  0.00000000000E+00  0.19713653047E+04  0.19713653047E+04  0.50400001928E-02 0. -1.
       -1   -1    0    0    0  501  0.00000000000E+00  0.00000000000E+00 -0.92739038434E+03  0.92739038435E+03  0.50400001928E-02 0.  1.
    10030    2    1    2    0    0  0.00000000000E+00  0.00000000000E+00  0.10439749204E+04  0.28987556891E+04  0.27042375840E+04 0.  0.
        2    1    3    3  502    0  0.92104939511E+03 -0.21871477632E+03  0.15568627706E+04  0.18220839245E+04  0.25500000920E-02 0. -1.
       -2    1    3    3    0  502 -0.92104939511E+03  0.21871477632E+03 -0.51288785022E+03  0.10766717645E+04  0.25500000920E-02 0.  1.
</event>
<event>
 5   0  0.1932012E-06  0.2727674E+04  0.7818609E-02  0.8326081E-01
       -2   -1    0    0    0  501  0.00000000000E+00  0.00000000000E+00  0.13072130200E+04  0.13072130200E+04  0.25500000920E-02 0.  1.
        2   -1    0    0  501    0  0.00000000000E+00  0.00000000000E+00 -0.14229139380E+04  0.14229139380E+04  0.25500000920E-02 0. -1.
    10030    2    1    2    0    0  0.00000000000E+00  0.00000000000E+00 -0.11570091802E+03  0.27301269580E+04  0.27276741933E+04 0.  0.
        2    1    3    3  502    0  0.93000374005E+03 -0.87941037976E+03  0.41351043492E+03  0.13450875259E+04  0.25500000920E-02 0.  1.
       -2    1    3    3    0  502 -0.93000374005E+03  0.87941037976E+03 -0.52921135294E+03  0.13850394322E+04  0.25500000920E-02 0. -1.
</event>
<event>
 5   0  0.7806808E-07  0.2710460E+04  0.7818609E-02  0.8331619E-01
       -1   -1    0    0    0  501  0.00000000000E+00  0.00000000000E+00  0.11994571639E+04  0.11994571639E+04  0.50400001928E-02 0. -1.
        1   -1    0    0  501    0  0.00000000000E+00  0.00000000000E+00 -0.15312326539E+04  0.15312326539E+04  0.50400001928E-02 0.  1.
    10030    2    1    2    0    0  0.00000000000E+00  0.00000000000E+00 -0.33177549008E+03  0.27306898178E+04  0.27104597221E+04 0.  0.
        5    1    3    3  502    0 -0.36810947624E+03 -0.11150580195E+04  0.51574683168E+03  0.12825271373E+04  0.46999998093E+01 0.  1.
       -5    1    3    3    0  502  0.36810947624E+03  0.11150580195E+04 -0.84752232177E+03  0.14481626805E+04  0.46999998093E+01 0. -1.
</event>
</LesHouchesEvents>
