<LesHouchesEvents version="3.0">
<header>
<!--
#*********************************************************************
#                                                                    *
#                        MadGraph5_aMC@NLO                           *
#                                                                    *
#                           Going Beyond                             *
#                                                                    *
#                   http://madgraph.hep.uiuc.edu                     *
#                   http://madgraph.phys.ucl.ac.be                   *
#                   http://amcatnlo.cern.ch                          *
#                                                                    *
#                     The MadGraph5_aMC@NLO team                     *
#                                                                    *
#....................................................................*
#                                                                    *
# This file contains all the information necessary to reproduce      *
# the events generated:                                              *
#                                                                    *
# 1. software version                                                *
# 2. proc_card          : code generation info including model       *
# 3. param_card         : model primary parameters in the LH format  *
# 4. run_card           : running parameters (collider and cuts)     *
# 5. pythia_card        : present only if pythia has been run        *
# 6. pgs_card           : present only if pgs has been run           *
# 7. delphes_cards      : present only if delphes has been run       *
#                                                                    *
#                                                                    *
#*********************************************************************
-->
<MGVersion>
#5.2.2.3
</MGVersion>
<MG5ProcCard>
#************************************************************
#*                     MadGraph5_aMC@NLO                    *
#*                                                          *
#*                *                       *                 *
#*                  *        * *        *                   *
#*                    * * * * 5 * * * *                     *
#*                  *        * *        *                   *
#*                *                       *                 *
#*                                                          *
#*                                                          *
#*         VERSION 2.2.3                 2015-02-10         *
#*                                                          *
#*    The MadGraph5_aMC@NLO Development Team - Find us at   *
#*    https://server06.fynu.ucl.ac.be/projects/madgraph     *
#*                                                          *
#************************************************************
#*                                                          *
#*               Command File for MadGraph5_aMC@NLO         *
#*                                                          *
#*     run as ./bin/mg5_aMC  filename                       *
#*                                                          *
#************************************************************
set group_subprocesses Auto
set ignore_six_quark_processes False
set loop_optimized_output True
set gauge unitary
set complex_mass_scheme False
import model sm
define p = g u c d s u~ c~ d~ s~
define j = g u c d s u~ c~ d~ s~
define l+ = e+ mu+
define l- = e- mu-
define vl = ve vm vt
define vl~ = ve~ vm~ vt~
import model Zprime_UFO
generate p p > zph, zph > j j
add process p p > zph, zph > b b~
output Dijet_signal
</MG5ProcCard>
<MGProcCard>
#*********************************************************************
#                        MadGraph/MadEvent                           *
#                   http://madgraph.hep.uiuc.edu                     *
#                                                                    *
#                          proc_card.dat                             *
#*********************************************************************
#                                                                    *
#            This Files is generated by MADGRAPH 5                   *
#                                                                    *
# WARNING: This Files is generated for MADEVENT (compatibility issue)*
#          This files is NOT a valid MG4 proc_card.dat               *
#          Running this in MG4 will NEVER reproduce the result of MG5*
#                                                                    *
#*********************************************************************
#*********************************************************************
# Process(es) requested : mg2 input                                  *
#*********************************************************************
# Begin PROCESS # This is TAG. Do not modify this line
p p > zph , zph > j j           #Process
# Be carefull the coupling are here in MG5 convention
          
end_coup           # End the couplings input

done               # this tells MG there are no more procs
# End PROCESS  # This is TAG. Do not modify this line
#*********************************************************************
# Model information                                                  *
#*********************************************************************
# Begin MODEL  # This is TAG. Do not modify this line
Zprime_UFO
# End   MODEL  # This is TAG. Do not modify this line
#*********************************************************************
# Start multiparticle definitions                                    *
#*********************************************************************
# Begin MULTIPARTICLES # This is TAG. Do not modify this line

# End  MULTIPARTICLES # This is TAG. Do not modify this line
</MGProcCard>
<MGRunCard>
#*********************************************************************
#                       MadGraph5_aMC@NLO                            *
#                                                                    *
#                     run_card.dat MadEvent                          *
#                                                                    *
#  This file is used to set the parameters of the run.               *
#                                                                    *
#  Some notation/conventions:                                        *
#                                                                    *
#   Lines starting with a '# ' are info or comments                  *
#                                                                    *
#   mind the format:   value    = variable     ! comment             *
#*********************************************************************
#
#*******************                                                 
# Running parameters
#*******************                                                 
#                                                                    
#*********************************************************************
# Tag name for the run (one word)                                    *
#*********************************************************************
  tag_1     = run_tag ! name of the run 
#*********************************************************************
# Run to generate the grid pack                                      *
#*********************************************************************
  .false.     = gridpack  !True = setting up the grid pack
#*********************************************************************
# Number of events and rnd seed                                      *
# Warning: Do not generate more than 1M events in a single run       *
# If you want to run Pythia, avoid more than 50k events in a run.    *
#*********************************************************************
  2000 = nevents ! Number of unweighted events requested 
 2064 = iseed   ! rnd seed (0=assigned automatically=default))
#*********************************************************************
# Collider type and energy                                           *
# lpp: 0=No PDF, 1=proton, -1=antiproton, 2=photon from proton,      *
#                                         3=photon from electron     *
#*********************************************************************
        1     = lpp1    ! beam 1 type 
        1     = lpp2    ! beam 2 type
     4000     = ebeam1  ! beam 1 total energy in GeV
     4000     = ebeam2  ! beam 2 total energy in GeV
#*********************************************************************
# Beam polarization from -100 (left-handed) to 100 (right-handed)    *
#*********************************************************************
        0     = polbeam1 ! beam polarization for beam 1
        0     = polbeam2 ! beam polarization for beam 2
#*********************************************************************
# PDF CHOICE: this automatically fixes also alpha_s and its evol.    *
#*********************************************************************
 'nn23lo1'    = pdlabel     ! PDF set                                     
 230000    = lhaid     ! if pdlabel=lhapdf, this is the lhapdf number
#*********************************************************************
# Renormalization and factorization scales                           *
#*********************************************************************
 F        = fixed_ren_scale  ! if .true. use fixed ren scale
 F        = fixed_fac_scale  ! if .true. use fixed fac scale
 91.1880  = scale            ! fixed ren scale
 91.1880  = dsqrt_q2fact1    ! fixed fact scale for pdf1
 91.1880  = dsqrt_q2fact2    ! fixed fact scale for pdf2
 1        = scalefact        ! scale factor for event-by-event scales
#*********************************************************************
# Matching - Warning! ickkw > 1 is still beta
#*********************************************************************
 0        = ickkw            ! 0 no matching, 1 MLM, 2 CKKW matching
 1        = highestmult      ! for ickkw=2, highest mult group
 1        = ktscheme         ! for ickkw=1, 1 Durham kT, 2 Pythia pTE
 1        = alpsfact         ! scale factor for QCD emission vx
 F        = chcluster        ! cluster only according to channel diag
 T        = pdfwgt           ! for ickkw=1, perform pdf reweighting
 5        = asrwgtflavor     ! highest quark flavor for a_s reweight
 T        = clusinfo         ! include clustering tag in output
 3.0      = lhe_version       ! Change the way clustering information pass to shower.        
#*********************************************************************
#**********************************************************
#
#**********************************************************
# Automatic ptj and mjj cuts if xqcut > 0
# (turn off for VBF and single top processes)
#**********************************************************
   T  = auto_ptj_mjj  ! Automatic setting of ptj and mjj
#**********************************************************
#                                                                    
#**********************************
# BW cutoff (M+/-bwcutoff*Gamma)
#**********************************
  15  = bwcutoff      ! (M+/-bwcutoff*Gamma)
#**********************************************************
# Apply pt/E/eta/dr/mij cuts on decay products or not
# (note that etmiss/ptll/ptheavy/ht/sorted cuts always apply)
#**********************************************************
   T  = cut_decays    ! Cut decay products 
#*************************************************************
# Number of helicities to sum per event (0 = all helicities)
# 0 gives more stable result, but longer run time (needed for
# long decay chains e.g.).
# Use >=2 if most helicities contribute, e.g. pure QCD.
#*************************************************************
   0  = nhel          ! Number of helicities used per event
#*******************                                                 
# Standard Cuts
#*******************                                                 
#                                                                    
#*********************************************************************
# Minimum and maximum pt's (for max, -1 means no cut)                *
#*********************************************************************
 20  = ptj       ! minimum pt for the jets 
  0  = ptb       ! minimum pt for the b 
 10  = pta       ! minimum pt for the photons 
 10  = ptl       ! minimum pt for the charged leptons 
  0  = misset    ! minimum missing Et (sum of neutrino's momenta)
  0  = ptheavy   ! minimum pt for one heavy final state
 1.0 = ptonium   ! minimum pt for the quarkonium states
 -1  = ptjmax    ! maximum pt for the jets
 -1  = ptbmax    ! maximum pt for the b
 -1  = ptamax    ! maximum pt for the photons
 -1  = ptlmax    ! maximum pt for the charged leptons
 -1  = missetmax ! maximum missing Et (sum of neutrino's momenta)
#*********************************************************************
# Minimum and maximum E's (in the center of mass frame)              *
#*********************************************************************
  0  = ej     ! minimum E for the jets 
  0  = eb     ! minimum E for the b 
  0  = ea     ! minimum E for the photons 
  0  = el     ! minimum E for the charged leptons 
 -1   = ejmax ! maximum E for the jets
 -1   = ebmax ! maximum E for the b
 -1   = eamax ! maximum E for the photons
 -1   = elmax ! maximum E for the charged leptons
#*********************************************************************
# Maximum and minimum absolute rapidity (for max, -1 means no cut)   *
#*********************************************************************
   5  = etaj    ! max rap for the jets 
  -1  = etab    ! max rap for the b
 2.5  = etaa    ! max rap for the photons 
 2.5  = etal    ! max rap for the charged leptons 
 0.6  = etaonium ! max rap for the quarkonium states
   0  = etajmin ! min rap for the jets
   0  = etabmin ! min rap for the b
   0  = etaamin ! min rap for the photons
   0  = etalmin ! main rap for the charged leptons
#*********************************************************************
# Minimum and maximum DeltaR distance                                *
#*********************************************************************
 0.4 = drjj    ! min distance between jets 
 0   = drbb    ! min distance between b's 
 0.4 = drll    ! min distance between leptons 
 0.4 = draa    ! min distance between gammas 
 0   = drbj    ! min distance between b and jet 
 0.4 = draj    ! min distance between gamma and jet 
 0.4 = drjl    ! min distance between jet and lepton 
 0   = drab    ! min distance between gamma and b 
 0   = drbl    ! min distance between b and lepton 
 0.4 = dral    ! min distance between gamma and lepton 
 -1  = drjjmax ! max distance between jets
 -1  = drbbmax ! max distance between b's
 -1  = drllmax ! max distance between leptons
 -1  = draamax ! max distance between gammas
 -1  = drbjmax ! max distance between b and jet
 -1  = drajmax ! max distance between gamma and jet
 -1  = drjlmax ! max distance between jet and lepton
 -1  = drabmax ! max distance between gamma and b
 -1  = drblmax ! max distance between b and lepton
 -1  = dralmax ! maxdistance between gamma and lepton
#*********************************************************************
# Minimum and maximum invariant mass for pairs                       *
# WARNING: for four lepton final state mmll cut require to have      *
#          different lepton masses for each flavor!                  *           
#*********************************************************************
 0   = mmjj    ! min invariant mass of a jet pair 
 0   = mmbb    ! min invariant mass of a b pair 
 0   = mmaa    ! min invariant mass of gamma gamma pair
 0   = mmll    ! min invariant mass of l+l- (same flavour) lepton pair
 -1  = mmjjmax ! max invariant mass of a jet pair
 -1  = mmbbmax ! max invariant mass of a b pair
 -1  = mmaamax ! max invariant mass of gamma gamma pair
 -1  = mmllmax ! max invariant mass of l+l- (same flavour) lepton pair
#*********************************************************************
# Minimum and maximum invariant mass for all letpons                 *
#*********************************************************************
 0   = mmnl    ! min invariant mass for all letpons (l+- and vl) 
 -1  = mmnlmax ! max invariant mass for all letpons (l+- and vl) 
#*********************************************************************
# Minimum and maximum pt for 4-momenta sum of leptons                *
#*********************************************************************
 0   = ptllmin  ! Minimum pt for 4-momenta sum of leptons(l and vl)
 -1  = ptllmax  ! Maximum pt for 4-momenta sum of leptons(l and vl)
#*********************************************************************
# Inclusive cuts                                                     *
#*********************************************************************
 0  = xptj ! minimum pt for at least one jet  
 0  = xptb ! minimum pt for at least one b 
 0  = xpta ! minimum pt for at least one photon 
 0  = xptl ! minimum pt for at least one charged lepton 
#*********************************************************************
# Control the pt's of the jets sorted by pt                          *
#*********************************************************************
 0   = ptj1min ! minimum pt for the leading jet in pt
 0   = ptj2min ! minimum pt for the second jet in pt
 0   = ptj3min ! minimum pt for the third jet in pt
 0   = ptj4min ! minimum pt for the fourth jet in pt
 -1  = ptj1max ! maximum pt for the leading jet in pt 
 -1  = ptj2max ! maximum pt for the second jet in pt
 -1  = ptj3max ! maximum pt for the third jet in pt
 -1  = ptj4max ! maximum pt for the fourth jet in pt
 0   = cutuse  ! reject event if fails any (0) / all (1) jet pt cuts
#*********************************************************************
# Control the pt's of leptons sorted by pt                           *
#*********************************************************************
 0   = ptl1min ! minimum pt for the leading lepton in pt
 0   = ptl2min ! minimum pt for the second lepton in pt
 0   = ptl3min ! minimum pt for the third lepton in pt
 0   = ptl4min ! minimum pt for the fourth lepton in pt
 -1  = ptl1max ! maximum pt for the leading lepton in pt 
 -1  = ptl2max ! maximum pt for the second lepton in pt
 -1  = ptl3max ! maximum pt for the third lepton in pt
 -1  = ptl4max ! maximum pt for the fourth lepton in pt
#*********************************************************************
# Control the Ht(k)=Sum of k leading jets                            *
#*********************************************************************
 0   = htjmin ! minimum jet HT=Sum(jet pt)
 -1  = htjmax ! maximum jet HT=Sum(jet pt)
 0   = ihtmin  !inclusive Ht for all partons (including b)
 -1  = ihtmax  !inclusive Ht for all partons (including b)
 0   = ht2min ! minimum Ht for the two leading jets
 0   = ht3min ! minimum Ht for the three leading jets
 0   = ht4min ! minimum Ht for the four leading jets
 -1  = ht2max ! maximum Ht for the two leading jets
 -1  = ht3max ! maximum Ht for the three leading jets
 -1  = ht4max ! maximum Ht for the four leading jets
#***********************************************************************
# Photon-isolation cuts, according to hep-ph/9801442                   *
# When ptgmin=0, all the other parameters are ignored                  *
# When ptgmin>0, pta and draj are not going to be used                 *
#***********************************************************************
   0 = ptgmin ! Min photon transverse momentum
 0.4 = R0gamma ! Radius of isolation code
 1.0 = xn ! n parameter of eq.(3.4) in hep-ph/9801442
 1.0 = epsgamma ! epsilon_gamma parameter of eq.(3.4) in hep-ph/9801442
 .true. = isoEM ! isolate photons from EM energy (photons and leptons)
#*********************************************************************
# WBF cuts                                                           *
#*********************************************************************
 0   = xetamin ! minimum rapidity for two jets in the WBF case  
 0   = deltaeta ! minimum rapidity for two jets in the WBF case 
#*********************************************************************
# KT DURHAM CUT                                                      *
#*********************************************************************
 -1    =  ktdurham        
 0.4  =  dparameter 
#*********************************************************************
# maximal pdg code for quark to be considered as a light jet         *
# (otherwise b cuts are applied)                                     *
#*********************************************************************
 4 = maxjetflavor    ! Maximum jet pdg code
#*********************************************************************
# Jet measure cuts                                                   *
#*********************************************************************
 0   = xqcut   ! minimum kt jet measure between partons
#*********************************************************************
#
#*********************************************************************
# Store info for systematics studies                                 *
# WARNING: If use_syst is T, matched Pythia output is                *
#          meaningful ONLY if plotted taking matchscale              *
#          reweighting into account!                                 *
#*********************************************************************
   F  = use_syst      ! Enable systematics studies
#
#**************************************
# Parameter of the systematics study
#  will be used by SysCalc (if installed)
#**************************************                                  
#
0.5 1 2 = sys_scalefact  # factorization/renormalization scale factor
0.5 1 2 = sys_alpsfact  # \alpha_s emission scale factors
30 50 = sys_matchscale # variation of merging scale
# PDF sets and number of members (0 or none for all members).
CT10nlo.LHgrid = sys_pdf # matching scales
# MSTW2008nlo68cl.LHgrid 1  = sys_pdf
</MGRunCard>
<slha>
######################################################################
## PARAM_CARD AUTOMATICALY GENERATED BY MG5 FOLLOWING UFO MODEL   ####
######################################################################
##                                                                  ##
##  Width set on Auto will be computed following the information    ##
##        present in the decay.py files of the model.               ##
##        See  arXiv:1402.1178 for more details.                    ##
##                                                                  ##
######################################################################

###################################
## INFORMATION FOR CKMBLOCK
###################################
Block ckmblock 
    1 2.277360e-01 # cabi 

###################################
## INFORMATION FOR FRBLOCK
###################################
Block frblock 
    1 1.000000e+00 # gz 

###################################
## INFORMATION FOR MASS
###################################
Block mass 
    1 5.040000e-03 # MD 
    2 2.550000e-03 # MU 
    3 1.010000e-01 # MS 
    4 1.270000e+00 # MC 
    5 4.700000e+00 # MB 
    6 1.720000e+02 # MT 
   11 5.110000e-04 # Me 
   13 1.056600e-01 # MM 
   15 1.777000e+00 # MTA 
   23 9.118760e+01 # MZ 
   25 1.200000e+02 # MH 
  10030 3.500000e+03 # MZph 
  10031 3.000000e+02 # MZpl 
## Dependent parameters, given by model restrictions.
## Those values should be edited following the 
## analytical expression. MG5 ignores those values 
## but they are important for interfacing the output of MG5
## to external program such as Pythia.
  12 0.000000 # ve : 0.0 
  14 0.000000 # vm : 0.0 
  16 0.000000 # vt : 0.0 
  21 0.000000 # g : 0.0 
  22 0.000000 # a : 0.0 
  24 79.824360 # w+ : cmath.sqrt(MZ__exp__2/2. + cmath.sqrt(MZ__exp__4/4. - (aEW*cmath.pi*MZ__exp__2)/(Gf*sqrt__2))) 

###################################
## INFORMATION FOR SMINPUTS
###################################
Block sminputs 
    1 1.279000e+02 # aEWM1 
    2 1.166370e-05 # Gf 
    3 1.184000e-01 # aS 

###################################
## INFORMATION FOR YUKAWA
###################################
Block yukawa 
    1 5.040000e-03 # ymdo 
    2 2.550000e-03 # ymup 
    3 1.010000e-01 # yms 
    4 1.270000e+00 # ymc 
    5 4.700000e+00 # ymb 
    6 1.720000e+02 # ymt 
   11 5.110000e-04 # yme 
   13 1.056600e-01 # ymm 
   15 1.777000e+00 # ymtau 

###################################
## INFORMATION FOR DECAY
###################################
DECAY   6 1.508336e+00 # WT 
DECAY  23 2.495200e+00 # WZ 
DECAY  24 2.085000e+00 # WW 
DECAY  25 5.753088e-03 # WH 
## Dependent parameters, given by model restrictions.
## Those values should be edited following the 
## analytical expression. MG5 ignores those values 
## but they are important for interfacing the output of MG5
## to external program such as Pythia.
DECAY  1 0.000000 # d : 0.0 
DECAY  2 0.000000 # u : 0.0 
DECAY  3 0.000000 # s : 0.0 
DECAY  4 0.000000 # c : 0.0 
DECAY  5 0.000000 # b : 0.0 
DECAY  11 0.000000 # e- : 0.0 
DECAY  12 0.000000 # ve : 0.0 
DECAY  13 0.000000 # mu- : 0.0 
DECAY  14 0.000000 # vm : 0.0 
DECAY  15 0.000000 # ta- : 0.0 
DECAY  16 0.000000 # vt : 0.0 
DECAY  21 0.000000 # g : 0.0 
DECAY  22 0.000000 # a : 0.0 
DECAY  10030 0.308725 # zph : (gz__exp__2*MZph*(5 + cmath.sqrt(1 - (4*MT__exp__2)/MZph__exp__2)))/(144.*cmath.pi) 
DECAY  10031 0.132629 # zpl : (5*gz__exp__2*MZpl)/(144.*cmath.pi) 
#===========================================================
# QUANTUM NUMBERS OF NEW STATE(S) (NON SM PDG CODE)
#===========================================================

Block QNUMBERS 10030  # zph 
        1 0  # 3 times electric charge
        2 3  # number of spin states (2S+1)
        3 1  # colour rep (1: singlet, 3: triplet, 8: octet)
        4 0  # Particle/Antiparticle distinction (0=own anti)
Block QNUMBERS 10031  # zpl 
        1 0  # 3 times electric charge
        2 3  # number of spin states (2S+1)
        3 1  # colour rep (1: singlet, 3: triplet, 8: octet)
        4 0  # Particle/Antiparticle distinction (0=own anti)
</slha>
## END BANNER##
<MGGenerationInfo>
#  Number of Events        :         4075
#  Integrated weight (pb)  :  0.23256E-03
#  Max wgt                 :  0.93117E-07
#  Average wgt             :  0.57070E-07
</MGGenerationInfo>
</header>
<init>
     2212     2212  0.40000000000E+04  0.40000000000E+04 0 0  247000  247000 2   1
  0.23258733403E-03  0.46431456698E-06  0.93116720000E-07   0
</init>
<event>
 5   0  0.9128871E-07  0.3529255E+04  0.7818609E-02  0.8106892E-01
       -2   -1    0    0    0  501  0.00000000000E+00  0.00000000000E+00  0.12241992849E+04  0.12241992849E+04  0.25500000920E-02 0. -1.
        2   -1    0    0  501    0  0.00000000000E+00  0.00000000000E+00 -0.25436304480E+04  0.25436304480E+04  0.25500000920E-02 0.  1.
    10030    2    1    2    0    0  0.00000000000E+00  0.00000000000E+00 -0.13194311631E+04  0.37678297329E+04  0.35292552050E+04 0.  0.
        1    1    3    3  502    0  0.11199834336E+04 -0.13023442660E+04 -0.22810030255E+03  0.17327703907E+04  0.50400001928E-02 0.  1.
       -1    1    3    3    0  502 -0.11199834336E+04  0.13023442660E+04 -0.10913308605E+04  0.20350593422E+04  0.50400001928E-02 0. -1.
</event>
<event>
 5   0  0.2907000E-07  0.3500939E+04  0.7818609E-02  0.8113568E-01
        3   -1    0    0  501    0  0.00000000000E+00  0.00000000000E+00  0.13237831684E+04  0.13237831723E+04  0.10100000352E+00 0.  1.
       -3   -1    0    0    0  501  0.00000000000E+00  0.00000000000E+00 -0.23146862853E+04  0.23146862875E+04  0.10100000352E+00 0. -1.
    10030    2    1    2    0    0  0.00000000000E+00  0.00000000000E+00 -0.99090311686E+03  0.36384694598E+04  0.35009385917E+04 0.  0.
        5    1    3    3  502    0  0.38474466582E+03 -0.12576805060E+04 -0.16959626693E+04  0.21461826993E+04  0.46999998093E+01 0. -1.
       -5    1    3    3    0  502 -0.38474466582E+03  0.12576805060E+04  0.70505955241E+03  0.14922867605E+04  0.46999998093E+01 0.  1.
</event>
<event>
 5   0  0.9128871E-07  0.3483840E+04  0.7818609E-02  0.8117630E-01
       -2   -1    0    0    0  501  0.00000000000E+00  0.00000000000E+00  0.13072447747E+04  0.13072447747E+04  0.25500000920E-02 0.  1.
        2   -1    0    0  501    0  0.00000000000E+00  0.00000000000E+00 -0.23211295770E+04  0.23211295770E+04  0.25500000920E-02 0. -1.
    10030    2    1    2    0    0  0.00000000000E+00  0.00000000000E+00 -0.10138848023E+04  0.36283743516E+04  0.34838395548E+04 0.  0.
        1    1    3    3  502    0  0.52011058590E+03 -0.16621273176E+04 -0.54152023836E+03  0.18238493386E+04  0.50400001928E-02 0.  1.
       -1    1    3    3    0  502 -0.52011058590E+03  0.16621273176E+04 -0.47236456397E+03  0.18045250130E+04  0.50400001928E-02 0. -1.
</event>
<event>
 5   0  0.6188930E-07  0.3496318E+04  0.7818609E-02  0.8114663E-01
        2   -1    0    0  501    0  0.00000000000E+00  0.00000000000E+00  0.18995642667E+04  0.18995642667E+04  0.25500000920E-02 0.  1.
       -2   -1    0    0    0  501  0.00000000000E+00  0.00000000000E+00 -0.16088215089E+04  0.16088215089E+04  0.25500000920E-02 0. -1.
    10030    2    1    2    0    0  0.00000000000E+00  0.00000000000E+00  0.29074275773E+03  0.35083857756E+04  0.34963179774E+04 0.  0.
        3    1    3    3  502    0  0.13002083707E+04  0.92848090894E+03 -0.56661356514E+03  0.16951901215E+04  0.10100000352E+00 0. -1.
       -3    1    3    3    0  502 -0.13002083707E+04 -0.92848090894E+03  0.85735632287E+03  0.18131956541E+04  0.10100000352E+00 0.  1.
</event>
<event>
 5   0  0.9128871E-07  0.3529193E+04  0.7818609E-02  0.8106906E-01
        2   -1    0    0  501    0  0.00000000000E+00  0.00000000000E+00  0.16780323662E+04  0.16780323663E+04  0.25500000920E-02 0.  1.
       -2   -1    0    0    0  501  0.00000000000E+00  0.00000000000E+00 -0.18556258854E+04  0.18556258854E+04  0.25500000920E-02 0. -1.
    10030    2    1    2    0    0  0.00000000000E+00  0.00000000000E+00 -0.17759351913E+03  0.35336582516E+04  0.35291927096E+04 0.  0.
        1    1    3    3  502    0 -0.80546045897E+03 -0.15492518468E+04  0.16618692831E+03  0.17540142334E+04  0.50400001928E-02 0. -1.
       -1    1    3    3    0  502  0.80546045897E+03  0.15492518468E+04 -0.34378044745E+03  0.17796440183E+04  0.50400001928E-02 0.  1.
</event>
<event>
 5   0  0.6188930E-07  0.3399950E+04  0.7818609E-02  0.8137919E-01
       -2   -1    0    0    0  501  0.00000000000E+00  0.00000000000E+00  0.14397068928E+04  0.14397068928E+04  0.25500000920E-02 0. -1.
        2   -1    0    0  501    0  0.00000000000E+00  0.00000000000E+00 -0.20072938858E+04  0.20072938858E+04  0.25500000920E-02 0.  1.
    10030    2    1    2    0    0  0.00000000000E+00  0.00000000000E+00 -0.56758699299E+03  0.34470007786E+04  0.33999499075E+04 0.  0.
        3    1    3    3  502    0  0.13519227244E+04 -0.45496471284E+03  0.65378909902E+03  0.15691169934E+04  0.10100000352E+00 0. -1.
       -3    1    3    3    0  502 -0.13519227244E+04  0.45496471284E+03 -0.12213760920E+04  0.18778837853E+04  0.10100000352E+00 0.  1.
</event>
<event>
 5   0  0.3026332E-07  0.3506141E+04  0.7818609E-02  0.8112336E-01
        1   -1    0    0  501    0  0.00000000000E+00  0.00000000000E+00  0.14299943303E+04  0.14299943303E+04  0.50400001928E-02 0. -1.
       -1   -1    0    0    0  501  0.00000000000E+00  0.00000000000E+00 -0.21491387120E+04  0.21491387120E+04  0.50400001928E-02 0.  1.
    10030    2    1    2    0    0  0.00000000000E+00  0.00000000000E+00 -0.71914438171E+03  0.35791330423E+04  0.35061409973E+04 0.  0.
        1    1    3    3  502    0  0.32490426961E+03  0.15837730212E+04 -0.10514403653E+04  0.19285815018E+04  0.50400001928E-02 0.  1.
       -1    1    3    3    0  502 -0.32490426961E+03 -0.15837730212E+04  0.33229598363E+03  0.16505515405E+04  0.50400001928E-02 0. -1.
</event>
<event>
 5   0  0.2972541E-07  0.3009853E+04  0.7818609E-02  0.8240923E-01
        1   -1    0    0  501    0  0.00000000000E+00  0.00000000000E+00  0.18747640089E+04  0.18747640089E+04  0.50400001928E-02 0.  1.
       -1   -1    0    0    0  501  0.00000000000E+00  0.00000000000E+00 -0.12080471425E+04  0.12080471425E+04  0.50400001928E-02 0. -1.
    10030    2    1    2    0    0  0.00000000000E+00  0.00000000000E+00  0.66671686639E+03  0.30828111514E+04  0.30098526900E+04 0.  0.
        3    1    3    3  502    0  0.31244689272E+03 -0.10104857679E+04 -0.76315182575E+03  0.13042642628E+04  0.10100000352E+00 0. -1.
       -3    1    3    3    0  502 -0.31244689272E+03  0.10104857679E+04  0.14298686921E+04  0.17785468886E+04  0.10100000352E+00 0.  1.
</event>
<event>
 5   0  0.9128871E-07  0.3492130E+04  0.7818609E-02  0.8115658E-01
        2   -1    0    0  501    0  0.00000000000E+00  0.00000000000E+00  0.22153759394E+04  0.22153759394E+04  0.25500000920E-02 0.  1.
       -2   -1    0    0    0  501  0.00000000000E+00  0.00000000000E+00 -0.13761738843E+04  0.13761738843E+04  0.25500000920E-02 0. -1.
    10030    2    1    2    0    0  0.00000000000E+00  0.00000000000E+00  0.83920205511E+03  0.35915498238E+04  0.34921297295E+04 0.  0.
        1    1    3    3  502    0 -0.14332250324E+04  0.99628782530E+03  0.46581455278E+03  0.18065731709E+04  0.50400001928E-02 0. -1.
       -1    1    3    3    0  502  0.14332250324E+04 -0.99628782530E+03  0.37338750232E+03  0.17849766529E+04  0.50400001928E-02 0.  1.
</event>
<event>
 5   0  0.8845195E-07  0.3500915E+04  0.7818609E-02  0.8113573E-01
        2   -1    0    0  501    0  0.00000000000E+00  0.00000000000E+00  0.26049315213E+04  0.26049315213E+04  0.25500000920E-02 0. -1.
       -2   -1    0    0    0  501  0.00000000000E+00  0.00000000000E+00 -0.11762694147E+04  0.11762694147E+04  0.25500000920E-02 0.  1.
    10030    2    1    2    0    0  0.00000000000E+00  0.00000000000E+00  0.14286621066E+04  0.37812009359E+04  0.35009148951E+04 0.  0.
        5    1    3    3  502    0 -0.58563004134E+02 -0.14770181082E+04  0.17269806839E+04  0.22732128123E+04  0.46999998093E+01 0. -1.
       -5    1    3    3    0  502  0.58563004134E+02  0.14770181082E+04 -0.29831857731E+03  0.15079881236E+04  0.46999998093E+01 0.  1.
</event>
<event>
 5   0  0.9128871E-07  0.3483076E+04  0.7818609E-02  0.8117812E-01
       -2   -1    0    0    0  501  0.00000000000E+00  0.00000000000E+00  0.23265740617E+04  0.23265740617E+04  0.25500000920E-02 0.  1.
        2   -1    0    0  501    0  0.00000000000E+00  0.00000000000E+00 -0.13036143810E+04  0.13036143810E+04  0.25500000920E-02 0. -1.
    10030    2    1    2    0    0  0.00000000000E+00  0.00000000000E+00  0.10229596807E+04  0.36301884427E+04  0.34830764593E+04 0.  0.
        1    1    3    3  502    0  0.14094762646E+04 -0.10010142199E+04  0.29210806383E+03  0.17532769119E+04  0.50400001928E-02 0.  1.
       -1    1    3    3    0  502 -0.14094762646E+04  0.10010142199E+04  0.73085161683E+03  0.18769115309E+04  0.50400001928E-02 0. -1.
</event>
<event>
 5   0  0.8845195E-07  0.3514413E+04  0.7818609E-02  0.8110383E-01
       -2   -1    0    0    0  501  0.00000000000E+00  0.00000000000E+00  0.10523284683E+04  0.10523284683E+04  0.25500000920E-02 0.  1.
        2   -1    0    0  501    0  0.00000000000E+00  0.00000000000E+00 -0.29342303928E+04  0.29342303928E+04  0.25500000920E-02 0. -1.
    10030    2    1    2    0    0  0.00000000000E+00  0.00000000000E+00 -0.18819019245E+04  0.39865588611E+04  0.35144127105E+04 0.  0.
        5    1    3    3  502    0 -0.83024153000E+03 -0.12341477884E+04 -0.20022344485E+04  0.24942707628E+04  0.46999998093E+01 0. -1.
       -5    1    3    3    0  502  0.83024153000E+03  0.12341477884E+04  0.12033252401E+03  0.14922880982E+04  0.46999998093E+01 0.  1.
</event>
<event>
 5   0  0.8845195E-07  0.3486753E+04  0.7818609E-02  0.8116936E-01
        2   -1    0    0  501    0  0.00000000000E+00  0.00000000000E+00  0.26182083462E+04  0.26182083462E+04  0.25500000920E-02 0. -1.
       -2   -1    0    0    0  501  0.00000000000E+00  0.00000000000E+00 -0.11608555584E+04  0.11608555584E+04  0.25500000920E-02 0.  1.
    10030    2    1    2    0    0  0.00000000000E+00  0.00000000000E+00  0.14573527878E+04  0.37790639046E+04  0.34867530522E+04 0.  0.
        5    1    3    3  502    0  0.16089672295E+04  0.66855478933E+03  0.79369355516E+03  0.19146050772E+04  0.46999998093E+01 0.  1.
       -5    1    3    3    0  502 -0.16089672295E+04 -0.66855478933E+03  0.66365923266E+03  0.18644588274E+04  0.46999998093E+01 0. -1.
</event>
<event>
 5   0  0.2972541E-07  0.3518695E+04  0.7818609E-02  0.8109374E-01
       -1   -1    0    0    0  501  0.00000000000E+00  0.00000000000E+00  0.18684416826E+04  0.18684416826E+04  0.50400001928E-02 0. -1.
        1   -1    0    0  501    0  0.00000000000E+00  0.00000000000E+00 -0.16566233254E+04  0.16566233254E+04  0.50400001928E-02 0.  1.
    10030    2    1    2    0    0  0.00000000000E+00  0.00000000000E+00  0.21181835714E+03  0.35250650080E+04  0.35186952545E+04 0.  0.
        3    1    3    3  502    0  0.11087472879E+04  0.13655495200E+04  0.70376347218E+02  0.17603973644E+04  0.10100000352E+00 0.  1.
       -3    1    3    3    0  502 -0.11087472879E+04 -0.13655495200E+04  0.14144200992E+03  0.17646676436E+04  0.10100000352E+00 0. -1.
</event>
<event>
 5   0  0.3061330E-07  0.3395842E+04  0.7818609E-02  0.8138928E-01
        1   -1    0    0  501    0  0.00000000000E+00  0.00000000000E+00  0.16934721854E+04  0.16934721854E+04  0.50400001928E-02 0. -1.
       -1   -1    0    0    0  501  0.00000000000E+00  0.00000000000E+00 -0.17023813536E+04  0.17023813536E+04  0.50400001928E-02 0.  1.
    10030    2    1    2    0    0  0.00000000000E+00  0.00000000000E+00 -0.89091682036E+01  0.33958535390E+04  0.33958418522E+04 0.  0.
        5    1    3    3  502    0 -0.16904757671E+04  0.10700487950E+03  0.11282760744E+03  0.16976190746E+04  0.46999998093E+01 0. -1.
       -5    1    3    3    0  502  0.16904757671E+04 -0.10700487950E+03 -0.12173677564E+03  0.16982344644E+04  0.46999998093E+01 0.  1.
</event>
<event>
 5   0  0.3026332E-07  0.3533892E+04  0.7818609E-02  0.8105805E-01
       -1   -1    0    0    0  501  0.00000000000E+00  0.00000000000E+00  0.15963016325E+04  0.15963016326E+04  0.50400001928E-02 0.  1.
        1   -1    0    0  501    0  0.00000000000E+00  0.00000000000E+00 -0.19558326719E+04  0.19558326719E+04  0.50400001928E-02 0. -1.
    10030    2    1    2    0    0  0.00000000000E+00  0.00000000000E+00 -0.35953103939E+03  0.35521343045E+04  0.35338924077E+04 0.  0.
        1    1    3    3  502    0  0.50600659339E+03  0.89066458647E+03  0.12673790071E+04  0.16295936996E+04  0.50400001928E-02 0.  1.
       -1    1    3    3    0  502 -0.50600659339E+03 -0.89066458647E+03 -0.16269100465E+04  0.19225406049E+04  0.50400001928E-02 0. -1.
</event>
<event>
 5   0  0.3026332E-07  0.3526168E+04  0.7818609E-02  0.8107616E-01
       -1   -1    0    0    0  501  0.00000000000E+00  0.00000000000E+00  0.27832307980E+04  0.27832307980E+04  0.50400001928E-02 0.  1.
        1   -1    0    0  501    0  0.00000000000E+00  0.00000000000E+00 -0.11168552581E+04  0.11168552581E+04  0.50400001928E-02 0. -1.
    10030    2    1    2    0    0  0.00000000000E+00  0.00000000000E+00  0.16663755399E+04  0.39000860561E+04  0.35261684312E+04 0.  0.
        1    1    3    3  502    0 -0.15856770157E+04 -0.74048915906E+02 -0.15377718726E+02  0.15874795477E+04  0.50400001928E-02 0.  1.
       -1    1    3    3    0  502  0.15856770157E+04  0.74048915906E+02  0.16817532586E+04  0.23126065085E+04  0.50400001928E-02 0. -1.
</event>
<event>
 5   0  0.2972541E-07  0.3525009E+04  0.7818609E-02  0.8107889E-01
        1   -1    0    0  501    0  0.00000000000E+00  0.00000000000E+00  0.22689058605E+04  0.22689058605E+04  0.50400001928E-02 0. -1.
       -1   -1    0    0    0  501  0.00000000000E+00  0.00000000000E+00 -0.13691275156E+04  0.13691275156E+04  0.50400001928E-02 0.  1.
    10030    2    1    2    0    0  0.00000000000E+00  0.00000000000E+00  0.89977834493E+03  0.36380333761E+04  0.35250086206E+04 0.  0.
        3    1    3    3  502    0 -0.24978787180E+03  0.73551438278E+03  0.20827189619E+04  0.22228570968E+04  0.10100000352E+00 0. -1.
       -3    1    3    3    0  502  0.24978787180E+03 -0.73551438278E+03 -0.11829406170E+04  0.14151762793E+04  0.10100000352E+00 0.  1.
</event>
<event>
 5   0  0.9128871E-07  0.3385260E+04  0.7818609E-02  0.8141533E-01
       -2   -1    0    0    0  501  0.00000000000E+00  0.00000000000E+00  0.13890377899E+04  0.13890377899E+04  0.25500000920E-02 0.  1.
        2   -1    0    0  501    0  0.00000000000E+00  0.00000000000E+00 -0.20625768222E+04  0.20625768222E+04  0.25500000920E-02 0. -1.
    10030    2    1    2    0    0  0.00000000000E+00  0.00000000000E+00 -0.67353903231E+03  0.34516146122E+04  0.33852604926E+04 0.  0.
        1    1    3    3  502    0  0.15467807038E+04  0.18994388778E+03 -0.10103144412E+04  0.18572410981E+04  0.50400001928E-02 0. -1.
       -1    1    3    3    0  502 -0.15467807038E+04 -0.18994388778E+03  0.33677540894E+03  0.15943735141E+04  0.50400001928E-02 0.  1.
</event>
<event>
 5   0  0.2933506E-07  0.3464530E+04  0.7818609E-02  0.8122248E-01
       -1   -1    0    0    0  501  0.00000000000E+00  0.00000000000E+00  0.26069096652E+04  0.26069096652E+04  0.50400001928E-02 0.  1.
        1   -1    0    0  501    0  0.00000000000E+00  0.00000000000E+00 -0.11510724921E+04  0.11510724921E+04  0.50400001928E-02 0. -1.
    10030    2    1    2    0    0  0.00000000000E+00  0.00000000000E+00  0.14558371732E+04  0.37579821573E+04  0.34645299854E+04 0.  0.
        4    1    3    3  502    0  0.47374869954E+03  0.43279506148E+03  0.24732409735E+04  0.25551265960E+04  0.12699999809E+01 0.  1.
       -4    1    3    3    0  502 -0.47374869954E+03 -0.43279506148E+03 -0.10174038003E+04  0.12028555613E+04  0.12699999809E+01 0. -1.
</event>
<event>
 5   0  0.3026332E-07  0.3548951E+04  0.7818609E-02  0.8102286E-01
        1   -1    0    0  501    0  0.00000000000E+00  0.00000000000E+00  0.19902086137E+04  0.19902086137E+04  0.50400001928E-02 0. -1.
       -1   -1    0    0    0  501  0.00000000000E+00  0.00000000000E+00 -0.15821273840E+04  0.15821273840E+04  0.50400001928E-02 0.  1.
    10030    2    1    2    0    0  0.00000000000E+00  0.00000000000E+00  0.40808122974E+03  0.35723359977E+04  0.35489511395E+04 0.  0.
        1    1    3    3  502    0  0.15556207782E+04 -0.28734567955E+03 -0.60514694669E+03  0.16937314936E+04  0.50400001928E-02 0.  1.
       -1    1    3    3    0  502 -0.15556207782E+04  0.28734567955E+03  0.10132281764E+04  0.18786045041E+04  0.50400001928E-02 0. -1.
</event>
<event>
 5   0  0.8950809E-07  0.3503101E+04  0.7818609E-02  0.8113055E-01
        2   -1    0    0  501    0  0.00000000000E+00  0.00000000000E+00  0.17103958970E+04  0.17103958970E+04  0.25500000920E-02 0.  1.
       -2   -1    0    0    0  501  0.00000000000E+00  0.00000000000E+00 -0.17936956361E+04  0.17936956361E+04  0.25500000920E-02 0. -1.
    10030    2    1    2    0    0  0.00000000000E+00  0.00000000000E+00 -0.83299739193E+02  0.35040915331E+04  0.35031012868E+04 0.  0.
        2    1    3    3  502    0 -0.16797695148E+03  0.80587827101E+03 -0.15881378761E+04  0.17888090892E+04  0.25500000920E-02 0. -1.
       -2    1    3    3    0  502  0.16797695148E+03 -0.80587827101E+03  0.15048381370E+04  0.17152824439E+04  0.25500000920E-02 0.  1.
</event>
<event>
 5   0  0.2972541E-07  0.3621944E+04  0.7818609E-02  0.8085484E-01
        1   -1    0    0  501    0  0.00000000000E+00  0.00000000000E+00  0.13211215858E+04  0.13211215858E+04  0.50400001928E-02 0.  1.
       -1   -1    0    0    0  501  0.00000000000E+00  0.00000000000E+00 -0.24824512675E+04  0.24824512675E+04  0.50400001928E-02 0. -1.
    10030    2    1    2    0    0  0.00000000000E+00  0.00000000000E+00 -0.11613296818E+04  0.38035728533E+04  0.36219442045E+04 0.  0.
        3    1    3    3  502    0 -0.27488176113E+03  0.71315588835E+03  0.11434537117E+04  0.13753682069E+04  0.10100000352E+00 0.  1.
       -3    1    3    3    0  502  0.27488176113E+03 -0.71315588835E+03 -0.23047833934E+04  0.24282046463E+04  0.10100000352E+00 0. -1.
</event>
<event>
 5   0  0.3061330E-07  0.3579871E+04  0.7818609E-02  0.8095118E-01
        1   -1    0    0  501    0  0.00000000000E+00  0.00000000000E+00  0.19673361756E+04  0.19673361756E+04  0.50400001928E-02 0. -1.
       -1   -1    0    0    0  501  0.00000000000E+00  0.00000000000E+00 -0.16285312459E+04  0.16285312459E+04  0.50400001928E-02 0.  1.
    10030    2    1    2    0    0  0.00000000000E+00  0.00000000000E+00  0.33880492965E+03  0.35958674215E+04  0.35798706307E+04 0.  0.
        5    1    3    3  502    0  0.72992216681E+03 -0.10858647618E+04  0.13963177943E+04  0.19135344583E+04  0.46999998093E+01 0. -1.
       -5    1    3    3    0  502 -0.72992216681E+03  0.10858647618E+04 -0.10575128646E+04  0.16823329632E+04  0.46999998093E+01 0.  1.
</event>
<event>
 5   0  0.6188930E-07  0.3500955E+04  0.7818609E-02  0.8113564E-01
        2   -1    0    0  501    0  0.00000000000E+00  0.00000000000E+00  0.19487003296E+04  0.19487003296E+04  0.25500000920E-02 0.  1.
       -2   -1    0    0    0  501  0.00000000000E+00  0.00000000000E+00 -0.15724176208E+04  0.15724176208E+04  0.25500000920E-02 0. -1.
    10030    2    1    2    0    0  0.00000000000E+00  0.00000000000E+00  0.37628270881E+03  0.35211179504E+04  0.35009545761E+04 0.  0.
        3    1    3    3  502    0  0.14659077493E+04 -0.94810093672E+03  0.59381328458E+02  0.17467990921E+04  0.10100000352E+00 0. -1.
       -3    1    3    3    0  502 -0.14659077493E+04  0.94810093672E+03  0.31690138035E+03  0.17743188583E+04  0.10100000352E+00 0.  1.
</event>
<event>
 5   0  0.2933506E-07  0.3474611E+04  0.7818609E-02  0.8119833E-01
       -1   -1    0    0    0  501  0.00000000000E+00  0.00000000000E+00  0.85328207005E+03  0.85328207006E+03  0.50400001928E-02 0. -1.
        1   -1    0    0  501    0  0.00000000000E+00  0.00000000000E+00 -0.35372006538E+04  0.35372006538E+04  0.50400001928E-02 0.  1.
    10030    2    1    2    0    0  0.00000000000E+00  0.00000000000E+00 -0.26839185837E+04  0.43904827239E+04  0.34746107098E+04 0.  0.
        4    1    3    3  502    0  0.16907667954E+04  0.36158527144E+03 -0.11275507054E+04  0.20641725875E+04  0.12699999809E+01 0. -1.
       -4    1    3    3    0  502 -0.16907667954E+04 -0.36158527144E+03 -0.15563678784E+04  0.23263101364E+04  0.12699999809E+01 0.  1.
</event>
<event>
 5   0  0.8950809E-07  0.3508611E+04  0.7818609E-02  0.8111752E-01
       -2   -1    0    0    0  501  0.00000000000E+00  0.00000000000E+00  0.10466571454E+04  0.10466571454E+04  0.25500000920E-02 0.  1.
        2   -1    0    0  501    0  0.00000000000E+00  0.00000000000E+00 -0.29403977481E+04  0.29403977481E+04  0.25500000920E-02 0. -1.
    10030    2    1    2    0    0  0.00000000000E+00  0.00000000000E+00 -0.18937406028E+04  0.39870548935E+04  0.35086112998E+04 0.  0.
        2    1    3    3  502    0 -0.11778265757E+04 -0.11505451038E+04 -0.25886972335E+03  0.16667462350E+04  0.25500000920E-02 0.  1.
       -2    1    3    3    0  502  0.11778265757E+04  0.11505451038E+04 -0.16348708794E+04  0.23203086585E+04  0.25500000920E-02 0. -1.
</event>
<event>
 5   0  0.2936607E-07  0.3475385E+04  0.7818609E-02  0.8119648E-01
        1   -1    0    0  501    0  0.00000000000E+00  0.00000000000E+00  0.17018059584E+04  0.17018059584E+04  0.50400001928E-02 0.  1.
       -1   -1    0    0    0  501  0.00000000000E+00  0.00000000000E+00 -0.17743363016E+04  0.17743363016E+04  0.50400001928E-02 0. -1.
    10030    2    1    2    0    0  0.00000000000E+00  0.00000000000E+00 -0.72530343214E+02  0.34761422599E+04  0.34753854981E+04 0.  0.
        2    1    3    3  502    0  0.13929598582E+04  0.10494885993E+03  0.99750942707E+03  0.17165012341E+04  0.25500000920E-02 0.  1.
       -2    1    3    3    0  502 -0.13929598582E+04 -0.10494885993E+03 -0.10700397703E+04  0.17596410258E+04  0.25500000920E-02 0. -1.
</event>
<event>
 5   0  0.6188930E-07  0.3530489E+04  0.7818609E-02  0.8106602E-01
        2   -1    0    0  501    0  0.00000000000E+00  0.00000000000E+00  0.18819668501E+04  0.18819668501E+04  0.25500000920E-02 0. -1.
       -2   -1    0    0    0  501  0.00000000000E+00  0.00000000000E+00 -0.16557613474E+04  0.16557613474E+04  0.25500000920E-02 0.  1.
    10030    2    1    2    0    0  0.00000000000E+00  0.00000000000E+00  0.22620550271E+03  0.35377281975E+04  0.35304888995E+04 0.  0.
        3    1    3    3  502    0  0.13971907340E+04  0.19170332655E+03  0.11769745640E+04  0.18368890132E+04  0.10100000352E+00 0. -1.
       -3    1    3    3    0  502 -0.13971907340E+04 -0.19170332655E+03 -0.95076906130E+03  0.17008391842E+04  0.10100000352E+00 0.  1.
</event>
<event>
 5   0  0.6188930E-07  0.3502751E+04  0.7818609E-02  0.8113138E-01
        2   -1    0    0  501    0  0.00000000000E+00  0.00000000000E+00  0.14358400114E+04  0.14358400114E+04  0.25500000920E-02 0.  1.
       -2   -1    0    0    0  501  0.00000000000E+00  0.00000000000E+00 -0.21362519747E+04  0.21362519747E+04  0.25500000920E-02 0. -1.
    10030    2    1    2    0    0  0.00000000000E+00  0.00000000000E+00 -0.70041196329E+03  0.35720919861E+04  0.35027509530E+04 0.  0.
        3    1    3    3  502    0  0.13451431101E+04  0.91678035379E+03 -0.10090762656E+04  0.19152365713E+04  0.10100000352E+00 0. -1.
       -3    1    3    3    0  502 -0.13451431101E+04 -0.91678035379E+03  0.30866430235E+03  0.16568554148E+04  0.10100000352E+00 0.  1.
</event>
<event>
 5   0  0.2936607E-07  0.3505016E+04  0.7818609E-02  0.8112602E-01
       -1   -1    0    0    0  501  0.00000000000E+00  0.00000000000E+00  0.21913441502E+04  0.21913441502E+04  0.50400001928E-02 0. -1.
        1   -1    0    0  501    0  0.00000000000E+00  0.00000000000E+00 -0.14015524553E+04  0.14015524553E+04  0.50400001928E-02 0.  1.
    10030    2    1    2    0    0  0.00000000000E+00  0.00000000000E+00  0.78979169492E+03  0.35928966055E+04  0.35050157056E+04 0.  0.
        2    1    3    3  502    0  0.16432668494E+04 -0.86646203369E+02 -0.22308817916E+03  0.16606028540E+04  0.25500000920E-02 0.  1.
       -2    1    3    3    0  502 -0.16432668494E+04  0.86646203369E+02  0.10128798741E+04  0.19322937516E+04  0.25500000920E-02 0. -1.
</event>
<event>
 5   0  0.6188930E-07  0.3414096E+04  0.7818609E-02  0.8134455E-01
       -2   -1    0    0    0  501  0.00000000000E+00  0.00000000000E+00  0.14192310171E+04  0.14192310171E+04  0.25500000920E-02 0. -1.
        2   -1    0    0  501    0  0.00000000000E+00  0.00000000000E+00 -0.20532331750E+04  0.20532331750E+04  0.25500000920E-02 0.  1.
    10030    2    1    2    0    0  0.00000000000E+00  0.00000000000E+00 -0.63400215790E+03  0.34724641922E+04  0.34140956093E+04 0.  0.
        3    1    3    3  502    0 -0.41387871545E+03  0.16253203999E+04 -0.64031968181E+03  0.17952635736E+04  0.10100000352E+00 0.  1.
       -3    1    3    3    0  502  0.41387871545E+03 -0.16253203999E+04  0.63175239097E+01  0.16772006186E+04  0.10100000352E+00 0. -1.
</event>
<event>
 5   0  0.9128871E-07  0.3638102E+04  0.7818609E-02  0.8081819E-01
       -2   -1    0    0    0  501  0.00000000000E+00  0.00000000000E+00  0.19133862927E+04  0.19133862927E+04  0.25500000920E-02 0. -1.
        2   -1    0    0  501    0  0.00000000000E+00  0.00000000000E+00 -0.17293669145E+04  0.17293669145E+04  0.25500000920E-02 0.  1.
    10030    2    1    2    0    0  0.00000000000E+00  0.00000000000E+00  0.18401937825E+03  0.36427532072E+04  0.36381022247E+04 0.  0.
        1    1    3    3  502    0 -0.11266363935E+04 -0.54086268086E+03  0.14154804410E+04  0.18882337995E+04  0.50400001928E-02 0.  1.
       -1    1    3    3    0  502  0.11266363935E+04  0.54086268086E+03 -0.12314610628E+04  0.17545194077E+04  0.50400001928E-02 0. -1.
</event>
<event>
 5   0  0.2972541E-07  0.3518142E+04  0.7818609E-02  0.8109504E-01
       -1   -1    0    0    0  501  0.00000000000E+00  0.00000000000E+00  0.21663712174E+04  0.21663712174E+04  0.50400001928E-02 0.  1.
        1   -1    0    0  501    0  0.00000000000E+00  0.00000000000E+00 -0.14283471668E+04  0.14283471668E+04  0.50400001928E-02 0. -1.
    10030    2    1    2    0    0  0.00000000000E+00  0.00000000000E+00  0.73802405055E+03  0.35947183842E+04  0.35181416632E+04 0.  0.
        3    1    3    3  502    0  0.96065100569E+03 -0.13488634553E+04  0.97526237195E+03  0.19218271722E+04  0.10100000352E+00 0.  1.
       -3    1    3    3    0  502 -0.96065100569E+03  0.13488634553E+04 -0.23723832140E+03  0.16728912119E+04  0.10100000352E+00 0. -1.
</event>
<event>
 5   0  0.6188930E-07  0.3555391E+04  0.7818609E-02  0.8100787E-01
       -2   -1    0    0    0  501  0.00000000000E+00  0.00000000000E+00  0.14816404674E+04  0.14816404674E+04  0.25500000920E-02 0.  1.
        2   -1    0    0  501    0  0.00000000000E+00  0.00000000000E+00 -0.21329072371E+04  0.21329072371E+04  0.25500000920E-02 0. -1.
    10030    2    1    2    0    0  0.00000000000E+00  0.00000000000E+00 -0.65126676966E+03  0.36145477045E+04  0.35553912166E+04 0.  0.
        3    1    3    3  502    0  0.14183101581E+04  0.34259357344E+03  0.70675671378E+03  0.16212585000E+04  0.10100000352E+00 0.  1.
       -3    1    3    3    0  502 -0.14183101581E+04 -0.34259357344E+03 -0.13580234834E+04  0.19932892045E+04  0.10100000352E+00 0. -1.
</event>
<event>
 5   0  0.2933506E-07  0.3476159E+04  0.7818609E-02  0.8119463E-01
        1   -1    0    0  501    0  0.00000000000E+00  0.00000000000E+00  0.19773542282E+04  0.19773542282E+04  0.50400001928E-02 0.  1.
       -1   -1    0    0    0  501  0.00000000000E+00  0.00000000000E+00 -0.15277585093E+04  0.15277585093E+04  0.50400001928E-02 0. -1.
    10030    2    1    2    0    0  0.00000000000E+00  0.00000000000E+00  0.44959571887E+03  0.35051127375E+04  0.34761586546E+04 0.  0.
        4    1    3    3  502    0  0.31532366004E+03 -0.79507944995E+03 -0.13008606658E+04  0.15568623661E+04  0.12699999809E+01 0. -1.
       -4    1    3    3    0  502 -0.31532366004E+03  0.79507944995E+03  0.17504563846E+04  0.19482503714E+04  0.12699999809E+01 0.  1.
</event>
<event>
 5   0  0.2933506E-07  0.3513880E+04  0.7818609E-02  0.8110509E-01
       -1   -1    0    0    0  501  0.00000000000E+00  0.00000000000E+00  0.19264393549E+04  0.19264393549E+04  0.50400001928E-02 0.  1.
        1   -1    0    0  501    0  0.00000000000E+00  0.00000000000E+00 -0.16023538648E+04  0.16023538648E+04  0.50400001928E-02 0. -1.
    10030    2    1    2    0    0  0.00000000000E+00  0.00000000000E+00  0.32408549012E+03  0.35287932197E+04  0.35138796482E+04 0.  0.
        4    1    3    3  502    0 -0.17377095821E+04  0.25922137741E+03  0.16442313527E+03  0.17646152256E+04  0.12699999809E+01 0. -1.
       -4    1    3    3    0  502  0.17377095821E+04 -0.25922137741E+03  0.15966235485E+03  0.17641779940E+04  0.12699999809E+01 0.  1.
</event>
<event>
 5   0  0.2972541E-07  0.3451562E+04  0.7818609E-02  0.8125366E-01
       -1   -1    0    0    0  501  0.00000000000E+00  0.00000000000E+00  0.28789346277E+04  0.28789346277E+04  0.50400001928E-02 0.  1.
        1   -1    0    0  501    0  0.00000000000E+00  0.00000000000E+00 -0.10345218943E+04  0.10345218943E+04  0.50400001928E-02 0. -1.
    10030    2    1    2    0    0  0.00000000000E+00  0.00000000000E+00  0.18444127334E+04  0.39134565219E+04  0.34515624894E+04 0.  0.
        3    1    3    3  502    0 -0.86401835957E+02 -0.37836873437E+02  0.28760098474E+04  0.28775561782E+04  0.10100000352E+00 0.  1.
       -3    1    3    3    0  502  0.86401835957E+02  0.37836873437E+02 -0.10315971140E+04  0.10359003437E+04  0.10100000352E+00 0. -1.
</event>
<event>
 5   0  0.9311672E-07  0.3587025E+04  0.7818609E-02  0.8093470E-01
       -2   -1    0    0    0  501  0.00000000000E+00  0.00000000000E+00  0.14712897509E+04  0.14712897509E+04  0.25500000920E-02 0. -1.
        2   -1    0    0  501    0  0.00000000000E+00  0.00000000000E+00 -0.21863037685E+04  0.21863037685E+04  0.25500000920E-02 0.  1.
    10030    2    1    2    0    0  0.00000000000E+00  0.00000000000E+00 -0.71501401754E+03  0.36575935194E+04  0.35870245758E+04 0.  0.
        4    1    3    3  502    0 -0.12602032372E+04  0.90162425383E+03  0.56339199035E+03  0.16487724651E+04  0.12699999809E+01 0. -1.
       -4    1    3    3    0  502  0.12602032372E+04 -0.90162425383E+03 -0.12784060079E+04  0.20088210542E+04  0.12699999809E+01 0.  1.
</event>
<event>
 5   0  0.9311672E-07  0.3520839E+04  0.7818609E-02  0.8108869E-01
       -2   -1    0    0    0  501  0.00000000000E+00  0.00000000000E+00  0.32295282471E+04  0.32295282471E+04  0.25500000920E-02 0. -1.
        2   -1    0    0  501    0  0.00000000000E+00  0.00000000000E+00 -0.95960664541E+03  0.95960664542E+03  0.25500000920E-02 0.  1.
    10030    2    1    2    0    0  0.00000000000E+00  0.00000000000E+00  0.22699216017E+04  0.41891348925E+04  0.35208389724E+04 0.  0.
        4    1    3    3  502    0  0.16705350209E+04 -0.52402686546E+03  0.13536523818E+04  0.22130675081E+04  0.12699999809E+01 0. -1.
       -4    1    3    3    0  502 -0.16705350209E+04  0.52402686546E+03  0.91626921988E+03  0.19760673844E+04  0.12699999809E+01 0.  1.
</event>
<event>
 5   0  0.8845195E-07  0.3131634E+04  0.7818609E-02  0.8207109E-01
       -2   -1    0    0    0  501  0.00000000000E+00  0.00000000000E+00  0.12121078861E+04  0.12121078861E+04  0.25500000920E-02 0. -1.
        2   -1    0    0  501    0  0.00000000000E+00  0.00000000000E+00 -0.20227436935E+04  0.20227436935E+04  0.25500000920E-02 0.  1.
    10030    2    1    2    0    0  0.00000000000E+00  0.00000000000E+00 -0.81063580735E+03  0.32348515796E+04  0.31316344502E+04 0.  0.
        5    1    3    3  502    0  0.13605930787E+04  0.44548439566E+03 -0.10603247031E+04  0.17815668493E+04  0.46999998093E+01 0.  1.
       -5    1    3    3    0  502 -0.13605930787E+04 -0.44548439566E+03  0.24968889575E+03  0.14532847303E+04  0.46999998093E+01 0. -1.
</event>
<event>
 5   0  0.2972541E-07  0.3434759E+04  0.7818609E-02  0.8129428E-01
        1   -1    0    0  501    0  0.00000000000E+00  0.00000000000E+00  0.13552740050E+04  0.13552740050E+04  0.50400001928E-02 0. -1.
       -1   -1    0    0    0  501  0.00000000000E+00  0.00000000000E+00 -0.21762330878E+04  0.21762330878E+04  0.50400001928E-02 0.  1.
    10030    2    1    2    0    0  0.00000000000E+00  0.00000000000E+00 -0.82095908275E+03  0.35315070928E+04  0.34347588753E+04 0.  0.
        3    1    3    3  502    0 -0.79898176459E+03  0.19533191117E+03  0.11395883365E+04  0.14054138190E+04  0.10100000352E+00 0. -1.
       -3    1    3    3    0  502  0.79898176459E+03 -0.19533191117E+03 -0.19605474193E+04  0.21260932738E+04  0.10100000352E+00 0.  1.
</event>
<event>
 5   0  0.2972541E-07  0.3609121E+04  0.7818609E-02  0.8088406E-01
        1   -1    0    0  501    0  0.00000000000E+00  0.00000000000E+00  0.10028829727E+04  0.10028829727E+04  0.50400001928E-02 0. -1.
       -1   -1    0    0    0  501  0.00000000000E+00  0.00000000000E+00 -0.32470769886E+04  0.32470769886E+04  0.50400001928E-02 0.  1.
    10030    2    1    2    0    0  0.00000000000E+00  0.00000000000E+00 -0.22441940159E+04  0.42499599613E+04  0.36091207921E+04 0.  0.
        3    1    3    3  502    0 -0.31021190637E+03 -0.12674609043E+04  0.34572684817E+03  0.13498946753E+04  0.10100000352E+00 0. -1.
       -3    1    3    3    0  502  0.31021190637E+03  0.12674609043E+04 -0.25899208641E+04  0.29000652860E+04  0.10100000352E+00 0.  1.
</event>
<event>
 5   0  0.8950809E-07  0.3270260E+04  0.7818609E-02  0.8170504E-01
        2   -1    0    0  501    0  0.00000000000E+00  0.00000000000E+00  0.18949785657E+04  0.18949785657E+04  0.25500000920E-02 0.  1.
       -2   -1    0    0    0  501  0.00000000000E+00  0.00000000000E+00 -0.14109132617E+04  0.14109132617E+04  0.25500000920E-02 0. -1.
    10030    2    1    2    0    0  0.00000000000E+00  0.00000000000E+00  0.48406530400E+03  0.33058918275E+04  0.32702601665E+04 0.  0.
        2    1    3    3  502    0 -0.13636713614E+04  0.88488469133E+03  0.42010498731E+03  0.16790201605E+04  0.25500000920E-02 0. -1.
       -2    1    3    3    0  502  0.13636713614E+04 -0.88488469133E+03  0.63960316687E+02  0.16268716670E+04  0.25500000920E-02 0.  1.
</event>
<event>
 5   0  0.6188930E-07  0.3514229E+04  0.7818609E-02  0.8110426E-01
       -2   -1    0    0    0  501  0.00000000000E+00  0.00000000000E+00  0.12178076579E+04  0.12178076579E+04  0.25500000920E-02 0.  1.
        2   -1    0    0  501    0  0.00000000000E+00  0.00000000000E+00 -0.25352535509E+04  0.25352535509E+04  0.25500000920E-02 0. -1.
    10030    2    1    2    0    0  0.00000000000E+00  0.00000000000E+00 -0.13174458930E+04  0.37530612088E+04  0.35142288992E+04 0.  0.
        3    1    3    3  502    0  0.11183360351E+04  0.36860226461E+03 -0.20515462402E+04  0.23654566373E+04  0.10100000352E+00 0. -1.
       -3    1    3    3    0  502 -0.11183360351E+04 -0.36860226461E+03  0.73410034723E+03  0.13876045716E+04  0.10100000352E+00 0.  1.
</event>
<event>
 5   0  0.9128871E-07  0.3495107E+04  0.7818609E-02  0.8114950E-01
        2   -1    0    0  501    0  0.00000000000E+00  0.00000000000E+00  0.16869971267E+04  0.16869971267E+04  0.25500000920E-02 0. -1.
       -2   -1    0    0    0  501  0.00000000000E+00  0.00000000000E+00 -0.18102839923E+04  0.18102839923E+04  0.25500000920E-02 0.  1.
    10030    2    1    2    0    0  0.00000000000E+00  0.00000000000E+00 -0.12328686566E+03  0.34972811190E+04  0.34951073766E+04 0.  0.
        1    1    3    3  502    0 -0.43143620561E+03  0.49375610288E+03 -0.16825310194E+04  0.18057804185E+04  0.50400001928E-02 0.  1.
       -1    1    3    3    0  502  0.43143620561E+03 -0.49375610288E+03  0.15592441537E+04  0.16915007005E+04  0.50400001928E-02 0. -1.
</event>
<event>
 5   0  0.8950809E-07  0.3504742E+04  0.7818609E-02  0.8112667E-01
       -2   -1    0    0    0  501  0.00000000000E+00  0.00000000000E+00  0.14145779645E+04  0.14145779645E+04  0.25500000920E-02 0.  1.
        2   -1    0    0  501    0  0.00000000000E+00  0.00000000000E+00 -0.21708266178E+04  0.21708266178E+04  0.25500000920E-02 0. -1.
    10030    2    1    2    0    0  0.00000000000E+00  0.00000000000E+00 -0.75624865327E+03  0.35854045823E+04  0.35047416443E+04 0.  0.
        2    1    3    3  502    0  0.12178178949E+04 -0.99827243850E+03  0.40845090697E+03  0.16267945261E+04  0.25500000920E-02 0.  1.
       -2    1    3    3    0  502 -0.12178178949E+04  0.99827243850E+03 -0.11646995602E+04  0.19586100562E+04  0.25500000920E-02 0. -1.
</event>
<event>
 5   0  0.6188930E-07  0.3238955E+04  0.7818609E-02  0.8178604E-01
        2   -1    0    0  501    0  0.00000000000E+00  0.00000000000E+00  0.11569351223E+04  0.11569351223E+04  0.25500000920E-02 0. -1.
       -2   -1    0    0    0  501  0.00000000000E+00  0.00000000000E+00 -0.22669443854E+04  0.22669443854E+04  0.25500000920E-02 0.  1.
    10030    2    1    2    0    0  0.00000000000E+00  0.00000000000E+00 -0.11100092632E+04  0.34238795077E+04  0.32389551276E+04 0.  0.
        3    1    3    3  502    0  0.80218309243E+03  0.88740109363E+03  0.59898610710E+03  0.13378201604E+04  0.10100000352E+00 0. -1.
       -3    1    3    3    0  502 -0.80218309243E+03 -0.88740109363E+03 -0.17089953703E+04  0.20860593473E+04  0.10100000352E+00 0.  1.
</event>
<event>
 5   0  0.2972541E-07  0.3523392E+04  0.7818609E-02  0.8108269E-01
       -1   -1    0    0    0  501  0.00000000000E+00  0.00000000000E+00  0.14405730975E+04  0.14405730975E+04  0.50400001928E-02 0. -1.
        1   -1    0    0  501    0  0.00000000000E+00  0.00000000000E+00 -0.21544019856E+04  0.21544019856E+04  0.50400001928E-02 0.  1.
    10030    2    1    2    0    0  0.00000000000E+00  0.00000000000E+00 -0.71382888813E+03  0.35949750832E+04  0.35233924231E+04 0.  0.
        3    1    3    3  502    0 -0.36862883203E+03 -0.16705521544E+04 -0.78610495124E+03  0.18827088784E+04  0.10100000352E+00 0. -1.
       -3    1    3    3    0  502  0.36862883203E+03  0.16705521544E+04  0.72276063113E+02  0.17122662047E+04  0.10100000352E+00 0.  1.
</event>
<event>
 5   0  0.8845195E-07  0.3289838E+04  0.7818609E-02  0.8165486E-01
        2   -1    0    0  501    0  0.00000000000E+00  0.00000000000E+00  0.15411988579E+04  0.15411988579E+04  0.25500000920E-02 0. -1.
       -2   -1    0    0    0  501  0.00000000000E+00  0.00000000000E+00 -0.17556196704E+04  0.17556196704E+04  0.25500000920E-02 0.  1.
    10030    2    1    2    0    0  0.00000000000E+00  0.00000000000E+00 -0.21442081255E+03  0.32968185283E+04  0.32898383127E+04 0.  0.
        5    1    3    3  502    0  0.34391290713E+03 -0.14196616833E+03 -0.17128916899E+04  0.17528406978E+04  0.46999998093E+01 0.  1.
       -5    1    3    3    0  502 -0.34391290713E+03  0.14196616833E+03  0.14984708774E+04  0.15439778304E+04  0.46999998093E+01 0. -1.
</event>
<event>
 5   0  0.3061330E-07  0.3561544E+04  0.7818609E-02  0.8099358E-01
        1   -1    0    0  501    0  0.00000000000E+00  0.00000000000E+00  0.12719879449E+04  0.12719879450E+04  0.50400001928E-02 0.  1.
       -1   -1    0    0    0  501  0.00000000000E+00  0.00000000000E+00 -0.24930646126E+04  0.24930646126E+04  0.50400001928E-02 0. -1.
    10030    2    1    2    0    0  0.00000000000E+00  0.00000000000E+00 -0.12210766676E+04  0.37650525576E+04  0.35615435604E+04 0.  0.
        5    1    3    3  502    0 -0.85022778493E+03  0.15621603829E+04 -0.70446155015E+03  0.19129873271E+04  0.46999998093E+01 0. -1.
       -5    1    3    3    0  502  0.85022778493E+03 -0.15621603829E+04 -0.51661511749E+03  0.18520652304E+04  0.46999998093E+01 0.  1.
</event>
<event>
 5   0  0.3026332E-07  0.3493565E+04  0.7818609E-02  0.8115317E-01
       -1   -1    0    0    0  501  0.00000000000E+00  0.00000000000E+00  0.27321378064E+04  0.27321378064E+04  0.50400001928E-02 0.  1.
        1   -1    0    0  501    0  0.00000000000E+00  0.00000000000E+00 -0.11167989733E+04  0.11167989733E+04  0.50400001928E-02 0. -1.
    10030    2    1    2    0    0  0.00000000000E+00  0.00000000000E+00  0.16153388332E+04  0.38489367797E+04  0.34935647680E+04 0.  0.
        1    1    3    3  502    0 -0.15396310138E+04  0.73446962781E+03  0.39347560432E+03  0.17506376964E+04  0.50400001928E-02 0. -1.
       -1    1    3    3    0  502  0.15396310138E+04 -0.73446962781E+03  0.12218632288E+04  0.20982990833E+04  0.50400001928E-02 0.  1.
</event>
<event>
 5   0  0.6188930E-07  0.3506965E+04  0.7818609E-02  0.8112141E-01
        2   -1    0    0  501    0  0.00000000000E+00  0.00000000000E+00  0.19976067473E+04  0.19976067473E+04  0.25500000920E-02 0.  1.
       -2   -1    0    0    0  501  0.00000000000E+00  0.00000000000E+00 -0.15391921325E+04  0.15391921325E+04  0.25500000920E-02 0. -1.
    10030    2    1    2    0    0  0.00000000000E+00  0.00000000000E+00  0.45841461476E+03  0.35367988798E+04  0.35069648354E+04 0.  0.
        3    1    3    3  502    0 -0.12281868670E+04 -0.21757114508E+03 -0.10137220902E+04  0.16072998071E+04  0.10100000352E+00 0. -1.
       -3    1    3    3    0  502  0.12281868670E+04  0.21757114508E+03  0.14721367049E+04  0.19294990727E+04  0.10100000352E+00 0.  1.
</event>
<event>
 5   0  0.3026332E-07  0.3313240E+04  0.7818609E-02  0.8159535E-01
       -1   -1    0    0    0  501  0.00000000000E+00  0.00000000000E+00  0.27404755180E+04  0.27404755180E+04  0.50400001928E-02 0. -1.
        1   -1    0    0  501    0  0.00000000000E+00  0.00000000000E+00 -0.10014285484E+04  0.10014285484E+04  0.50400001928E-02 0.  1.
    10030    2    1    2    0    0  0.00000000000E+00  0.00000000000E+00  0.17390469697E+04  0.37419040664E+04  0.33132403594E+04 0.  0.
        1    1    3    3  502    0  0.32430354797E+02  0.10563549395E+03  0.27363086750E+04  0.27385389810E+04  0.50400001928E-02 0. -1.
       -1    1    3    3    0  502 -0.32430354797E+02 -0.10563549395E+03 -0.99726170537E+03  0.10033650854E+04  0.50400001928E-02 0.  1.
</event>
<event>
 5   0  0.2972541E-07  0.3609583E+04  0.7818609E-02  0.8088300E-01
       -1   -1    0    0    0  501  0.00000000000E+00  0.00000000000E+00  0.16060482938E+04  0.16060482938E+04  0.50400001928E-02 0. -1.
        1   -1    0    0  501    0  0.00000000000E+00  0.00000000000E+00 -0.20281282240E+04  0.20281282240E+04  0.50400001928E-02 0.  1.
    10030    2    1    2    0    0  0.00000000000E+00  0.00000000000E+00 -0.42207993016E+03  0.36341765178E+04  0.36095827314E+04 0.  0.
        3    1    3    3  502    0 -0.13523955454E+04  0.26169569966E+03 -0.13850956450E+04  0.19534452402E+04  0.10100000352E+00 0.  1.
       -3    1    3    3    0  502  0.13523955454E+04 -0.26169569966E+03  0.96301571481E+03  0.16807312776E+04  0.10100000352E+00 0. -1.
</event>
<event>
 5   0  0.2936607E-07  0.3499757E+04  0.7818609E-02  0.8113847E-01
       -1   -1    0    0    0  501  0.00000000000E+00  0.00000000000E+00  0.18457191376E+04  0.18457191376E+04  0.50400001928E-02 0. -1.
        1   -1    0    0  501    0  0.00000000000E+00  0.00000000000E+00 -0.16590146224E+04  0.16590146224E+04  0.50400001928E-02 0.  1.
    10030    2    1    2    0    0  0.00000000000E+00  0.00000000000E+00  0.18670451524E+03  0.35047337601E+04  0.34997571563E+04 0.  0.
        2    1    3    3  502    0  0.55230578584E+03 -0.82011611081E+03  0.15391652579E+04  0.18293883698E+04  0.25500000920E-02 0. -1.
       -2    1    3    3    0  502 -0.55230578584E+03  0.82011611081E+03 -0.13524607427E+04  0.16753453903E+04  0.25500000920E-02 0.  1.
</event>
<event>
 5   0  0.2972541E-07  0.3577355E+04  0.7818609E-02  0.8095699E-01
        1   -1    0    0  501    0  0.00000000000E+00  0.00000000000E+00  0.14925316192E+04  0.14925316192E+04  0.50400001928E-02 0. -1.
       -1   -1    0    0    0  501  0.00000000000E+00  0.00000000000E+00 -0.21435844421E+04  0.21435844421E+04  0.50400001928E-02 0.  1.
    10030    2    1    2    0    0  0.00000000000E+00  0.00000000000E+00 -0.65105282287E+03  0.36361160613E+04  0.35773552008E+04 0.  0.
        3    1    3    3  502    0 -0.31903053320E+03  0.14021457388E+04 -0.14067542742E+04  0.20116537356E+04  0.10100000352E+00 0.  1.
       -3    1    3    3    0  502  0.31903053320E+03 -0.14021457388E+04  0.75570145130E+03  0.16244623257E+04  0.10100000352E+00 0. -1.
</event>
<event>
 5   0  0.9311672E-07  0.3498260E+04  0.7818609E-02  0.8114202E-01
        2   -1    0    0  501    0  0.00000000000E+00  0.00000000000E+00  0.22133794131E+04  0.22133794131E+04  0.25500000920E-02 0. -1.
       -2   -1    0    0    0  501  0.00000000000E+00  0.00000000000E+00 -0.13822558293E+04  0.13822558293E+04  0.25500000920E-02 0.  1.
    10030    2    1    2    0    0  0.00000000000E+00  0.00000000000E+00  0.83112358388E+03  0.35956352424E+04  0.34982604798E+04 0.  0.
        4    1    3    3  502    0 -0.42765670333E+02  0.22334516828E+03 -0.13669969411E+04  0.13857828894E+04  0.12699999809E+01 0.  1.
       -4    1    3    3    0  502  0.42765670333E+02 -0.22334516828E+03  0.21981205250E+04  0.22098523530E+04  0.12699999809E+01 0. -1.
</event>
<event>
 5   0  0.9128871E-07  0.3499612E+04  0.7818609E-02  0.8113882E-01
       -2   -1    0    0    0  501  0.00000000000E+00  0.00000000000E+00  0.12847965534E+04  0.12847965534E+04  0.25500000920E-02 0. -1.
        2   -1    0    0  501    0  0.00000000000E+00  0.00000000000E+00 -0.23831170338E+04  0.23831170338E+04  0.25500000920E-02 0.  1.
    10030    2    1    2    0    0  0.00000000000E+00  0.00000000000E+00 -0.10983204804E+04  0.36679135872E+04  0.34996117221E+04 0.  0.
        1    1    3    3  502    0  0.13063092218E+04  0.10550168303E+04 -0.33230565207E+02  0.16794667504E+04  0.50400001928E-02 0. -1.
       -1    1    3    3    0  502 -0.13063092218E+04 -0.10550168303E+04 -0.10650899152E+04  0.19884468368E+04  0.50400001928E-02 0.  1.
</event>
<event>
 5   0  0.2933506E-07  0.2942205E+04  0.7818609E-02  0.8260430E-01
       -1   -1    0    0    0  501  0.00000000000E+00  0.00000000000E+00  0.99526920871E+03  0.99526920872E+03  0.50400001928E-02 0.  1.
        1   -1    0    0  501    0  0.00000000000E+00  0.00000000000E+00 -0.21744291751E+04  0.21744291751E+04  0.50400001928E-02 0. -1.
    10030    2    1    2    0    0  0.00000000000E+00  0.00000000000E+00 -0.11791599664E+04  0.31696983838E+04  0.29422048906E+04 0.  0.
        4    1    3    3  502    0 -0.15952910713E+03  0.13263885156E+04  0.73987302121E+02  0.13379954276E+04  0.12699999809E+01 0.  1.
       -4    1    3    3    0  502  0.15952910713E+03 -0.13263885156E+04 -0.12531472685E+04  0.18317029562E+04  0.12699999809E+01 0. -1.
</event>
<event>
 5   0  0.8950809E-07  0.3578828E+04  0.7818609E-02  0.8095359E-01
       -2   -1    0    0    0  501  0.00000000000E+00  0.00000000000E+00  0.16180579880E+04  0.16180579880E+04  0.25500000920E-02 0. -1.
        2   -1    0    0  501    0  0.00000000000E+00  0.00000000000E+00 -0.19789172043E+04  0.19789172043E+04  0.25500000920E-02 0.  1.
    10030    2    1    2    0    0  0.00000000000E+00  0.00000000000E+00 -0.36085921630E+03  0.35969751923E+04  0.35788281825E+04 0.  0.
        2    1    3    3  502    0  0.87636854332E+03 -0.12453319610E+04 -0.11249443359E+04  0.18932441141E+04  0.25500000920E-02 0.  1.
       -2    1    3    3    0  502 -0.87636854332E+03  0.12453319610E+04  0.76408511958E+03  0.17037310782E+04  0.25500000920E-02 0. -1.
</event>
<event>
 5   0  0.2972541E-07  0.3501338E+04  0.7818609E-02  0.8113473E-01
       -1   -1    0    0    0  501  0.00000000000E+00  0.00000000000E+00  0.20479334290E+04  0.20479334291E+04  0.50400001928E-02 0.  1.
        1   -1    0    0  501    0  0.00000000000E+00  0.00000000000E+00 -0.14965536108E+04  0.14965536109E+04  0.50400001928E-02 0. -1.
    10030    2    1    2    0    0  0.00000000000E+00  0.00000000000E+00  0.55137981820E+03  0.35444870399E+04  0.35013381259E+04 0.  0.
        3    1    3    3  502    0  0.62501362442E+03 -0.72839588355E+03  0.17578503644E+04  0.20028081554E+04  0.10100000352E+00 0.  1.
       -3    1    3    3    0  502 -0.62501362442E+03  0.72839588355E+03 -0.12064705462E+04  0.15416788845E+04  0.10100000352E+00 0. -1.
</event>
<event>
 5   0  0.8950809E-07  0.3454374E+04  0.7818609E-02  0.8124689E-01
        2   -1    0    0  501    0  0.00000000000E+00  0.00000000000E+00  0.21649441797E+04  0.21649441797E+04  0.25500000920E-02 0.  1.
       -2   -1    0    0    0  501  0.00000000000E+00  0.00000000000E+00 -0.13779451810E+04  0.13779451810E+04  0.25500000920E-02 0. -1.
    10030    2    1    2    0    0  0.00000000000E+00  0.00000000000E+00  0.78699899871E+03  0.35428893607E+04  0.34543736912E+04 0.  0.
        2    1    3    3  502    0 -0.14974396679E+04 -0.58431772256E+03 -0.25469309948E+03  0.16274585509E+04  0.25500000920E-02 0. -1.
       -2    1    3    3    0  502  0.14974396679E+04  0.58431772256E+03  0.10416920982E+04  0.19154308098E+04  0.25500000920E-02 0.  1.
</event>
<event>
 5   0  0.2936607E-07  0.3511488E+04  0.7818609E-02  0.8111073E-01
       -1   -1    0    0    0  501  0.00000000000E+00  0.00000000000E+00  0.13145299034E+04  0.13145299034E+04  0.50400001928E-02 0.  1.
        1   -1    0    0  501    0  0.00000000000E+00  0.00000000000E+00 -0.23450489341E+04  0.23450489341E+04  0.50400001928E-02 0. -1.
    10030    2    1    2    0    0  0.00000000000E+00  0.00000000000E+00 -0.10305190307E+04  0.36595788376E+04  0.35114879746E+04 0.  0.
        2    1    3    3  502    0  0.28300364540E+03 -0.13576414170E+04 -0.16374026762E+04  0.21457793000E+04  0.25500000920E-02 0. -1.
       -2    1    3    3    0  502 -0.28300364540E+03  0.13576414170E+04  0.60688364548E+03  0.15137995375E+04  0.25500000920E-02 0.  1.
</event>
<event>
 5   0  0.2936607E-07  0.3443252E+04  0.7818609E-02  0.8127372E-01
        1   -1    0    0  501    0  0.00000000000E+00  0.00000000000E+00  0.12818557142E+04  0.12818557142E+04  0.50400001928E-02 0. -1.
       -1   -1    0    0    0  501  0.00000000000E+00  0.00000000000E+00 -0.23122693045E+04  0.23122693046E+04  0.50400001928E-02 0.  1.
    10030    2    1    2    0    0  0.00000000000E+00  0.00000000000E+00 -0.10304135903E+04  0.35941250188E+04  0.34432517311E+04 0.  0.
        2    1    3    3  502    0  0.14357154005E+04 -0.92721016683E+03 -0.29876076491E+03  0.17350087606E+04  0.25500000920E-02 0. -1.
       -2    1    3    3    0  502 -0.14357154005E+04  0.92721016683E+03 -0.73165282542E+03  0.18591162582E+04  0.25500000920E-02 0.  1.
</event>
<event>
 5   0  0.2936607E-07  0.3526737E+04  0.7818609E-02  0.8107483E-01
        1   -1    0    0  501    0  0.00000000000E+00  0.00000000000E+00  0.25150120939E+04  0.25150120939E+04  0.50400001928E-02 0.  1.
       -1   -1    0    0    0  501  0.00000000000E+00  0.00000000000E+00 -0.12363633389E+04  0.12363633389E+04  0.50400001928E-02 0. -1.
    10030    2    1    2    0    0  0.00000000000E+00  0.00000000000E+00  0.12786487550E+04  0.37513754328E+04  0.35267371604E+04 0.  0.
        2    1    3    3  502    0  0.11462444593E+04 -0.75233121037E+03 -0.54017474425E+03  0.14736578181E+04  0.25500000920E-02 0. -1.
       -2    1    3    3    0  502 -0.11462444593E+04  0.75233121037E+03  0.18188234993E+04  0.22777176147E+04  0.25500000920E-02 0.  1.
</event>
<event>
 5   0  0.8950809E-07  0.3401368E+04  0.7818609E-02  0.8137571E-01
       -2   -1    0    0    0  501  0.00000000000E+00  0.00000000000E+00  0.16147322492E+04  0.16147322492E+04  0.25500000920E-02 0.  1.
        2   -1    0    0  501    0  0.00000000000E+00  0.00000000000E+00 -0.17912113166E+04  0.17912113166E+04  0.25500000920E-02 0. -1.
    10030    2    1    2    0    0  0.00000000000E+00  0.00000000000E+00 -0.17647906740E+03  0.34059435657E+04  0.34013683587E+04 0.  0.
        2    1    3    3  502    0 -0.13018379211E+04  0.10665877962E+04  0.15690639227E+03  0.16902695394E+04  0.25500000920E-02 0.  1.
       -2    1    3    3    0  502  0.13018379211E+04 -0.10665877962E+04 -0.33338545967E+03  0.17156740263E+04  0.25500000920E-02 0. -1.
</event>
<event>
 5   0  0.3061330E-07  0.3446123E+04  0.7818609E-02  0.8126678E-01
       -1   -1    0    0    0  501  0.00000000000E+00  0.00000000000E+00  0.13239539208E+04  0.13239539208E+04  0.50400001928E-02 0. -1.
        1   -1    0    0  501    0  0.00000000000E+00  0.00000000000E+00 -0.22424811420E+04  0.22424811420E+04  0.50400001928E-02 0.  1.
    10030    2    1    2    0    0  0.00000000000E+00  0.00000000000E+00 -0.91852722124E+03  0.35664350629E+04  0.34461234455E+04 0.  0.
        5    1    3    3  502    0  0.14559462903E+04  0.40566349336E+03 -0.13155414150E+04  0.20037499282E+04  0.46999998093E+01 0.  1.
       -5    1    3    3    0  502 -0.14559462903E+04 -0.40566349336E+03  0.39701419373E+03  0.15626851347E+04  0.46999998093E+01 0. -1.
</event>
<event>
 5   0  0.8845195E-07  0.3467327E+04  0.7818609E-02  0.8121577E-01
       -2   -1    0    0    0  501  0.00000000000E+00  0.00000000000E+00  0.11111163767E+04  0.11111163767E+04  0.25500000920E-02 0. -1.
        2   -1    0    0  501    0  0.00000000000E+00  0.00000000000E+00 -0.27050180851E+04  0.27050180851E+04  0.25500000920E-02 0.  1.
    10030    2    1    2    0    0  0.00000000000E+00  0.00000000000E+00 -0.15939017084E+04  0.38161344618E+04  0.34673274398E+04 0.  0.
        5    1    3    3  502    0 -0.72853011816E+03  0.14001693497E+04 -0.76312466027E+01  0.15783886298E+04  0.46999998093E+01 0. -1.
       -5    1    3    3    0  502  0.72853011816E+03 -0.14001693497E+04 -0.15862704617E+04  0.22377458320E+04  0.46999998093E+01 0.  1.
</event>
<event>
 5   0  0.6188930E-07  0.3508306E+04  0.7818609E-02  0.8111824E-01
       -2   -1    0    0    0  501  0.00000000000E+00  0.00000000000E+00  0.18331506146E+04  0.18331506146E+04  0.25500000920E-02 0. -1.
        2   -1    0    0  501    0  0.00000000000E+00  0.00000000000E+00 -0.16785596859E+04  0.16785596859E+04  0.25500000920E-02 0.  1.
    10030    2    1    2    0    0  0.00000000000E+00  0.00000000000E+00  0.15459092873E+03  0.35117103006E+04  0.35083059843E+04 0.  0.
        3    1    3    3  502    0  0.41805801015E+03 -0.39022132823E+03 -0.15826283602E+04  0.16827827315E+04  0.10100000352E+00 0.  1.
       -3    1    3    3    0  502 -0.41805801015E+03  0.39022132823E+03  0.17372192889E+04  0.18289275690E+04  0.10100000352E+00 0. -1.
</event>
<event>
 5   0  0.9311672E-07  0.3597156E+04  0.7818609E-02  0.8091143E-01
       -2   -1    0    0    0  501  0.00000000000E+00  0.00000000000E+00  0.10765276370E+04  0.10765276370E+04  0.25500000920E-02 0.  1.
        2   -1    0    0  501    0  0.00000000000E+00  0.00000000000E+00 -0.30049238624E+04  0.30049238624E+04  0.25500000920E-02 0. -1.
    10030    2    1    2    0    0  0.00000000000E+00  0.00000000000E+00 -0.19283962254E+04  0.40814514993E+04  0.35971564241E+04 0.  0.
        4    1    3    3  502    0 -0.45823343185E+03 -0.80440103692E+03  0.78543468243E+03  0.12140626671E+04  0.12699999809E+01 0.  1.
       -4    1    3    3    0  502  0.45823343185E+03  0.80440103692E+03 -0.27138309078E+04  0.28673888323E+04  0.12699999809E+01 0. -1.
</event>
<event>
 5   0  0.2933506E-07  0.3479202E+04  0.7818609E-02  0.8118737E-01
       -1   -1    0    0    0  501  0.00000000000E+00  0.00000000000E+00  0.15780773047E+04  0.15780773047E+04  0.50400001928E-02 0. -1.
        1   -1    0    0  501    0  0.00000000000E+00  0.00000000000E+00 -0.19176569460E+04  0.19176569460E+04  0.50400001928E-02 0.  1.
    10030    2    1    2    0    0  0.00000000000E+00  0.00000000000E+00 -0.33957964137E+03  0.34957342507E+04  0.34792015778E+04 0.  0.
        4    1    3    3  502    0  0.36455621661E+03  0.15772402002E+04 -0.80970034384E+03  0.18100287688E+04  0.12699999809E+01 0.  1.
       -4    1    3    3    0  502 -0.36455621661E+03 -0.15772402002E+04  0.47012070247E+03  0.16857054819E+04  0.12699999809E+01 0. -1.
</event>
<event>
 5   0  0.8845195E-07  0.3481116E+04  0.7818609E-02  0.8118280E-01
        2   -1    0    0  501    0  0.00000000000E+00  0.00000000000E+00  0.20990905673E+04  0.20990905673E+04  0.25500000920E-02 0. -1.
       -2   -1    0    0    0  501  0.00000000000E+00  0.00000000000E+00 -0.14432638171E+04  0.14432638171E+04  0.25500000920E-02 0.  1.
    10030    2    1    2    0    0  0.00000000000E+00  0.00000000000E+00  0.65582675023E+03  0.35423543844E+04  0.34811156054E+04 0.  0.
        5    1    3    3  502    0 -0.13853232452E+04  0.10534910128E+04  0.35189848336E+03  0.17756177630E+04  0.46999998093E+01 0.  1.
       -5    1    3    3    0  502  0.13853232452E+04 -0.10534910128E+04  0.30392826687E+03  0.17667366213E+04  0.46999998093E+01 0. -1.
</event>
<event>
 5   0  0.2907000E-07  0.2890108E+04  0.7818609E-02  0.8275827E-01
        3   -1    0    0  501    0  0.00000000000E+00  0.00000000000E+00  0.16566173319E+04  0.16566173349E+04  0.10100000352E+00 0.  1.
       -3   -1    0    0    0  501  0.00000000000E+00  0.00000000000E+00 -0.12605092445E+04  0.12605092486E+04  0.10100000352E+00 0. -1.
    10030    2    1    2    0    0  0.00000000000E+00  0.00000000000E+00  0.39610808732E+03  0.29171265835E+04  0.28901082830E+04 0.  0.
        4    1    3    3  502    0  0.55752648127E+03 -0.91262719014E+03  0.11789703515E+04  0.15917590484E+04  0.12699999809E+01 0.  1.
       -4    1    3    3    0  502 -0.55752648127E+03  0.91262719014E+03 -0.78286226422E+03  0.13253675351E+04  0.12699999809E+01 0. -1.
</event>
<event>
 5   0  0.8950809E-07  0.3476316E+04  0.7818609E-02  0.8119426E-01
        2   -1    0    0  501    0  0.00000000000E+00  0.00000000000E+00  0.10706380496E+04  0.10706380496E+04  0.25500000920E-02 0.  1.
       -2   -1    0    0    0  501  0.00000000000E+00  0.00000000000E+00 -0.28218631792E+04  0.28218631792E+04  0.25500000920E-02 0. -1.
    10030    2    1    2    0    0  0.00000000000E+00  0.00000000000E+00 -0.17512251296E+04  0.38925012288E+04  0.34763164933E+04 0.  0.
        2    1    3    3  502    0  0.12773163866E+04  0.15166809297E+03  0.43338456623E+03  0.13573365626E+04  0.25500000920E-02 0.  1.
       -2    1    3    3    0  502 -0.12773163866E+04 -0.15166809297E+03 -0.21846096958E+04  0.25351646662E+04  0.25500000920E-02 0. -1.
</event>
<event>
 5   0  0.2936607E-07  0.3498951E+04  0.7818609E-02  0.8114039E-01
       -1   -1    0    0    0  501  0.00000000000E+00  0.00000000000E+00  0.25520975185E+04  0.25520975185E+04  0.50400001928E-02 0. -1.
        1   -1    0    0  501    0  0.00000000000E+00  0.00000000000E+00 -0.11992743185E+04  0.11992743185E+04  0.50400001928E-02 0.  1.
    10030    2    1    2    0    0  0.00000000000E+00  0.00000000000E+00  0.13528232000E+04  0.37513718369E+04  0.34989512784E+04 0.  0.
        2    1    3    3  502    0 -0.69275205363E+03 -0.16151020408E+03  0.23900530857E+04  0.24936609045E+04  0.25500000920E-02 0. -1.
       -2    1    3    3    0  502  0.69275205363E+03  0.16151020408E+03 -0.10372298857E+04  0.12577109325E+04  0.25500000920E-02 0.  1.
</event>
<event>
 5   0  0.6188930E-07  0.3529627E+04  0.7818609E-02  0.8106804E-01
        2   -1    0    0  501    0  0.00000000000E+00  0.00000000000E+00  0.14106625073E+04  0.14106625073E+04  0.25500000920E-02 0.  1.
       -2   -1    0    0    0  501  0.00000000000E+00  0.00000000000E+00 -0.22078751828E+04  0.22078751828E+04  0.25500000920E-02 0. -1.
    10030    2    1    2    0    0  0.00000000000E+00  0.00000000000E+00 -0.79721267543E+03  0.36185376901E+04  0.35296270291E+04 0.  0.
        3    1    3    3  502    0 -0.10730223655E+04  0.68812981161E+03 -0.16498701849E+04  0.20849391530E+04  0.10100000352E+00 0. -1.
       -3    1    3    3    0  502  0.10730223655E+04 -0.68812981161E+03  0.85265750946E+03  0.15335985371E+04  0.10100000352E+00 0.  1.
</event>
<event>
 5   0  0.6188930E-07  0.2854717E+04  0.7818609E-02  0.8286479E-01
        2   -1    0    0  501    0  0.00000000000E+00  0.00000000000E+00  0.13922214413E+04  0.13922214413E+04  0.25500000920E-02 0.  1.
       -2   -1    0    0    0  501  0.00000000000E+00  0.00000000000E+00 -0.14633822182E+04  0.14633822182E+04  0.25500000920E-02 0. -1.
    10030    2    1    2    0    0  0.00000000000E+00  0.00000000000E+00 -0.71160776881E+02  0.28556036596E+04  0.28547168694E+04 0.  0.
        3    1    3    3  502    0  0.14267801035E+04  0.17730315385E+01 -0.76182199936E+02  0.14288136146E+04  0.10100000352E+00 0.  1.
       -3    1    3    3    0  502 -0.14267801035E+04 -0.17730315385E+01  0.50214230554E+01  0.14267900450E+04  0.10100000352E+00 0. -1.
</event>
<event>
 5   0  0.3061330E-07  0.3510760E+04  0.7818609E-02  0.8111245E-01
        1   -1    0    0  501    0  0.00000000000E+00  0.00000000000E+00  0.10912520631E+04  0.10912520632E+04  0.50400001928E-02 0.  1.
       -1   -1    0    0    0  501  0.00000000000E+00  0.00000000000E+00 -0.28236909198E+04  0.28236909198E+04  0.50400001928E-02 0. -1.
    10030    2    1    2    0    0  0.00000000000E+00  0.00000000000E+00 -0.17324388566E+04  0.39149429829E+04  0.35107597707E+04 0.  0.
        5    1    3    3  502    0 -0.14248988511E+04  0.49291423005E+03  0.13617695077E+03  0.15138914842E+04  0.46999998093E+01 0.  1.
       -5    1    3    3    0  502  0.14248988511E+04 -0.49291423005E+03 -0.18686158074E+04  0.24010514987E+04  0.46999998093E+01 0. -1.
</event>
<event>
 5   0  0.3026332E-07  0.3503806E+04  0.7818609E-02  0.8112889E-01
       -1   -1    0    0    0  501  0.00000000000E+00  0.00000000000E+00  0.16552305539E+04  0.16552305539E+04  0.50400001928E-02 0. -1.
        1   -1    0    0  501    0  0.00000000000E+00  0.00000000000E+00 -0.18542215360E+04  0.18542215360E+04  0.50400001928E-02 0.  1.
    10030    2    1    2    0    0  0.00000000000E+00  0.00000000000E+00 -0.19899098218E+03  0.35094520899E+04  0.35038060107E+04 0.  0.
        1    1    3    3  502    0 -0.11530714996E+04 -0.10078812980E+04  0.75261952236E+03  0.17064098978E+04  0.50400001928E-02 0.  1.
       -1    1    3    3    0  502  0.11530714996E+04  0.10078812980E+04 -0.95161050453E+03  0.18030421921E+04  0.50400001928E-02 0. -1.
</event>
<event>
 5   0  0.6188930E-07  0.3510179E+04  0.7818609E-02  0.8111382E-01
       -2   -1    0    0    0  501  0.00000000000E+00  0.00000000000E+00  0.12352346625E+04  0.12352346625E+04  0.25500000920E-02 0.  1.
        2   -1    0    0  501    0  0.00000000000E+00  0.00000000000E+00 -0.24937273544E+04  0.24937273544E+04  0.25500000920E-02 0. -1.
    10030    2    1    2    0    0  0.00000000000E+00  0.00000000000E+00 -0.12584926919E+04  0.37289620169E+04  0.35101786091E+04 0.  0.
        3    1    3    3  502    0 -0.47951785704E+03  0.12436036343E+04  0.58378700159E+03  0.14550926596E+04  0.10100000352E+00 0.  1.
       -3    1    3    3    0  502  0.47951785704E+03 -0.12436036343E+04 -0.18422796935E+04  0.22738693573E+04  0.10100000352E+00 0. -1.
</event>
<event>
 5   0  0.9128871E-07  0.3456500E+04  0.7818609E-02  0.8124177E-01
       -2   -1    0    0    0  501  0.00000000000E+00  0.00000000000E+00  0.13481626515E+04  0.13481626515E+04  0.25500000920E-02 0.  1.
        2   -1    0    0  501    0  0.00000000000E+00  0.00000000000E+00 -0.22154954416E+04  0.22154954416E+04  0.25500000920E-02 0. -1.
    10030    2    1    2    0    0  0.00000000000E+00  0.00000000000E+00 -0.86733279010E+03  0.35636580930E+04  0.34565000847E+04 0.  0.
        1    1    3    3  502    0 -0.15866144641E+04  0.51049440546E+03  0.37556974728E+02  0.16671414223E+04  0.50400001928E-02 0.  1.
       -1    1    3    3    0  502  0.15866144641E+04 -0.51049440546E+03 -0.90488976483E+03  0.18965166707E+04  0.50400001928E-02 0. -1.
</event>
<event>
 5   0  0.9128871E-07  0.3480406E+04  0.7818609E-02  0.8118449E-01
       -2   -1    0    0    0  501  0.00000000000E+00  0.00000000000E+00  0.20985561701E+04  0.20985561701E+04  0.25500000920E-02 0. -1.
        2   -1    0    0  501    0  0.00000000000E+00  0.00000000000E+00 -0.14430428645E+04  0.14430428645E+04  0.25500000920E-02 0.  1.
    10030    2    1    2    0    0  0.00000000000E+00  0.00000000000E+00  0.65551330564E+03  0.35415990346E+04  0.34804060149E+04 0.  0.
        1    1    3    3  502    0 -0.43782631558E+03  0.23370069495E+03 -0.13695016206E+04  0.14566545872E+04  0.50400001928E-02 0.  1.
       -1    1    3    3    0  502  0.43782631558E+03 -0.23370069495E+03  0.20250149263E+04  0.20849444475E+04  0.50400001928E-02 0. -1.
</event>
<event>
 5   0  0.8950809E-07  0.3450775E+04  0.7818609E-02  0.8125556E-01
       -2   -1    0    0    0  501  0.00000000000E+00  0.00000000000E+00  0.14330929831E+04  0.14330929831E+04  0.25500000920E-02 0. -1.
        2   -1    0    0  501    0  0.00000000000E+00  0.00000000000E+00 -0.20772983871E+04  0.20772983871E+04  0.25500000920E-02 0.  1.
    10030    2    1    2    0    0  0.00000000000E+00  0.00000000000E+00 -0.64420540392E+03  0.35103913702E+04  0.34507748361E+04 0.  0.
        2    1    3    3  502    0  0.24438210656E+03  0.96903544849E+03  0.11086845088E+04  0.14926264283E+04  0.25500000920E-02 0. -1.
       -2    1    3    3    0  502 -0.24438210656E+03 -0.96903544849E+03 -0.17528899128E+04  0.20177649419E+04  0.25500000920E-02 0.  1.
</event>
<event>
 5   0  0.2933506E-07  0.3488774E+04  0.7818609E-02  0.8116455E-01
       -1   -1    0    0    0  501  0.00000000000E+00  0.00000000000E+00  0.30213806931E+04  0.30213806931E+04  0.50400001928E-02 0. -1.
        1   -1    0    0  501    0  0.00000000000E+00  0.00000000000E+00 -0.10071179030E+04  0.10071179030E+04  0.50400001928E-02 0.  1.
    10030    2    1    2    0    0  0.00000000000E+00  0.00000000000E+00  0.20142627901E+04  0.40284985962E+04  0.34887743337E+04 0.  0.
        4    1    3    3  502    0 -0.92852617213E+03  0.22014739303E+03  0.26932586223E+04  0.28573185588E+04  0.12699999809E+01 0. -1.
       -4    1    3    3    0  502  0.92852617213E+03 -0.22014739303E+03 -0.67899583216E+03  0.11711800374E+04  0.12699999809E+01 0.  1.
</event>
<event>
 5   0  0.9128871E-07  0.3511073E+04  0.7818609E-02  0.8111171E-01
        2   -1    0    0  501    0  0.00000000000E+00  0.00000000000E+00  0.19274219056E+04  0.19274219056E+04  0.25500000920E-02 0.  1.
       -2   -1    0    0    0  501  0.00000000000E+00  0.00000000000E+00 -0.15989801004E+04  0.15989801004E+04  0.25500000920E-02 0. -1.
    10030    2    1    2    0    0  0.00000000000E+00  0.00000000000E+00  0.32844180515E+03  0.35264020060E+04  0.35110734952E+04 0.  0.
        1    1    3    3  502    0 -0.61802178745E+03 -0.12539281094E+04  0.12307526625E+04  0.18625355700E+04  0.50400001928E-02 0. -1.
       -1    1    3    3    0  502  0.61802178745E+03  0.12539281094E+04 -0.90231085738E+03  0.16638664360E+04  0.50400001928E-02 0.  1.
</event>
<event>
 5   0  0.9311672E-07  0.3466664E+04  0.7818609E-02  0.8121736E-01
       -2   -1    0    0    0  501  0.00000000000E+00  0.00000000000E+00  0.97673201718E+03  0.97673201718E+03  0.25500000920E-02 0. -1.
        2   -1    0    0  501    0  0.00000000000E+00  0.00000000000E+00 -0.30760123116E+04  0.30760123116E+04  0.25500000920E-02 0.  1.
    10030    2    1    2    0    0  0.00000000000E+00  0.00000000000E+00 -0.20992802944E+04  0.40527443288E+04  0.34666639352E+04 0.  0.
        4    1    3    3  502    0 -0.57846953111E+03 -0.87865779540E+03  0.56085504740E+03  0.11921520528E+04  0.12699999809E+01 0. -1.
       -4    1    3    3    0  502  0.57846953111E+03  0.87865779540E+03 -0.26601353418E+04  0.28605922760E+04  0.12699999809E+01 0.  1.
</event>
<event>
 5   0  0.6188930E-07  0.3552484E+04  0.7818609E-02  0.8101463E-01
        2   -1    0    0  501    0  0.00000000000E+00  0.00000000000E+00  0.21334578504E+04  0.21334578504E+04  0.25500000920E-02 0. -1.
       -2   -1    0    0    0  501  0.00000000000E+00  0.00000000000E+00 -0.14788367363E+04  0.14788367363E+04  0.25500000920E-02 0.  1.
    10030    2    1    2    0    0  0.00000000000E+00  0.00000000000E+00  0.65462111419E+03  0.36122945867E+04  0.35524841137E+04 0.  0.
        3    1    3    3  502    0 -0.11871344780E+04  0.12109139181E+04  0.86482662883E+03  0.19035561179E+04  0.10100000352E+00 0.  1.
       -3    1    3    3    0  502  0.11871344780E+04 -0.12109139181E+04 -0.21020551465E+03  0.17087384688E+04  0.10100000352E+00 0. -1.
</event>
<event>
 5   0  0.2972541E-07  0.3161682E+04  0.7818609E-02  0.8199011E-01
       -1   -1    0    0    0  501  0.00000000000E+00  0.00000000000E+00  0.16095204910E+04  0.16095204911E+04  0.50400001928E-02 0.  1.
        1   -1    0    0  501    0  0.00000000000E+00  0.00000000000E+00 -0.15526721948E+04  0.15526721948E+04  0.50400001928E-02 0. -1.
    10030    2    1    2    0    0  0.00000000000E+00  0.00000000000E+00  0.56848296249E+02  0.31621926859E+04  0.31616816496E+04 0.  0.
        3    1    3    3  502    0  0.92258588653E+03 -0.63422926427E+03  0.11446897690E+04  0.16011640001E+04  0.10100000352E+00 0.  1.
       -3    1    3    3    0  502 -0.92258588653E+03  0.63422926427E+03 -0.10878414728E+04  0.15610286858E+04  0.10100000352E+00 0. -1.
</event>
<event>
 5   0  0.8845195E-07  0.3505433E+04  0.7818609E-02  0.8112504E-01
       -2   -1    0    0    0  501  0.00000000000E+00  0.00000000000E+00  0.99585991579E+03  0.99585991580E+03  0.25500000920E-02 0. -1.
        2   -1    0    0  501    0  0.00000000000E+00  0.00000000000E+00 -0.30847861501E+04  0.30847861501E+04  0.25500000920E-02 0.  1.
    10030    2    1    2    0    0  0.00000000000E+00  0.00000000000E+00 -0.20889262343E+04  0.40806460659E+04  0.35054328553E+04 0.  0.
        5    1    3    3  502    0  0.66220704285E+03 -0.12617138686E+03  0.83890500872E+03  0.10762068064E+04  0.46999998093E+01 0. -1.
       -5    1    3    3    0  502 -0.66220704285E+03  0.12617138686E+03 -0.29278312430E+04  0.30044392595E+04  0.46999998093E+01 0.  1.
</event>
<event>
 5   0  0.9128871E-07  0.3533924E+04  0.7818609E-02  0.8105797E-01
        2   -1    0    0  501    0  0.00000000000E+00  0.00000000000E+00  0.24361054211E+04  0.24361054211E+04  0.25500000920E-02 0. -1.
       -2   -1    0    0    0  501  0.00000000000E+00  0.00000000000E+00 -0.12816172034E+04  0.12816172034E+04  0.25500000920E-02 0.  1.
    10030    2    1    2    0    0  0.00000000000E+00  0.00000000000E+00  0.11544882176E+04  0.37177226245E+04  0.35339239477E+04 0.  0.
        1    1    3    3  502    0 -0.92002683629E+03 -0.24300060207E+03  0.21435224064E+04  0.23452477436E+04  0.50400001928E-02 0. -1.
       -1    1    3    3    0  502  0.92002683629E+03  0.24300060207E+03 -0.98903418875E+03  0.13724748809E+04  0.50400001928E-02 0.  1.
</event>
<event>
 5   0  0.9311672E-07  0.3502445E+04  0.7818609E-02  0.8113211E-01
        2   -1    0    0  501    0  0.00000000000E+00  0.00000000000E+00  0.25663806416E+04  0.25663806416E+04  0.25500000920E-02 0. -1.
       -2   -1    0    0    0  501  0.00000000000E+00  0.00000000000E+00 -0.11949824503E+04  0.11949824503E+04  0.25500000920E-02 0.  1.
    10030    2    1    2    0    0  0.00000000000E+00  0.00000000000E+00  0.13713981912E+04  0.37613630919E+04  0.35024447619E+04 0.  0.
        4    1    3    3  502    0  0.70965161443E+03  0.22317224617E+03 -0.10168588980E+04  0.12599265441E+04  0.12699999809E+01 0.  1.
       -4    1    3    3    0  502 -0.70965161443E+03 -0.22317224617E+03  0.23882570892E+04  0.25014365477E+04  0.12699999809E+01 0. -1.
</event>
<event>
 5   0  0.6188930E-07  0.3337923E+04  0.7818609E-02  0.8153312E-01
       -2   -1    0    0    0  501  0.00000000000E+00  0.00000000000E+00  0.10562132348E+04  0.10562132348E+04  0.25500000920E-02 0.  1.
        2   -1    0    0  501    0  0.00000000000E+00  0.00000000000E+00 -0.26371875977E+04  0.26371875977E+04  0.25500000920E-02 0. -1.
    10030    2    1    2    0    0  0.00000000000E+00  0.00000000000E+00 -0.15809743629E+04  0.36934008325E+04  0.33379229729E+04 0.  0.
        3    1    3    3  502    0 -0.89119975816E+03  0.12733771621E+04 -0.11769893216E+03  0.15587108310E+04  0.10100000352E+00 0.  1.
       -3    1    3    3    0  502  0.89119975816E+03 -0.12733771621E+04 -0.14632754307E+04  0.21346900014E+04  0.10100000352E+00 0. -1.
</event>
<event>
 5   0  0.3026332E-07  0.3454630E+04  0.7818609E-02  0.8124627E-01
        1   -1    0    0  501    0  0.00000000000E+00  0.00000000000E+00  0.20866846687E+04  0.20866846687E+04  0.50400001928E-02 0.  1.
       -1   -1    0    0    0  501  0.00000000000E+00  0.00000000000E+00 -0.14298357601E+04  0.14298357601E+04  0.50400001928E-02 0. -1.
    10030    2    1    2    0    0  0.00000000000E+00  0.00000000000E+00  0.65684890857E+03  0.35165204288E+04  0.34546295659E+04 0.  0.
        1    1    3    3  502    0  0.15470554065E+04  0.38047620025E+03  0.10078200660E+04  0.18851641455E+04  0.50400001928E-02 0.  1.
       -1    1    3    3    0  502 -0.15470554065E+04 -0.38047620025E+03 -0.35097115748E+03  0.16313562833E+04  0.50400001928E-02 0. -1.
</event>
<event>
 5   0  0.8950809E-07  0.3289990E+04  0.7818609E-02  0.8165447E-01
       -2   -1    0    0    0  501  0.00000000000E+00  0.00000000000E+00  0.27219402747E+04  0.27219402747E+04  0.25500000920E-02 0. -1.
        2   -1    0    0  501    0  0.00000000000E+00  0.00000000000E+00 -0.99414701648E+03  0.99414701648E+03  0.25500000920E-02 0.  1.
    10030    2    1    2    0    0  0.00000000000E+00  0.00000000000E+00  0.17277932583E+04  0.37160872912E+04  0.32899901539E+04 0.  0.
        2    1    3    3  502    0 -0.12450349159E+04  0.40967376288E+03 -0.25885554861E+03  0.13360204822E+04  0.25500000920E-02 0.  1.
       -2    1    3    3    0  502  0.12450349159E+04 -0.40967376288E+03  0.19866488069E+04  0.23800668091E+04  0.25500000920E-02 0. -1.
</event>
<event>
 5   0  0.2933506E-07  0.3474308E+04  0.7818609E-02  0.8119906E-01
        1   -1    0    0  501    0  0.00000000000E+00  0.00000000000E+00  0.18359005099E+04  0.18359005099E+04  0.50400001928E-02 0. -1.
       -1   -1    0    0    0  501  0.00000000000E+00  0.00000000000E+00 -0.16437188438E+04  0.16437188439E+04  0.50400001928E-02 0.  1.
    10030    2    1    2    0    0  0.00000000000E+00  0.00000000000E+00  0.19218166609E+03  0.34796193538E+04  0.34743081404E+04 0.  0.
        4    1    3    3  502    0  0.57368512534E+03 -0.13648074936E+04  0.10062641973E+04  0.17900791506E+04  0.12699999809E+01 0. -1.
       -4    1    3    3    0  502 -0.57368512534E+03  0.13648074936E+04 -0.81408253118E+03  0.16895402032E+04  0.12699999809E+01 0.  1.
</event>
<event>
 5   0  0.2936607E-07  0.3326074E+04  0.7818609E-02  0.8156292E-01
        1   -1    0    0  501    0  0.00000000000E+00  0.00000000000E+00  0.20739417624E+04  0.20739417624E+04  0.50400001928E-02 0.  1.
       -1   -1    0    0    0  501  0.00000000000E+00  0.00000000000E+00 -0.13335436690E+04  0.13335436690E+04  0.50400001928E-02 0. -1.
    10030    2    1    2    0    0  0.00000000000E+00  0.00000000000E+00  0.74039809340E+03  0.34074854314E+04  0.33260739060E+04 0.  0.
        2    1    3    3  502    0 -0.11675388339E+04 -0.15438369382E+03 -0.83272630652E+03  0.14423641549E+04  0.25500000920E-02 0. -1.
       -2    1    3    3    0  502  0.11675388339E+04  0.15438369382E+03  0.15731243999E+04  0.19651212765E+04  0.25500000920E-02 0.  1.
</event>
<event>
 5   0  0.6188930E-07  0.3507022E+04  0.7818609E-02  0.8112128E-01
        2   -1    0    0  501    0  0.00000000000E+00  0.00000000000E+00  0.10425802432E+04  0.10425802432E+04  0.25500000920E-02 0.  1.
       -2   -1    0    0    0  501  0.00000000000E+00  0.00000000000E+00 -0.29492225708E+04  0.29492225708E+04  0.25500000920E-02 0. -1.
    10030    2    1    2    0    0  0.00000000000E+00  0.00000000000E+00 -0.19066423276E+04  0.39918028141E+04  0.35070222042E+04 0.  0.
        3    1    3    3  502    0 -0.54177683545E+03 -0.40311089735E+03 -0.27952808687E+04  0.28756939475E+04  0.10100000352E+00 0. -1.
       -3    1    3    3    0  502  0.54177683545E+03  0.40311089735E+03  0.88863854110E+03  0.11161088665E+04  0.10100000352E+00 0.  1.
</event>
<event>
 5   0  0.3026332E-07  0.3535572E+04  0.7818609E-02  0.8105411E-01
       -1   -1    0    0    0  501  0.00000000000E+00  0.00000000000E+00  0.10273561456E+04  0.10273561456E+04  0.50400001928E-02 0.  1.
        1   -1    0    0  501    0  0.00000000000E+00  0.00000000000E+00 -0.30418532259E+04  0.30418532259E+04  0.50400001928E-02 0. -1.
    10030    2    1    2    0    0  0.00000000000E+00  0.00000000000E+00 -0.20144970803E+04  0.40692093716E+04  0.35355715836E+04 0.  0.
        1    1    3    3  502    0  0.23010395912E+03 -0.10852766036E+04  0.57682023054E+03  0.12503978234E+04  0.50400001928E-02 0.  1.
       -1    1    3    3    0  502 -0.23010395912E+03  0.10852766036E+04 -0.25913173109E+04  0.28188115482E+04  0.50400001928E-02 0. -1.
</event>
<event>
 5   0  0.9311672E-07  0.3495885E+04  0.7818609E-02  0.8114766E-01
        2   -1    0    0  501    0  0.00000000000E+00  0.00000000000E+00  0.21165821786E+04  0.21165821786E+04  0.25500000920E-02 0. -1.
       -2   -1    0    0    0  501  0.00000000000E+00  0.00000000000E+00 -0.14435076974E+04  0.14435076974E+04  0.25500000920E-02 0.  1.
    10030    2    1    2    0    0  0.00000000000E+00  0.00000000000E+00  0.67307448123E+03  0.35600898760E+04  0.34958848190E+04 0.  0.
        4    1    3    3  502    0  0.65702596013E+03  0.87964602157E+03 -0.10485305372E+04  0.15181825108E+04  0.12699999809E+01 0.  1.
       -4    1    3    3    0  502 -0.65702596013E+03 -0.87964602157E+03  0.17216050185E+04  0.20419073652E+04  0.12699999809E+01 0. -1.
</event>
<event>
 5   0  0.3061330E-07  0.3503353E+04  0.7818609E-02  0.8112996E-01
       -1   -1    0    0    0  501  0.00000000000E+00  0.00000000000E+00  0.10204483305E+04  0.10204483305E+04  0.50400001928E-02 0.  1.
        1   -1    0    0  501    0  0.00000000000E+00  0.00000000000E+00 -0.30068839936E+04  0.30068839936E+04  0.50400001928E-02 0. -1.
    10030    2    1    2    0    0  0.00000000000E+00  0.00000000000E+00 -0.19864356631E+04  0.40273323241E+04  0.35033525379E+04 0.  0.
        5    1    3    3  502    0 -0.13410290431E+04  0.77505961316E+03 -0.52769918392E+02  0.15498009720E+04  0.46999998093E+01 0.  1.
       -5    1    3    3    0  502  0.13410290431E+04 -0.77505961316E+03 -0.19336657447E+04  0.24775313521E+04  0.46999998093E+01 0. -1.
</event>
<event>
 5   0  0.6188930E-07  0.3522083E+04  0.7818609E-02  0.8108576E-01
       -2   -1    0    0    0  501  0.00000000000E+00  0.00000000000E+00  0.16177180448E+04  0.16177180448E+04  0.25500000920E-02 0.  1.
        2   -1    0    0  501    0  0.00000000000E+00  0.00000000000E+00 -0.19170629266E+04  0.19170629266E+04  0.25500000920E-02 0. -1.
    10030    2    1    2    0    0  0.00000000000E+00  0.00000000000E+00 -0.29934488176E+03  0.35347809714E+04  0.35220830708E+04 0.  0.
        3    1    3    3  502    0 -0.36863725371E+03  0.11177524848E+04  0.11650133373E+04  0.16560555934E+04  0.10100000352E+00 0. -1.
       -3    1    3    3    0  502  0.36863725371E+03 -0.11177524848E+04 -0.14643582190E+04  0.18787253780E+04  0.10100000352E+00 0.  1.
</event>
<event>
 5   0  0.6188930E-07  0.3490853E+04  0.7818609E-02  0.8115961E-01
       -2   -1    0    0    0  501  0.00000000000E+00  0.00000000000E+00  0.17582447125E+04  0.17582447125E+04  0.25500000920E-02 0.  1.
        2   -1    0    0  501    0  0.00000000000E+00  0.00000000000E+00 -0.17327018027E+04  0.17327018027E+04  0.25500000920E-02 0. -1.
    10030    2    1    2    0    0  0.00000000000E+00  0.00000000000E+00  0.25542909735E+02  0.34909465152E+04  0.34908530665E+04 0.  0.
        3    1    3    3  502    0  0.17393374819E+04 -0.94909742625E+02 -0.97735066479E+02  0.17446646923E+04  0.10100000352E+00 0. -1.
       -3    1    3    3    0  502 -0.17393374819E+04  0.94909742625E+02  0.12327797621E+03  0.17462818229E+04  0.10100000352E+00 0.  1.
</event>
<event>
 5   0  0.2972541E-07  0.3495146E+04  0.7818609E-02  0.8114941E-01
       -1   -1    0    0    0  501  0.00000000000E+00  0.00000000000E+00  0.12537890348E+04  0.12537890348E+04  0.50400001928E-02 0.  1.
        1   -1    0    0  501    0  0.00000000000E+00  0.00000000000E+00 -0.24358259774E+04  0.24358259774E+04  0.50400001928E-02 0. -1.
    10030    2    1    2    0    0  0.00000000000E+00  0.00000000000E+00 -0.11820369426E+04  0.36896150121E+04  0.34951462922E+04 0.  0.
        3    1    3    3  502    0  0.86673606296E+03  0.18728671977E+03 -0.21806954833E+04  0.23540901680E+04  0.10100000352E+00 0. -1.
       -3    1    3    3    0  502 -0.86673606296E+03 -0.18728671977E+03  0.99865854066E+03  0.13355248441E+04  0.10100000352E+00 0.  1.
</event>
<event>
 5   0  0.8950809E-07  0.3472776E+04  0.7818609E-02  0.8120272E-01
        2   -1    0    0  501    0  0.00000000000E+00  0.00000000000E+00  0.22186292019E+04  0.22186292019E+04  0.25500000920E-02 0. -1.
       -2   -1    0    0    0  501  0.00000000000E+00  0.00000000000E+00 -0.13589671187E+04  0.13589671187E+04  0.25500000920E-02 0.  1.
    10030    2    1    2    0    0  0.00000000000E+00  0.00000000000E+00  0.85966208320E+03  0.35775963206E+04  0.34727764881E+04 0.  0.
        2    1    3    3  502    0 -0.75112308427E+03  0.15654249873E+04  0.44775905895E+03  0.17931060909E+04  0.25500000920E-02 0.  1.
       -2    1    3    3    0  502  0.75112308427E+03 -0.15654249873E+04  0.41190302425E+03  0.17844902297E+04  0.25500000920E-02 0. -1.
</event>
<event>
 5   0  0.9311672E-07  0.3539105E+04  0.7818609E-02  0.8104585E-01
        2   -1    0    0  501    0  0.00000000000E+00  0.00000000000E+00  0.12666395902E+04  0.12666395902E+04  0.25500000920E-02 0.  1.
       -2   -1    0    0    0  501  0.00000000000E+00  0.00000000000E+00 -0.24721441291E+04  0.24721441291E+04  0.25500000920E-02 0. -1.
    10030    2    1    2    0    0  0.00000000000E+00  0.00000000000E+00 -0.12055045389E+04  0.37387837193E+04  0.35391047605E+04 0.  0.
        4    1    3    3  502    0  0.21871684964E+03 -0.57948784632E+03  0.11483812973E+04  0.13047698805E+04  0.12699999809E+01 0.  1.
       -4    1    3    3    0  502 -0.21871684964E+03  0.57948784632E+03 -0.23538858362E+04  0.24340138387E+04  0.12699999809E+01 0. -1.
</event>
<event>
 5   0  0.9311672E-07  0.3423402E+04  0.7818609E-02  0.8132186E-01
       -2   -1    0    0    0  501  0.00000000000E+00  0.00000000000E+00  0.25010946879E+04  0.25010946879E+04  0.25500000920E-02 0.  1.
        2   -1    0    0  501    0  0.00000000000E+00  0.00000000000E+00 -0.11714554518E+04  0.11714554518E+04  0.25500000920E-02 0. -1.
    10030    2    1    2    0    0  0.00000000000E+00  0.00000000000E+00  0.13296392360E+04  0.36725501397E+04  0.34234024056E+04 0.  0.
        4    1    3    3  502    0 -0.38674785216E+03 -0.14628437752E+04  0.15233325292E+04  0.21470979063E+04  0.12699999809E+01 0.  1.
       -4    1    3    3    0  502  0.38674785216E+03  0.14628437752E+04 -0.19369329319E+03  0.15254522334E+04  0.12699999809E+01 0. -1.
</event>
<event>
 5   0  0.2936607E-07  0.3501774E+04  0.7818609E-02  0.8113370E-01
        1   -1    0    0  501    0  0.00000000000E+00  0.00000000000E+00  0.15996621849E+04  0.15996621849E+04  0.50400001928E-02 0. -1.
       -1   -1    0    0    0  501  0.00000000000E+00  0.00000000000E+00 -0.19164077789E+04  0.19164077789E+04  0.50400001928E-02 0.  1.
    10030    2    1    2    0    0  0.00000000000E+00  0.00000000000E+00 -0.31674559407E+03  0.35160699638E+04  0.35017738675E+04 0.  0.
        2    1    3    3  502    0 -0.23657963834E+03 -0.16999169734E+04  0.18933188287E+03  0.17267119632E+04  0.25500000920E-02 0. -1.
       -2    1    3    3    0  502  0.23657963834E+03  0.16999169734E+04 -0.50607747694E+03  0.17893580006E+04  0.25500000920E-02 0.  1.
</event>
<event>
 5   0  0.2972541E-07  0.3351357E+04  0.7818609E-02  0.8149949E-01
       -1   -1    0    0    0  501  0.00000000000E+00  0.00000000000E+00  0.10085374260E+04  0.10085374260E+04  0.50400001928E-02 0.  1.
        1   -1    0    0  501    0  0.00000000000E+00  0.00000000000E+00 -0.27841285449E+04  0.27841285449E+04  0.50400001928E-02 0. -1.
    10030    2    1    2    0    0  0.00000000000E+00  0.00000000000E+00 -0.17755911188E+04  0.37926659709E+04  0.33513566426E+04 0.  0.
        3    1    3    3  502    0 -0.11330661563E+04  0.12098028305E+04 -0.60958610369E+03  0.17660852277E+04  0.10100000352E+00 0.  1.
       -3    1    3    3    0  502  0.11330661563E+04 -0.12098028305E+04 -0.11660050151E+04  0.20265807432E+04  0.10100000352E+00 0. -1.
</event>
<event>
 5   0  0.2933506E-07  0.3474841E+04  0.7818609E-02  0.8119778E-01
        1   -1    0    0  501    0  0.00000000000E+00  0.00000000000E+00  0.23197850244E+04  0.23197850244E+04  0.50400001928E-02 0. -1.
       -1   -1    0    0    0  501  0.00000000000E+00  0.00000000000E+00 -0.13012541782E+04  0.13012541782E+04  0.50400001928E-02 0.  1.
    10030    2    1    2    0    0  0.00000000000E+00  0.00000000000E+00  0.10185308462E+04  0.36210392027E+04  0.34748409780E+04 0.  0.
        4    1    3    3  502    0 -0.17120184253E+04  0.94702919521E+02  0.21701519072E+03  0.17283150573E+04  0.12699999809E+01 0. -1.
       -4    1    3    3    0  502  0.17120184253E+04 -0.94702919521E+02  0.80151565549E+03  0.18927241453E+04  0.12699999809E+01 0.  1.
</event>
<event>
 5   0  0.2936607E-07  0.3494328E+04  0.7818609E-02  0.8115135E-01
        1   -1    0    0  501    0  0.00000000000E+00  0.00000000000E+00  0.19148173795E+04  0.19148173795E+04  0.50400001928E-02 0. -1.
       -1   -1    0    0    0  501  0.00000000000E+00  0.00000000000E+00 -0.15941900997E+04  0.15941900997E+04  0.50400001928E-02 0.  1.
    10030    2    1    2    0    0  0.00000000000E+00  0.00000000000E+00  0.32062727980E+03  0.35090074792E+04  0.34943284958E+04 0.  0.
        2    1    3    3  502    0 -0.64632385851E+03 -0.10220585317E+04 -0.11060328400E+04  0.16387943176E+04  0.25500000920E-02 0.  1.
       -2    1    3    3    0  502  0.64632385851E+03  0.10220585317E+04  0.14266601198E+04  0.18702131616E+04  0.25500000920E-02 0. -1.
</event>
<event>
 5   0  0.3026332E-07  0.3189392E+04  0.7818609E-02  0.8191624E-01
        1   -1    0    0  501    0  0.00000000000E+00  0.00000000000E+00  0.14048030155E+04  0.14048030155E+04  0.50400001928E-02 0.  1.
       -1   -1    0    0    0  501  0.00000000000E+00  0.00000000000E+00 -0.18102576689E+04  0.18102576689E+04  0.50400001928E-02 0. -1.
    10030    2    1    2    0    0  0.00000000000E+00  0.00000000000E+00 -0.40545465342E+03  0.32150606843E+04  0.31893920625E+04 0.  0.
        1    1    3    3  502    0  0.27774662637E+03 -0.15154596013E+04 -0.61749281602E+03  0.16598368503E+04  0.50400001928E-02 0.  1.
       -1    1    3    3    0  502 -0.27774662637E+03  0.15154596013E+04  0.21203816260E+03  0.15552238341E+04  0.50400001928E-02 0. -1.
</event>
<event>
 5   0  0.8950809E-07  0.3503900E+04  0.7818609E-02  0.8112866E-01
        2   -1    0    0  501    0  0.00000000000E+00  0.00000000000E+00  0.23561572415E+04  0.23561572415E+04  0.25500000920E-02 0. -1.
       -2   -1    0    0    0  501  0.00000000000E+00  0.00000000000E+00 -0.13026843765E+04  0.13026843765E+04  0.25500000920E-02 0.  1.
    10030    2    1    2    0    0  0.00000000000E+00  0.00000000000E+00  0.10534728650E+04  0.36588416180E+04  0.35039002423E+04 0.  0.
        2    1    3    3  502    0 -0.93262746145E+03  0.17273548778E+03 -0.10113880723E+04  0.13865559359E+04  0.25500000920E-02 0.  1.
       -2    1    3    3    0  502  0.93262746145E+03 -0.17273548778E+03  0.20648609373E+04  0.22722856821E+04  0.25500000920E-02 0. -1.
</event>
<event>
 5   0  0.2936607E-07  0.3090569E+04  0.7818609E-02  0.8218331E-01
       -1   -1    0    0    0  501  0.00000000000E+00  0.00000000000E+00  0.15604314775E+04  0.15604314775E+04  0.50400001928E-02 0.  1.
        1   -1    0    0  501    0  0.00000000000E+00  0.00000000000E+00 -0.15302849570E+04  0.15302849570E+04  0.50400001928E-02 0. -1.
    10030    2    1    2    0    0  0.00000000000E+00  0.00000000000E+00  0.30146520472E+02  0.30907164344E+04  0.30905694080E+04 0.  0.
        2    1    3    3  502    0  0.97963482623E+03  0.97849003615E+03  0.70123830312E+03  0.15520509983E+04  0.25500000920E-02 0. -1.
       -2    1    3    3    0  502 -0.97963482623E+03 -0.97849003615E+03 -0.67109178265E+03  0.15386654361E+04  0.25500000920E-02 0.  1.
</event>
<event>
 5   0  0.8950809E-07  0.3574680E+04  0.7818609E-02  0.8096316E-01
        2   -1    0    0  501    0  0.00000000000E+00  0.00000000000E+00  0.15023400354E+04  0.15023400354E+04  0.25500000920E-02 0. -1.
       -2   -1    0    0    0  501  0.00000000000E+00  0.00000000000E+00 -0.21264061678E+04  0.21264061678E+04  0.25500000920E-02 0.  1.
    10030    2    1    2    0    0  0.00000000000E+00  0.00000000000E+00 -0.62406613240E+03  0.36287462033E+04  0.35746804711E+04 0.  0.
        2    1    3    3  502    0  0.13102948867E+04 -0.32685969229E+03 -0.15005854345E+04  0.20187784907E+04  0.25500000920E-02 0.  1.
       -2    1    3    3    0  502 -0.13102948867E+04  0.32685969229E+03  0.87651930209E+03  0.16099677125E+04  0.25500000920E-02 0. -1.
</event>
<event>
 5   0  0.2933506E-07  0.3462650E+04  0.7818609E-02  0.8122699E-01
        1   -1    0    0  501    0  0.00000000000E+00  0.00000000000E+00  0.26539618656E+04  0.26539618656E+04  0.50400001928E-02 0.  1.
       -1   -1    0    0    0  501  0.00000000000E+00  0.00000000000E+00 -0.11294384550E+04  0.11294384550E+04  0.50400001928E-02 0. -1.
    10030    2    1    2    0    0  0.00000000000E+00  0.00000000000E+00  0.15245234106E+04  0.37834003206E+04  0.34626501926E+04 0.  0.
        4    1    3    3  502    0 -0.13083946046E+04 -0.10008815300E+04  0.18016013846E+03  0.16571419876E+04  0.12699999809E+01 0. -1.
       -4    1    3    3    0  502  0.13083946046E+04  0.10008815300E+04  0.13443632721E+04  0.21262583330E+04  0.12699999809E+01 0.  1.
</event>
<event>
 5   0  0.2972541E-07  0.3490879E+04  0.7818609E-02  0.8115955E-01
       -1   -1    0    0    0  501  0.00000000000E+00  0.00000000000E+00  0.18231552453E+04  0.18231552453E+04  0.50400001928E-02 0.  1.
        1   -1    0    0  501    0  0.00000000000E+00  0.00000000000E+00 -0.16710369644E+04  0.16710369644E+04  0.50400001928E-02 0. -1.
    10030    2    1    2    0    0  0.00000000000E+00  0.00000000000E+00  0.15211828090E+03  0.34941922097E+04  0.34908794346E+04 0.  0.
        3    1    3    3  502    0 -0.17209810500E+04 -0.29089911708E+03  0.63329924736E+02  0.17465419434E+04  0.10100000352E+00 0.  1.
       -3    1    3    3    0  502  0.17209810500E+04  0.29089911708E+03  0.88788356166E+02  0.17476502662E+04  0.10100000352E+00 0. -1.
</event>
<event>
 5   0  0.8950809E-07  0.3474469E+04  0.7818609E-02  0.8119867E-01
        2   -1    0    0  501    0  0.00000000000E+00  0.00000000000E+00  0.25120968031E+04  0.25120968031E+04  0.25500000920E-02 0.  1.
       -2   -1    0    0    0  501  0.00000000000E+00  0.00000000000E+00 -0.12013804564E+04  0.12013804564E+04  0.25500000920E-02 0. -1.
    10030    2    1    2    0    0  0.00000000000E+00  0.00000000000E+00  0.13107163467E+04  0.37134772595E+04  0.34744691703E+04 0.  0.
        2    1    3    3  502    0 -0.75075221525E+03 -0.11515223393E+04 -0.47995191143E+03  0.14560173158E+04  0.25500000920E-02 0. -1.
       -2    1    3    3    0  502  0.75075221525E+03  0.11515223393E+04  0.17906682581E+04  0.22574599437E+04  0.25500000920E-02 0.  1.
</event>
<event>
 5   0  0.6188930E-07  0.2979623E+04  0.7818609E-02  0.8249574E-01
       -2   -1    0    0    0  501  0.00000000000E+00  0.00000000000E+00  0.11335587855E+04  0.11335587855E+04  0.25500000920E-02 0.  1.
        2   -1    0    0  501    0  0.00000000000E+00  0.00000000000E+00 -0.19580263945E+04  0.19580263945E+04  0.25500000920E-02 0. -1.
    10030    2    1    2    0    0  0.00000000000E+00  0.00000000000E+00 -0.82446760898E+03  0.30915851800E+04  0.29796228095E+04 0.  0.
        3    1    3    3  502    0 -0.54997704922E+02  0.58065934641E+03  0.10101720402E+04  0.11664637093E+04  0.10100000352E+00 0.  1.
       -3    1    3    3    0  502  0.54997704922E+02 -0.58065934641E+03 -0.18346396492E+04  0.19251214706E+04  0.10100000352E+00 0. -1.
</event>
<event>
 5   0  0.6188930E-07  0.3495578E+04  0.7818609E-02  0.8114839E-01
        2   -1    0    0  501    0  0.00000000000E+00  0.00000000000E+00  0.23743808971E+04  0.23743808971E+04  0.25500000920E-02 0. -1.
       -2   -1    0    0    0  501  0.00000000000E+00  0.00000000000E+00 -0.12865527206E+04  0.12865527206E+04  0.25500000920E-02 0.  1.
    10030    2    1    2    0    0  0.00000000000E+00  0.00000000000E+00  0.10878281766E+04  0.36609336177E+04  0.34955778938E+04 0.  0.
        3    1    3    3  502    0  0.11241918122E+04  0.56461018324E+03  0.18146417569E+04  0.22080572016E+04  0.10100000352E+00 0. -1.
       -3    1    3    3    0  502 -0.11241918122E+04 -0.56461018324E+03 -0.72681358032E+03  0.14528764161E+04  0.10100000352E+00 0.  1.
</event>
<event>
 5   0  0.2936607E-07  0.3535062E+04  0.7818609E-02  0.8105531E-01
       -1   -1    0    0    0  501  0.00000000000E+00  0.00000000000E+00  0.15154870240E+04  0.15154870240E+04  0.50400001928E-02 0.  1.
        1   -1    0    0  501    0  0.00000000000E+00  0.00000000000E+00 -0.20614929052E+04  0.20614929052E+04  0.50400001928E-02 0. -1.
    10030    2    1    2    0    0  0.00000000000E+00  0.00000000000E+00 -0.54600588124E+03  0.35769799292E+04  0.35350619502E+04 0.  0.
        2    1    3    3  502    0  0.24517689623E+03  0.85572263262E+03  0.12721250287E+04  0.15526348647E+04  0.25500000920E-02 0.  1.
       -2    1    3    3    0  502 -0.24517689623E+03 -0.85572263262E+03 -0.18181309099E+04  0.20243450645E+04  0.25500000920E-02 0. -1.
</event>
<event>
 5   0  0.3026332E-07  0.3490237E+04  0.7818609E-02  0.8116107E-01
       -1   -1    0    0    0  501  0.00000000000E+00  0.00000000000E+00  0.16612314739E+04  0.16612314739E+04  0.50400001928E-02 0. -1.
        1   -1    0    0  501    0  0.00000000000E+00  0.00000000000E+00 -0.18332418172E+04  0.18332418173E+04  0.50400001928E-02 0.  1.
    10030    2    1    2    0    0  0.00000000000E+00  0.00000000000E+00 -0.17201034337E+03  0.34944732911E+04  0.34902372447E+04 0.  0.
        1    1    3    3  502    0  0.16770053363E+04 -0.36493663741E+03  0.23046920727E+03  0.17316586565E+04  0.50400001928E-02 0.  1.
       -1    1    3    3    0  502 -0.16770053363E+04  0.36493663741E+03 -0.40247955065E+03  0.17628146346E+04  0.50400001928E-02 0. -1.
</event>
<event>
 5   0  0.2972541E-07  0.3530713E+04  0.7818609E-02  0.8106550E-01
        1   -1    0    0  501    0  0.00000000000E+00  0.00000000000E+00  0.12489388781E+04  0.12489388781E+04  0.50400001928E-02 0.  1.
       -1   -1    0    0    0  501  0.00000000000E+00  0.00000000000E+00 -0.24953044189E+04  0.24953044189E+04  0.50400001928E-02 0. -1.
    10030    2    1    2    0    0  0.00000000000E+00  0.00000000000E+00 -0.12463655408E+04  0.37442432970E+04  0.35307125068E+04 0.  0.
        3    1    3    3  502    0 -0.15778500549E+04  0.20841015934E+03 -0.14332083365E+04  0.21417590285E+04  0.10100000352E+00 0. -1.
       -3    1    3    3    0  502  0.15778500549E+04 -0.20841015934E+03  0.18684279572E+03  0.16024842685E+04  0.10100000352E+00 0.  1.
</event>
<event>
 5   0  0.6188930E-07  0.2854533E+04  0.7818609E-02  0.8286535E-01
       -2   -1    0    0    0  501  0.00000000000E+00  0.00000000000E+00  0.93424447341E+03  0.93424447341E+03  0.25500000920E-02 0. -1.
        2   -1    0    0  501    0  0.00000000000E+00  0.00000000000E+00 -0.21804670086E+04  0.21804670086E+04  0.25500000920E-02 0.  1.
    10030    2    1    2    0    0  0.00000000000E+00  0.00000000000E+00 -0.12462225351E+04  0.31147114820E+04  0.28545327129E+04 0.  0.
        3    1    3    3  502    0 -0.43744220391E+03 -0.67345459939E+03 -0.19105673951E+04  0.20724778794E+04  0.10100000352E+00 0.  1.
       -3    1    3    3    0  502  0.43744220391E+03  0.67345459939E+03  0.66434485994E+03  0.10422336026E+04  0.10100000352E+00 0. -1.
</event>
<event>
 5   0  0.8950809E-07  0.3492051E+04  0.7818609E-02  0.8115676E-01
        2   -1    0    0  501    0  0.00000000000E+00  0.00000000000E+00  0.15493823987E+04  0.15493823987E+04  0.25500000920E-02 0. -1.
       -2   -1    0    0    0  501  0.00000000000E+00  0.00000000000E+00 -0.19676259488E+04  0.19676259488E+04  0.25500000920E-02 0.  1.
    10030    2    1    2    0    0  0.00000000000E+00  0.00000000000E+00 -0.41824355008E+03  0.35170083475E+04  0.34920509804E+04 0.  0.
        2    1    3    3  502    0 -0.11391934247E+04 -0.96350630850E+03 -0.11225207061E+04  0.18671258129E+04  0.25500000920E-02 0.  1.
       -2    1    3    3    0  502  0.11391934247E+04  0.96350630850E+03  0.70427715606E+03  0.16498825346E+04  0.25500000920E-02 0. -1.
</event>
<event>
 5   0  0.8845195E-07  0.3447089E+04  0.7818609E-02  0.8126445E-01
        2   -1    0    0  501    0  0.00000000000E+00  0.00000000000E+00  0.24297370865E+04  0.24297370865E+04  0.25500000920E-02 0. -1.
       -2   -1    0    0    0  501  0.00000000000E+00  0.00000000000E+00 -0.12226039368E+04  0.12226039368E+04  0.25500000920E-02 0.  1.
    10030    2    1    2    0    0  0.00000000000E+00  0.00000000000E+00  0.12071331497E+04  0.36523410233E+04  0.34470892808E+04 0.  0.
        5    1    3    3  502    0  0.29016045302E+03  0.15651651254E+04  0.13037068544E+04  0.20575734764E+04  0.46999998093E+01 0. -1.
       -5    1    3    3    0  502 -0.29016045302E+03 -0.15651651254E+04 -0.96573704784E+02  0.15947675470E+04  0.46999998093E+01 0.  1.
</event>
<event>
 5   0  0.8845195E-07  0.3537757E+04  0.7818609E-02  0.8104900E-01
        2   -1    0    0  501    0  0.00000000000E+00  0.00000000000E+00  0.26879868192E+04  0.26879868192E+04  0.25500000920E-02 0. -1.
       -2   -1    0    0    0  501  0.00000000000E+00  0.00000000000E+00 -0.11640427591E+04  0.11640427591E+04  0.25500000920E-02 0.  1.
    10030    2    1    2    0    0  0.00000000000E+00  0.00000000000E+00  0.15239440602E+04  0.38520295783E+04  0.35377572519E+04 0.  0.
        5    1    3    3  502    0 -0.93258658460E+03 -0.70090996409E+03 -0.68577445048E+03  0.13532557787E+04  0.46999998093E+01 0.  1.
       -5    1    3    3    0  502  0.93258658460E+03  0.70090996409E+03  0.22097185106E+04  0.24987737997E+04  0.46999998093E+01 0. -1.
</event>
<event>
 5   0  0.9128871E-07  0.3313206E+04  0.7818609E-02  0.8159543E-01
        2   -1    0    0  501    0  0.00000000000E+00  0.00000000000E+00  0.21582094113E+04  0.21582094113E+04  0.25500000920E-02 0.  1.
       -2   -1    0    0    0  501  0.00000000000E+00  0.00000000000E+00 -0.12715792219E+04  0.12715792219E+04  0.25500000920E-02 0. -1.
    10030    2    1    2    0    0  0.00000000000E+00  0.00000000000E+00  0.88663018942E+03  0.34297886332E+04  0.33132064493E+04 0.  0.
        1    1    3    3  502    0 -0.65358579276E+03 -0.14396644175E+04  0.95521090638E+03  0.18472238357E+04  0.50400001928E-02 0.  1.
       -1    1    3    3    0  502  0.65358579276E+03  0.14396644175E+04 -0.68580716961E+02  0.15825647975E+04  0.50400001928E-02 0. -1.
</event>
<event>
 5   0  0.3026332E-07  0.3518222E+04  0.7818609E-02  0.8109485E-01
       -1   -1    0    0    0  501  0.00000000000E+00  0.00000000000E+00  0.14621478294E+04  0.14621478295E+04  0.50400001928E-02 0.  1.
        1   -1    0    0  501    0  0.00000000000E+00  0.00000000000E+00 -0.21163881622E+04  0.21163881622E+04  0.50400001928E-02 0. -1.
    10030    2    1    2    0    0  0.00000000000E+00  0.00000000000E+00 -0.65424033280E+03  0.35785359917E+04  0.35182224817E+04 0.  0.
        1    1    3    3  502    0 -0.29315522615E+03 -0.12499399096E+04 -0.15503094149E+04  0.20128956869E+04  0.50400001928E-02 0. -1.
       -1    1    3    3    0  502  0.29315522615E+03  0.12499399096E+04  0.89606908208E+03  0.15656403048E+04  0.50400001928E-02 0.  1.
</event>
<event>
 5   0  0.9128871E-07  0.3486279E+04  0.7818609E-02  0.8117049E-01
       -2   -1    0    0    0  501  0.00000000000E+00  0.00000000000E+00  0.16248121878E+04  0.16248121878E+04  0.25500000920E-02 0. -1.
        2   -1    0    0  501    0  0.00000000000E+00  0.00000000000E+00 -0.18700841038E+04  0.18700841038E+04  0.25500000920E-02 0.  1.
    10030    2    1    2    0    0  0.00000000000E+00  0.00000000000E+00 -0.24527191605E+03  0.34948962916E+04  0.34862790732E+04 0.  0.
        1    1    3    3  502    0  0.16831304939E+04 -0.36043398961E+03 -0.39844237991E+03  0.17668042480E+04  0.50400001928E-02 0.  1.
       -1    1    3    3    0  502 -0.16831304939E+04  0.36043398961E+03  0.15317046386E+03  0.17280920437E+04  0.50400001928E-02 0. -1.
</event>
<event>
 5   0  0.8845195E-07  0.3505844E+04  0.7818609E-02  0.8112406E-01
        2   -1    0    0  501    0  0.00000000000E+00  0.00000000000E+00  0.12570366665E+04  0.12570366665E+04  0.25500000920E-02 0.  1.
       -2   -1    0    0    0  501  0.00000000000E+00  0.00000000000E+00 -0.24444281558E+04  0.24444281558E+04  0.25500000920E-02 0. -1.
    10030    2    1    2    0    0  0.00000000000E+00  0.00000000000E+00 -0.11873914893E+04  0.37014648224E+04  0.35058441612E+04 0.  0.
        5    1    3    3  502    0  0.60832446107E+03 -0.25014675147E+03  0.11218002210E+04  0.13004191144E+04  0.46999998093E+01 0.  1.
       -5    1    3    3    0  502 -0.60832446107E+03  0.25014675147E+03 -0.23091917103E+04  0.24010457080E+04  0.46999998093E+01 0. -1.
</event>
<event>
 5   0  0.2936607E-07  0.3494097E+04  0.7818609E-02  0.8115190E-01
       -1   -1    0    0    0  501  0.00000000000E+00  0.00000000000E+00  0.19914841220E+04  0.19914841220E+04  0.50400001928E-02 0. -1.
        1   -1    0    0  501    0  0.00000000000E+00  0.00000000000E+00 -0.15326152044E+04  0.15326152044E+04  0.50400001928E-02 0.  1.
    10030    2    1    2    0    0  0.00000000000E+00  0.00000000000E+00  0.45886891756E+03  0.35240993264E+04  0.34940972195E+04 0.  0.
        2    1    3    3  502    0  0.88104430228E+03  0.12631344106E+04 -0.60253096823E+03  0.16537204024E+04  0.25500000920E-02 0.  1.
       -2    1    3    3    0  502 -0.88104430228E+03 -0.12631344106E+04  0.10613998858E+04  0.18703789240E+04  0.25500000920E-02 0. -1.
</event>
<event>
 5   0  0.9311672E-07  0.3527025E+04  0.7818609E-02  0.8107415E-01
       -2   -1    0    0    0  501  0.00000000000E+00  0.00000000000E+00  0.13155292161E+04  0.13155292161E+04  0.25500000920E-02 0. -1.
        2   -1    0    0  501    0  0.00000000000E+00  0.00000000000E+00 -0.23640497263E+04  0.23640497263E+04  0.25500000920E-02 0.  1.
    10030    2    1    2    0    0  0.00000000000E+00  0.00000000000E+00 -0.10485205102E+04  0.36795789424E+04  0.35270250826E+04 0.  0.
        4    1    3    3  502    0 -0.16366415153E+03 -0.17542261887E+04 -0.60425397302E+03  0.18625842135E+04  0.12699999809E+01 0.  1.
       -4    1    3    3    0  502  0.16366415153E+03  0.17542261887E+04 -0.44426653715E+03  0.18169947289E+04  0.12699999809E+01 0. -1.
</event>
<event>
 5   0  0.8950809E-07  0.3515197E+04  0.7818609E-02  0.8110198E-01
       -2   -1    0    0    0  501  0.00000000000E+00  0.00000000000E+00  0.14208111598E+04  0.14208111598E+04  0.25500000920E-02 0.  1.
        2   -1    0    0  501    0  0.00000000000E+00  0.00000000000E+00 -0.21742177450E+04  0.21742177450E+04  0.25500000920E-02 0. -1.
    10030    2    1    2    0    0  0.00000000000E+00  0.00000000000E+00 -0.75340658513E+03  0.35950289048E+04  0.35151971984E+04 0.  0.
        2    1    3    3  502    0  0.53935347992E+03 -0.58576936613E+03 -0.19791717488E+04  0.21333421521E+04  0.25500000920E-02 0. -1.
       -2    1    3    3    0  502 -0.53935347992E+03  0.58576936613E+03  0.12257651636E+04  0.14616867527E+04  0.25500000920E-02 0.  1.
</event>
<event>
 5   0  0.2972541E-07  0.3447510E+04  0.7818609E-02  0.8126343E-01
        1   -1    0    0  501    0  0.00000000000E+00  0.00000000000E+00  0.17846012998E+04  0.17846012998E+04  0.50400001928E-02 0. -1.
       -1   -1    0    0    0  501  0.00000000000E+00  0.00000000000E+00 -0.16649831779E+04  0.16649831779E+04  0.50400001928E-02 0.  1.
    10030    2    1    2    0    0  0.00000000000E+00  0.00000000000E+00  0.11961812191E+03  0.34495844778E+04  0.34475099092E+04 0.  0.
        3    1    3    3  502    0  0.68277397983E+03 -0.57428876124E+03  0.15356010839E+04  0.17759669445E+04  0.10100000352E+00 0. -1.
       -3    1    3    3    0  502 -0.68277397983E+03  0.57428876124E+03 -0.14159829620E+04  0.16736175333E+04  0.10100000352E+00 0.  1.
</event>
<event>
 5   0  0.6188930E-07  0.3474369E+04  0.7818609E-02  0.8119891E-01
       -2   -1    0    0    0  501  0.00000000000E+00  0.00000000000E+00  0.22896649826E+04  0.22896649826E+04  0.25500000920E-02 0. -1.
        2   -1    0    0  501    0  0.00000000000E+00  0.00000000000E+00 -0.13180138733E+04  0.13180138733E+04  0.25500000920E-02 0.  1.
    10030    2    1    2    0    0  0.00000000000E+00  0.00000000000E+00  0.97165110930E+03  0.36076788559E+04  0.34743691297E+04 0.  0.
        3    1    3    3  502    0  0.14429096624E+04  0.71526609139E+03  0.11621352339E+04  0.19859889696E+04  0.10100000352E+00 0. -1.
       -3    1    3    3    0  502 -0.14429096624E+04 -0.71526609139E+03 -0.19048412457E+03  0.16216898863E+04  0.10100000352E+00 0.  1.
</event>
<event>
 5   0  0.8950809E-07  0.3466011E+04  0.7818609E-02  0.8121893E-01
        2   -1    0    0  501    0  0.00000000000E+00  0.00000000000E+00  0.27250668978E+04  0.27250668978E+04  0.25500000920E-02 0.  1.
       -2   -1    0    0    0  501  0.00000000000E+00  0.00000000000E+00 -0.11021041794E+04  0.11021041794E+04  0.25500000920E-02 0. -1.
    10030    2    1    2    0    0  0.00000000000E+00  0.00000000000E+00  0.16229627184E+04  0.38271710772E+04  0.34660107428E+04 0.  0.
        2    1    3    3  502    0 -0.62519902783E+03  0.10799656345E+04 -0.51636656500E+03  0.13504939931E+04  0.25500000920E-02 0. -1.
       -2    1    3    3    0  502  0.62519902783E+03 -0.10799656345E+04  0.21393292834E+04  0.24766770841E+04  0.25500000920E-02 0.  1.
</event>
<event>
 5   0  0.8845195E-07  0.3485569E+04  0.7818609E-02  0.8117219E-01
        2   -1    0    0  501    0  0.00000000000E+00  0.00000000000E+00  0.27905109285E+04  0.27905109285E+04  0.25500000920E-02 0. -1.
       -2   -1    0    0    0  501  0.00000000000E+00  0.00000000000E+00 -0.10884376603E+04  0.10884376603E+04  0.25500000920E-02 0.  1.
    10030    2    1    2    0    0  0.00000000000E+00  0.00000000000E+00  0.17020732682E+04  0.38789485888E+04  0.34855686400E+04 0.  0.
        5    1    3    3  502    0  0.39637191021E+03  0.16238236607E+04  0.30204467304E+03  0.16985779484E+04  0.46999998093E+01 0.  1.
       -5    1    3    3    0  502 -0.39637191021E+03 -0.16238236607E+04  0.14000285952E+04  0.21803706404E+04  0.46999998093E+01 0. -1.
</event>
<event>
 5   0  0.2972541E-07  0.3546388E+04  0.7818609E-02  0.8102884E-01
       -1   -1    0    0    0  501  0.00000000000E+00  0.00000000000E+00  0.13815616096E+04  0.13815616096E+04  0.50400001928E-02 0.  1.
        1   -1    0    0  501    0  0.00000000000E+00  0.00000000000E+00 -0.22758428761E+04  0.22758428761E+04  0.50400001928E-02 0. -1.
    10030    2    1    2    0    0  0.00000000000E+00  0.00000000000E+00 -0.89428126649E+03  0.36574044857E+04  0.35463881046E+04 0.  0.
        3    1    3    3  502    0  0.11327934523E+03  0.94746005028E+02 -0.22694896868E+04  0.22742894416E+04  0.10100000352E+00 0. -1.
       -3    1    3    3    0  502 -0.11327934523E+03 -0.94746005028E+02  0.13752084203E+04  0.13831150441E+04  0.10100000352E+00 0.  1.
</event>
<event>
 5   0  0.9128871E-07  0.3482241E+04  0.7818609E-02  0.8118012E-01
       -2   -1    0    0    0  501  0.00000000000E+00  0.00000000000E+00  0.18102244592E+04  0.18102244592E+04  0.25500000920E-02 0. -1.
        2   -1    0    0  501    0  0.00000000000E+00  0.00000000000E+00 -0.16746541135E+04  0.16746541135E+04  0.25500000920E-02 0.  1.
    10030    2    1    2    0    0  0.00000000000E+00  0.00000000000E+00  0.13557034571E+03  0.34848785727E+04  0.34822405644E+04 0.  0.
        1    1    3    3  502    0  0.12357131666E+04 -0.29532365796E+03 -0.11236194326E+04  0.16960907176E+04  0.50400001928E-02 0.  1.
       -1    1    3    3    0  502 -0.12357131666E+04  0.29532365796E+03  0.12591897783E+04  0.17887878552E+04  0.50400001928E-02 0. -1.
</event>
<event>
 5   0  0.2972541E-07  0.3523009E+04  0.7818609E-02  0.8108359E-01
        1   -1    0    0  501    0  0.00000000000E+00  0.00000000000E+00  0.18199022165E+04  0.18199022165E+04  0.50400001928E-02 0. -1.
       -1   -1    0    0    0  501  0.00000000000E+00  0.00000000000E+00 -0.17049802512E+04  0.17049802512E+04  0.50400001928E-02 0.  1.
    10030    2    1    2    0    0  0.00000000000E+00  0.00000000000E+00  0.11492196529E+03  0.35248824676E+04  0.35230085655E+04 0.  0.
        3    1    3    3  502    0  0.14168732470E+04 -0.10414655446E+04 -0.46117263777E+02  0.17590642657E+04  0.10100000352E+00 0.  1.
       -3    1    3    3    0  502 -0.14168732470E+04  0.10414655446E+04  0.16103922907E+03  0.17658182019E+04  0.10100000352E+00 0. -1.
</event>
<event>
 5   0  0.8950809E-07  0.3483710E+04  0.7818609E-02  0.8117661E-01
       -2   -1    0    0    0  501  0.00000000000E+00  0.00000000000E+00  0.14024490468E+04  0.14024490468E+04  0.25500000920E-02 0. -1.
        2   -1    0    0  501    0  0.00000000000E+00  0.00000000000E+00 -0.21634006359E+04  0.21634006359E+04  0.25500000920E-02 0.  1.
    10030    2    1    2    0    0  0.00000000000E+00  0.00000000000E+00 -0.76095158909E+03  0.35658496827E+04  0.34837101829E+04 0.  0.
        2    1    3    3  502    0  0.11535140591E+04  0.43888455900E+03 -0.16386215115E+04  0.20514128786E+04  0.25500000920E-02 0.  1.
       -2    1    3    3    0  502 -0.11535140591E+04 -0.43888455900E+03  0.87766992243E+03  0.15144368040E+04  0.25500000920E-02 0. -1.
</event>
<event>
 5   0  0.6188930E-07  0.3497954E+04  0.7818609E-02  0.8114275E-01
       -2   -1    0    0    0  501  0.00000000000E+00  0.00000000000E+00  0.16551433691E+04  0.16551433691E+04  0.25500000920E-02 0.  1.
        2   -1    0    0  501    0  0.00000000000E+00  0.00000000000E+00 -0.18481303761E+04  0.18481303761E+04  0.25500000920E-02 0. -1.
    10030    2    1    2    0    0  0.00000000000E+00  0.00000000000E+00 -0.19298700696E+03  0.35032737452E+04  0.34979541090E+04 0.  0.
        3    1    3    3  502    0  0.51721521039E+03 -0.10868351952E+04  0.11743722121E+04  0.16816279071E+04  0.10100000352E+00 0.  1.
       -3    1    3    3    0  502 -0.51721521039E+03  0.10868351952E+04 -0.13673592190E+04  0.18216458381E+04  0.10100000352E+00 0. -1.
</event>
<event>
 5   0  0.9128871E-07  0.3493735E+04  0.7818609E-02  0.8115276E-01
        2   -1    0    0  501    0  0.00000000000E+00  0.00000000000E+00  0.23816525472E+04  0.23816525472E+04  0.25500000920E-02 0.  1.
       -2   -1    0    0    0  501  0.00000000000E+00  0.00000000000E+00 -0.12812722478E+04  0.12812722478E+04  0.25500000920E-02 0. -1.
    10030    2    1    2    0    0  0.00000000000E+00  0.00000000000E+00  0.11003802994E+04  0.36629247950E+04  0.34937345707E+04 0.  0.
        1    1    3    3  502    0 -0.16424745545E+04  0.30619420080E+03  0.10848546567E+04  0.19920811170E+04  0.50400001928E-02 0. -1.
       -1    1    3    3    0  502  0.16424745545E+04 -0.30619420080E+03  0.15525642656E+02  0.16708436780E+04  0.50400001928E-02 0.  1.
</event>
<event>
 5   0  0.6188930E-07  0.3485199E+04  0.7818609E-02  0.8117307E-01
        2   -1    0    0  501    0  0.00000000000E+00  0.00000000000E+00  0.21860263844E+04  0.21860263845E+04  0.25500000920E-02 0. -1.
       -2   -1    0    0    0  501  0.00000000000E+00  0.00000000000E+00 -0.13891199826E+04  0.13891199826E+04  0.25500000920E-02 0.  1.
    10030    2    1    2    0    0  0.00000000000E+00  0.00000000000E+00  0.79690640185E+03  0.35751463670E+04  0.34851989516E+04 0.  0.
        3    1    3    3  502    0  0.84808491114E+03 -0.14779903648E+04  0.24420629244E+02  0.17042006666E+04  0.10100000352E+00 0. -1.
       -3    1    3    3    0  502 -0.84808491114E+03  0.14779903648E+04  0.77248577261E+03  0.18709457004E+04  0.10100000352E+00 0.  1.
</event>
<event>
 5   0  0.2936607E-07  0.3031144E+04  0.7818609E-02  0.8234893E-01
       -1   -1    0    0    0  501  0.00000000000E+00  0.00000000000E+00  0.13412634551E+04  0.13412634551E+04  0.50400001928E-02 0. -1.
        1   -1    0    0  501    0  0.00000000000E+00  0.00000000000E+00 -0.17125335050E+04  0.17125335050E+04  0.50400001928E-02 0.  1.
    10030    2    1    2    0    0  0.00000000000E+00  0.00000000000E+00 -0.37127004990E+03  0.30537969601E+04  0.30311440783E+04 0.  0.
        2    1    3    3  502    0 -0.46767391138E+03 -0.36685642618E+03  0.12189346548E+04  0.13561357666E+04  0.25500000920E-02 0. -1.
       -2    1    3    3    0  502  0.46767391138E+03  0.36685642618E+03 -0.15902047047E+04  0.16976611935E+04  0.25500000920E-02 0.  1.
</event>
<event>
 5   0  0.2972541E-07  0.3517031E+04  0.7818609E-02  0.8109766E-01
        1   -1    0    0  501    0  0.00000000000E+00  0.00000000000E+00  0.28506685865E+04  0.28506685865E+04  0.50400001928E-02 0. -1.
       -1   -1    0    0    0  501  0.00000000000E+00  0.00000000000E+00 -0.10847897045E+04  0.10847897045E+04  0.50400001928E-02 0.  1.
    10030    2    1    2    0    0  0.00000000000E+00  0.00000000000E+00  0.17658788820E+04  0.39354582910E+04  0.35170305279E+04 0.  0.
        3    1    3    3  502    0 -0.42441318450E+03 -0.11066060710E+04 -0.57072192016E+03  0.13154569806E+04  0.10100000352E+00 0.  1.
       -3    1    3    3    0  502  0.42441318450E+03  0.11066060710E+04  0.23366008021E+04  0.26200013104E+04  0.10100000352E+00 0. -1.
</event>
<event>
 5   0  0.2907000E-07  0.3492348E+04  0.7818609E-02  0.8115606E-01
       -3   -1    0    0    0  501  0.00000000000E+00  0.00000000000E+00  0.19441711937E+04  0.19441711963E+04  0.10100000352E+00 0. -1.
        3   -1    0    0  501    0  0.00000000000E+00  0.00000000000E+00 -0.15683406745E+04  0.15683406777E+04  0.10100000352E+00 0.  1.
    10030    2    1    2    0    0  0.00000000000E+00  0.00000000000E+00  0.37583051926E+03  0.35125118741E+04  0.34923475036E+04 0.  0.
        2    1    3    3  502    0  0.10740489273E+03 -0.17310063047E+04  0.39207530057E+03  0.17781005818E+04  0.25500000920E-02 0.  1.
       -2    1    3    3    0  502 -0.10740489273E+03  0.17310063047E+04 -0.16244781307E+02  0.17344112922E+04  0.25500000920E-02 0. -1.
</event>
<event>
 5   0  0.9311672E-07  0.3283945E+04  0.7818609E-02  0.8166993E-01
       -2   -1    0    0    0  501  0.00000000000E+00  0.00000000000E+00  0.11445625077E+04  0.11445625077E+04  0.25500000920E-02 0.  1.
        2   -1    0    0  501    0  0.00000000000E+00  0.00000000000E+00 -0.23555501632E+04  0.23555501632E+04  0.25500000920E-02 0. -1.
    10030    2    1    2    0    0  0.00000000000E+00  0.00000000000E+00 -0.12109876555E+04  0.35001126709E+04  0.32839454330E+04 0.  0.
        4    1    3    3  502    0  0.39367101200E+03  0.63603152327E+03  0.95242067971E+03  0.12110407625E+04  0.12699999809E+01 0.  1.
       -4    1    3    3    0  502 -0.39367101200E+03 -0.63603152327E+03 -0.21634083352E+04  0.22890719084E+04  0.12699999809E+01 0. -1.
</event>
<event>
 5   0  0.2936607E-07  0.3504538E+04  0.7818609E-02  0.8112715E-01
       -1   -1    0    0    0  501  0.00000000000E+00  0.00000000000E+00  0.14017103845E+04  0.14017103845E+04  0.50400001928E-02 0. -1.
        1   -1    0    0  501    0  0.00000000000E+00  0.00000000000E+00 -0.21904999975E+04  0.21904999975E+04  0.50400001928E-02 0.  1.
    10030    2    1    2    0    0  0.00000000000E+00  0.00000000000E+00 -0.78878961300E+03  0.35922103820E+04  0.35045379689E+04 0.  0.
        2    1    3    3  502    0  0.16615574336E+04  0.91157676608E+02  0.16830467088E+03  0.16725457511E+04  0.25500000920E-02 0. -1.
       -2    1    3    3    0  502 -0.16615574336E+04 -0.91157676608E+02 -0.95709428387E+03  0.19196646310E+04  0.25500000920E-02 0.  1.
</event>
<event>
 5   0  0.2907000E-07  0.3350719E+04  0.7818609E-02  0.8150109E-01
        3   -1    0    0  501    0  0.00000000000E+00  0.00000000000E+00  0.17382653134E+04  0.17382653164E+04  0.10100000352E+00 0.  1.
       -3   -1    0    0    0  501  0.00000000000E+00  0.00000000000E+00 -0.16147302094E+04  0.16147302126E+04  0.10100000352E+00 0. -1.
    10030    2    1    2    0    0  0.00000000000E+00  0.00000000000E+00  0.12353510401E+03  0.33529955289E+04  0.33507190415E+04 0.  0.
        2    1    3    3  502    0 -0.11410267284E+04  0.11095434590E+04 -0.46184777411E+03  0.16572060973E+04  0.25500000920E-02 0. -1.
       -2    1    3    3    0  502  0.11410267284E+04 -0.11095434590E+04  0.58538287812E+03  0.16957894316E+04  0.25500000920E-02 0.  1.
</event>
<event>
 5   0  0.3026332E-07  0.3439551E+04  0.7818609E-02  0.8128267E-01
       -1   -1    0    0    0  501  0.00000000000E+00  0.00000000000E+00  0.29531822664E+04  0.29531822664E+04  0.50400001928E-02 0.  1.
        1   -1    0    0  501    0  0.00000000000E+00  0.00000000000E+00 -0.10015055763E+04  0.10015055763E+04  0.50400001928E-02 0. -1.
    10030    2    1    2    0    0  0.00000000000E+00  0.00000000000E+00  0.19516766901E+04  0.39546878428E+04  0.34395514287E+04 0.  0.
        1    1    3    3  502    0 -0.41285519373E+03  0.10990548524E+04  0.24207353114E+04  0.26904145457E+04  0.50400001928E-02 0.  1.
       -1    1    3    3    0  502  0.41285519373E+03 -0.10990548524E+04 -0.46905862128E+03  0.12642732971E+04  0.50400001928E-02 0. -1.
</event>
<event>
 5   0  0.9128871E-07  0.3479155E+04  0.7818609E-02  0.8118748E-01
        2   -1    0    0  501    0  0.00000000000E+00  0.00000000000E+00  0.14581803437E+04  0.14581803437E+04  0.25500000920E-02 0.  1.
       -2   -1    0    0    0  501  0.00000000000E+00  0.00000000000E+00 -0.20752782259E+04  0.20752782259E+04  0.25500000920E-02 0. -1.
    10030    2    1    2    0    0  0.00000000000E+00  0.00000000000E+00 -0.61709788223E+03  0.35334585695E+04  0.34791550219E+04 0.  0.
        1    1    3    3  502    0 -0.28900467365E+03  0.95938692613E+03  0.11356813331E+04  0.15145029105E+04  0.50400001928E-02 0.  1.
       -1    1    3    3    0  502  0.28900467365E+03 -0.95938692613E+03 -0.17527792154E+04  0.20189556591E+04  0.50400001928E-02 0. -1.
</event>
<event>
 5   0  0.2972541E-07  0.3227334E+04  0.7818609E-02  0.8181635E-01
       -1   -1    0    0    0  501  0.00000000000E+00  0.00000000000E+00  0.20330820330E+04  0.20330820330E+04  0.50400001928E-02 0. -1.
        1   -1    0    0  501    0  0.00000000000E+00  0.00000000000E+00 -0.12807755068E+04  0.12807755068E+04  0.50400001928E-02 0.  1.
    10030    2    1    2    0    0  0.00000000000E+00  0.00000000000E+00  0.75230652624E+03  0.33138575399E+04  0.32273343002E+04 0.  0.
        3    1    3    3  502    0 -0.13210005009E+04 -0.92513055561E+03  0.43251372193E+03  0.16697236292E+04  0.10100000352E+00 0. -1.
       -3    1    3    3    0  502  0.13210005009E+04  0.92513055561E+03  0.31979280431E+03  0.16441339106E+04  0.10100000352E+00 0.  1.
</event>
<event>
 5   0  0.9311672E-07  0.3507181E+04  0.7818609E-02  0.8112090E-01
        2   -1    0    0  501    0  0.00000000000E+00  0.00000000000E+00  0.24926908425E+04  0.24926908425E+04  0.25500000920E-02 0.  1.
       -2   -1    0    0    0  501  0.00000000000E+00  0.00000000000E+00 -0.12336389249E+04  0.12336389249E+04  0.25500000920E-02 0. -1.
    10030    2    1    2    0    0  0.00000000000E+00  0.00000000000E+00  0.12590519176E+04  0.37263297674E+04  0.35071814615E+04 0.  0.
        4    1    3    3  502    0  0.60135368426E+03  0.96849197866E+03  0.20452559630E+04  0.23415115915E+04  0.12699999809E+01 0.  1.
       -4    1    3    3    0  502 -0.60135368426E+03 -0.96849197866E+03 -0.78620404535E+03  0.13848181758E+04  0.12699999809E+01 0. -1.
</event>
<event>
 5   0  0.9128871E-07  0.3538228E+04  0.7818609E-02  0.8104790E-01
       -2   -1    0    0    0  501  0.00000000000E+00  0.00000000000E+00  0.18670594031E+04  0.18670594031E+04  0.25500000920E-02 0. -1.
        2   -1    0    0  501    0  0.00000000000E+00  0.00000000000E+00 -0.16763064118E+04  0.16763064118E+04  0.25500000920E-02 0.  1.
    10030    2    1    2    0    0  0.00000000000E+00  0.00000000000E+00  0.19075299135E+03  0.35433658149E+04  0.35382276063E+04 0.  0.
        1    1    3    3  502    0  0.93232031217E+03  0.10247356788E+04 -0.10064299662E+04  0.17123684337E+04  0.50400001928E-02 0.  1.
       -1    1    3    3    0  502 -0.93232031217E+03 -0.10247356788E+04  0.11971829576E+04  0.18309973811E+04  0.50400001928E-02 0. -1.
</event>
<event>
 5   0  0.6188930E-07  0.3421962E+04  0.7818609E-02  0.8132537E-01
        2   -1    0    0  501    0  0.00000000000E+00  0.00000000000E+00  0.16800913342E+04  0.16800913342E+04  0.25500000920E-02 0. -1.
       -2   -1    0    0    0  501  0.00000000000E+00  0.00000000000E+00 -0.17424383894E+04  0.17424383894E+04  0.25500000920E-02 0.  1.
    10030    2    1    2    0    0  0.00000000000E+00  0.00000000000E+00 -0.62347055176E+02  0.34225297236E+04  0.34219617990E+04 0.  0.
        3    1    3    3  502    0 -0.82926044517E+03  0.58216475569E+03 -0.14101216576E+04  0.17363846890E+04  0.10100000352E+00 0.  1.
       -3    1    3    3    0  502  0.82926044517E+03 -0.58216475569E+03  0.13477746024E+04  0.16861450346E+04  0.10100000352E+00 0. -1.
</event>
<event>
 5   0  0.8950809E-07  0.3508558E+04  0.7818609E-02  0.8111765E-01
        2   -1    0    0  501    0  0.00000000000E+00  0.00000000000E+00  0.16725937927E+04  0.16725937927E+04  0.25500000920E-02 0. -1.
       -2   -1    0    0    0  501  0.00000000000E+00  0.00000000000E+00 -0.18399538888E+04  0.18399538888E+04  0.25500000920E-02 0.  1.
    10030    2    1    2    0    0  0.00000000000E+00  0.00000000000E+00 -0.16736009606E+03  0.35125476815E+04  0.35085583667E+04 0.  0.
        2    1    3    3  502    0 -0.96403204151E+03 -0.14569759287E+04 -0.24310563974E+03  0.17638698892E+04  0.25500000920E-02 0.  1.
       -2    1    3    3    0  502  0.96403204151E+03  0.14569759287E+04  0.75745543686E+02  0.17486777923E+04  0.25500000920E-02 0. -1.
</event>
<event>
 5   0  0.9128871E-07  0.3515414E+04  0.7818609E-02  0.8110147E-01
        2   -1    0    0  501    0  0.00000000000E+00  0.00000000000E+00  0.15714309141E+04  0.15714309141E+04  0.25500000920E-02 0.  1.
       -2   -1    0    0    0  501  0.00000000000E+00  0.00000000000E+00 -0.19660640157E+04  0.19660640157E+04  0.25500000920E-02 0. -1.
    10030    2    1    2    0    0  0.00000000000E+00  0.00000000000E+00 -0.39463310166E+03  0.35374949298E+04  0.35154139292E+04 0.  0.
        1    1    3    3  502    0 -0.11315002971E+04 -0.12777479718E+04  0.22556223730E+03  0.17215722827E+04  0.50400001928E-02 0. -1.
       -1    1    3    3    0  502  0.11315002971E+04  0.12777479718E+04 -0.62019533896E+03  0.18159226471E+04  0.50400001928E-02 0.  1.
</event>
<event>
 5   0  0.6188930E-07  0.3534095E+04  0.7818609E-02  0.8105757E-01
        2   -1    0    0  501    0  0.00000000000E+00  0.00000000000E+00  0.20246914743E+04  0.20246914743E+04  0.25500000920E-02 0.  1.
       -2   -1    0    0    0  501  0.00000000000E+00  0.00000000000E+00 -0.15421889197E+04  0.15421889197E+04  0.25500000920E-02 0. -1.
    10030    2    1    2    0    0  0.00000000000E+00  0.00000000000E+00  0.48250255468E+03  0.35668803940E+04  0.35340949379E+04 0.  0.
        3    1    3    3  502    0 -0.21406442101E+03  0.22683787028E+03 -0.15141878878E+04  0.15459767028E+04  0.10100000352E+00 0. -1.
       -3    1    3    3    0  502  0.21406442101E+03 -0.22683787028E+03  0.19966904425E+04  0.20209036912E+04  0.10100000352E+00 0.  1.
</event>
<event>
 5   0  0.8950809E-07  0.3489721E+04  0.7818609E-02  0.8116230E-01
        2   -1    0    0  501    0  0.00000000000E+00  0.00000000000E+00  0.23621526225E+04  0.23621526225E+04  0.25500000920E-02 0. -1.
       -2   -1    0    0    0  501  0.00000000000E+00  0.00000000000E+00 -0.12888828083E+04  0.12888828083E+04  0.25500000920E-02 0.  1.
    10030    2    1    2    0    0  0.00000000000E+00  0.00000000000E+00  0.10732698142E+04  0.36510354308E+04  0.34897208517E+04 0.  0.
        2    1    3    3  502    0  0.94301680288E+03  0.11385953700E+04  0.15062201364E+04  0.21105400272E+04  0.25500000920E-02 0. -1.
       -2    1    3    3    0  502 -0.94301680288E+03 -0.11385953700E+04 -0.43295032218E+03  0.15404954036E+04  0.25500000920E-02 0.  1.
</event>
<event>
 5   0  0.2972541E-07  0.3529561E+04  0.7818609E-02  0.8106820E-01
       -1   -1    0    0    0  501  0.00000000000E+00  0.00000000000E+00  0.21602644065E+04  0.21602644065E+04  0.50400001928E-02 0. -1.
        1   -1    0    0  501    0  0.00000000000E+00  0.00000000000E+00 -0.14416986589E+04  0.14416986589E+04  0.50400001928E-02 0.  1.
    10030    2    1    2    0    0  0.00000000000E+00  0.00000000000E+00  0.71856574762E+03  0.36019630654E+04  0.35295610479E+04 0.  0.
        3    1    3    3  502    0  0.14301659148E+04  0.72764989908E+03  0.11089268893E+04  0.19505301268E+04  0.10100000352E+00 0. -1.
       -3    1    3    3    0  502 -0.14301659148E+04 -0.72764989908E+03 -0.39036114172E+03  0.16514329386E+04  0.10100000352E+00 0.  1.
</event>
<event>
 5   0  0.3026332E-07  0.3484008E+04  0.7818609E-02  0.8117590E-01
        1   -1    0    0  501    0  0.00000000000E+00  0.00000000000E+00  0.10521994733E+04  0.10521994733E+04  0.50400001928E-02 0. -1.
       -1   -1    0    0    0  501  0.00000000000E+00  0.00000000000E+00 -0.28840333629E+04  0.28840333629E+04  0.50400001928E-02 0.  1.
    10030    2    1    2    0    0  0.00000000000E+00  0.00000000000E+00 -0.18318338896E+04  0.39362328363E+04  0.34840082581E+04 0.  0.
        1    1    3    3  502    0  0.14712897870E+04  0.84717623839E+03 -0.47518314811E+03  0.17630088601E+04  0.50400001928E-02 0. -1.
       -1    1    3    3    0  502 -0.14712897870E+04 -0.84717623839E+03 -0.13566507415E+04  0.21732239762E+04  0.50400001928E-02 0.  1.
</event>
<event>
 5   0  0.8950809E-07  0.3521034E+04  0.7818609E-02  0.8108823E-01
       -2   -1    0    0    0  501  0.00000000000E+00  0.00000000000E+00  0.13617663180E+04  0.13617663180E+04  0.25500000920E-02 0.  1.
        2   -1    0    0  501    0  0.00000000000E+00  0.00000000000E+00 -0.22760294260E+04  0.22760294260E+04  0.25500000920E-02 0. -1.
    10030    2    1    2    0    0  0.00000000000E+00  0.00000000000E+00 -0.91426310800E+03  0.36377957441E+04  0.35210340590E+04 0.  0.
        2    1    3    3  502    0  0.11336166436E+04 -0.11984731776E+04 -0.10923329344E+04  0.19785388274E+04  0.25500000920E-02 0. -1.
       -2    1    3    3    0  502 -0.11336166436E+04  0.11984731776E+04  0.17806982636E+03  0.16592569166E+04  0.25500000920E-02 0.  1.
</event>
<event>
 5   0  0.6188930E-07  0.3537234E+04  0.7818609E-02  0.8105022E-01
       -2   -1    0    0    0  501  0.00000000000E+00  0.00000000000E+00  0.14135519876E+04  0.14135519876E+04  0.25500000920E-02 0.  1.
        2   -1    0    0  501    0  0.00000000000E+00  0.00000000000E+00 -0.22128694513E+04  0.22128694513E+04  0.25500000920E-02 0. -1.
    10030    2    1    2    0    0  0.00000000000E+00  0.00000000000E+00 -0.79931746362E+03  0.36264214389E+04  0.35372339539E+04 0.  0.
        3    1    3    3  502    0  0.17245508811E+04 -0.25326270159E+02  0.17342333217E+01  0.17247377132E+04  0.10100000352E+00 0.  1.
       -3    1    3    3    0  502 -0.17245508811E+04  0.25326270159E+02 -0.80105169694E+03  0.19016837258E+04  0.10100000352E+00 0. -1.
</event>
<event>
 5   0  0.8845195E-07  0.3475828E+04  0.7818609E-02  0.8119543E-01
       -2   -1    0    0    0  501  0.00000000000E+00  0.00000000000E+00  0.12972445753E+04  0.12972445753E+04  0.25500000920E-02 0.  1.
        2   -1    0    0  501    0  0.00000000000E+00  0.00000000000E+00 -0.23282766498E+04  0.23282766498E+04  0.25500000920E-02 0. -1.
    10030    2    1    2    0    0  0.00000000000E+00  0.00000000000E+00 -0.10310320746E+04  0.36255212251E+04  0.34758275295E+04 0.  0.
        5    1    3    3  502    0  0.79628495030E+03 -0.41366266431E+03 -0.20679473569E+04  0.22542437497E+04  0.46999998093E+01 0. -1.
       -5    1    3    3    0  502 -0.79628495030E+03  0.41366266431E+03  0.10369152823E+04  0.13712774754E+04  0.46999998093E+01 0.  1.
</event>
<event>
 5   0  0.2936607E-07  0.3510990E+04  0.7818609E-02  0.8111190E-01
        1   -1    0    0  501    0  0.00000000000E+00  0.00000000000E+00  0.13550330473E+04  0.13550330473E+04  0.50400001928E-02 0. -1.
       -1   -1    0    0    0  501  0.00000000000E+00  0.00000000000E+00 -0.22743079458E+04  0.22743079458E+04  0.50400001928E-02 0.  1.
    10030    2    1    2    0    0  0.00000000000E+00  0.00000000000E+00 -0.91927489855E+03  0.36293409932E+04  0.35109898470E+04 0.  0.
        2    1    3    3  502    0  0.81019403116E+03  0.15572925831E+04 -0.44546888949E+03  0.18110817455E+04  0.25500000920E-02 0. -1.
       -2    1    3    3    0  502 -0.81019403116E+03 -0.15572925831E+04 -0.47380600906E+03  0.18182592476E+04  0.25500000920E-02 0.  1.
</event>
<event>
 5   0  0.3061330E-07  0.3503101E+04  0.7818609E-02  0.8113056E-01
        1   -1    0    0  501    0  0.00000000000E+00  0.00000000000E+00  0.12703920092E+04  0.12703920092E+04  0.50400001928E-02 0.  1.
       -1   -1    0    0    0  501  0.00000000000E+00  0.00000000000E+00 -0.24149463442E+04  0.24149463442E+04  0.50400001928E-02 0. -1.
    10030    2    1    2    0    0  0.00000000000E+00  0.00000000000E+00 -0.11445543351E+04  0.36853383534E+04  0.35031006484E+04 0.  0.
        5    1    3    3  502    0 -0.11140385398E+04 -0.60007465070E+03  0.70181421522E+03  0.14469750299E+04  0.46999998093E+01 0.  1.
       -5    1    3    3    0  502  0.11140385398E+04  0.60007465070E+03 -0.18463685503E+04  0.22383633235E+04  0.46999998093E+01 0. -1.
</event>
<event>
 5   0  0.9128871E-07  0.3473968E+04  0.7818609E-02  0.8119987E-01
       -2   -1    0    0    0  501  0.00000000000E+00  0.00000000000E+00  0.19303052504E+04  0.19303052504E+04  0.25500000920E-02 0.  1.
        2   -1    0    0  501    0  0.00000000000E+00  0.00000000000E+00 -0.15630241388E+04  0.15630241389E+04  0.25500000920E-02 0. -1.
    10030    2    1    2    0    0  0.00000000000E+00  0.00000000000E+00  0.36728111160E+03  0.34933293893E+04  0.34739681644E+04 0.  0.
        1    1    3    3  502    0 -0.46167719319E+03  0.10654675783E+04  0.14826398487E+04  0.18832386764E+04  0.50400001928E-02 0.  1.
       -1    1    3    3    0  502  0.46167719319E+03 -0.10654675783E+04 -0.11153587371E+04  0.16100907129E+04  0.50400001928E-02 0. -1.
</event>
<event>
 5   0  0.9311672E-07  0.3133742E+04  0.7818609E-02  0.8206538E-01
        2   -1    0    0  501    0  0.00000000000E+00  0.00000000000E+00  0.17218222892E+04  0.17218222893E+04  0.25500000920E-02 0. -1.
       -2   -1    0    0    0  501  0.00000000000E+00  0.00000000000E+00 -0.14258641640E+04  0.14258641640E+04  0.25500000920E-02 0.  1.
    10030    2    1    2    0    0  0.00000000000E+00  0.00000000000E+00  0.29595812523E+03  0.31476864533E+04  0.31337419798E+04 0.  0.
        4    1    3    3  502    0  0.88958595882E+03  0.99636622704E+03 -0.67479606804E+03  0.14964826036E+04  0.12699999809E+01 0.  1.
       -4    1    3    3    0  502 -0.88958595882E+03 -0.99636622704E+03  0.97075419327E+03  0.16512038497E+04  0.12699999809E+01 0. -1.
</event>
<event>
 5   0  0.8950809E-07  0.3516061E+04  0.7818609E-02  0.8109994E-01
        2   -1    0    0  501    0  0.00000000000E+00  0.00000000000E+00  0.25438176027E+04  0.25438176027E+04  0.25500000920E-02 0. -1.
       -2   -1    0    0    0  501  0.00000000000E+00  0.00000000000E+00 -0.12149733684E+04  0.12149733685E+04  0.25500000920E-02 0.  1.
    10030    2    1    2    0    0  0.00000000000E+00  0.00000000000E+00  0.13288442342E+04  0.37587909711E+04  0.35160606601E+04 0.  0.
        2    1    3    3  502    0  0.60697167238E+03  0.10426299261E+02  0.24282151740E+04  0.25029487111E+04  0.25500000920E-02 0. -1.
       -2    1    3    3    0  502 -0.60697167238E+03 -0.10426299261E+02 -0.10993709398E+04  0.12558422601E+04  0.25500000920E-02 0.  1.
</event>
<event>
 5   0  0.8950809E-07  0.3525359E+04  0.7818609E-02  0.8107806E-01
        2   -1    0    0  501    0  0.00000000000E+00  0.00000000000E+00  0.18531038465E+04  0.18531038465E+04  0.25500000920E-02 0. -1.
       -2   -1    0    0    0  501  0.00000000000E+00  0.00000000000E+00 -0.16766672432E+04  0.16766672432E+04  0.25500000920E-02 0.  1.
    10030    2    1    2    0    0  0.00000000000E+00  0.00000000000E+00  0.17643660336E+03  0.35297710897E+04  0.35253587152E+04 0.  0.
        2    1    3    3  502    0 -0.13646125874E+04  0.14347549022E+03  0.11960776621E+04  0.18202622074E+04  0.25500000920E-02 0. -1.
       -2    1    3    3    0  502  0.13646125874E+04 -0.14347549022E+03 -0.10196410588E+04  0.17095088823E+04  0.25500000920E-02 0.  1.
</event>
<event>
 5   0  0.8845195E-07  0.3497935E+04  0.7818609E-02  0.8114280E-01
        2   -1    0    0  501    0  0.00000000000E+00  0.00000000000E+00  0.26709521905E+04  0.26709521905E+04  0.25500000920E-02 0.  1.
       -2   -1    0    0    0  501  0.00000000000E+00  0.00000000000E+00 -0.11452422289E+04  0.11452422289E+04  0.25500000920E-02 0. -1.
    10030    2    1    2    0    0  0.00000000000E+00  0.00000000000E+00  0.15257099617E+04  0.38161944194E+04  0.34979349565E+04 0.  0.
        5    1    3    3  502    0  0.90750225343E+03 -0.14914709390E+04  0.64937551016E+03  0.18627282531E+04  0.46999998093E+01 0. -1.
       -5    1    3    3    0  502 -0.90750225343E+03  0.14914709390E+04  0.87633445151E+03  0.19534661663E+04  0.46999998093E+01 0.  1.
</event>
<event>
 5   0  0.3026332E-07  0.3504699E+04  0.7818609E-02  0.8112677E-01
        1   -1    0    0  501    0  0.00000000000E+00  0.00000000000E+00  0.17273366168E+04  0.17273366169E+04  0.50400001928E-02 0.  1.
       -1   -1    0    0    0  501  0.00000000000E+00  0.00000000000E+00 -0.17777248854E+04  0.17777248854E+04  0.50400001928E-02 0. -1.
    10030    2    1    2    0    0  0.00000000000E+00  0.00000000000E+00 -0.50388268531E+02  0.35050615022E+04  0.35046992962E+04 0.  0.
        1    1    3    3  502    0 -0.94459321132E+03  0.41046943262E+03  0.13926927723E+04  0.17321474094E+04  0.50400001928E-02 0.  1.
       -1    1    3    3    0  502  0.94459321132E+03 -0.41046943262E+03 -0.14430810408E+04  0.17729140928E+04  0.50400001928E-02 0. -1.
</event>
<event>
 5   0  0.8845195E-07  0.3507737E+04  0.7818609E-02  0.8111959E-01
        2   -1    0    0  501    0  0.00000000000E+00  0.00000000000E+00  0.25335468953E+04  0.25335468953E+04  0.25500000920E-02 0.  1.
       -2   -1    0    0    0  501  0.00000000000E+00  0.00000000000E+00 -0.12141294339E+04  0.12141294339E+04  0.25500000920E-02 0. -1.
    10030    2    1    2    0    0  0.00000000000E+00  0.00000000000E+00  0.13194174614E+04  0.37476763292E+04  0.35077365111E+04 0.  0.
        5    1    3    3  502    0 -0.67832785667E+03  0.23760858764E+02 -0.10681135365E+04  0.12655362011E+04  0.46999998093E+01 0. -1.
       -5    1    3    3    0  502  0.67832785667E+03 -0.23760858764E+02  0.23875309979E+04  0.24821401281E+04  0.46999998093E+01 0.  1.
</event>
<event>
 5   0  0.9128871E-07  0.3513390E+04  0.7818609E-02  0.8110624E-01
       -2   -1    0    0    0  501  0.00000000000E+00  0.00000000000E+00  0.14482912479E+04  0.14482912479E+04  0.25500000920E-02 0. -1.
        2   -1    0    0  501    0  0.00000000000E+00  0.00000000000E+00 -0.21307709516E+04  0.21307709516E+04  0.25500000920E-02 0.  1.
    10030    2    1    2    0    0  0.00000000000E+00  0.00000000000E+00 -0.68247970364E+03  0.35790621995E+04  0.35133897709E+04 0.  0.
        1    1    3    3  502    0  0.56488235042E+03 -0.13428140749E+04 -0.13412899958E+04  0.19802274017E+04  0.50400001928E-02 0.  1.
       -1    1    3    3    0  502 -0.56488235042E+03  0.13428140749E+04  0.65881029218E+03  0.15988347978E+04  0.50400001928E-02 0. -1.
</event>
<event>
 5   0  0.2933506E-07  0.3483005E+04  0.7818609E-02  0.8117829E-01
        1   -1    0    0  501    0  0.00000000000E+00  0.00000000000E+00  0.18026070774E+04  0.18026070775E+04  0.50400001928E-02 0. -1.
       -1   -1    0    0    0  501  0.00000000000E+00  0.00000000000E+00 -0.16824696773E+04  0.16824696773E+04  0.50400001928E-02 0.  1.
    10030    2    1    2    0    0  0.00000000000E+00  0.00000000000E+00  0.12013740015E+03  0.34850767547E+04  0.34830054539E+04 0.  0.
        4    1    3    3  502    0  0.43551960119E+03 -0.15490501236E+04  0.72649520489E+03  0.17655114002E+04  0.12699999809E+01 0. -1.
       -4    1    3    3    0  502 -0.43551960119E+03  0.15490501236E+04 -0.60635780473E+03  0.17195653546E+04  0.12699999809E+01 0.  1.
</event>
<event>
 5   0  0.2972541E-07  0.3529651E+04  0.7818609E-02  0.8106799E-01
        1   -1    0    0  501    0  0.00000000000E+00  0.00000000000E+00  0.16591591395E+04  0.16591591395E+04  0.50400001928E-02 0.  1.
       -1   -1    0    0    0  501  0.00000000000E+00  0.00000000000E+00 -0.18772213171E+04  0.18772213171E+04  0.50400001928E-02 0. -1.
    10030    2    1    2    0    0  0.00000000000E+00  0.00000000000E+00 -0.21806217760E+03  0.35363804567E+04  0.35296509206E+04 0.  0.
        3    1    3    3  502    0 -0.98809117143E+03 -0.92190996236E+02 -0.15711919815E+04  0.18583507730E+04  0.10100000352E+00 0. -1.
       -3    1    3    3    0  502  0.98809117143E+03  0.92190996236E+02  0.13531298039E+04  0.16780296836E+04  0.10100000352E+00 0.  1.
</event>
<event>
 5   0  0.8845195E-07  0.3501197E+04  0.7818609E-02  0.8113506E-01
       -2   -1    0    0    0  501  0.00000000000E+00  0.00000000000E+00  0.18911955370E+04  0.18911955370E+04  0.25500000920E-02 0. -1.
        2   -1    0    0  501    0  0.00000000000E+00  0.00000000000E+00 -0.16204534000E+04  0.16204534000E+04  0.25500000920E-02 0.  1.
    10030    2    1    2    0    0  0.00000000000E+00  0.00000000000E+00  0.27074213697E+03  0.35116489370E+04  0.35011965029E+04 0.  0.
        5    1    3    3  502    0  0.71780368025E+03  0.15946120423E+04  0.21649801116E+03  0.17620792172E+04  0.46999998093E+01 0.  1.
       -5    1    3    3    0  502 -0.71780368025E+03 -0.15946120423E+04  0.54244125816E+02  0.17495697197E+04  0.46999998093E+01 0. -1.
</event>
<event>
 5   0  0.8845195E-07  0.3514712E+04  0.7818609E-02  0.8110312E-01
        2   -1    0    0  501    0  0.00000000000E+00  0.00000000000E+00  0.18362184010E+04  0.18362184010E+04  0.25500000920E-02 0. -1.
       -2   -1    0    0    0  501  0.00000000000E+00  0.00000000000E+00 -0.16818806347E+04  0.16818806347E+04  0.25500000920E-02 0.  1.
    10030    2    1    2    0    0  0.00000000000E+00  0.00000000000E+00  0.15433776623E+03  0.35180990357E+04  0.35147120336E+04 0.  0.
        5    1    3    3  502    0  0.32581942294E+03 -0.98888201037E+03 -0.13399044487E+04  0.16968830096E+04  0.46999998093E+01 0.  1.
       -5    1    3    3    0  502 -0.32581942294E+03  0.98888201037E+03  0.14942422149E+04  0.18212160261E+04  0.46999998093E+01 0. -1.
</event>
<event>
 5   0  0.8950809E-07  0.3490903E+04  0.7818609E-02  0.8115949E-01
       -2   -1    0    0    0  501  0.00000000000E+00  0.00000000000E+00  0.13953223912E+04  0.13953223912E+04  0.25500000920E-02 0. -1.
        2   -1    0    0  501    0  0.00000000000E+00  0.00000000000E+00 -0.21834387760E+04  0.21834387760E+04  0.25500000920E-02 0.  1.
    10030    2    1    2    0    0  0.00000000000E+00  0.00000000000E+00 -0.78811638484E+03  0.35787611672E+04  0.34909030431E+04 0.  0.
        2    1    3    3  502    0 -0.29582735827E+03  0.40188338482E+03 -0.21087495093E+04  0.21669906723E+04  0.25500000920E-02 0.  1.
       -2    1    3    3    0  502  0.29582735827E+03 -0.40188338482E+03  0.13206331245E+04  0.14117704949E+04  0.25500000920E-02 0. -1.
</event>
<event>
 5   0  0.9311672E-07  0.3144331E+04  0.7818609E-02  0.8203676E-01
        2   -1    0    0  501    0  0.00000000000E+00  0.00000000000E+00  0.19025024341E+04  0.19025024341E+04  0.25500000920E-02 0.  1.
       -2   -1    0    0    0  501  0.00000000000E+00  0.00000000000E+00 -0.12991860507E+04  0.12991860507E+04  0.25500000920E-02 0. -1.
    10030    2    1    2    0    0  0.00000000000E+00  0.00000000000E+00  0.60331638348E+03  0.32016884848E+04  0.31443311682E+04 0.  0.
        4    1    3    3  502    0 -0.11391244731E+04  0.39804918383E+03  0.13278391730E+04  0.17942146472E+04  0.12699999809E+01 0.  1.
       -4    1    3    3    0  502  0.11391244731E+04 -0.39804918383E+03 -0.72452278956E+03  0.14074738376E+04  0.12699999809E+01 0. -1.
</event>
<event>
 5   0  0.3026332E-07  0.3492295E+04  0.7818609E-02  0.8115618E-01
        1   -1    0    0  501    0  0.00000000000E+00  0.00000000000E+00  0.14692916012E+04  0.14692916012E+04  0.50400001928E-02 0. -1.
       -1   -1    0    0    0  501  0.00000000000E+00  0.00000000000E+00 -0.20751705709E+04  0.20751705709E+04  0.50400001928E-02 0.  1.
    10030    2    1    2    0    0  0.00000000000E+00  0.00000000000E+00 -0.60587896968E+03  0.35444621721E+04  0.34922947704E+04 0.  0.
        1    1    3    3  502    0  0.37107126262E+03 -0.16459616920E+04  0.15338420295E+03  0.16942285817E+04  0.50400001928E-02 0. -1.
       -1    1    3    3    0  502 -0.37107126262E+03  0.16459616920E+04 -0.75926317262E+03  0.18502335903E+04  0.50400001928E-02 0.  1.
</event>
<event>
 5   0  0.3026332E-07  0.3362781E+04  0.7818609E-02  0.8147102E-01
        1   -1    0    0  501    0  0.00000000000E+00  0.00000000000E+00  0.17401129681E+04  0.17401129681E+04  0.50400001928E-02 0.  1.
       -1   -1    0    0    0  501  0.00000000000E+00  0.00000000000E+00 -0.16246498258E+04  0.16246498258E+04  0.50400001928E-02 0. -1.
    10030    2    1    2    0    0  0.00000000000E+00  0.00000000000E+00  0.11546314233E+03  0.33647627939E+04  0.33627811291E+04 0.  0.
        1    1    3    3  502    0 -0.38569906974E+03 -0.99696476999E+03  0.13563298419E+04  0.17269433011E+04  0.50400001928E-02 0.  1.
       -1    1    3    3    0  502  0.38569906974E+03  0.99696476999E+03 -0.12408666996E+04  0.16378194928E+04  0.50400001928E-02 0. -1.
</event>
<event>
 5   0  0.2972541E-07  0.3535086E+04  0.7818609E-02  0.8105525E-01
        1   -1    0    0  501    0  0.00000000000E+00  0.00000000000E+00  0.12082762474E+04  0.12082762474E+04  0.50400001928E-02 0. -1.
       -1   -1    0    0    0  501  0.00000000000E+00  0.00000000000E+00 -0.25856742190E+04  0.25856742190E+04  0.50400001928E-02 0.  1.
    10030    2    1    2    0    0  0.00000000000E+00  0.00000000000E+00 -0.13773979716E+04  0.37939504663E+04  0.35350862746E+04 0.  0.
        3    1    3    3  502    0  0.22152200996E+03 -0.14369303028E+04  0.39007741758E+03  0.15053242501E+04  0.10100000352E+00 0. -1.
       -3    1    3    3    0  502 -0.22152200996E+03  0.14369303028E+04 -0.17674753892E+04  0.22886262162E+04  0.10100000352E+00 0.  1.
</event>
<event>
 5   0  0.9128871E-07  0.2965987E+04  0.7818609E-02  0.8253511E-01
       -2   -1    0    0    0  501  0.00000000000E+00  0.00000000000E+00  0.12770696475E+04  0.12770696475E+04  0.25500000920E-02 0.  1.
        2   -1    0    0  501    0  0.00000000000E+00  0.00000000000E+00 -0.17221222325E+04  0.17221222325E+04  0.25500000920E-02 0. -1.
    10030    2    1    2    0    0  0.00000000000E+00  0.00000000000E+00 -0.44505258503E+03  0.29991918800E+04  0.29659872100E+04 0.  0.
        1    1    3    3  502    0  0.13454342474E+03  0.19482527591E+03 -0.17028867089E+04  0.17192678571E+04  0.50400001928E-02 0. -1.
       -1    1    3    3    0  502 -0.13454342474E+03 -0.19482527591E+03  0.12578341239E+04  0.12799240229E+04  0.50400001928E-02 0.  1.
</event>
<event>
 5   0  0.3061330E-07  0.3456686E+04  0.7818609E-02  0.8124132E-01
        1   -1    0    0  501    0  0.00000000000E+00  0.00000000000E+00  0.19534254550E+04  0.19534254550E+04  0.50400001928E-02 0. -1.
       -1   -1    0    0    0  501  0.00000000000E+00  0.00000000000E+00 -0.15291955164E+04  0.15291955164E+04  0.50400001928E-02 0.  1.
    10030    2    1    2    0    0  0.00000000000E+00  0.00000000000E+00  0.42422993862E+03  0.34826209713E+04  0.34566859547E+04 0.  0.
        5    1    3    3  502    0 -0.31736833601E+03 -0.38275099622E+03 -0.14555765955E+04  0.15381632882E+04  0.46999998093E+01 0.  1.
       -5    1    3    3    0  502  0.31736833601E+03  0.38275099622E+03  0.18798065341E+04  0.19444576831E+04  0.46999998093E+01 0. -1.
</event>
<event>
 5   0  0.9311672E-07  0.3520838E+04  0.7818609E-02  0.8108869E-01
       -2   -1    0    0    0  501  0.00000000000E+00  0.00000000000E+00  0.13755498825E+04  0.13755498825E+04  0.25500000920E-02 0.  1.
        2   -1    0    0  501    0  0.00000000000E+00  0.00000000000E+00 -0.22529715195E+04  0.22529715195E+04  0.25500000920E-02 0. -1.
    10030    2    1    2    0    0  0.00000000000E+00  0.00000000000E+00 -0.87742163698E+03  0.36285214019E+04  0.35208378030E+04 0.  0.
        4    1    3    3  502    0 -0.15734028644E+04  0.70830509520E+03 -0.79835446640E+03  0.19012270113E+04  0.12699999809E+01 0.  1.
       -4    1    3    3    0  502  0.15734028644E+04 -0.70830509520E+03 -0.79067170578E+02  0.17272943906E+04  0.12699999809E+01 0. -1.
</event>
<event>
 5   0  0.2933506E-07  0.3510979E+04  0.7818609E-02  0.8111193E-01
        1   -1    0    0  501    0  0.00000000000E+00  0.00000000000E+00  0.19528132197E+04  0.19528132197E+04  0.50400001928E-02 0.  1.
       -1   -1    0    0    0  501  0.00000000000E+00  0.00000000000E+00 -0.15781045554E+04  0.15781045554E+04  0.50400001928E-02 0. -1.
    10030    2    1    2    0    0  0.00000000000E+00  0.00000000000E+00  0.37470866434E+03  0.35309177751E+04  0.35109790303E+04 0.  0.
        4    1    3    3  502    0 -0.66279815952E+03 -0.10657549233E+04 -0.10470554085E+04  0.16344606444E+04  0.12699999809E+01 0. -1.
       -4    1    3    3    0  502  0.66279815952E+03  0.10657549233E+04  0.14217640728E+04  0.18964571307E+04  0.12699999809E+01 0.  1.
</event>
<event>
 5   0  0.3061330E-07  0.3498484E+04  0.7818609E-02  0.8114149E-01
        1   -1    0    0  501    0  0.00000000000E+00  0.00000000000E+00  0.24826018858E+04  0.24826018858E+04  0.50400001928E-02 0. -1.
       -1   -1    0    0    0  501  0.00000000000E+00  0.00000000000E+00 -0.12325162931E+04  0.12325162931E+04  0.50400001928E-02 0.  1.
    10030    2    1    2    0    0  0.00000000000E+00  0.00000000000E+00  0.12500855927E+04  0.37151181789E+04  0.34984838279E+04 0.  0.
        5    1    3    3  502    0 -0.52711529186E+03 -0.13199897255E+04  0.17077880018E+04  0.22218877909E+04  0.46999998093E+01 0. -1.
       -5    1    3    3    0  502  0.52711529186E+03  0.13199897255E+04 -0.45770240908E+03  0.14932303880E+04  0.46999998093E+01 0.  1.
</event>
<event>
 5   0  0.9128871E-07  0.3477264E+04  0.7818609E-02  0.8119199E-01
        2   -1    0    0  501    0  0.00000000000E+00  0.00000000000E+00  0.19655955412E+04  0.19655955412E+04  0.25500000920E-02 0.  1.
       -2   -1    0    0    0  501  0.00000000000E+00  0.00000000000E+00 -0.15378750877E+04  0.15378750877E+04  0.25500000920E-02 0. -1.
    10030    2    1    2    0    0  0.00000000000E+00  0.00000000000E+00  0.42772045350E+03  0.35034706290E+04  0.34772635307E+04 0.  0.
        1    1    3    3  502    0  0.16088037394E+04  0.65486365690E+03  0.29022415940E+03  0.17610581887E+04  0.50400001928E-02 0.  1.
       -1    1    3    3    0  502 -0.16088037394E+04 -0.65486365690E+03  0.13749629410E+03  0.17424124403E+04  0.50400001928E-02 0. -1.
</event>
<event>
 5   0  0.2972541E-07  0.3458120E+04  0.7818609E-02  0.8123787E-01
        1   -1    0    0  501    0  0.00000000000E+00  0.00000000000E+00  0.17220811948E+04  0.17220811949E+04  0.50400001928E-02 0. -1.
       -1   -1    0    0    0  501  0.00000000000E+00  0.00000000000E+00 -0.17360666966E+04  0.17360666966E+04  0.50400001928E-02 0.  1.
    10030    2    1    2    0    0  0.00000000000E+00  0.00000000000E+00 -0.13985501750E+02  0.34581478915E+04  0.34581196111E+04 0.  0.
        3    1    3    3  502    0 -0.89932229240E+03  0.76635318698E+03  0.12553844006E+04  0.17239686181E+04  0.10100000352E+00 0. -1.
       -3    1    3    3    0  502  0.89932229240E+03 -0.76635318698E+03 -0.12693699024E+04  0.17341792733E+04  0.10100000352E+00 0.  1.
</event>
<event>
 5   0  0.8950809E-07  0.3445140E+04  0.7818609E-02  0.8126916E-01
       -2   -1    0    0    0  501  0.00000000000E+00  0.00000000000E+00  0.21630214323E+04  0.21630214323E+04  0.25500000920E-02 0. -1.
        2   -1    0    0  501    0  0.00000000000E+00  0.00000000000E+00 -0.13718066594E+04  0.13718066594E+04  0.25500000920E-02 0.  1.
    10030    2    1    2    0    0  0.00000000000E+00  0.00000000000E+00  0.79121477294E+03  0.35348280918E+04  0.34451398841E+04 0.  0.
        2    1    3    3  502    0 -0.32134849535E+03  0.14511875899E+03 -0.13343841477E+04  0.13801830905E+04  0.25500000920E-02 0.  1.
       -2    1    3    3    0  502  0.32134849535E+03 -0.14511875899E+03  0.21255989207E+04  0.21546450012E+04  0.25500000920E-02 0. -1.
</event>
<event>
 5   0  0.8950809E-07  0.3492898E+04  0.7818609E-02  0.8115475E-01
        2   -1    0    0  501    0  0.00000000000E+00  0.00000000000E+00  0.26232383141E+04  0.26232383141E+04  0.25500000920E-02 0. -1.
       -2   -1    0    0    0  501  0.00000000000E+00  0.00000000000E+00 -0.11627168232E+04  0.11627168232E+04  0.25500000920E-02 0.  1.
    10030    2    1    2    0    0  0.00000000000E+00  0.00000000000E+00  0.14605214909E+04  0.37859551372E+04  0.34928975473E+04 0.  0.
        2    1    3    3  502    0  0.16421845888E+04 -0.51672820427E+03  0.41183531763E+03  0.17701374494E+04  0.25500000920E-02 0. -1.
       -2    1    3    3    0  502 -0.16421845888E+04  0.51672820427E+03  0.10486861732E+04  0.20158176879E+04  0.25500000920E-02 0.  1.
</event>
<event>
 5   0  0.9311672E-07  0.3497347E+04  0.7818609E-02  0.8114419E-01
        2   -1    0    0  501    0  0.00000000000E+00  0.00000000000E+00  0.21321741342E+04  0.21321741342E+04  0.25500000920E-02 0.  1.
       -2   -1    0    0    0  501  0.00000000000E+00  0.00000000000E+00 -0.14341510202E+04  0.14341510202E+04  0.25500000920E-02 0. -1.
    10030    2    1    2    0    0  0.00000000000E+00  0.00000000000E+00  0.69802311396E+03  0.35663251544E+04  0.34973474004E+04 0.  0.
        4    1    3    3  502    0  0.44760562882E+03  0.27210639429E+02 -0.13745212869E+04  0.14458221187E+04  0.12699999809E+01 0. -1.
       -4    1    3    3    0  502 -0.44760562882E+03 -0.27210639429E+02  0.20725444009E+04  0.21205030357E+04  0.12699999809E+01 0.  1.
</event>
<event>
 5   0  0.6188930E-07  0.3340537E+04  0.7818609E-02  0.8152657E-01
        2   -1    0    0  501    0  0.00000000000E+00  0.00000000000E+00  0.20916946539E+04  0.20916946539E+04  0.25500000920E-02 0. -1.
       -2   -1    0    0    0  501  0.00000000000E+00  0.00000000000E+00 -0.13337491940E+04  0.13337491940E+04  0.25500000920E-02 0.  1.
    10030    2    1    2    0    0  0.00000000000E+00  0.00000000000E+00  0.75794545994E+03  0.34254438479E+04  0.33405365190E+04 0.  0.
        3    1    3    3  502    0 -0.13339519981E+04 -0.20851463411E+03  0.13872712037E+04  0.19358273913E+04  0.10100000352E+00 0. -1.
       -3    1    3    3    0  502  0.13339519981E+04  0.20851463411E+03 -0.62932574378E+03  0.14896164566E+04  0.10100000352E+00 0.  1.
</event>
<event>
 5   0  0.9128871E-07  0.3495402E+04  0.7818609E-02  0.8114881E-01
       -2   -1    0    0    0  501  0.00000000000E+00  0.00000000000E+00  0.16501880150E+04  0.16501880150E+04  0.25500000920E-02 0.  1.
        2   -1    0    0  501    0  0.00000000000E+00  0.00000000000E+00 -0.18509760908E+04  0.18509760908E+04  0.25500000920E-02 0. -1.
    10030    2    1    2    0    0  0.00000000000E+00  0.00000000000E+00 -0.20078807576E+03  0.35011641058E+04  0.34954018716E+04 0.  0.
        1    1    3    3  502    0  0.55627836641E+03  0.13445518481E+04  0.86928929987E+03  0.16949717343E+04  0.50400001928E-02 0.  1.
       -1    1    3    3    0  502 -0.55627836641E+03 -0.13445518481E+04 -0.10700773756E+04  0.18061923715E+04  0.50400001928E-02 0. -1.
</event>
<event>
 5   0  0.6188930E-07  0.3282842E+04  0.7818609E-02  0.8167275E-01
       -2   -1    0    0    0  501  0.00000000000E+00  0.00000000000E+00  0.14967869855E+04  0.14967869855E+04  0.25500000920E-02 0.  1.
        2   -1    0    0  501    0  0.00000000000E+00  0.00000000000E+00 -0.18000307418E+04  0.18000307418E+04  0.25500000920E-02 0. -1.
    10030    2    1    2    0    0  0.00000000000E+00  0.00000000000E+00 -0.30324375627E+03  0.32968177273E+04  0.32828418103E+04 0.  0.
        3    1    3    3  502    0 -0.80290387359E+03  0.11189725892E+04 -0.10484569518E+04  0.17309004234E+04  0.10100000352E+00 0. -1.
       -3    1    3    3    0  502  0.80290387359E+03 -0.11189725892E+04  0.74521319557E+03  0.15659173039E+04  0.10100000352E+00 0.  1.
</event>
<event>
 5   0  0.2936607E-07  0.3823231E+04  0.7818609E-02  0.8041188E-01
        1   -1    0    0  501    0  0.00000000000E+00  0.00000000000E+00  0.18361615143E+04  0.18361615143E+04  0.50400001928E-02 0.  1.
       -1   -1    0    0    0  501  0.00000000000E+00  0.00000000000E+00 -0.19901705738E+04  0.19901705738E+04  0.50400001928E-02 0. -1.
    10030    2    1    2    0    0  0.00000000000E+00  0.00000000000E+00 -0.15400905950E+03  0.38263320881E+04  0.38232314157E+04 0.  0.
        2    1    3    3  502    0 -0.46798445664E+03 -0.18532507551E+04 -0.10398565222E+03  0.19142520285E+04  0.25500000920E-02 0. -1.
       -2    1    3    3    0  502  0.46798445664E+03  0.18532507551E+04 -0.50023407283E+02  0.19120800596E+04  0.25500000920E-02 0.  1.
</event>
<event>
 5   0  0.2972541E-07  0.3502693E+04  0.7818609E-02  0.8113152E-01
       -1   -1    0    0    0  501  0.00000000000E+00  0.00000000000E+00  0.20053928997E+04  0.20053928998E+04  0.50400001928E-02 0.  1.
        1   -1    0    0  501    0  0.00000000000E+00  0.00000000000E+00 -0.15294834011E+04  0.15294834012E+04  0.50400001928E-02 0. -1.
    10030    2    1    2    0    0  0.00000000000E+00  0.00000000000E+00  0.47590949860E+03  0.35348763009E+04  0.35026933368E+04 0.  0.
        3    1    3    3  502    0 -0.15608591997E+03 -0.88103408733E+03 -0.12814117349E+04  0.15628819284E+04  0.10100000352E+00 0. -1.
       -3    1    3    3    0  502  0.15608591997E+03  0.88103408733E+03  0.17573212335E+04  0.19719943726E+04  0.10100000352E+00 0.  1.
</event>
<event>
 5   0  0.9311672E-07  0.3515724E+04  0.7818609E-02  0.8110074E-01
        2   -1    0    0  501    0  0.00000000000E+00  0.00000000000E+00  0.19580500931E+04  0.19580500931E+04  0.25500000920E-02 0.  1.
       -2   -1    0    0    0  501  0.00000000000E+00  0.00000000000E+00 -0.15781412373E+04  0.15781412373E+04  0.25500000920E-02 0. -1.
    10030    2    1    2    0    0  0.00000000000E+00  0.00000000000E+00  0.37990885577E+03  0.35361913305E+04  0.35157244470E+04 0.  0.
        4    1    3    3  502    0  0.38324229489E+03  0.12902927550E+04 -0.94726812301E+03  0.16459187586E+04  0.12699999809E+01 0. -1.
       -4    1    3    3    0  502 -0.38324229489E+03 -0.12902927550E+04  0.13271769788E+04  0.18902725719E+04  0.12699999809E+01 0.  1.
</event>
<event>
 5   0  0.8950809E-07  0.3507118E+04  0.7818609E-02  0.8112105E-01
        2   -1    0    0  501    0  0.00000000000E+00  0.00000000000E+00  0.18406406590E+04  0.18406406590E+04  0.25500000920E-02 0.  1.
       -2   -1    0    0    0  501  0.00000000000E+00  0.00000000000E+00 -0.16705971644E+04  0.16705971644E+04  0.25500000920E-02 0. -1.
    10030    2    1    2    0    0  0.00000000000E+00  0.00000000000E+00  0.17004349451E+03  0.35112378234E+04  0.35071179425E+04 0.  0.
        2    1    3    3  502    0  0.12968407522E+04 -0.11792950727E+04  0.13443822028E+03  0.17580120705E+04  0.25500000920E-02 0.  1.
       -2    1    3    3    0  502 -0.12968407522E+04  0.11792950727E+04  0.35605274226E+02  0.17532257529E+04  0.25500000920E-02 0. -1.
</event>
<event>
 5   0  0.3061330E-07  0.3497193E+04  0.7818609E-02  0.8114456E-01
       -1   -1    0    0    0  501  0.00000000000E+00  0.00000000000E+00  0.17731474946E+04  0.17731474946E+04  0.50400001928E-02 0. -1.
        1   -1    0    0  501    0  0.00000000000E+00  0.00000000000E+00 -0.17243852487E+04  0.17243852487E+04  0.50400001928E-02 0.  1.
    10030    2    1    2    0    0  0.00000000000E+00  0.00000000000E+00  0.48762245956E+02  0.34975327433E+04  0.34971928076E+04 0.  0.
        5    1    3    3  502    0 -0.95870126076E+03  0.12281642991E+04 -0.76946655477E+03  0.17376986280E+04  0.46999998093E+01 0.  1.
       -5    1    3    3    0  502  0.95870126076E+03 -0.12281642991E+04  0.81822880072E+03  0.17598341153E+04  0.46999998093E+01 0. -1.
</event>
<event>
 5   0  0.2936607E-07  0.3492561E+04  0.7818609E-02  0.8115555E-01
       -1   -1    0    0    0  501  0.00000000000E+00  0.00000000000E+00  0.15627912450E+04  0.15627912450E+04  0.50400001928E-02 0. -1.
        1   -1    0    0  501    0  0.00000000000E+00  0.00000000000E+00 -0.19513138585E+04  0.19513138585E+04  0.50400001928E-02 0.  1.
    10030    2    1    2    0    0  0.00000000000E+00  0.00000000000E+00 -0.38852261345E+03  0.35141051035E+04  0.34925613606E+04 0.  0.
        2    1    3    3  502    0  0.30017037640E+03  0.71956648321E+03  0.13779451080E+04  0.15832279998E+04  0.25500000920E-02 0. -1.
       -2    1    3    3    0  502 -0.30017037640E+03 -0.71956648321E+03 -0.17664677215E+04  0.19308771037E+04  0.25500000920E-02 0.  1.
</event>
<event>
 5   0  0.8845195E-07  0.3442760E+04  0.7818609E-02  0.8127491E-01
        2   -1    0    0  501    0  0.00000000000E+00  0.00000000000E+00  0.22316198036E+04  0.22316198036E+04  0.25500000920E-02 0.  1.
       -2   -1    0    0    0  501  0.00000000000E+00  0.00000000000E+00 -0.13278019784E+04  0.13278019784E+04  0.25500000920E-02 0. -1.
    10030    2    1    2    0    0  0.00000000000E+00  0.00000000000E+00  0.90381782527E+03  0.35594217820E+04  0.34427600499E+04 0.  0.
        5    1    3    3  502    0 -0.15582968439E+04 -0.71940398956E+03  0.31593835988E+03  0.17451848874E+04  0.46999998093E+01 0. -1.
       -5    1    3    3    0  502  0.15582968439E+04  0.71940398956E+03  0.58787946539E+03  0.18142368946E+04  0.46999998093E+01 0.  1.
</event>
<event>
 5   0  0.8845195E-07  0.3622299E+04  0.7818609E-02  0.8085403E-01
        2   -1    0    0  501    0  0.00000000000E+00  0.00000000000E+00  0.19859390176E+04  0.19859390176E+04  0.25500000920E-02 0.  1.
       -2   -1    0    0    0  501  0.00000000000E+00  0.00000000000E+00 -0.16517437034E+04  0.16517437034E+04  0.25500000920E-02 0. -1.
    10030    2    1    2    0    0  0.00000000000E+00  0.00000000000E+00  0.33419531420E+03  0.36376827210E+04  0.36222988654E+04 0.  0.
        5    1    3    3  502    0  0.55026777738E+03 -0.59568521684E+03  0.17934212140E+04  0.19682523327E+04  0.46999998093E+01 0.  1.
       -5    1    3    3    0  502 -0.55026777738E+03  0.59568521684E+03 -0.14592258998E+04  0.16694303882E+04  0.46999998093E+01 0. -1.
</event>
<event>
 5   0  0.3026332E-07  0.3500314E+04  0.7818609E-02  0.8113715E-01
        1   -1    0    0  501    0  0.00000000000E+00  0.00000000000E+00  0.14809268751E+04  0.14809268752E+04  0.50400001928E-02 0.  1.
       -1   -1    0    0    0  501  0.00000000000E+00  0.00000000000E+00 -0.20683332438E+04  0.20683332438E+04  0.50400001928E-02 0. -1.
    10030    2    1    2    0    0  0.00000000000E+00  0.00000000000E+00 -0.58740636862E+03  0.35492601189E+04  0.35003144359E+04 0.  0.
        1    1    3    3  502    0 -0.12899835682E+04 -0.10892910907E+04  0.17365135383E+03  0.16972823805E+04  0.50400001928E-02 0.  1.
       -1    1    3    3    0  502  0.12899835682E+04  0.10892910907E+04 -0.76105772245E+03  0.18519777384E+04  0.50400001928E-02 0. -1.
</event>
<event>
 5   0  0.2933506E-07  0.3471784E+04  0.7818609E-02  0.8120510E-01
       -1   -1    0    0    0  501  0.00000000000E+00  0.00000000000E+00  0.11967390302E+04  0.11967390302E+04  0.50400001928E-02 0.  1.
        1   -1    0    0  501    0  0.00000000000E+00  0.00000000000E+00 -0.25179432391E+04  0.25179432391E+04  0.50400001928E-02 0. -1.
    10030    2    1    2    0    0  0.00000000000E+00  0.00000000000E+00 -0.13212042089E+04  0.37146822693E+04  0.34717839507E+04 0.  0.
        4    1    3    3  502    0 -0.96271756212E+03 -0.14186952891E+04 -0.36993826136E+03  0.17539604778E+04  0.12699999809E+01 0.  1.
       -4    1    3    3    0  502  0.96271756212E+03  0.14186952891E+04 -0.95126594758E+03  0.19607217915E+04  0.12699999809E+01 0. -1.
</event>
<event>
 5   0  0.9128871E-07  0.3491015E+04  0.7818609E-02  0.8115923E-01
       -2   -1    0    0    0  501  0.00000000000E+00  0.00000000000E+00  0.15527939741E+04  0.15527939741E+04  0.25500000920E-02 0. -1.
        2   -1    0    0  501    0  0.00000000000E+00  0.00000000000E+00 -0.19621380517E+04  0.19621380517E+04  0.25500000920E-02 0.  1.
    10030    2    1    2    0    0  0.00000000000E+00  0.00000000000E+00 -0.40934407751E+03  0.35149320258E+04  0.34910148341E+04 0.  0.
        1    1    3    3  502    0  0.11751481064E+04 -0.10751371358E+04  0.51429521381E+03  0.16737360902E+04  0.50400001928E-02 0.  1.
       -1    1    3    3    0  502 -0.11751481064E+04  0.10751371358E+04 -0.92363929133E+03  0.18411959356E+04  0.50400001928E-02 0. -1.
</event>
<event>
 5   0  0.3061330E-07  0.3491974E+04  0.7818609E-02  0.8115695E-01
       -1   -1    0    0    0  501  0.00000000000E+00  0.00000000000E+00  0.15146281207E+04  0.15146281207E+04  0.50400001928E-02 0.  1.
        1   -1    0    0  501    0  0.00000000000E+00  0.00000000000E+00 -0.20126855140E+04  0.20126855141E+04  0.50400001928E-02 0. -1.
    10030    2    1    2    0    0  0.00000000000E+00  0.00000000000E+00 -0.49805739336E+03  0.35273136347E+04  0.34919736985E+04 0.  0.
        5    1    3    3  502    0  0.59841366801E+03 -0.12513961271E+04  0.82205939073E+03  0.16124189644E+04  0.46999998093E+01 0.  1.
       -5    1    3    3    0  502 -0.59841366801E+03  0.12513961271E+04 -0.13201167841E+04  0.19148946703E+04  0.46999998093E+01 0. -1.
</event>
<event>
 5   0  0.6188930E-07  0.3486764E+04  0.7818609E-02  0.8116934E-01
        2   -1    0    0  501    0  0.00000000000E+00  0.00000000000E+00  0.17904783662E+04  0.17904783662E+04  0.25500000920E-02 0. -1.
       -2   -1    0    0    0  501  0.00000000000E+00  0.00000000000E+00 -0.16975245882E+04  0.16975245882E+04  0.25500000920E-02 0.  1.
    10030    2    1    2    0    0  0.00000000000E+00  0.00000000000E+00  0.92953777984E+02  0.34880029544E+04  0.34867641453E+04 0.  0.
        3    1    3    3  502    0  0.12522898639E+04 -0.54115250385E+03  0.11323601848E+04  0.17729397998E+04  0.10100000352E+00 0. -1.
       -3    1    3    3    0  502 -0.12522898639E+04  0.54115250385E+03 -0.10394064068E+04  0.17150631546E+04  0.10100000352E+00 0.  1.
</event>
<event>
 5   0  0.6188930E-07  0.3461020E+04  0.7818609E-02  0.8123090E-01
        2   -1    0    0  501    0  0.00000000000E+00  0.00000000000E+00  0.26140915443E+04  0.26140915443E+04  0.25500000920E-02 0.  1.
       -2   -1    0    0    0  501  0.00000000000E+00  0.00000000000E+00 -0.11455852379E+04  0.11455852379E+04  0.25500000920E-02 0. -1.
    10030    2    1    2    0    0  0.00000000000E+00  0.00000000000E+00  0.14685063063E+04  0.37596767822E+04  0.34610198981E+04 0.  0.
        3    1    3    3  502    0  0.62786538886E+02  0.36382974414E+03 -0.11023027438E+04  0.11624911102E+04  0.10100000352E+00 0. -1.
       -3    1    3    3    0  502 -0.62786538886E+02 -0.36382974414E+03  0.25708090501E+04  0.25971856720E+04  0.10100000352E+00 0.  1.
</event>
<event>
 5   0  0.9311672E-07  0.3432648E+04  0.7818609E-02  0.8129940E-01
       -2   -1    0    0    0  501  0.00000000000E+00  0.00000000000E+00  0.14339049836E+04  0.14339049836E+04  0.25500000920E-02 0. -1.
        2   -1    0    0  501    0  0.00000000000E+00  0.00000000000E+00 -0.20543677233E+04  0.20543677233E+04  0.25500000920E-02 0.  1.
    10030    2    1    2    0    0  0.00000000000E+00  0.00000000000E+00 -0.62046273974E+03  0.34882727069E+04  0.34326480254E+04 0.  0.
        4    1    3    3  502    0  0.11636056144E+03  0.60183799786E+03 -0.19393368960E+04  0.20339070689E+04  0.12699999809E+01 0.  1.
       -4    1    3    3    0  502 -0.11636056144E+03 -0.60183799786E+03  0.13188741563E+04  0.14543656380E+04  0.12699999809E+01 0. -1.
</event>
<event>
 5   0  0.9128871E-07  0.3109401E+04  0.7818609E-02  0.8213163E-01
        2   -1    0    0  501    0  0.00000000000E+00  0.00000000000E+00  0.34547735367E+04  0.34547735367E+04  0.25500000920E-02 0. -1.
       -2   -1    0    0    0  501  0.00000000000E+00  0.00000000000E+00 -0.69963881232E+03  0.69963881232E+03  0.25500000920E-02 0.  1.
    10030    2    1    2    0    0  0.00000000000E+00  0.00000000000E+00  0.27551347243E+04  0.41544123490E+04  0.31094010060E+04 0.  0.
        1    1    3    3  502    0  0.21453055628E+03 -0.98485428345E+03 -0.20394446332E+03  0.10283747679E+04  0.50400001928E-02 0.  1.
       -1    1    3    3    0  502 -0.21453055628E+03  0.98485428345E+03  0.29590791877E+04  0.31260375810E+04  0.50400001928E-02 0. -1.
</event>
<event>
 5   0  0.2936607E-07  0.3498288E+04  0.7818609E-02  0.8114196E-01
       -1   -1    0    0    0  501  0.00000000000E+00  0.00000000000E+00  0.12701976445E+04  0.12701976445E+04  0.50400001928E-02 0. -1.
        1   -1    0    0  501    0  0.00000000000E+00  0.00000000000E+00 -0.24086845426E+04  0.24086845426E+04  0.50400001928E-02 0.  1.
    10030    2    1    2    0    0  0.00000000000E+00  0.00000000000E+00 -0.11384868982E+04  0.36788821871E+04  0.34982884000E+04 0.  0.
        2    1    3    3  502    0 -0.95287468468E+02  0.15762756648E+04 -0.13602577900E+04  0.20842326953E+04  0.25500000920E-02 0.  1.
       -2    1    3    3    0  502  0.95287468468E+02 -0.15762756648E+04  0.22177089179E+03  0.15946494918E+04  0.25500000920E-02 0. -1.
</event>
<event>
 5   0  0.2972541E-07  0.3507316E+04  0.7818609E-02  0.8112058E-01
       -1   -1    0    0    0  501  0.00000000000E+00  0.00000000000E+00  0.16520456692E+04  0.16520456692E+04  0.50400001928E-02 0.  1.
        1   -1    0    0  501    0  0.00000000000E+00  0.00000000000E+00 -0.18615197245E+04  0.18615197245E+04  0.50400001928E-02 0. -1.
    10030    2    1    2    0    0  0.00000000000E+00  0.00000000000E+00 -0.20947405528E+03  0.35135653937E+04  0.35073155541E+04 0.  0.
        3    1    3    3  502    0  0.29026843338E+03  0.12604164520E+04 -0.12910812772E+04  0.18275109495E+04  0.10100000352E+00 0. -1.
       -3    1    3    3    0  502 -0.29026843338E+03 -0.12604164520E+04  0.10816072219E+04  0.16860544442E+04  0.10100000352E+00 0.  1.
</event>
<event>
 5   0  0.2907000E-07  0.3481294E+04  0.7818609E-02  0.8118237E-01
       -3   -1    0    0    0  501  0.00000000000E+00  0.00000000000E+00  0.18124819227E+04  0.18124819255E+04  0.10100000352E+00 0.  1.
        3   -1    0    0  501    0  0.00000000000E+00  0.00000000000E+00 -0.16716595895E+04  0.16716595925E+04  0.10100000352E+00 0. -1.
    10030    2    1    2    0    0  0.00000000000E+00  0.00000000000E+00  0.14082233325E+03  0.34841415180E+04  0.34812944702E+04 0.  0.
        4    1    3    3  502    0  0.35811616692E+03 -0.12245039541E+04  0.12555223278E+04  0.17899706844E+04  0.12699999809E+01 0.  1.
       -4    1    3    3    0  502 -0.35811616692E+03  0.12245039541E+04 -0.11146999945E+04  0.16941708336E+04  0.12699999809E+01 0. -1.
</event>
<event>
 5   0  0.6188930E-07  0.3482968E+04  0.7818609E-02  0.8117838E-01
       -2   -1    0    0    0  501  0.00000000000E+00  0.00000000000E+00  0.13897720715E+04  0.13897720715E+04  0.25500000920E-02 0. -1.
        2   -1    0    0  501    0  0.00000000000E+00  0.00000000000E+00 -0.21822042042E+04  0.21822042042E+04  0.25500000920E-02 0.  1.
    10030    2    1    2    0    0  0.00000000000E+00  0.00000000000E+00 -0.79243213278E+03  0.35719762757E+04  0.34829679627E+04 0.  0.
        3    1    3    3  502    0 -0.10508915273E+04 -0.12936429133E+04  0.12154358966E+03  0.16711247242E+04  0.10100000352E+00 0. -1.
       -3    1    3    3    0  502  0.10508915273E+04  0.12936429133E+04 -0.91397572244E+03  0.19008515515E+04  0.10100000352E+00 0.  1.
</event>
<event>
 5   0  0.6188930E-07  0.3495824E+04  0.7818609E-02  0.8114780E-01
       -2   -1    0    0    0  501  0.00000000000E+00  0.00000000000E+00  0.17074209180E+04  0.17074209180E+04  0.25500000920E-02 0. -1.
        2   -1    0    0  501    0  0.00000000000E+00  0.00000000000E+00 -0.17893636396E+04  0.17893636396E+04  0.25500000920E-02 0.  1.
    10030    2    1    2    0    0  0.00000000000E+00  0.00000000000E+00 -0.81942721689E+02  0.34967845576E+04  0.34958243138E+04 0.  0.
        3    1    3    3  502    0 -0.88560582503E+03 -0.94572205305E+03 -0.12145408434E+04  0.17758933947E+04  0.10100000352E+00 0.  1.
       -3    1    3    3    0  502  0.88560582503E+03  0.94572205305E+03  0.11325981217E+04  0.17208911629E+04  0.10100000352E+00 0. -1.
</event>
<event>
 5   0  0.2936607E-07  0.3513148E+04  0.7818609E-02  0.8110681E-01
        1   -1    0    0  501    0  0.00000000000E+00  0.00000000000E+00  0.16719436691E+04  0.16719436691E+04  0.50400001928E-02 0.  1.
       -1   -1    0    0    0  501  0.00000000000E+00  0.00000000000E+00 -0.18454882900E+04  0.18454882900E+04  0.50400001928E-02 0. -1.
    10030    2    1    2    0    0  0.00000000000E+00  0.00000000000E+00 -0.17354462086E+03  0.35174319591E+04  0.35131481397E+04 0.  0.
        2    1    3    3  502    0  0.13786448973E+04  0.80338503598E+03 -0.82214949527E+03  0.17949983458E+04  0.25500000920E-02 0. -1.
       -2    1    3    3    0  502 -0.13786448973E+04 -0.80338503598E+03  0.64860487441E+03  0.17224336133E+04  0.25500000920E-02 0.  1.
</event>
<event>
 5   0  0.3026332E-07  0.3296869E+04  0.7818609E-02  0.8163692E-01
        1   -1    0    0  501    0  0.00000000000E+00  0.00000000000E+00  0.97230026802E+03  0.97230026803E+03  0.50400001928E-02 0. -1.
       -1   -1    0    0    0  501  0.00000000000E+00  0.00000000000E+00 -0.27947509302E+04  0.27947509302E+04  0.50400001928E-02 0.  1.
    10030    2    1    2    0    0  0.00000000000E+00  0.00000000000E+00 -0.18224506622E+04  0.37670511982E+04  0.32968694718E+04 0.  0.
        1    1    3    3  502    0 -0.11062233418E+03 -0.62532339356E+03 -0.26493785466E+04  0.27244216507E+04  0.50400001928E-02 0.  1.
       -1    1    3    3    0  502  0.11062233418E+03  0.62532339356E+03  0.82692788444E+03  0.10426295476E+04  0.50400001928E-02 0. -1.
</event>
<event>
 5   0  0.8845195E-07  0.2922462E+04  0.7818609E-02  0.8266225E-01
       -2   -1    0    0    0  501  0.00000000000E+00  0.00000000000E+00  0.16189466602E+04  0.16189466602E+04  0.25500000920E-02 0.  1.
        2   -1    0    0  501    0  0.00000000000E+00  0.00000000000E+00 -0.13188802255E+04  0.13188802255E+04  0.25500000920E-02 0. -1.
    10030    2    1    2    0    0  0.00000000000E+00  0.00000000000E+00  0.30006643468E+03  0.29378268858E+04  0.29224624798E+04 0.  0.
        5    1    3    3  502    0 -0.13970697857E+04 -0.26787979097E+02  0.57965939753E+03  0.15127949925E+04  0.46999998093E+01 0.  1.
       -5    1    3    3    0  502  0.13970697857E+04  0.26787979097E+02 -0.27959296285E+03  0.14250318933E+04  0.46999998093E+01 0. -1.
</event>
<event>
 5   0  0.2933506E-07  0.3339621E+04  0.7818609E-02  0.8152886E-01
       -1   -1    0    0    0  501  0.00000000000E+00  0.00000000000E+00  0.21013418205E+04  0.21013418205E+04  0.50400001928E-02 0. -1.
        1   -1    0    0  501    0  0.00000000000E+00  0.00000000000E+00 -0.13268987758E+04  0.13268987758E+04  0.50400001928E-02 0.  1.
    10030    2    1    2    0    0  0.00000000000E+00  0.00000000000E+00  0.77444304468E+03  0.34282405963E+04  0.33396214691E+04 0.  0.
        4    1    3    3  502    0  0.15765291049E+04  0.49038109371E+03  0.64354450251E+03  0.17720239206E+04  0.12699999809E+01 0. -1.
       -4    1    3    3    0  502 -0.15765291049E+04 -0.49038109371E+03  0.13089854217E+03  0.16562166757E+04  0.12699999809E+01 0.  1.
</event>
<event>
 5   0  0.2933506E-07  0.3511640E+04  0.7818609E-02  0.8111037E-01
        1   -1    0    0  501    0  0.00000000000E+00  0.00000000000E+00  0.26932336288E+04  0.26932336288E+04  0.50400001928E-02 0.  1.
       -1   -1    0    0    0  501  0.00000000000E+00  0.00000000000E+00 -0.11446845984E+04  0.11446845984E+04  0.50400001928E-02 0. -1.
    10030    2    1    2    0    0  0.00000000000E+00  0.00000000000E+00  0.15485490304E+04  0.38379182272E+04  0.35116395344E+04 0.  0.
        4    1    3    3  502    0 -0.74212502620E+03 -0.88904656478E+03  0.22166504218E+04  0.25009386346E+04  0.12699999809E+01 0.  1.
       -4    1    3    3    0  502  0.74212502620E+03  0.88904656478E+03 -0.66810139140E+03  0.13369795926E+04  0.12699999809E+01 0. -1.
</event>
<event>
 5   0  0.9311672E-07  0.3523121E+04  0.7818609E-02  0.8108332E-01
       -2   -1    0    0    0  501  0.00000000000E+00  0.00000000000E+00  0.14170977628E+04  0.14170977628E+04  0.25500000920E-02 0.  1.
        2   -1    0    0  501    0  0.00000000000E+00  0.00000000000E+00 -0.21897535557E+04  0.21897535557E+04  0.25500000920E-02 0. -1.
    10030    2    1    2    0    0  0.00000000000E+00  0.00000000000E+00 -0.77265579295E+03  0.36068513185E+04  0.35231206990E+04 0.  0.
        4    1    3    3  502    0 -0.27487456480E+03 -0.15496494383E+04 -0.11964133611E+04  0.19769612924E+04  0.12699999809E+01 0.  1.
       -4    1    3    3    0  502  0.27487456480E+03  0.15496494383E+04  0.42375756815E+03  0.16298900262E+04  0.12699999809E+01 0. -1.
</event>
<event>
 5   0  0.3026332E-07  0.3509658E+04  0.7818609E-02  0.8111505E-01
       -1   -1    0    0    0  501  0.00000000000E+00  0.00000000000E+00  0.10747948517E+04  0.10747948517E+04  0.50400001928E-02 0. -1.
        1   -1    0    0  501    0  0.00000000000E+00  0.00000000000E+00 -0.28651285581E+04  0.28651285581E+04  0.50400001928E-02 0.  1.
    10030    2    1    2    0    0  0.00000000000E+00  0.00000000000E+00 -0.17903337063E+04  0.39399234098E+04  0.35096583445E+04 0.  0.
        1    1    3    3  502    0  0.75330549193E+03  0.15111076460E+04 -0.35853618566E+03  0.17261123018E+04  0.50400001928E-02 0. -1.
       -1    1    3    3    0  502 -0.75330549193E+03 -0.15111076460E+04 -0.14317975207E+04  0.22138111080E+04  0.50400001928E-02 0.  1.
</event>
<event>
 5   0  0.3026332E-07  0.3494553E+04  0.7818609E-02  0.8115082E-01
        1   -1    0    0  501    0  0.00000000000E+00  0.00000000000E+00  0.21232782051E+04  0.21232782051E+04  0.50400001928E-02 0. -1.
       -1   -1    0    0    0  501  0.00000000000E+00  0.00000000000E+00 -0.14378595717E+04  0.14378595717E+04  0.50400001928E-02 0.  1.
    10030    2    1    2    0    0  0.00000000000E+00  0.00000000000E+00  0.68541863337E+03  0.35611377768E+04  0.34945534139E+04 0.  0.
        1    1    3    3  502    0 -0.80144086491E+03  0.60347779509E+03 -0.11151014792E+04  0.14999814059E+04  0.50400001928E-02 0.  1.
       -1    1    3    3    0  502  0.80144086491E+03 -0.60347779509E+03  0.18005201126E+04  0.20611563708E+04  0.50400001928E-02 0. -1.
</event>
<event>
 5   0  0.3026332E-07  0.3421285E+04  0.7818609E-02  0.8132702E-01
        1   -1    0    0  501    0  0.00000000000E+00  0.00000000000E+00  0.28396302105E+04  0.28396302105E+04  0.50400001928E-02 0.  1.
       -1   -1    0    0    0  501  0.00000000000E+00  0.00000000000E+00 -0.10305209201E+04  0.10305209201E+04  0.50400001928E-02 0. -1.
    10030    2    1    2    0    0  0.00000000000E+00  0.00000000000E+00  0.18091092904E+04  0.38701511305E+04  0.34212853357E+04 0.  0.
        1    1    3    3  502    0  0.15213633627E+03  0.15777745215E+04  0.17690285385E+03  0.15949333921E+04  0.50400001928E-02 0.  1.
       -1    1    3    3    0  502 -0.15213633627E+03 -0.15777745215E+04  0.16322064365E+04  0.22752177384E+04  0.50400001928E-02 0. -1.
</event>
<event>
 5   0  0.3061330E-07  0.3505758E+04  0.7818609E-02  0.8112427E-01
       -1   -1    0    0    0  501  0.00000000000E+00  0.00000000000E+00  0.18941626206E+04  0.18941626206E+04  0.50400001928E-02 0.  1.
        1   -1    0    0  501    0  0.00000000000E+00  0.00000000000E+00 -0.16221331273E+04  0.16221331273E+04  0.50400001928E-02 0. -1.
    10030    2    1    2    0    0  0.00000000000E+00  0.00000000000E+00  0.27202949334E+03  0.35162957479E+04  0.35057575133E+04 0.  0.
        5    1    3    3  502    0 -0.10475792018E+03  0.12065874627E+04  0.14069995759E+04  0.18564744608E+04  0.46999998093E+01 0.  1.
       -5    1    3    3    0  502  0.10475792018E+03 -0.12065874627E+04 -0.11349700825E+04  0.16598212872E+04  0.46999998093E+01 0. -1.
</event>
<event>
 5   0  0.2972541E-07  0.3494948E+04  0.7818609E-02  0.8114988E-01
        1   -1    0    0  501    0  0.00000000000E+00  0.00000000000E+00  0.16726318602E+04  0.16726318602E+04  0.50400001928E-02 0.  1.
       -1   -1    0    0    0  501  0.00000000000E+00  0.00000000000E+00 -0.18256644692E+04  0.18256644692E+04  0.50400001928E-02 0. -1.
    10030    2    1    2    0    0  0.00000000000E+00  0.00000000000E+00 -0.15303260895E+03  0.34982963294E+04  0.34949475287E+04 0.  0.
        3    1    3    3  502    0  0.74173500133E+03 -0.15536187549E+04  0.22337467495E+03  0.17360294650E+04  0.10100000352E+00 0.  1.
       -3    1    3    3    0  502 -0.74173500133E+03  0.15536187549E+04 -0.37640728390E+03  0.17622668644E+04  0.10100000352E+00 0. -1.
</event>
<event>
 5   0  0.8845195E-07  0.3538557E+04  0.7818609E-02  0.8104713E-01
        2   -1    0    0  501    0  0.00000000000E+00  0.00000000000E+00  0.22983145067E+04  0.22983145067E+04  0.25500000920E-02 0.  1.
       -2   -1    0    0    0  501  0.00000000000E+00  0.00000000000E+00 -0.13620182498E+04  0.13620182498E+04  0.25500000920E-02 0. -1.
    10030    2    1    2    0    0  0.00000000000E+00  0.00000000000E+00  0.93629625695E+03  0.36603327565E+04  0.35385569385E+04 0.  0.
        5    1    3    3  502    0 -0.77863465788E+03  0.15544712999E+04  0.80757347970E+03  0.19169898194E+04  0.46999998093E+01 0.  1.
       -5    1    3    3    0  502  0.77863465788E+03 -0.15544712999E+04  0.12872277724E+03  0.17433429370E+04  0.46999998093E+01 0. -1.
</event>
<event>
 5   0  0.2936607E-07  0.3458496E+04  0.7818609E-02  0.8123697E-01
        1   -1    0    0  501    0  0.00000000000E+00  0.00000000000E+00  0.18818665913E+04  0.18818665914E+04  0.50400001928E-02 0.  1.
       -1   -1    0    0    0  501  0.00000000000E+00  0.00000000000E+00 -0.15890064703E+04  0.15890064703E+04  0.50400001928E-02 0. -1.
    10030    2    1    2    0    0  0.00000000000E+00  0.00000000000E+00  0.29286012106E+03  0.34708730616E+04  0.34584957365E+04 0.  0.
        2    1    3    3  502    0  0.12860274690E+04 -0.47841897997E+03 -0.90973679169E+03  0.16463208684E+04  0.25500000920E-02 0. -1.
       -2    1    3    3    0  502 -0.12860274690E+04  0.47841897997E+03  0.12025969127E+04  0.18245521933E+04  0.25500000920E-02 0.  1.
</event>
<event>
 5   0  0.8845195E-07  0.3565191E+04  0.7818609E-02  0.8098512E-01
       -2   -1    0    0    0  501  0.00000000000E+00  0.00000000000E+00  0.99161274789E+03  0.99161274789E+03  0.25500000920E-02 0. -1.
        2   -1    0    0  501    0  0.00000000000E+00  0.00000000000E+00 -0.32045243438E+04  0.32045243438E+04  0.25500000920E-02 0.  1.
    10030    2    1    2    0    0  0.00000000000E+00  0.00000000000E+00 -0.22129115960E+04  0.41961370917E+04  0.35651912657E+04 0.  0.
        5    1    3    3  502    0 -0.13995096871E+04  0.46433671951E+03  0.72510890363E+02  0.14763183507E+04  0.46999998093E+01 0. -1.
       -5    1    3    3    0  502  0.13995096871E+04 -0.46433671951E+03 -0.22854224863E+04  0.27198187411E+04  0.46999998093E+01 0.  1.
</event>
<event>
 5   0  0.6188930E-07  0.3525764E+04  0.7818609E-02  0.8107711E-01
       -2   -1    0    0    0  501  0.00000000000E+00  0.00000000000E+00  0.25366027318E+04  0.25366027318E+04  0.25500000920E-02 0. -1.
        2   -1    0    0  501    0  0.00000000000E+00  0.00000000000E+00 -0.12251637335E+04  0.12251637335E+04  0.25500000920E-02 0.  1.
    10030    2    1    2    0    0  0.00000000000E+00  0.00000000000E+00  0.13114389983E+04  0.37617664654E+04  0.35257644127E+04 0.  0.
        3    1    3    3  502    0  0.30618053627E+03 -0.91739527989E+03  0.22282813736E+04  0.24291147586E+04  0.10100000352E+00 0. -1.
       -3    1    3    3    0  502 -0.30618053627E+03  0.91739527989E+03 -0.91684237525E+03  0.13326517068E+04  0.10100000352E+00 0.  1.
</event>
<event>
 5   0  0.3026332E-07  0.3512083E+04  0.7818609E-02  0.8110932E-01
       -1   -1    0    0    0  501  0.00000000000E+00  0.00000000000E+00  0.18945605518E+04  0.18945605518E+04  0.50400001928E-02 0.  1.
        1   -1    0    0  501    0  0.00000000000E+00  0.00000000000E+00 -0.16276503319E+04  0.16276503319E+04  0.50400001928E-02 0. -1.
    10030    2    1    2    0    0  0.00000000000E+00  0.00000000000E+00  0.26691021990E+03  0.35222108838E+04  0.35120832058E+04 0.  0.
        1    1    3    3  502    0 -0.10599823774E+04  0.13227121248E+04  0.59363787883E+03  0.17959777105E+04  0.50400001928E-02 0.  1.
       -1    1    3    3    0  502  0.10599823774E+04 -0.13227121248E+04 -0.32672765892E+03  0.17262331733E+04  0.50400001928E-02 0. -1.
</event>
<event>
 5   0  0.3061330E-07  0.3478661E+04  0.7818609E-02  0.8118866E-01
       -1   -1    0    0    0  501  0.00000000000E+00  0.00000000000E+00  0.22307194348E+04  0.22307194348E+04  0.50400001928E-02 0.  1.
        1   -1    0    0  501    0  0.00000000000E+00  0.00000000000E+00 -0.13561857811E+04  0.13561857811E+04  0.50400001928E-02 0. -1.
    10030    2    1    2    0    0  0.00000000000E+00  0.00000000000E+00  0.87453365375E+03  0.35869052159E+04  0.34786606498E+04 0.  0.
        5    1    3    3  502    0 -0.11568353769E+04 -0.20214647027E+03  0.17602006920E+04  0.21160009099E+04  0.46999998093E+01 0.  1.
       -5    1    3    3    0  502  0.11568353769E+04  0.20214647027E+03 -0.88566703826E+03  0.14709043060E+04  0.46999998093E+01 0. -1.
</event>
<event>
 5   0  0.6188930E-07  0.3512354E+04  0.7818609E-02  0.8110868E-01
       -2   -1    0    0    0  501  0.00000000000E+00  0.00000000000E+00  0.16608045322E+04  0.16608045322E+04  0.25500000920E-02 0. -1.
        2   -1    0    0  501    0  0.00000000000E+00  0.00000000000E+00 -0.18570267732E+04  0.18570267732E+04  0.25500000920E-02 0.  1.
    10030    2    1    2    0    0  0.00000000000E+00  0.00000000000E+00 -0.19622224102E+03  0.35178313054E+04  0.35123544703E+04 0.  0.
        3    1    3    3  502    0 -0.24609522012E+03 -0.14881472337E+04 -0.99896537651E+03  0.18091646913E+04  0.10100000352E+00 0.  1.
       -3    1    3    3    0  502  0.24609522012E+03  0.14881472337E+04  0.80274313549E+03  0.17086666141E+04  0.10100000352E+00 0. -1.
</event>
<event>
 5   0  0.2933506E-07  0.3550534E+04  0.7818609E-02  0.8101917E-01
       -1   -1    0    0    0  501  0.00000000000E+00  0.00000000000E+00  0.17169124514E+04  0.17169124514E+04  0.50400001928E-02 0. -1.
        1   -1    0    0  501    0  0.00000000000E+00  0.00000000000E+00 -0.18356046693E+04  0.18356046693E+04  0.50400001928E-02 0.  1.
    10030    2    1    2    0    0  0.00000000000E+00  0.00000000000E+00 -0.11869221786E+03  0.35525171207E+04  0.35505337698E+04 0.  0.
        4    1    3    3  502    0  0.15664435147E+04 -0.63789600446E+03 -0.59901212262E+03  0.17942892000E+04  0.12699999809E+01 0.  1.
       -4    1    3    3    0  502 -0.15664435147E+04  0.63789600446E+03  0.48031990476E+03  0.17582279207E+04  0.12699999809E+01 0. -1.
</event>
<event>
 5   0  0.9311672E-07  0.3504509E+04  0.7818609E-02  0.8112722E-01
       -2   -1    0    0    0  501  0.00000000000E+00  0.00000000000E+00  0.13281729602E+04  0.13281729602E+04  0.25500000920E-02 0.  1.
        2   -1    0    0  501    0  0.00000000000E+00  0.00000000000E+00 -0.23117434647E+04  0.23117434647E+04  0.25500000920E-02 0. -1.
    10030    2    1    2    0    0  0.00000000000E+00  0.00000000000E+00 -0.98357050452E+03  0.36399164248E+04  0.35045086164E+04 0.  0.
        4    1    3    3  502    0 -0.31541020996E+03  0.16909502096E+04 -0.14481583786E+03  0.17262008724E+04  0.12699999809E+01 0. -1.
       -4    1    3    3    0  502  0.31541020996E+03 -0.16909502096E+04 -0.83875466667E+03  0.19137155525E+04  0.12699999809E+01 0.  1.
</event>
<event>
 5   0  0.9128871E-07  0.3552327E+04  0.7818609E-02  0.8101500E-01
       -2   -1    0    0    0  501  0.00000000000E+00  0.00000000000E+00  0.16799933949E+04  0.16799933949E+04  0.25500000920E-02 0. -1.
        2   -1    0    0  501    0  0.00000000000E+00  0.00000000000E+00 -0.18778383979E+04  0.18778383979E+04  0.25500000920E-02 0.  1.
    10030    2    1    2    0    0  0.00000000000E+00  0.00000000000E+00 -0.19784500301E+03  0.35578317929E+04  0.35523266208E+04 0.  0.
        1    1    3    3  502    0 -0.85188652419E+03  0.58275430563E+03  0.13488081594E+04  0.16984100452E+04  0.50400001928E-02 0. -1.
       -1    1    3    3    0  502  0.85188652419E+03 -0.58275430563E+03 -0.15466531624E+04  0.18594217476E+04  0.50400001928E-02 0.  1.
</event>
<event>
 5   0  0.3026332E-07  0.3522521E+04  0.7818609E-02  0.8108473E-01
        1   -1    0    0  501    0  0.00000000000E+00  0.00000000000E+00  0.25113473238E+04  0.25113473238E+04  0.50400001928E-02 0. -1.
       -1   -1    0    0    0  501  0.00000000000E+00  0.00000000000E+00 -0.12352092069E+04  0.12352092069E+04  0.50400001928E-02 0.  1.
    10030    2    1    2    0    0  0.00000000000E+00  0.00000000000E+00  0.12761381169E+04  0.37465565307E+04  0.35225214469E+04 0.  0.
        1    1    3    3  502    0  0.20334697742E+03 -0.10055444002E+04  0.21607538173E+04  0.23919294708E+04  0.50400001928E-02 0. -1.
       -1    1    3    3    0  502 -0.20334697742E+03  0.10055444002E+04 -0.88461570043E+03  0.13546270599E+04  0.50400001928E-02 0.  1.
</event>
<event>
 5   0  0.6188930E-07  0.3477115E+04  0.7818609E-02  0.8119235E-01
        2   -1    0    0  501    0  0.00000000000E+00  0.00000000000E+00  0.28789533630E+04  0.28789533630E+04  0.25500000920E-02 0. -1.
       -2   -1    0    0    0  501  0.00000000000E+00  0.00000000000E+00 -0.10498893714E+04  0.10498893714E+04  0.25500000920E-02 0.  1.
    10030    2    1    2    0    0  0.00000000000E+00  0.00000000000E+00  0.18290639916E+04  0.39288427343E+04  0.34771152046E+04 0.  0.
        3    1    3    3  502    0 -0.75418142267E+03  0.15015500055E+04  0.14187581274E+04  0.21991627206E+04  0.10100000352E+00 0.  1.
       -3    1    3    3    0  502  0.75418142267E+03 -0.15015500055E+04  0.41030586416E+03  0.17296800137E+04  0.10100000352E+00 0. -1.
</event>
<event>
 5   0  0.2933506E-07  0.3479110E+04  0.7818609E-02  0.8118759E-01
       -1   -1    0    0    0  501  0.00000000000E+00  0.00000000000E+00  0.10824419886E+04  0.10824419886E+04  0.50400001928E-02 0.  1.
        1   -1    0    0  501    0  0.00000000000E+00  0.00000000000E+00 -0.27955778386E+04  0.27955778386E+04  0.50400001928E-02 0. -1.
    10030    2    1    2    0    0  0.00000000000E+00  0.00000000000E+00 -0.17131358500E+04  0.38780198273E+04  0.34791095614E+04 0.  0.
        4    1    3    3  502    0  0.86146391249E+03 -0.14835283577E+04 -0.53529713322E+03  0.17970868355E+04  0.12699999809E+01 0.  1.
       -4    1    3    3    0  502 -0.86146391249E+03  0.14835283577E+04 -0.11778387168E+04  0.20809329918E+04  0.12699999809E+01 0. -1.
</event>
<event>
 5   0  0.8950809E-07  0.3556374E+04  0.7818609E-02  0.8100558E-01
        2   -1    0    0  501    0  0.00000000000E+00  0.00000000000E+00  0.28135795382E+04  0.28135795382E+04  0.25500000920E-02 0. -1.
       -2   -1    0    0    0  501  0.00000000000E+00  0.00000000000E+00 -0.11238174494E+04  0.11238174494E+04  0.25500000920E-02 0.  1.
    10030    2    1    2    0    0  0.00000000000E+00  0.00000000000E+00  0.16897620888E+04  0.39373969876E+04  0.35563744349E+04 0.  0.
        2    1    3    3  502    0  0.64749074186E+03  0.67564441626E+03 -0.82913570334E+03  0.12502822292E+04  0.25500000920E-02 0.  1.
       -2    1    3    3    0  502 -0.64749074186E+03 -0.67564441626E+03  0.25188977921E+04  0.26871147585E+04  0.25500000920E-02 0. -1.
</event>
<event>
 5   0  0.2933506E-07  0.3454576E+04  0.7818609E-02  0.8124640E-01
       -1   -1    0    0    0  501  0.00000000000E+00  0.00000000000E+00  0.10916425254E+04  0.10916425254E+04  0.50400001928E-02 0. -1.
        1   -1    0    0  501    0  0.00000000000E+00  0.00000000000E+00 -0.27330588939E+04  0.27330588939E+04  0.50400001928E-02 0.  1.
    10030    2    1    2    0    0  0.00000000000E+00  0.00000000000E+00 -0.16414163685E+04  0.38247014193E+04  0.34545756979E+04 0.  0.
        4    1    3    3  502    0 -0.34214591070E+03  0.71175584077E+03 -0.25214801196E+04  0.26422573319E+04  0.12699999809E+01 0.  1.
       -4    1    3    3    0  502  0.34214591070E+03 -0.71175584077E+03  0.88006375114E+03  0.11824440875E+04  0.12699999809E+01 0. -1.
</event>
<event>
 5   0  0.2933506E-07  0.3495335E+04  0.7818609E-02  0.8114896E-01
       -1   -1    0    0    0  501  0.00000000000E+00  0.00000000000E+00  0.12328627992E+04  0.12328627992E+04  0.50400001928E-02 0.  1.
        1   -1    0    0  501    0  0.00000000000E+00  0.00000000000E+00 -0.24774380047E+04  0.24774380047E+04  0.50400001928E-02 0. -1.
    10030    2    1    2    0    0  0.00000000000E+00  0.00000000000E+00 -0.12445752055E+04  0.37103008039E+04  0.34953346926E+04 0.  0.
        4    1    3    3  502    0 -0.99931166851E+03  0.99431702827E+03  0.47422243372E+03  0.14873394680E+04  0.12699999809E+01 0.  1.
       -4    1    3    3    0  502  0.99931166851E+03 -0.99431702827E+03 -0.17187976393E+04  0.22229613360E+04  0.12699999809E+01 0. -1.
</event>
<event>
 5   0  0.8845195E-07  0.3547559E+04  0.7818609E-02  0.8102611E-01
       -2   -1    0    0    0  501  0.00000000000E+00  0.00000000000E+00  0.10673409177E+04  0.10673409177E+04  0.25500000920E-02 0.  1.
        2   -1    0    0  501    0  0.00000000000E+00  0.00000000000E+00 -0.29477874970E+04  0.29477874970E+04  0.25500000920E-02 0. -1.
    10030    2    1    2    0    0  0.00000000000E+00  0.00000000000E+00 -0.18804465792E+04  0.40151284147E+04  0.35475592806E+04 0.  0.
        5    1    3    3  502    0 -0.14505381839E+04  0.94427191852E+02 -0.20907106701E+04  0.25463838504E+04  0.46999998093E+01 0. -1.
       -5    1    3    3    0  502  0.14505381839E+04 -0.94427191852E+02  0.21026409087E+03  0.14687445643E+04  0.46999998093E+01 0.  1.
</event>
<event>
 5   0  0.8950809E-07  0.3472067E+04  0.7818609E-02  0.8120442E-01
        2   -1    0    0  501    0  0.00000000000E+00  0.00000000000E+00  0.29877362619E+04  0.29877362619E+04  0.25500000920E-02 0.  1.
       -2   -1    0    0    0  501  0.00000000000E+00  0.00000000000E+00 -0.10087275054E+04  0.10087275054E+04  0.25500000920E-02 0. -1.
    10030    2    1    2    0    0  0.00000000000E+00  0.00000000000E+00  0.19790087565E+04  0.39964637673E+04  0.34720666735E+04 0.  0.
        2    1    3    3  502    0 -0.17669208858E+03 -0.48249522889E+03 -0.91919524718E+03  0.10530629813E+04  0.25500000920E-02 0. -1.
       -2    1    3    3    0  502  0.17669208858E+03  0.48249522889E+03  0.28982040037E+04  0.29434007860E+04  0.25500000920E-02 0.  1.
</event>
<event>
 5   0  0.9128871E-07  0.3513909E+04  0.7818609E-02  0.8110502E-01
       -2   -1    0    0    0  501  0.00000000000E+00  0.00000000000E+00  0.11810130825E+04  0.11810130825E+04  0.25500000920E-02 0. -1.
        2   -1    0    0  501    0  0.00000000000E+00  0.00000000000E+00 -0.26137636249E+04  0.26137636249E+04  0.25500000920E-02 0.  1.
    10030    2    1    2    0    0  0.00000000000E+00  0.00000000000E+00 -0.14327505423E+04  0.37947767074E+04  0.35139089548E+04 0.  0.
        1    1    3    3  502    0  0.10424325002E+04 -0.84267557490E+03 -0.19429980063E+04  0.23605103038E+04  0.50400001928E-02 0.  1.
       -1    1    3    3    0  502 -0.10424325002E+04  0.84267557490E+03  0.51024746397E+03  0.14342664036E+04  0.50400001928E-02 0. -1.
</event>
<event>
 5   0  0.8845195E-07  0.3511598E+04  0.7818609E-02  0.8111047E-01
        2   -1    0    0  501    0  0.00000000000E+00  0.00000000000E+00  0.19729474808E+04  0.19729474808E+04  0.25500000920E-02 0.  1.
       -2   -1    0    0    0  501  0.00000000000E+00  0.00000000000E+00 -0.15625509664E+04  0.15625509664E+04  0.25500000920E-02 0. -1.
    10030    2    1    2    0    0  0.00000000000E+00  0.00000000000E+00  0.41039651436E+03  0.35354984472E+04  0.35115984923E+04 0.  0.
        5    1    3    3  502    0  0.16142554969E+04  0.69063669440E+03  0.20822701216E+03  0.17681007979E+04  0.46999998093E+01 0. -1.
       -5    1    3    3    0  502 -0.16142554969E+04 -0.69063669440E+03  0.20216950220E+03  0.17673976493E+04  0.46999998093E+01 0.  1.
</event>
<event>
 5   0  0.9128871E-07  0.3457621E+04  0.7818609E-02  0.8123907E-01
        2   -1    0    0  501    0  0.00000000000E+00  0.00000000000E+00  0.13460213733E+04  0.13460213733E+04  0.25500000920E-02 0. -1.
       -2   -1    0    0    0  501  0.00000000000E+00  0.00000000000E+00 -0.22204593555E+04  0.22204593555E+04  0.25500000920E-02 0.  1.
    10030    2    1    2    0    0  0.00000000000E+00  0.00000000000E+00 -0.87443798220E+03  0.35664807288E+04  0.34576210036E+04 0.  0.
        1    1    3    3  502    0  0.53196204424E+02  0.10432708762E+04 -0.18581015030E+04  0.21316156204E+04  0.50400001928E-02 0.  1.
       -1    1    3    3    0  502 -0.53196204424E+02 -0.10432708762E+04  0.98366352084E+03  0.14348651085E+04  0.50400001928E-02 0. -1.
</event>
<event>
 5   0  0.3026332E-07  0.3502492E+04  0.7818609E-02  0.8113200E-01
       -1   -1    0    0    0  501  0.00000000000E+00  0.00000000000E+00  0.25607322672E+04  0.25607322672E+04  0.50400001928E-02 0. -1.
        1   -1    0    0  501    0  0.00000000000E+00  0.00000000000E+00 -0.11976507059E+04  0.11976507059E+04  0.50400001928E-02 0.  1.
    10030    2    1    2    0    0  0.00000000000E+00  0.00000000000E+00  0.13630815613E+04  0.37583829731E+04  0.35024921456E+04 0.  0.
        1    1    3    3  502    0 -0.14364821562E+04 -0.65853362181E+03 -0.12839913036E+03  0.15854443708E+04  0.50400001928E-02 0.  1.
       -1    1    3    3    0  502  0.14364821562E+04  0.65853362181E+03  0.14914806916E+04  0.21729386024E+04  0.50400001928E-02 0. -1.
</event>
<event>
 5   0  0.8845195E-07  0.3529911E+04  0.7818609E-02  0.8106738E-01
        2   -1    0    0  501    0  0.00000000000E+00  0.00000000000E+00  0.27640374820E+04  0.27640374820E+04  0.25500000920E-02 0. -1.
       -2   -1    0    0    0  501  0.00000000000E+00  0.00000000000E+00 -0.11269990273E+04  0.11269990273E+04  0.25500000920E-02 0.  1.
    10030    2    1    2    0    0  0.00000000000E+00  0.00000000000E+00  0.16370384548E+04  0.38910365093E+04  0.35299107941E+04 0.  0.
        5    1    3    3  502    0 -0.65947111316E+03 -0.29416678253E+03 -0.95670757421E+03  0.11986441163E+04  0.46999998093E+01 0.  1.
       -5    1    3    3    0  502  0.65947111316E+03  0.29416678253E+03  0.25937460290E+04  0.26923923930E+04  0.46999998093E+01 0. -1.
</event>
<event>
 5   0  0.3061330E-07  0.3491302E+04  0.7818609E-02  0.8115854E-01
        1   -1    0    0  501    0  0.00000000000E+00  0.00000000000E+00  0.16157124457E+04  0.16157124457E+04  0.50400001928E-02 0.  1.
       -1   -1    0    0    0  501  0.00000000000E+00  0.00000000000E+00 -0.18860390033E+04  0.18860390033E+04  0.50400001928E-02 0. -1.
    10030    2    1    2    0    0  0.00000000000E+00  0.00000000000E+00 -0.27032655758E+03  0.35017514490E+04  0.34913015857E+04 0.  0.
        5    1    3    3  502    0 -0.10002964197E+04 -0.12883351108E+04 -0.75901718759E+03  0.17990357044E+04  0.46999998093E+01 0. -1.
       -5    1    3    3    0  502  0.10002964197E+04  0.12883351108E+04  0.48869063001E+03  0.17027157445E+04  0.46999998093E+01 0.  1.
</event>
<event>
 5   0  0.9311672E-07  0.3517808E+04  0.7818609E-02  0.8109583E-01
       -2   -1    0    0    0  501  0.00000000000E+00  0.00000000000E+00  0.15497993714E+04  0.15497993714E+04  0.25500000920E-02 0. -1.
        2   -1    0    0  501    0  0.00000000000E+00  0.00000000000E+00 -0.19962215687E+04  0.19962215687E+04  0.25500000920E-02 0.  1.
    10030    2    1    2    0    0  0.00000000000E+00  0.00000000000E+00 -0.44642219728E+03  0.35460209400E+04  0.35178078016E+04 0.  0.
        4    1    3    3  502    0  0.10595209582E+02 -0.13683426390E+04  0.89076169723E+03  0.16327681557E+04  0.12699999809E+01 0. -1.
       -4    1    3    3    0  502 -0.10595209582E+02  0.13683426390E+04 -0.13371838945E+04  0.19132527843E+04  0.12699999809E+01 0.  1.
</event>
<event>
 5   0  0.9311672E-07  0.3472170E+04  0.7818609E-02  0.8120417E-01
       -2   -1    0    0    0  501  0.00000000000E+00  0.00000000000E+00  0.14143987106E+04  0.14143987106E+04  0.25500000920E-02 0.  1.
        2   -1    0    0  501    0  0.00000000000E+00  0.00000000000E+00 -0.21309345753E+04  0.21309345753E+04  0.25500000920E-02 0. -1.
    10030    2    1    2    0    0  0.00000000000E+00  0.00000000000E+00 -0.71653586467E+03  0.35453332859E+04  0.34721699933E+04 0.  0.
        4    1    3    3  502    0 -0.44851196208E+02 -0.17289240767E+04 -0.51244432982E+03  0.18038267369E+04  0.12699999809E+01 0.  1.
       -4    1    3    3    0  502  0.44851196208E+02  0.17289240767E+04 -0.20409153485E+03  0.17415065490E+04  0.12699999809E+01 0. -1.
</event>
<event>
 5   0  0.8845195E-07  0.3725156E+04  0.7818609E-02  0.8062410E-01
        2   -1    0    0  501    0  0.00000000000E+00  0.00000000000E+00  0.11786466541E+04  0.11786466541E+04  0.25500000920E-02 0.  1.
       -2   -1    0    0    0  501  0.00000000000E+00  0.00000000000E+00 -0.29433738325E+04  0.29433738325E+04  0.25500000920E-02 0. -1.
    10030    2    1    2    0    0  0.00000000000E+00  0.00000000000E+00 -0.17647271784E+04  0.41220204866E+04  0.37251564904E+04 0.  0.
        5    1    3    3  502    0 -0.86921263950E+02 -0.18593383873E+04 -0.80829105475E+03  0.20292981703E+04  0.46999998093E+01 0.  1.
       -5    1    3    3    0  502  0.86921263950E+02  0.18593383873E+04 -0.95643612364E+03  0.20927223163E+04  0.46999998093E+01 0. -1.
</event>
<event>
 5   0  0.3026332E-07  0.3276173E+04  0.7818609E-02  0.8168985E-01
        1   -1    0    0  501    0  0.00000000000E+00  0.00000000000E+00  0.18677703790E+04  0.18677703790E+04  0.50400001928E-02 0.  1.
       -1   -1    0    0    0  501  0.00000000000E+00  0.00000000000E+00 -0.14366474973E+04  0.14366474973E+04  0.50400001928E-02 0. -1.
    10030    2    1    2    0    0  0.00000000000E+00  0.00000000000E+00  0.43112288175E+03  0.33044178763E+04  0.32761731582E+04 0.  0.
        1    1    3    3  502    0  0.45035216778E+03  0.10751025069E+04 -0.94530210394E+03  0.15007526589E+04  0.50400001928E-02 0. -1.
       -1    1    3    3    0  502 -0.45035216778E+03 -0.10751025069E+04  0.13764249857E+04  0.18036652175E+04  0.50400001928E-02 0.  1.
</event>
<event>
 5   0  0.3061330E-07  0.3522880E+04  0.7818609E-02  0.8108389E-01
        1   -1    0    0  501    0  0.00000000000E+00  0.00000000000E+00  0.19769643454E+04  0.19769643454E+04  0.50400001928E-02 0.  1.
       -1   -1    0    0    0  501  0.00000000000E+00  0.00000000000E+00 -0.15694118257E+04  0.15694118257E+04  0.50400001928E-02 0. -1.
    10030    2    1    2    0    0  0.00000000000E+00  0.00000000000E+00  0.40755251976E+03  0.35463761711E+04  0.35228801981E+04 0.  0.
        5    1    3    3  502    0 -0.66468995286E+03  0.46975345409E+03  0.17762985046E+04  0.19539036589E+04  0.46999998093E+01 0.  1.
       -5    1    3    3    0  502  0.66468995286E+03 -0.46975345409E+03 -0.13687459848E+04  0.15924725122E+04  0.46999998093E+01 0. -1.
</event>
<event>
 5   0  0.9311672E-07  0.3501767E+04  0.7818609E-02  0.8113371E-01
       -2   -1    0    0    0  501  0.00000000000E+00  0.00000000000E+00  0.20547938284E+04  0.20547938284E+04  0.25500000920E-02 0. -1.
        2   -1    0    0  501    0  0.00000000000E+00  0.00000000000E+00 -0.14919220911E+04  0.14919220911E+04  0.25500000920E-02 0.  1.
    10030    2    1    2    0    0  0.00000000000E+00  0.00000000000E+00  0.56287173731E+03  0.35467159195E+04  0.35017665858E+04 0.  0.
        4    1    3    3  502    0  0.47069418917E+02 -0.10077594688E+03  0.20512115148E+04  0.20542253072E+04  0.12699999809E+01 0. -1.
       -4    1    3    3    0  502 -0.47069418917E+02  0.10077594688E+03 -0.14883397775E+04  0.14924906123E+04  0.12699999809E+01 0.  1.
</event>
<event>
 5   0  0.8845195E-07  0.3502595E+04  0.7818609E-02  0.8113175E-01
       -2   -1    0    0    0  501  0.00000000000E+00  0.00000000000E+00  0.15502190244E+04  0.15502190244E+04  0.25500000920E-02 0.  1.
        2   -1    0    0  501    0  0.00000000000E+00  0.00000000000E+00 -0.19784575152E+04  0.19784575152E+04  0.25500000920E-02 0. -1.
    10030    2    1    2    0    0  0.00000000000E+00  0.00000000000E+00 -0.42823849082E+03  0.35286765396E+04  0.35025947405E+04 0.  0.
        5    1    3    3  502    0 -0.14901053093E+04 -0.36542774105E+03 -0.10648414615E+04  0.18675815095E+04  0.46999998093E+01 0. -1.
       -5    1    3    3    0  502  0.14901053093E+04  0.36542774105E+03  0.63660297066E+03  0.16610950301E+04  0.46999998093E+01 0.  1.
</event>
<event>
 5   0  0.9128871E-07  0.3487478E+04  0.7818609E-02  0.8116764E-01
       -2   -1    0    0    0  501  0.00000000000E+00  0.00000000000E+00  0.20539810617E+04  0.20539810617E+04  0.25500000920E-02 0. -1.
        2   -1    0    0  501    0  0.00000000000E+00  0.00000000000E+00 -0.14803571953E+04  0.14803571953E+04  0.25500000920E-02 0.  1.
    10030    2    1    2    0    0  0.00000000000E+00  0.00000000000E+00  0.57362386631E+03  0.35343382570E+04  0.34874779677E+04 0.  0.
        1    1    3    3  502    0 -0.11274466022E+04  0.41596390208E+03 -0.99367803833E+03  0.15593453282E+04  0.50400001928E-02 0.  1.
       -1    1    3    3    0  502  0.11274466022E+04 -0.41596390208E+03  0.15673019046E+04  0.19749929288E+04  0.50400001928E-02 0. -1.
</event>
<event>
 5   0  0.9128871E-07  0.3495525E+04  0.7818609E-02  0.8114851E-01
       -2   -1    0    0    0  501  0.00000000000E+00  0.00000000000E+00  0.12333899629E+04  0.12333899629E+04  0.25500000920E-02 0.  1.
        2   -1    0    0  501    0  0.00000000000E+00  0.00000000000E+00 -0.24766481271E+04  0.24766481271E+04  0.25500000920E-02 0. -1.
    10030    2    1    2    0    0  0.00000000000E+00  0.00000000000E+00 -0.12432581642E+04  0.37100380900E+04  0.34955245339E+04 0.  0.
        1    1    3    3  502    0 -0.25144413042E+03  0.16469098739E+04 -0.11823857561E+04  0.20429322945E+04  0.50400001928E-02 0. -1.
       -1    1    3    3    0  502  0.25144413042E+03 -0.16469098739E+04 -0.60872408099E+02  0.16671057956E+04  0.50400001928E-02 0.  1.
</event>
<event>
 5   0  0.3061330E-07  0.3498931E+04  0.7818609E-02  0.8114043E-01
       -1   -1    0    0    0  501  0.00000000000E+00  0.00000000000E+00  0.16159413837E+04  0.16159413837E+04  0.50400001928E-02 0.  1.
        1   -1    0    0  501    0  0.00000000000E+00  0.00000000000E+00 -0.18940226316E+04  0.18940226316E+04  0.50400001928E-02 0. -1.
    10030    2    1    2    0    0  0.00000000000E+00  0.00000000000E+00 -0.27808124781E+03  0.35099640153E+04  0.34989310094E+04 0.  0.
        5    1    3    3  502    0 -0.62549972981E+03  0.53192753954E+03  0.14106316872E+04  0.16322072988E+04  0.46999998093E+01 0.  1.
       -5    1    3    3    0  502  0.62549972981E+03 -0.53192753954E+03 -0.16887129350E+04  0.18777567165E+04  0.46999998093E+01 0. -1.
</event>
<event>
 5   0  0.3061330E-07  0.3509130E+04  0.7818609E-02  0.8111630E-01
       -1   -1    0    0    0  501  0.00000000000E+00  0.00000000000E+00  0.20151415340E+04  0.20151415340E+04  0.50400001928E-02 0. -1.
        1   -1    0    0  501    0  0.00000000000E+00  0.00000000000E+00 -0.15276832858E+04  0.15276832858E+04  0.50400001928E-02 0.  1.
    10030    2    1    2    0    0  0.00000000000E+00  0.00000000000E+00  0.48745824817E+03  0.35428248198E+04  0.35091298294E+04 0.  0.
        5    1    3    3  502    0 -0.12378641609E+04 -0.21007729472E+03  0.14810729169E+04  0.19416588850E+04  0.46999998093E+01 0. -1.
       -5    1    3    3    0  502  0.12378641609E+04  0.21007729472E+03 -0.99361466873E+03  0.16011659347E+04  0.46999998093E+01 0.  1.
</event>
<event>
 5   0  0.9311672E-07  0.3506938E+04  0.7818609E-02  0.8112148E-01
        2   -1    0    0  501    0  0.00000000000E+00  0.00000000000E+00  0.16527715683E+04  0.16527715683E+04  0.25500000920E-02 0.  1.
       -2   -1    0    0    0  501  0.00000000000E+00  0.00000000000E+00 -0.18603012876E+04  0.18603012876E+04  0.25500000920E-02 0. -1.
    10030    2    1    2    0    0  0.00000000000E+00  0.00000000000E+00 -0.20752971934E+03  0.35130728559E+04  0.35069377392E+04 0.  0.
        4    1    3    3  502    0 -0.11084998426E+04  0.77969041073E+03 -0.12183489319E+04  0.18223788768E+04  0.12699999809E+01 0. -1.
       -4    1    3    3    0  502  0.11084998426E+04 -0.77969041073E+03  0.10108192126E+04  0.16906939791E+04  0.12699999809E+01 0.  1.
</event>
<event>
 5   0  0.2933506E-07  0.3264203E+04  0.7818609E-02  0.8172064E-01
        1   -1    0    0  501    0  0.00000000000E+00  0.00000000000E+00  0.13698231401E+04  0.13698231401E+04  0.50400001928E-02 0. -1.
       -1   -1    0    0    0  501  0.00000000000E+00  0.00000000000E+00 -0.19445973874E+04  0.19445973874E+04  0.50400001928E-02 0.  1.
    10030    2    1    2    0    0  0.00000000000E+00  0.00000000000E+00 -0.57477424724E+03  0.33144205275E+04  0.32642025057E+04 0.  0.
        4    1    3    3  502    0 -0.13152467356E+04 -0.20756404322E+03  0.67095298490E+03  0.14910185540E+04  0.12699999809E+01 0. -1.
       -4    1    3    3    0  502  0.13152467356E+04  0.20756404322E+03 -0.12457272321E+04  0.18234019736E+04  0.12699999809E+01 0.  1.
</event>
<event>
 5   0  0.9311672E-07  0.3480675E+04  0.7818609E-02  0.8118385E-01
        2   -1    0    0  501    0  0.00000000000E+00  0.00000000000E+00  0.21531755114E+04  0.21531755114E+04  0.25500000920E-02 0.  1.
       -2   -1    0    0    0  501  0.00000000000E+00  0.00000000000E+00 -0.14066547735E+04  0.14066547735E+04  0.25500000920E-02 0. -1.
    10030    2    1    2    0    0  0.00000000000E+00  0.00000000000E+00  0.74652073788E+03  0.35598302850E+04  0.34806749986E+04 0.  0.
        4    1    3    3  502    0 -0.16393587600E+04 -0.51972383586E+03  0.64609086320E+03  0.18371295616E+04  0.12699999809E+01 0.  1.
       -4    1    3    3    0  502  0.16393587600E+04  0.51972383586E+03  0.10042987468E+03  0.17227007234E+04  0.12699999809E+01 0. -1.
</event>
<event>
 5   0  0.2972541E-07  0.3519584E+04  0.7818609E-02  0.8109164E-01
        1   -1    0    0  501    0  0.00000000000E+00  0.00000000000E+00  0.12636362189E+04  0.12636362190E+04  0.50400001928E-02 0.  1.
       -1   -1    0    0    0  501  0.00000000000E+00  0.00000000000E+00 -0.24507588444E+04  0.24507588444E+04  0.50400001928E-02 0. -1.
    10030    2    1    2    0    0  0.00000000000E+00  0.00000000000E+00 -0.11871226255E+04  0.37143950634E+04  0.35195838616E+04 0.  0.
        3    1    3    3  502    0 -0.10651970021E+04 -0.75865929627E+03  0.64918253196E+03  0.14600159421E+04  0.10100000352E+00 0.  1.
       -3    1    3    3    0  502  0.10651970021E+04  0.75865929627E+03 -0.18363051574E+04  0.22543791213E+04  0.10100000352E+00 0. -1.
</event>
<event>
 5   0  0.2933506E-07  0.3422692E+04  0.7818609E-02  0.8132359E-01
        1   -1    0    0  501    0  0.00000000000E+00  0.00000000000E+00  0.16807468021E+04  0.16807468021E+04  0.50400001928E-02 0. -1.
       -1   -1    0    0    0  501  0.00000000000E+00  0.00000000000E+00 -0.17425021343E+04  0.17425021343E+04  0.50400001928E-02 0.  1.
    10030    2    1    2    0    0  0.00000000000E+00  0.00000000000E+00 -0.61755332202E+02  0.34232489364E+04  0.34226918587E+04 0.  0.
        4    1    3    3  502    0 -0.64254147092E+03 -0.13958457451E+04 -0.78429861422E+03  0.17252161648E+04  0.12699999809E+01 0.  1.
       -4    1    3    3    0  502  0.64254147092E+03  0.13958457451E+04  0.72254328202E+03  0.16980327716E+04  0.12699999809E+01 0. -1.
</event>
<event>
 5   0  0.2936607E-07  0.3474270E+04  0.7818609E-02  0.8119915E-01
       -1   -1    0    0    0  501  0.00000000000E+00  0.00000000000E+00  0.13784435192E+04  0.13784435192E+04  0.50400001928E-02 0.  1.
        1   -1    0    0  501    0  0.00000000000E+00  0.00000000000E+00 -0.21891629123E+04  0.21891629123E+04  0.50400001928E-02 0. -1.
    10030    2    1    2    0    0  0.00000000000E+00  0.00000000000E+00 -0.81071939304E+03  0.35676064315E+04  0.34742696665E+04 0.  0.
        2    1    3    3  502    0 -0.62196652433E+03  0.15227455356E+04  0.16825374205E+03  0.16534526438E+04  0.25500000920E-02 0. -1.
       -2    1    3    3    0  502  0.62196652433E+03 -0.15227455356E+04 -0.97897313509E+03  0.19141537877E+04  0.25500000920E-02 0.  1.
</event>
<event>
 5   0  0.9128871E-07  0.3502160E+04  0.7818609E-02  0.8113278E-01
        2   -1    0    0  501    0  0.00000000000E+00  0.00000000000E+00  0.20020896701E+04  0.20020896701E+04  0.25500000920E-02 0. -1.
       -2   -1    0    0    0  501  0.00000000000E+00  0.00000000000E+00 -0.15315405819E+04  0.15315405819E+04  0.25500000920E-02 0.  1.
    10030    2    1    2    0    0  0.00000000000E+00  0.00000000000E+00  0.47054908820E+03  0.35336302520E+04  0.35021602353E+04 0.  0.
        1    1    3    3  502    0  0.57460601636E+03  0.37873159945E+03 -0.13893719227E+04  0.15504721985E+04  0.50400001928E-02 0.  1.
       -1    1    3    3    0  502 -0.57460601636E+03 -0.37873159945E+03  0.18599210109E+04  0.19831580536E+04  0.50400001928E-02 0. -1.
</event>
<event>
 5   0  0.3026332E-07  0.3373973E+04  0.7818609E-02  0.8144324E-01
       -1   -1    0    0    0  501  0.00000000000E+00  0.00000000000E+00  0.16066663253E+04  0.16066663253E+04  0.50400001928E-02 0.  1.
        1   -1    0    0  501    0  0.00000000000E+00  0.00000000000E+00 -0.17713215443E+04  0.17713215443E+04  0.50400001928E-02 0. -1.
    10030    2    1    2    0    0  0.00000000000E+00  0.00000000000E+00 -0.16465521894E+03  0.33779878696E+04  0.33739725408E+04 0.  0.
        1    1    3    3  502    0  0.16521159533E+04 -0.15906859485E+03  0.21991364624E+03  0.16742616142E+04  0.50400001928E-02 0.  1.
       -1    1    3    3    0  502 -0.16521159533E+04  0.15906859485E+03 -0.38456886518E+03  0.17037262554E+04  0.50400001928E-02 0. -1.
</event>
<event>
 5   0  0.9128871E-07  0.3503901E+04  0.7818609E-02  0.8112866E-01
       -2   -1    0    0    0  501  0.00000000000E+00  0.00000000000E+00  0.18756352015E+04  0.18756352015E+04  0.25500000920E-02 0.  1.
        2   -1    0    0  501    0  0.00000000000E+00  0.00000000000E+00 -0.16364218812E+04  0.16364218812E+04  0.25500000920E-02 0. -1.
    10030    2    1    2    0    0  0.00000000000E+00  0.00000000000E+00  0.23921332027E+03  0.35120570826E+04  0.35039009602E+04 0.  0.
        1    1    3    3  502    0 -0.95304289779E+03 -0.10772633096E+04  0.11222067227E+04  0.18243176620E+04  0.50400001928E-02 0.  1.
       -1    1    3    3    0  502  0.95304289779E+03  0.10772633096E+04 -0.88299340243E+03  0.16877394207E+04  0.50400001928E-02 0. -1.
</event>
<event>
 5   0  0.8950809E-07  0.3481713E+04  0.7818609E-02  0.8118138E-01
        2   -1    0    0  501    0  0.00000000000E+00  0.00000000000E+00  0.22903123311E+04  0.22903123311E+04  0.25500000920E-02 0. -1.
       -2   -1    0    0    0  501  0.00000000000E+00  0.00000000000E+00 -0.13232172988E+04  0.13232172988E+04  0.25500000920E-02 0.  1.
    10030    2    1    2    0    0  0.00000000000E+00  0.00000000000E+00  0.96709503227E+03  0.36135296298E+04  0.34817127372E+04 0.  0.
        2    1    3    3  502    0  0.81704450976E+03 -0.21531158165E+03 -0.10961351118E+04  0.13839916877E+04  0.25500000920E-02 0.  1.
       -2    1    3    3    0  502 -0.81704450976E+03  0.21531158165E+03  0.20632301441E+04  0.22295379422E+04  0.25500000920E-02 0. -1.
</event>
<event>
 5   0  0.9311672E-07  0.3487963E+04  0.7818609E-02  0.8116648E-01
       -2   -1    0    0    0  501  0.00000000000E+00  0.00000000000E+00  0.24060667263E+04  0.24060667263E+04  0.25500000920E-02 0.  1.
        2   -1    0    0  501    0  0.00000000000E+00  0.00000000000E+00 -0.12640847571E+04  0.12640847571E+04  0.25500000920E-02 0. -1.
    10030    2    1    2    0    0  0.00000000000E+00  0.00000000000E+00  0.11419819691E+04  0.36701514834E+04  0.34879634593E+04 0.  0.
        4    1    3    3  502    0 -0.54246342979E+03  0.10036842393E+04  0.19589111216E+04  0.22669325134E+04  0.12699999809E+01 0.  1.
       -4    1    3    3    0  502  0.54246342979E+03 -0.10036842393E+04 -0.81692915246E+03  0.14032189701E+04  0.12699999809E+01 0. -1.
</event>
<event>
 5   0  0.2936607E-07  0.3471333E+04  0.7818609E-02  0.8120617E-01
       -1   -1    0    0    0  501  0.00000000000E+00  0.00000000000E+00  0.13643882231E+04  0.13643882231E+04  0.50400001928E-02 0. -1.
        1   -1    0    0  501    0  0.00000000000E+00  0.00000000000E+00 -0.22079773831E+04  0.22079773831E+04  0.50400001928E-02 0.  1.
    10030    2    1    2    0    0  0.00000000000E+00  0.00000000000E+00 -0.84358915993E+03  0.35723656062E+04  0.34713330802E+04 0.  0.
        2    1    3    3  502    0 -0.12667981015E+04  0.81555249436E+03 -0.13086387801E+04  0.19956048601E+04  0.25500000920E-02 0.  1.
       -2    1    3    3    0  502  0.12667981015E+04 -0.81555249436E+03  0.46504962014E+03  0.15767607461E+04  0.25500000920E-02 0. -1.
</event>
<event>
 5   0  0.3026332E-07  0.3494951E+04  0.7818609E-02  0.8114987E-01
        1   -1    0    0  501    0  0.00000000000E+00  0.00000000000E+00  0.20366849117E+04  0.20366849117E+04  0.50400001928E-02 0.  1.
       -1   -1    0    0    0  501  0.00000000000E+00  0.00000000000E+00 -0.14993340936E+04  0.14993340936E+04  0.50400001928E-02 0. -1.
    10030    2    1    2    0    0  0.00000000000E+00  0.00000000000E+00  0.53735081806E+03  0.35360190053E+04  0.34949512878E+04 0.  0.
        1    1    3    3  502    0  0.45537247226E+03 -0.16049797561E+04  0.79473416919E+03  0.18479519760E+04  0.50400001928E-02 0. -1.
       -1    1    3    3    0  502 -0.45537247226E+03  0.16049797561E+04 -0.25738335113E+03  0.16880670293E+04  0.50400001928E-02 0.  1.
</event>
<event>
 5   0  0.9311672E-07  0.3460340E+04  0.7818609E-02  0.8123254E-01
       -2   -1    0    0    0  501  0.00000000000E+00  0.00000000000E+00  0.10603037034E+04  0.10603037034E+04  0.25500000920E-02 0. -1.
        2   -1    0    0  501    0  0.00000000000E+00  0.00000000000E+00 -0.28232359331E+04  0.28232359331E+04  0.25500000920E-02 0.  1.
    10030    2    1    2    0    0  0.00000000000E+00  0.00000000000E+00 -0.17629322297E+04  0.38835396365E+04  0.34603395876E+04 0.  0.
        4    1    3    3  502    0  0.32944616715E+03  0.12611112602E+04  0.39546760035E+03  0.13621059516E+04  0.12699999809E+01 0. -1.
       -4    1    3    3    0  502 -0.32944616715E+03 -0.12611112602E+04 -0.21583998301E+04  0.25214336849E+04  0.12699999809E+01 0.  1.
</event>
<event>
 5   0  0.6188930E-07  0.3476680E+04  0.7818609E-02  0.8119339E-01
       -2   -1    0    0    0  501  0.00000000000E+00  0.00000000000E+00  0.13957339261E+04  0.13957339261E+04  0.25500000920E-02 0.  1.
        2   -1    0    0  501    0  0.00000000000E+00  0.00000000000E+00 -0.21650441675E+04  0.21650441675E+04  0.25500000920E-02 0. -1.
    10030    2    1    2    0    0  0.00000000000E+00  0.00000000000E+00 -0.76931024136E+03  0.35607780936E+04  0.34766797932E+04 0.  0.
        3    1    3    3  502    0 -0.11109759285E+04 -0.50026902707E+03 -0.16545213448E+04  0.20547451189E+04  0.10100000352E+00 0. -1.
       -3    1    3    3    0  502  0.11109759285E+04  0.50026902707E+03  0.88521110340E+03  0.15060329747E+04  0.10100000352E+00 0.  1.
</event>
<event>
 5   0  0.8845195E-07  0.3483861E+04  0.7818609E-02  0.8117625E-01
       -2   -1    0    0    0  501  0.00000000000E+00  0.00000000000E+00  0.28133354077E+04  0.28133354077E+04  0.25500000920E-02 0.  1.
        2   -1    0    0  501    0  0.00000000000E+00  0.00000000000E+00 -0.10785496476E+04  0.10785496476E+04  0.25500000920E-02 0. -1.
    10030    2    1    2    0    0  0.00000000000E+00  0.00000000000E+00  0.17347857601E+04  0.38918850552E+04  0.34838610262E+04 0.  0.
        5    1    3    3  502    0 -0.15820134285E+03  0.16347510849E+04  0.15157653712E+04  0.22349508999E+04  0.46999998093E+01 0.  1.
       -5    1    3    3    0  502  0.15820134285E+03 -0.16347510849E+04  0.21902038890E+03  0.16569341554E+04  0.46999998093E+01 0. -1.
</event>
<event>
 5   0  0.3061330E-07  0.3469203E+04  0.7818609E-02  0.8121128E-01
        1   -1    0    0  501    0  0.00000000000E+00  0.00000000000E+00  0.23341825258E+04  0.23341825258E+04  0.50400001928E-02 0. -1.
       -1   -1    0    0    0  501  0.00000000000E+00  0.00000000000E+00 -0.12890344268E+04  0.12890344268E+04  0.50400001928E-02 0.  1.
    10030    2    1    2    0    0  0.00000000000E+00  0.00000000000E+00  0.10451480990E+04  0.36232169526E+04  0.34692025794E+04 0.  0.
        5    1    3    3  502    0 -0.50740079561E+03 -0.85963755888E+03 -0.95899008793E+03  0.13842385556E+04  0.46999998093E+01 0.  1.
       -5    1    3    3    0  502  0.50740079561E+03  0.85963755888E+03  0.20041381870E+04  0.22389783971E+04  0.46999998093E+01 0. -1.
</event>
<event>
 5   0  0.3026332E-07  0.3473622E+04  0.7818609E-02  0.8120070E-01
        1   -1    0    0  501    0  0.00000000000E+00  0.00000000000E+00  0.21278743729E+04  0.21278743729E+04  0.50400001928E-02 0.  1.
       -1   -1    0    0    0  501  0.00000000000E+00  0.00000000000E+00 -0.14176175655E+04  0.14176175656E+04  0.50400001928E-02 0. -1.
    10030    2    1    2    0    0  0.00000000000E+00  0.00000000000E+00  0.71025680735E+03  0.35454919385E+04  0.34736217919E+04 0.  0.
        1    1    3    3  502    0 -0.58497268972E+03 -0.53279015941E+03 -0.12229702108E+04  0.14566106337E+04  0.50400001928E-02 0. -1.
       -1    1    3    3    0  502  0.58497268972E+03  0.53279015941E+03  0.19332270181E+04  0.20888813048E+04  0.50400001928E-02 0.  1.
</event>
<event>
 5   0  0.8950809E-07  0.3499555E+04  0.7818609E-02  0.8113895E-01
       -2   -1    0    0    0  501  0.00000000000E+00  0.00000000000E+00  0.18114832414E+04  0.18114832414E+04  0.25500000920E-02 0. -1.
        2   -1    0    0  501    0  0.00000000000E+00  0.00000000000E+00 -0.16901737125E+04  0.16901737125E+04  0.25500000920E-02 0.  1.
    10030    2    1    2    0    0  0.00000000000E+00  0.00000000000E+00  0.12130952892E+03  0.35016569539E+04  0.34995550318E+04 0.  0.
        2    1    3    3  502    0  0.16557799080E+04  0.56535459978E+03  0.38541087223E+02  0.17500623825E+04  0.25500000920E-02 0. -1.
       -2    1    3    3    0  502 -0.16557799080E+04 -0.56535459978E+03  0.82768441694E+02  0.17515945713E+04  0.25500000920E-02 0.  1.
</event>
<event>
 5   0  0.9311672E-07  0.3418439E+04  0.7818609E-02  0.8133396E-01
       -2   -1    0    0    0  501  0.00000000000E+00  0.00000000000E+00  0.18483948847E+04  0.18483948847E+04  0.25500000920E-02 0.  1.
        2   -1    0    0  501    0  0.00000000000E+00  0.00000000000E+00 -0.15805233018E+04  0.15805233018E+04  0.25500000920E-02 0. -1.
    10030    2    1    2    0    0  0.00000000000E+00  0.00000000000E+00  0.26787158288E+03  0.34289181866E+04  0.34184389340E+04 0.  0.
        4    1    3    3  502    0  0.80311678816E+03 -0.85475336231E+03  0.13810611747E+04  0.18118861628E+04  0.12699999809E+01 0.  1.
       -4    1    3    3    0  502 -0.80311678816E+03  0.85475336231E+03 -0.11131895918E+04  0.16170320238E+04  0.12699999809E+01 0. -1.
</event>
<event>
 5   0  0.3026332E-07  0.3547305E+04  0.7818609E-02  0.8102670E-01
        1   -1    0    0  501    0  0.00000000000E+00  0.00000000000E+00  0.11928729624E+04  0.11928729624E+04  0.50400001928E-02 0.  1.
       -1   -1    0    0    0  501  0.00000000000E+00  0.00000000000E+00 -0.26371991025E+04  0.26371991025E+04  0.50400001928E-02 0. -1.
    10030    2    1    2    0    0  0.00000000000E+00  0.00000000000E+00 -0.14443261401E+04  0.38300720649E+04  0.35473051777E+04 0.  0.
        1    1    3    3  502    0 -0.14983273113E+04 -0.48307475738E+03 -0.16042943691E+04  0.22476891190E+04  0.50400001928E-02 0. -1.
       -1    1    3    3    0  502  0.14983273113E+04  0.48307475738E+03  0.15996822909E+03  0.15823829459E+04  0.50400001928E-02 0.  1.
</event>
<event>
 5   0  0.3026332E-07  0.2984975E+04  0.7818609E-02  0.8248034E-01
       -1   -1    0    0    0  501  0.00000000000E+00  0.00000000000E+00  0.12560646980E+04  0.12560646980E+04  0.50400001928E-02 0. -1.
        1   -1    0    0  501    0  0.00000000000E+00  0.00000000000E+00 -0.17734110031E+04  0.17734110031E+04  0.50400001928E-02 0.  1.
    10030    2    1    2    0    0  0.00000000000E+00  0.00000000000E+00 -0.51734630508E+03  0.30294757011E+04  0.29849750124E+04 0.  0.
        1    1    3    3  502    0  0.12551017139E+04  0.59352335124E+03 -0.81453226046E+03  0.16096624131E+04  0.50400001928E-02 0.  1.
       -1    1    3    3    0  502 -0.12551017139E+04 -0.59352335124E+03  0.29718595537E+03  0.14198132880E+04  0.50400001928E-02 0. -1.
</event>
<event>
 5   0  0.6188930E-07  0.3511278E+04  0.7818609E-02  0.8111122E-01
        2   -1    0    0  501    0  0.00000000000E+00  0.00000000000E+00  0.96219902940E+03  0.96219902940E+03  0.25500000920E-02 0. -1.
       -2   -1    0    0    0  501  0.00000000000E+00  0.00000000000E+00 -0.32033581566E+04  0.32033581566E+04  0.25500000920E-02 0.  1.
    10030    2    1    2    0    0  0.00000000000E+00  0.00000000000E+00 -0.22411591272E+04  0.41655571860E+04  0.35112778922E+04 0.  0.
        3    1    3    3  502    0 -0.44751377627E+03  0.11195085884E+04  0.39342942074E+03  0.12682092803E+04  0.10100000352E+00 0. -1.
       -3    1    3    3    0  502  0.44751377627E+03 -0.11195085884E+04 -0.26345885480E+04  0.28973479057E+04  0.10100000352E+00 0.  1.
</event>
<event>
 5   0  0.2933506E-07  0.3521397E+04  0.7818609E-02  0.8108738E-01
       -1   -1    0    0    0  501  0.00000000000E+00  0.00000000000E+00  0.18109584353E+04  0.18109584353E+04  0.50400001928E-02 0.  1.
        1   -1    0    0  501    0  0.00000000000E+00  0.00000000000E+00 -0.17118330819E+04  0.17118330819E+04  0.50400001928E-02 0. -1.
    10030    2    1    2    0    0  0.00000000000E+00  0.00000000000E+00  0.99125353381E+02  0.35227915172E+04  0.35213966318E+04 0.  0.
        4    1    3    3  502    0  0.24047233763E+03 -0.64870596759E+03  0.16692810941E+04  0.18069718762E+04  0.12699999809E+01 0.  1.
       -4    1    3    3    0  502 -0.24047233763E+03  0.64870596759E+03 -0.15701557407E+04  0.17158196410E+04  0.12699999809E+01 0. -1.
</event>
<event>
 5   0  0.3026332E-07  0.3505545E+04  0.7818609E-02  0.8112477E-01
       -1   -1    0    0    0  501  0.00000000000E+00  0.00000000000E+00  0.13572244458E+04  0.13572244458E+04  0.50400001928E-02 0. -1.
        1   -1    0    0  501    0  0.00000000000E+00  0.00000000000E+00 -0.22635980744E+04  0.22635980744E+04  0.50400001928E-02 0.  1.
    10030    2    1    2    0    0  0.00000000000E+00  0.00000000000E+00 -0.90637362859E+03  0.36208225202E+04  0.35055445466E+04 0.  0.
        1    1    3    3  502    0 -0.12887859472E+04 -0.96244399017E+03 -0.11724653335E+04  0.19904629135E+04  0.50400001928E-02 0.  1.
       -1    1    3    3    0  502  0.12887859472E+04  0.96244399017E+03  0.26609170486E+03  0.16303596067E+04  0.50400001928E-02 0. -1.
</event>
<event>
 5   0  0.2907000E-07  0.3189331E+04  0.7818609E-02  0.8191641E-01
        3   -1    0    0  501    0  0.00000000000E+00  0.00000000000E+00  0.13771807065E+04  0.13771807102E+04  0.10100000352E+00 0. -1.
       -3   -1    0    0    0  501  0.00000000000E+00  0.00000000000E+00 -0.18464951740E+04  0.18464951768E+04  0.10100000352E+00 0.  1.
    10030    2    1    2    0    0  0.00000000000E+00  0.00000000000E+00 -0.46931446746E+03  0.32236758870E+04  0.31893306751E+04 0.  0.
        2    1    3    3  502    0 -0.99817611662E+02 -0.14575714445E+04  0.41134933841E+03  0.15177899557E+04  0.25500000920E-02 0. -1.
       -2    1    3    3    0  502  0.99817611662E+02  0.14575714445E+04 -0.88066380588E+03  0.17058859313E+04  0.25500000920E-02 0.  1.
</event>
<event>
 5   0  0.3026332E-07  0.3508645E+04  0.7818609E-02  0.8111744E-01
       -1   -1    0    0    0  501  0.00000000000E+00  0.00000000000E+00  0.14588442526E+04  0.14588442527E+04  0.50400001928E-02 0.  1.
        1   -1    0    0  501    0  0.00000000000E+00  0.00000000000E+00 -0.21096481770E+04  0.21096481770E+04  0.50400001928E-02 0. -1.
    10030    2    1    2    0    0  0.00000000000E+00  0.00000000000E+00 -0.65080392433E+03  0.35684924296E+04  0.35086453899E+04 0.  0.
        1    1    3    3  502    0 -0.90167694741E+03  0.45703666860E+03 -0.17836447866E+04  0.20501932979E+04  0.50400001928E-02 0. -1.
       -1    1    3    3    0  502  0.90167694741E+03 -0.45703666860E+03  0.11328408623E+04  0.15182991317E+04  0.50400001928E-02 0.  1.
</event>
<event>
 5   0  0.3026332E-07  0.3329188E+04  0.7818609E-02  0.8155508E-01
        1   -1    0    0  501    0  0.00000000000E+00  0.00000000000E+00  0.13275873757E+04  0.13275873757E+04  0.50400001928E-02 0.  1.
       -1   -1    0    0    0  501  0.00000000000E+00  0.00000000000E+00 -0.20871493955E+04  0.20871493955E+04  0.50400001928E-02 0. -1.
    10030    2    1    2    0    0  0.00000000000E+00  0.00000000000E+00 -0.75956201980E+03  0.34147367713E+04  0.33291880024E+04 0.  0.
        1    1    3    3  502    0  0.14100935724E+04 -0.15241091711E+02  0.52741095575E+03  0.15055758002E+04  0.50400001928E-02 0.  1.
       -1    1    3    3    0  502 -0.14100935724E+04  0.15241091711E+02 -0.12869729755E+04  0.19091609711E+04  0.50400001928E-02 0. -1.
</event>
<event>
 5   0  0.8845195E-07  0.3505697E+04  0.7818609E-02  0.8112441E-01
       -2   -1    0    0    0  501  0.00000000000E+00  0.00000000000E+00  0.17497706627E+04  0.17497706627E+04  0.25500000920E-02 0. -1.
        2   -1    0    0  501    0  0.00000000000E+00  0.00000000000E+00 -0.17559315407E+04  0.17559315407E+04  0.25500000920E-02 0.  1.
    10030    2    1    2    0    0  0.00000000000E+00  0.00000000000E+00 -0.61608780632E+01  0.35057022034E+04  0.35056967899E+04 0.  0.
        5    1    3    3  502    0 -0.15735805816E+04 -0.45900581828E+03  0.61789815041E+03  0.17517598015E+04  0.46999998093E+01 0. -1.
       -5    1    3    3    0  502  0.15735805816E+04  0.45900581828E+03 -0.62405902847E+03  0.17539424019E+04  0.46999998093E+01 0.  1.
</event>
<event>
 5   0  0.2933506E-07  0.3478110E+04  0.7818609E-02  0.8118997E-01
       -1   -1    0    0    0  501  0.00000000000E+00  0.00000000000E+00  0.13623899988E+04  0.13623899988E+04  0.50400001928E-02 0. -1.
        1   -1    0    0  501    0  0.00000000000E+00  0.00000000000E+00 -0.22198576470E+04  0.22198576470E+04  0.50400001928E-02 0.  1.
    10030    2    1    2    0    0  0.00000000000E+00  0.00000000000E+00 -0.85746764815E+03  0.35822476458E+04  0.34781097493E+04 0.  0.
        4    1    3    3  502    0  0.75058483427E+03  0.71376800746E+03  0.10100416570E+04  0.14467301489E+04  0.12699999809E+01 0. -1.
       -4    1    3    3    0  502 -0.75058483427E+03 -0.71376800746E+03 -0.18675093052E+04  0.21355174969E+04  0.12699999809E+01 0.  1.
</event>
<event>
 5   0  0.2933506E-07  0.3469591E+04  0.7818609E-02  0.8121035E-01
        1   -1    0    0  501    0  0.00000000000E+00  0.00000000000E+00  0.15096483278E+04  0.15096483279E+04  0.50400001928E-02 0. -1.
       -1   -1    0    0    0  501  0.00000000000E+00  0.00000000000E+00 -0.19935207871E+04  0.19935207871E+04  0.50400001928E-02 0.  1.
    10030    2    1    2    0    0  0.00000000000E+00  0.00000000000E+00 -0.48387245928E+03  0.35031691150E+04  0.34695909401E+04 0.  0.
        4    1    3    3  502    0  0.73596127599E+03  0.13744833034E+04 -0.10100020636E+04  0.18576730425E+04  0.12699999809E+01 0.  1.
       -4    1    3    3    0  502 -0.73596127599E+03 -0.13744833034E+04  0.52612960436E+03  0.16454960725E+04  0.12699999809E+01 0. -1.
</event>
<event>
 5   0  0.3026332E-07  0.3481289E+04  0.7818609E-02  0.8118239E-01
        1   -1    0    0  501    0  0.00000000000E+00  0.00000000000E+00  0.17021981284E+04  0.17021981284E+04  0.50400001928E-02 0.  1.
       -1   -1    0    0    0  501  0.00000000000E+00  0.00000000000E+00 -0.17799588573E+04  0.17799588573E+04  0.50400001928E-02 0. -1.
    10030    2    1    2    0    0  0.00000000000E+00  0.00000000000E+00 -0.77760728911E+02  0.34821569858E+04  0.34812886325E+04 0.  0.
        1    1    3    3  502    0 -0.10842967299E+04  0.76915743855E+03  0.10850279914E+04  0.17159802755E+04  0.50400001928E-02 0.  1.
       -1    1    3    3    0  502  0.10842967299E+04 -0.76915743855E+03 -0.11627887204E+04  0.17661767103E+04  0.50400001928E-02 0. -1.
</event>
<event>
 5   0  0.6188930E-07  0.3475313E+04  0.7818609E-02  0.8119665E-01
        2   -1    0    0  501    0  0.00000000000E+00  0.00000000000E+00  0.14130270108E+04  0.14130270108E+04  0.25500000920E-02 0. -1.
       -2   -1    0    0    0  501  0.00000000000E+00  0.00000000000E+00 -0.21368667496E+04  0.21368667496E+04  0.25500000920E-02 0.  1.
    10030    2    1    2    0    0  0.00000000000E+00  0.00000000000E+00 -0.72383973874E+03  0.35498937604E+04  0.34753131863E+04 0.  0.
        3    1    3    3  502    0  0.39681927049E+03  0.23226676974E+03 -0.20736008449E+04  0.21239665393E+04  0.10100000352E+00 0.  1.
       -3    1    3    3    0  502 -0.39681927049E+03 -0.23226676974E+03  0.13497611062E+04  0.14259272211E+04  0.10100000352E+00 0. -1.
</event>
<event>
 5   0  0.9311672E-07  0.3508736E+04  0.7818609E-02  0.8111723E-01
       -2   -1    0    0    0  501  0.00000000000E+00  0.00000000000E+00  0.12085957976E+04  0.12085957976E+04  0.25500000920E-02 0. -1.
        2   -1    0    0  501    0  0.00000000000E+00  0.00000000000E+00 -0.25465982067E+04  0.25465982067E+04  0.25500000920E-02 0.  1.
    10030    2    1    2    0    0  0.00000000000E+00  0.00000000000E+00 -0.13380024091E+04  0.37551940043E+04  0.35087364625E+04 0.  0.
        4    1    3    3  502    0 -0.37030900785E+03  0.95749889511E+03  0.85355487638E+03  0.13350994103E+04  0.12699999809E+01 0. -1.
       -4    1    3    3    0  502  0.37030900785E+03 -0.95749889511E+03 -0.21915572855E+04  0.24200945940E+04  0.12699999809E+01 0.  1.
</event>
<event>
 5   0  0.3061330E-07  0.3458140E+04  0.7818609E-02  0.8123783E-01
        1   -1    0    0  501    0  0.00000000000E+00  0.00000000000E+00  0.83938676026E+03  0.83938676028E+03  0.50400001928E-02 0.  1.
       -1   -1    0    0    0  501  0.00000000000E+00  0.00000000000E+00 -0.35617458405E+04  0.35617458405E+04  0.50400001928E-02 0. -1.
    10030    2    1    2    0    0  0.00000000000E+00  0.00000000000E+00 -0.27223590802E+04  0.44011326007E+04  0.34581395587E+04 0.  0.
        5    1    3    3  502    0 -0.12551919245E+04 -0.67649806282E+02 -0.28721860381E+04  0.31352125910E+04  0.46999998093E+01 0. -1.
       -5    1    3    3    0  502  0.12551919245E+04  0.67649806282E+02  0.14982695788E+03  0.12659200097E+04  0.46999998093E+01 0.  1.
</event>
<event>
 5   0  0.9311672E-07  0.3492539E+04  0.7818609E-02  0.8115560E-01
       -2   -1    0    0    0  501  0.00000000000E+00  0.00000000000E+00  0.14850269718E+04  0.14850269718E+04  0.25500000920E-02 0.  1.
        2   -1    0    0  501    0  0.00000000000E+00  0.00000000000E+00 -0.20534690803E+04  0.20534690803E+04  0.25500000920E-02 0. -1.
    10030    2    1    2    0    0  0.00000000000E+00  0.00000000000E+00 -0.56844210854E+03  0.35384960521E+04  0.34925388874E+04 0.  0.
        4    1    3    3  502    0  0.66431973310E+03 -0.33217271230E+03 -0.18854592550E+04  0.20264791225E+04  0.12699999809E+01 0. -1.
       -4    1    3    3    0  502 -0.66431973310E+03  0.33217271230E+03  0.13170171465E+04  0.15120169297E+04  0.12699999809E+01 0.  1.
</event>
<event>
 5   0  0.2972541E-07  0.3511043E+04  0.7818609E-02  0.8111178E-01
        1   -1    0    0  501    0  0.00000000000E+00  0.00000000000E+00  0.20926597548E+04  0.20926597549E+04  0.50400001928E-02 0. -1.
       -1   -1    0    0    0  501  0.00000000000E+00  0.00000000000E+00 -0.14726978162E+04  0.14726978162E+04  0.50400001928E-02 0.  1.
    10030    2    1    2    0    0  0.00000000000E+00  0.00000000000E+00  0.61996193865E+03  0.35653575711E+04  0.35110428371E+04 0.  0.
        3    1    3    3  502    0  0.52379624938E+02  0.12565811502E+04  0.15537201952E+04  0.19989462892E+04  0.10100000352E+00 0. -1.
       -3    1    3    3    0  502 -0.52379624938E+02 -0.12565811502E+04 -0.93375825651E+03  0.15664112818E+04  0.10100000352E+00 0.  1.
</event>
<event>
 5   0  0.8950809E-07  0.3940112E+04  0.7818609E-02  0.8016738E-01
       -2   -1    0    0    0  501  0.00000000000E+00  0.00000000000E+00  0.26585711574E+04  0.26585711574E+04  0.25500000920E-02 0.  1.
        2   -1    0    0  501    0  0.00000000000E+00  0.00000000000E+00 -0.14598521115E+04  0.14598521115E+04  0.25500000920E-02 0. -1.
    10030    2    1    2    0    0  0.00000000000E+00  0.00000000000E+00  0.11987190459E+04  0.41184232689E+04  0.39401120378E+04 0.  0.
        2    1    3    3  502    0  0.64280080521E+03  0.14799109602E+04 -0.58219124512E+03  0.17153063782E+04  0.25500000920E-02 0. -1.
       -2    1    3    3    0  502 -0.64280080521E+03 -0.14799109602E+04  0.17809102910E+04  0.24031168906E+04  0.25500000920E-02 0.  1.
</event>
<event>
 5   0  0.9128871E-07  0.3472309E+04  0.7818609E-02  0.8120384E-01
       -2   -1    0    0    0  501  0.00000000000E+00  0.00000000000E+00  0.15776839861E+04  0.15776839861E+04  0.25500000920E-02 0.  1.
        2   -1    0    0  501    0  0.00000000000E+00  0.00000000000E+00 -0.19105431328E+04  0.19105431328E+04  0.25500000920E-02 0. -1.
    10030    2    1    2    0    0  0.00000000000E+00  0.00000000000E+00 -0.33285914677E+03  0.34882271189E+04  0.34723094939E+04 0.  0.
        1    1    3    3  502    0 -0.15513314416E+04 -0.22184506129E+03 -0.91710930215E+03  0.18157461125E+04  0.50400001928E-02 0. -1.
       -1    1    3    3    0  502  0.15513314416E+04  0.22184506129E+03  0.58425015539E+03  0.16724810064E+04  0.50400001928E-02 0.  1.
</event>
<event>
 5   0  0.2936607E-07  0.3490725E+04  0.7818609E-02  0.8115991E-01
        1   -1    0    0  501    0  0.00000000000E+00  0.00000000000E+00  0.10114151400E+04  0.10114151400E+04  0.50400001928E-02 0. -1.
       -1   -1    0    0    0  501  0.00000000000E+00  0.00000000000E+00 -0.30119091192E+04  0.30119091192E+04  0.50400001928E-02 0.  1.
    10030    2    1    2    0    0  0.00000000000E+00  0.00000000000E+00 -0.20004939792E+04  0.40233242592E+04  0.34907251301E+04 0.  0.
        2    1    3    3  502    0 -0.74412782532E+03 -0.75492675374E+03 -0.25984041451E+04  0.28063044605E+04  0.25500000920E-02 0.  1.
       -2    1    3    3    0  502  0.74412782532E+03  0.75492675374E+03  0.59791016591E+03  0.12170197987E+04  0.25500000920E-02 0. -1.
</event>
<event>
 5   0  0.9128871E-07  0.3441610E+04  0.7818609E-02  0.8127769E-01
       -2   -1    0    0    0  501  0.00000000000E+00  0.00000000000E+00  0.15741559727E+04  0.15741559727E+04  0.25500000920E-02 0.  1.
        2   -1    0    0  501    0  0.00000000000E+00  0.00000000000E+00 -0.18811155777E+04  0.18811155777E+04  0.25500000920E-02 0. -1.
    10030    2    1    2    0    0  0.00000000000E+00  0.00000000000E+00 -0.30695960497E+03  0.34552715504E+04  0.34416096943E+04 0.  0.
        1    1    3    3  502    0 -0.16061961115E+04  0.14738162138E+03  0.44855217312E+03  0.16741524253E+04  0.50400001928E-02 0.  1.
       -1    1    3    3    0  502  0.16061961115E+04 -0.14738162138E+03 -0.75551177809E+03  0.17811191251E+04  0.50400001928E-02 0. -1.
</event>
<event>
 5   0  0.8845195E-07  0.3241921E+04  0.7818609E-02  0.8177833E-01
       -2   -1    0    0    0  501  0.00000000000E+00  0.00000000000E+00  0.10807001123E+04  0.10807001123E+04  0.25500000920E-02 0. -1.
        2   -1    0    0  501    0  0.00000000000E+00  0.00000000000E+00 -0.24313065699E+04  0.24313065699E+04  0.25500000920E-02 0.  1.
    10030    2    1    2    0    0  0.00000000000E+00  0.00000000000E+00 -0.13506064576E+04  0.35120066822E+04  0.32419212101E+04 0.  0.
        5    1    3    3  502    0 -0.71952074254E+03  0.14359910064E+04 -0.43867759522E+03  0.16650046222E+04  0.46999998093E+01 0. -1.
       -5    1    3    3    0  502  0.71952074254E+03 -0.14359910064E+04 -0.91192886242E+03  0.18470020600E+04  0.46999998093E+01 0.  1.
</event>
<event>
 5   0  0.9311672E-07  0.3610184E+04  0.7818609E-02  0.8088163E-01
       -2   -1    0    0    0  501  0.00000000000E+00  0.00000000000E+00  0.14313794656E+04  0.14313794656E+04  0.25500000920E-02 0.  1.
        2   -1    0    0  501    0  0.00000000000E+00  0.00000000000E+00 -0.22763750143E+04  0.22763750143E+04  0.25500000920E-02 0. -1.
    10030    2    1    2    0    0  0.00000000000E+00  0.00000000000E+00 -0.84499554865E+03  0.37077544799E+04  0.36101836250E+04 0.  0.
        4    1    3    3  502    0  0.62515994259E+03 -0.13388748825E+04  0.64231826162E+03  0.16112061528E+04  0.12699999809E+01 0.  1.
       -4    1    3    3    0  502 -0.62515994259E+03  0.13388748825E+04 -0.14873138103E+04  0.20965483271E+04  0.12699999809E+01 0. -1.
</event>
<event>
 5   0  0.6188930E-07  0.3505389E+04  0.7818609E-02  0.8112514E-01
        2   -1    0    0  501    0  0.00000000000E+00  0.00000000000E+00  0.26280050902E+04  0.26280050902E+04  0.25500000920E-02 0.  1.
       -2   -1    0    0    0  501  0.00000000000E+00  0.00000000000E+00 -0.11689240083E+04  0.11689240083E+04  0.25500000920E-02 0. -1.
    10030    2    1    2    0    0  0.00000000000E+00  0.00000000000E+00  0.14590810819E+04  0.37969290986E+04  0.35053891333E+04 0.  0.
        3    1    3    3  502    0 -0.36838840861E+03  0.15513107578E+04  0.15178488963E+04  0.22013950961E+04  0.10100000352E+00 0. -1.
       -3    1    3    3    0  502  0.36838840861E+03 -0.15513107578E+04 -0.58767814405E+02  0.15955340025E+04  0.10100000352E+00 0.  1.
</event>
<event>
 5   0  0.2936607E-07  0.3488813E+04  0.7818609E-02  0.8116446E-01
       -1   -1    0    0    0  501  0.00000000000E+00  0.00000000000E+00  0.12351158804E+04  0.12351158804E+04  0.50400001928E-02 0.  1.
        1   -1    0    0  501    0  0.00000000000E+00  0.00000000000E+00 -0.24636991424E+04  0.24636991424E+04  0.50400001928E-02 0. -1.
    10030    2    1    2    0    0  0.00000000000E+00  0.00000000000E+00 -0.12285832620E+04  0.36988150228E+04  0.34888129416E+04 0.  0.
        2    1    3    3  502    0  0.16539525468E+04 -0.40166476204E+03 -0.20910877382E+03  0.17148236316E+04  0.25500000920E-02 0.  1.
       -2    1    3    3    0  502 -0.16539525468E+04  0.40166476204E+03 -0.10194744882E+04  0.19839913912E+04  0.25500000920E-02 0. -1.
</event>
<event>
 5   0  0.2933506E-07  0.3449094E+04  0.7818609E-02  0.8125961E-01
       -1   -1    0    0    0  501  0.00000000000E+00  0.00000000000E+00  0.19083229955E+04  0.19083229955E+04  0.50400001928E-02 0.  1.
        1   -1    0    0  501    0  0.00000000000E+00  0.00000000000E+00 -0.15584692093E+04  0.15584692093E+04  0.50400001928E-02 0. -1.
    10030    2    1    2    0    0  0.00000000000E+00  0.00000000000E+00  0.34985378613E+03  0.34667922048E+04  0.34490941593E+04 0.  0.
        4    1    3    3  502    0  0.89667913959E+03 -0.86150697870E+03 -0.10261242706E+04  0.16121911752E+04  0.12699999809E+01 0. -1.
       -4    1    3    3    0  502 -0.89667913959E+03  0.86150697870E+03  0.13759780567E+04  0.18546010296E+04  0.12699999809E+01 0.  1.
</event>
<event>
 5   0  0.2972541E-07  0.3021953E+04  0.7818609E-02  0.8237490E-01
       -1   -1    0    0    0  501  0.00000000000E+00  0.00000000000E+00  0.92099284257E+03  0.92099284258E+03  0.50400001928E-02 0. -1.
        1   -1    0    0  501    0  0.00000000000E+00  0.00000000000E+00 -0.24789002902E+04  0.24789002902E+04  0.50400001928E-02 0.  1.
    10030    2    1    2    0    0  0.00000000000E+00  0.00000000000E+00 -0.15579074476E+04  0.33998931328E+04  0.30219526302E+04 0.  0.
        3    1    3    3  502    0 -0.75096298672E+03 -0.23384645973E+03 -0.22304270392E+04  0.23650442620E+04  0.10100000352E+00 0.  1.
       -3    1    3    3    0  502  0.75096298672E+03  0.23384645973E+03  0.67251959152E+03  0.10348488708E+04  0.10100000352E+00 0. -1.
</event>
<event>
 5   0  0.3026332E-07  0.3213507E+04  0.7818609E-02  0.8185259E-01
        1   -1    0    0  501    0  0.00000000000E+00  0.00000000000E+00  0.10032310154E+04  0.10032310154E+04  0.50400001928E-02 0.  1.
       -1   -1    0    0    0  501  0.00000000000E+00  0.00000000000E+00 -0.25733418039E+04  0.25733418039E+04  0.50400001928E-02 0. -1.
    10030    2    1    2    0    0  0.00000000000E+00  0.00000000000E+00 -0.15701107885E+04  0.35765728193E+04  0.32135066896E+04 0.  0.
        1    1    3    3  502    0  0.14485843620E+04 -0.67571845446E+03 -0.60331462302E+03  0.17085024489E+04  0.50400001928E-02 0.  1.
       -1    1    3    3    0  502 -0.14485843620E+04  0.67571845446E+03 -0.96679616545E+03  0.18680703705E+04  0.50400001928E-02 0. -1.
</event>
<event>
 5   0  0.6188930E-07  0.3375528E+04  0.7818609E-02  0.8143939E-01
        2   -1    0    0  501    0  0.00000000000E+00  0.00000000000E+00  0.20395124880E+04  0.20395124880E+04  0.25500000920E-02 0. -1.
       -2   -1    0    0    0  501  0.00000000000E+00  0.00000000000E+00 -0.13966807721E+04  0.13966807721E+04  0.25500000920E-02 0.  1.
    10030    2    1    2    0    0  0.00000000000E+00  0.00000000000E+00  0.64283171589E+03  0.34361932601E+04  0.33755283299E+04 0.  0.
        3    1    3    3  502    0  0.35783407256E+03 -0.16466698435E+04  0.22494417716E+03  0.17000490258E+04  0.10100000352E+00 0. -1.
       -3    1    3    3    0  502 -0.35783407256E+03  0.16466698435E+04  0.41788753872E+03  0.17361442343E+04  0.10100000352E+00 0.  1.
</event>
<event>
 5   0  0.6188930E-07  0.3528919E+04  0.7818609E-02  0.8106970E-01
        2   -1    0    0  501    0  0.00000000000E+00  0.00000000000E+00  0.26236071499E+04  0.26236071499E+04  0.25500000920E-02 0.  1.
       -2   -1    0    0    0  501  0.00000000000E+00  0.00000000000E+00 -0.11866555782E+04  0.11866555782E+04  0.25500000920E-02 0. -1.
    10030    2    1    2    0    0  0.00000000000E+00  0.00000000000E+00  0.14369515716E+04  0.38102627281E+04  0.35289194150E+04 0.  0.
        3    1    3    3  502    0 -0.12391341817E+04  0.11114526199E+04  0.13504033632E+04  0.21434480866E+04  0.10100000352E+00 0.  1.
       -3    1    3    3    0  502  0.12391341817E+04 -0.11114526199E+04  0.86548208467E+02  0.16668146415E+04  0.10100000352E+00 0. -1.
</event>
<event>
 5   0  0.8950809E-07  0.3473662E+04  0.7818609E-02  0.8120060E-01
        2   -1    0    0  501    0  0.00000000000E+00  0.00000000000E+00  0.18556286985E+04  0.18556286985E+04  0.25500000920E-02 0.  1.
       -2   -1    0    0    0  501  0.00000000000E+00  0.00000000000E+00 -0.16256388271E+04  0.16256388271E+04  0.25500000920E-02 0. -1.
    10030    2    1    2    0    0  0.00000000000E+00  0.00000000000E+00  0.22998987141E+03  0.34812675256E+04  0.34736620797E+04 0.  0.
        2    1    3    3  502    0  0.10169964767E+04  0.13153762338E+04  0.61817548185E+03  0.17738763758E+04  0.25500000920E-02 0.  1.
       -2    1    3    3    0  502 -0.10169964767E+04 -0.13153762338E+04 -0.38818561045E+03  0.17073911498E+04  0.25500000920E-02 0. -1.
</event>
<event>
 5   0  0.3026332E-07  0.3510636E+04  0.7818609E-02  0.8111274E-01
        1   -1    0    0  501    0  0.00000000000E+00  0.00000000000E+00  0.25894218127E+04  0.25894218127E+04  0.50400001928E-02 0.  1.
       -1   -1    0    0    0  501  0.00000000000E+00  0.00000000000E+00 -0.11898951776E+04  0.11898951776E+04  0.50400001928E-02 0. -1.
    10030    2    1    2    0    0  0.00000000000E+00  0.00000000000E+00  0.13995266350E+04  0.37793169903E+04  0.35106355708E+04 0.  0.
        1    1    3    3  502    0 -0.11196309800E+04  0.62236255641E+03  0.19917075742E+04  0.23680810257E+04  0.50400001928E-02 0.  1.
       -1    1    3    3    0  502  0.11196309800E+04 -0.62236255641E+03 -0.59218093921E+03  0.14112359646E+04  0.50400001928E-02 0. -1.
</event>
<event>
 5   0  0.8950809E-07  0.3482713E+04  0.7818609E-02  0.8117899E-01
        2   -1    0    0  501    0  0.00000000000E+00  0.00000000000E+00  0.20356432010E+04  0.20356432010E+04  0.25500000920E-02 0.  1.
       -2   -1    0    0    0  501  0.00000000000E+00  0.00000000000E+00 -0.14896142015E+04  0.14896142015E+04  0.25500000920E-02 0. -1.
    10030    2    1    2    0    0  0.00000000000E+00  0.00000000000E+00  0.54602899947E+03  0.35252574026E+04  0.34827133224E+04 0.  0.
        2    1    3    3  502    0 -0.15751335972E+04  0.17151606138E+03  0.10042375392E+04  0.18758882279E+04  0.25500000920E-02 0.  1.
       -2    1    3    3    0  502  0.15751335972E+04 -0.17151606138E+03 -0.45820853972E+03  0.16493691747E+04  0.25500000920E-02 0. -1.
</event>
<event>
 5   0  0.3026332E-07  0.3427689E+04  0.7818609E-02  0.8131144E-01
        1   -1    0    0  501    0  0.00000000000E+00  0.00000000000E+00  0.25953051739E+04  0.25953051739E+04  0.50400001928E-02 0.  1.
       -1   -1    0    0    0  501  0.00000000000E+00  0.00000000000E+00 -0.11317599403E+04  0.11317599403E+04  0.50400001928E-02 0. -1.
    10030    2    1    2    0    0  0.00000000000E+00  0.00000000000E+00  0.14635452336E+04  0.37270651142E+04  0.34276886841E+04 0.  0.
        1    1    3    3  502    0  0.91010752165E+03 -0.32849815856E+03 -0.80636501230E+03  0.12595361345E+04  0.50400001928E-02 0. -1.
       -1    1    3    3    0  502 -0.91010752165E+03  0.32849815856E+03  0.22699102459E+04  0.24675289797E+04  0.50400001928E-02 0.  1.
</event>
<event>
 5   0  0.3061330E-07  0.3493356E+04  0.7818609E-02  0.8115366E-01
        1   -1    0    0  501    0  0.00000000000E+00  0.00000000000E+00  0.25522678303E+04  0.25522678303E+04  0.50400001928E-02 0.  1.
       -1   -1    0    0    0  501  0.00000000000E+00  0.00000000000E+00 -0.11953618408E+04  0.11953618408E+04  0.50400001928E-02 0. -1.
    10030    2    1    2    0    0  0.00000000000E+00  0.00000000000E+00  0.13569059895E+04  0.37476296710E+04  0.34933557344E+04 0.  0.
        5    1    3    3  502    0 -0.17368511828E+04  0.15713101057E+03  0.57378442953E+03  0.18359174402E+04  0.46999998093E+01 0. -1.
       -5    1    3    3    0  502  0.17368511828E+04 -0.15713101057E+03  0.78312155995E+03  0.19117122308E+04  0.46999998093E+01 0.  1.
</event>
<event>
 5   0  0.9311672E-07  0.3522353E+04  0.7818609E-02  0.8108513E-01
        2   -1    0    0  501    0  0.00000000000E+00  0.00000000000E+00  0.32721564644E+04  0.32721564644E+04  0.25500000920E-02 0. -1.
       -2   -1    0    0    0  501  0.00000000000E+00  0.00000000000E+00 -0.94792025700E+03  0.94792025700E+03  0.25500000920E-02 0.  1.
    10030    2    1    2    0    0  0.00000000000E+00  0.00000000000E+00  0.23242362074E+04  0.42200767214E+04  0.35223534159E+04 0.  0.
        4    1    3    3  502    0  0.10108083488E+04  0.25956108351E+03  0.28618094742E+04  0.30461550442E+04  0.12699999809E+01 0. -1.
       -4    1    3    3    0  502 -0.10108083488E+04 -0.25956108351E+03 -0.53757326677E+03  0.11739216772E+04  0.12699999809E+01 0.  1.
</event>
<event>
 5   0  0.3026332E-07  0.3490278E+04  0.7818609E-02  0.8116098E-01
       -1   -1    0    0    0  501  0.00000000000E+00  0.00000000000E+00  0.15428084560E+04  0.15428084560E+04  0.50400001928E-02 0. -1.
        1   -1    0    0  501    0  0.00000000000E+00  0.00000000000E+00 -0.19740040853E+04  0.19740040853E+04  0.50400001928E-02 0.  1.
    10030    2    1    2    0    0  0.00000000000E+00  0.00000000000E+00 -0.43119562923E+03  0.35168125413E+04  0.34902780377E+04 0.  0.
        1    1    3    3  502    0  0.40353562599E+02 -0.58009037724E+03 -0.18735177653E+04  0.19616834792E+04  0.50400001928E-02 0.  1.
       -1    1    3    3    0  502 -0.40353562599E+02  0.58009037724E+03  0.14423221360E+04  0.15551290621E+04  0.50400001928E-02 0. -1.
</event>
<event>
 5   0  0.3061330E-07  0.3501029E+04  0.7818609E-02  0.8113546E-01
        1   -1    0    0  501    0  0.00000000000E+00  0.00000000000E+00  0.15742589783E+04  0.15742589783E+04  0.50400001928E-02 0.  1.
       -1   -1    0    0    0  501  0.00000000000E+00  0.00000000000E+00 -0.19465038255E+04  0.19465038255E+04  0.50400001928E-02 0. -1.
    10030    2    1    2    0    0  0.00000000000E+00  0.00000000000E+00 -0.37224484722E+03  0.35207628038E+04  0.35010290622E+04 0.  0.
        5    1    3    3  502    0 -0.10169513395E+04 -0.13940400336E+04  0.11005656368E+03  0.17290668522E+04  0.46999998093E+01 0.  1.
       -5    1    3    3    0  502  0.10169513395E+04  0.13940400336E+04 -0.48230141090E+03  0.17916959516E+04  0.46999998093E+01 0. -1.
</event>
<event>
 5   0  0.3026332E-07  0.3435949E+04  0.7818609E-02  0.8129139E-01
       -1   -1    0    0    0  501  0.00000000000E+00  0.00000000000E+00  0.20258810648E+04  0.20258810649E+04  0.50400001928E-02 0. -1.
        1   -1    0    0  501    0  0.00000000000E+00  0.00000000000E+00 -0.14568657383E+04  0.14568657383E+04  0.50400001928E-02 0.  1.
    10030    2    1    2    0    0  0.00000000000E+00  0.00000000000E+00  0.56901532657E+03  0.34827468031E+04  0.34359491924E+04 0.  0.
        1    1    3    3  502    0 -0.82917208669E+03  0.13475377377E+03 -0.12344862922E+04  0.14931983574E+04  0.50400001928E-02 0.  1.
       -1    1    3    3    0  502  0.82917208669E+03 -0.13475377377E+03  0.18035016188E+04  0.19895484457E+04  0.50400001928E-02 0. -1.
</event>
<event>
 5   0  0.8845195E-07  0.3495974E+04  0.7818609E-02  0.8114745E-01
        2   -1    0    0  501    0  0.00000000000E+00  0.00000000000E+00  0.20286734217E+04  0.20286734217E+04  0.25500000920E-02 0.  1.
       -2   -1    0    0    0  501  0.00000000000E+00  0.00000000000E+00 -0.15061364812E+04  0.15061364812E+04  0.25500000920E-02 0. -1.
    10030    2    1    2    0    0  0.00000000000E+00  0.00000000000E+00  0.52253694056E+03  0.35348099029E+04  0.34959742841E+04 0.  0.
        5    1    3    3  502    0  0.19185199115E+03  0.17349701451E+04  0.35453395871E+03  0.17811920190E+04  0.46999998093E+01 0. -1.
       -5    1    3    3    0  502 -0.19185199115E+03 -0.17349701451E+04  0.16800298185E+03  0.17536178839E+04  0.46999998093E+01 0.  1.
</event>
<event>
 5   0  0.2936607E-07  0.3499398E+04  0.7818609E-02  0.8113933E-01
        1   -1    0    0  501    0  0.00000000000E+00  0.00000000000E+00  0.20136176230E+04  0.20136176230E+04  0.50400001928E-02 0.  1.
       -1   -1    0    0    0  501  0.00000000000E+00  0.00000000000E+00 -0.15203716000E+04  0.15203716000E+04  0.50400001928E-02 0. -1.
    10030    2    1    2    0    0  0.00000000000E+00  0.00000000000E+00  0.49324602303E+03  0.35339892230E+04  0.34993982610E+04 0.  0.
        2    1    3    3  502    0  0.57824745093E+03  0.75573122657E+03 -0.12362054525E+04  0.15600332439E+04  0.25500000920E-02 0. -1.
       -2    1    3    3    0  502 -0.57824745093E+03 -0.75573122657E+03  0.17294514755E+04  0.19739559791E+04  0.25500000920E-02 0.  1.
</event>
<event>
 5   0  0.3061330E-07  0.3442159E+04  0.7818609E-02  0.8127636E-01
       -1   -1    0    0    0  501  0.00000000000E+00  0.00000000000E+00  0.15653870379E+04  0.15653870379E+04  0.50400001928E-02 0.  1.
        1   -1    0    0  501    0  0.00000000000E+00  0.00000000000E+00 -0.18922565255E+04  0.18922565255E+04  0.50400001928E-02 0. -1.
    10030    2    1    2    0    0  0.00000000000E+00  0.00000000000E+00 -0.32686948759E+03  0.34576435634E+04  0.34421585305E+04 0.  0.
        5    1    3    3  502    0 -0.16898236659E+04 -0.29527194947E+03 -0.30335315200E+03  0.17420490151E+04  0.46999998093E+01 0.  1.
       -5    1    3    3    0  502  0.16898236659E+04  0.29527194947E+03 -0.23516335592E+02  0.17155945483E+04  0.46999998093E+01 0. -1.
</event>
<event>
 5   0  0.9128871E-07  0.3506415E+04  0.7818609E-02  0.8112271E-01
        2   -1    0    0  501    0  0.00000000000E+00  0.00000000000E+00  0.96952296662E+03  0.96952296663E+03  0.25500000920E-02 0.  1.
       -2   -1    0    0    0  501  0.00000000000E+00  0.00000000000E+00 -0.31703601221E+04  0.31703601221E+04  0.25500000920E-02 0. -1.
    10030    2    1    2    0    0  0.00000000000E+00  0.00000000000E+00 -0.22008371555E+04  0.41398830887E+04  0.35064152355E+04 0.  0.
        1    1    3    3  502    0 -0.99450829365E+03 -0.73407990637E+02 -0.28029042376E+04  0.29750138898E+04  0.50400001928E-02 0. -1.
       -1    1    3    3    0  502  0.99450829365E+03  0.73407990637E+02  0.60206708213E+03  0.11648691989E+04  0.50400001928E-02 0.  1.
</event>
<event>
 5   0  0.8845195E-07  0.3804099E+04  0.7818609E-02  0.8045276E-01
       -2   -1    0    0    0  501  0.00000000000E+00  0.00000000000E+00  0.17570103349E+04  0.17570103349E+04  0.25500000920E-02 0. -1.
        2   -1    0    0  501    0  0.00000000000E+00  0.00000000000E+00 -0.20590609985E+04  0.20590609985E+04  0.25500000920E-02 0.  1.
    10030    2    1    2    0    0  0.00000000000E+00  0.00000000000E+00 -0.30205066361E+03  0.38160713334E+04  0.38040985553E+04 0.  0.
        5    1    3    3  502    0  0.50834228946E+03  0.15238457005E+04 -0.11726863313E+04  0.19889024420E+04  0.46999998093E+01 0.  1.
       -5    1    3    3    0  502 -0.50834228946E+03 -0.15238457005E+04  0.87063566767E+03  0.18271688915E+04  0.46999998093E+01 0. -1.
</event>
<event>
 5   0  0.6188930E-07  0.3471932E+04  0.7818609E-02  0.8120474E-01
        2   -1    0    0  501    0  0.00000000000E+00  0.00000000000E+00  0.29062963191E+04  0.29062963191E+04  0.25500000920E-02 0.  1.
       -2   -1    0    0    0  501  0.00000000000E+00  0.00000000000E+00 -0.10369132532E+04  0.10369132532E+04  0.25500000920E-02 0. -1.
    10030    2    1    2    0    0  0.00000000000E+00  0.00000000000E+00  0.18693830659E+04  0.39432095723E+04  0.34719315494E+04 0.  0.
        3    1    3    3  502    0 -0.16165028691E+04  0.47434328002E+01  0.16534209139E+04  0.23123375088E+04  0.10100000352E+00 0.  1.
       -3    1    3    3    0  502  0.16165028691E+04 -0.47434328002E+01  0.21596215201E+03  0.16308720634E+04  0.10100000352E+00 0. -1.
</event>
<event>
 5   0  0.2933506E-07  0.3504601E+04  0.7818609E-02  0.8112700E-01
        1   -1    0    0  501    0  0.00000000000E+00  0.00000000000E+00  0.12101083399E+04  0.12101083400E+04  0.50400001928E-02 0. -1.
       -1   -1    0    0    0  501  0.00000000000E+00  0.00000000000E+00 -0.25374237089E+04  0.25374237089E+04  0.50400001928E-02 0.  1.
    10030    2    1    2    0    0  0.00000000000E+00  0.00000000000E+00 -0.13273153690E+04  0.37475320489E+04  0.35046013138E+04 0.  0.
        4    1    3    3  502    0 -0.33791028449E+03  0.16826755365E+04 -0.28563361625E+03  0.17398760005E+04  0.12699999809E+01 0. -1.
       -4    1    3    3    0  502  0.33791028449E+03 -0.16826755365E+04 -0.10416817527E+04  0.20076560484E+04  0.12699999809E+01 0.  1.
</event>
<event>
 5   0  0.9128871E-07  0.3491467E+04  0.7818609E-02  0.8115815E-01
       -2   -1    0    0    0  501  0.00000000000E+00  0.00000000000E+00  0.10864964201E+04  0.10864964201E+04  0.25500000920E-02 0.  1.
        2   -1    0    0  501    0  0.00000000000E+00  0.00000000000E+00 -0.28049658514E+04  0.28049658514E+04  0.25500000920E-02 0. -1.
    10030    2    1    2    0    0  0.00000000000E+00  0.00000000000E+00 -0.17184694313E+04  0.38914622715E+04  0.34914669445E+04 0.  0.
        1    1    3    3  502    0 -0.51932508272E+03 -0.16661894547E+04 -0.90518280688E+03  0.19660218092E+04  0.50400001928E-02 0. -1.
       -1    1    3    3    0  502  0.51932508272E+03  0.16661894547E+04 -0.81328662443E+03  0.19254404623E+04  0.50400001928E-02 0.  1.
</event>
<event>
 5   0  0.3026332E-07  0.3513631E+04  0.7818609E-02  0.8110567E-01
       -1   -1    0    0    0  501  0.00000000000E+00  0.00000000000E+00  0.19930821623E+04  0.19930821623E+04  0.50400001928E-02 0. -1.
        1   -1    0    0  501    0  0.00000000000E+00  0.00000000000E+00 -0.15485562559E+04  0.15485562559E+04  0.50400001928E-02 0.  1.
    10030    2    1    2    0    0  0.00000000000E+00  0.00000000000E+00  0.44452590633E+03  0.35416384182E+04  0.35136305161E+04 0.  0.
        1    1    3    3  502    0  0.15810979469E+04  0.50950816764E+03  0.79859914058E+03  0.18431575836E+04  0.50400001928E-02 0.  1.
       -1    1    3    3    0  502 -0.15810979469E+04 -0.50950816764E+03 -0.35407323424E+03  0.16984808347E+04  0.50400001928E-02 0. -1.
</event>
<event>
 5   0  0.9311672E-07  0.3443307E+04  0.7818609E-02  0.8127358E-01
        2   -1    0    0  501    0  0.00000000000E+00  0.00000000000E+00  0.16743329529E+04  0.16743329529E+04  0.25500000920E-02 0.  1.
       -2   -1    0    0    0  501  0.00000000000E+00  0.00000000000E+00 -0.17703115500E+04  0.17703115500E+04  0.25500000920E-02 0. -1.
    10030    2    1    2    0    0  0.00000000000E+00  0.00000000000E+00 -0.95978597073E+02  0.34446445029E+04  0.34433071110E+04 0.  0.
        4    1    3    3  502    0 -0.63249126526E+03 -0.77212691499E+03 -0.14513399766E+04  0.17614240018E+04  0.12699999809E+01 0. -1.
       -4    1    3    3    0  502  0.63249126526E+03  0.77212691499E+03  0.13553613795E+04  0.16832205011E+04  0.12699999809E+01 0.  1.
</event>
<event>
 5   0  0.3061330E-07  0.3491318E+04  0.7818609E-02  0.8115851E-01
       -1   -1    0    0    0  501  0.00000000000E+00  0.00000000000E+00  0.21143355232E+04  0.21143355232E+04  0.50400001928E-02 0. -1.
        1   -1    0    0  501    0  0.00000000000E+00  0.00000000000E+00 -0.14412684619E+04  0.14412684619E+04  0.50400001928E-02 0.  1.
    10030    2    1    2    0    0  0.00000000000E+00  0.00000000000E+00  0.67306706131E+03  0.35556039851E+04  0.34913178644E+04 0.  0.
        5    1    3    3  502    0  0.31011358544E+03  0.87033493111E+02  0.20838045522E+04  0.21085560857E+04  0.46999998093E+01 0. -1.
       -5    1    3    3    0  502 -0.31011358544E+03 -0.87033493111E+02 -0.14107374909E+04  0.14470478994E+04  0.46999998093E+01 0.  1.
</event>
<event>
 5   0  0.9311672E-07  0.3484268E+04  0.7818609E-02  0.8117528E-01
       -2   -1    0    0    0  501  0.00000000000E+00  0.00000000000E+00  0.28043847644E+04  0.28043847644E+04  0.25500000920E-02 0. -1.
        2   -1    0    0  501    0  0.00000000000E+00  0.00000000000E+00 -0.10822449229E+04  0.10822449229E+04  0.25500000920E-02 0.  1.
    10030    2    1    2    0    0  0.00000000000E+00  0.00000000000E+00  0.17221398415E+04  0.38866296874E+04  0.34842681718E+04 0.  0.
        4    1    3    3  502    0 -0.10389813671E+04 -0.35467576098E+03 -0.64782067127E+03  0.12747354281E+04  0.12699999809E+01 0.  1.
       -4    1    3    3    0  502  0.10389813671E+04  0.35467576098E+03  0.23699605128E+04  0.26118942593E+04  0.12699999809E+01 0. -1.
</event>
<event>
 5   0  0.8845195E-07  0.3423661E+04  0.7818609E-02  0.8132123E-01
       -2   -1    0    0    0  501  0.00000000000E+00  0.00000000000E+00  0.18070512579E+04  0.18070512579E+04  0.25500000920E-02 0. -1.
        2   -1    0    0  501    0  0.00000000000E+00  0.00000000000E+00 -0.16216274142E+04  0.16216274142E+04  0.25500000920E-02 0.  1.
    10030    2    1    2    0    0  0.00000000000E+00  0.00000000000E+00  0.18542384365E+03  0.34286786721E+04  0.34236611156E+04 0.  0.
        5    1    3    3  502    0 -0.77394342627E+03  0.33485188378E+03 -0.13991785282E+04  0.16336575084E+04  0.46999998093E+01 0.  1.
       -5    1    3    3    0  502  0.77394342627E+03 -0.33485188378E+03  0.15846023718E+04  0.17950211637E+04  0.46999998093E+01 0. -1.
</event>
<event>
 5   0  0.8950809E-07  0.3541072E+04  0.7818609E-02  0.8104125E-01
        2   -1    0    0  501    0  0.00000000000E+00  0.00000000000E+00  0.15943708003E+04  0.15943708003E+04  0.25500000920E-02 0.  1.
       -2   -1    0    0    0  501  0.00000000000E+00  0.00000000000E+00 -0.19661655991E+04  0.19661655991E+04  0.25500000920E-02 0. -1.
    10030    2    1    2    0    0  0.00000000000E+00  0.00000000000E+00 -0.37179479878E+03  0.35605363994E+04  0.35410716004E+04 0.  0.
        2    1    3    3  502    0 -0.31034117278E+03  0.73061073791E+03  0.14054243587E+04  0.16141007781E+04  0.25500000920E-02 0.  1.
       -2    1    3    3    0  502  0.31034117278E+03 -0.73061073791E+03 -0.17772191575E+04  0.19464356213E+04  0.25500000920E-02 0. -1.
</event>
<event>
 5   0  0.6188930E-07  0.3499821E+04  0.7818609E-02  0.8113832E-01
        2   -1    0    0  501    0  0.00000000000E+00  0.00000000000E+00  0.30555835758E+04  0.30555835758E+04  0.25500000920E-02 0.  1.
       -2   -1    0    0    0  501  0.00000000000E+00  0.00000000000E+00 -0.10021607731E+04  0.10021607731E+04  0.25500000920E-02 0. -1.
    10030    2    1    2    0    0  0.00000000000E+00  0.00000000000E+00  0.20534228027E+04  0.40577443489E+04  0.34998205661E+04 0.  0.
        3    1    3    3  502    0  0.13983556247E+04 -0.47374740952E+02 -0.19180183127E+03  0.14122431702E+04  0.10100000352E+00 0. -1.
       -3    1    3    3    0  502 -0.13983556247E+04  0.47374740952E+02  0.22452246340E+04  0.26455011787E+04  0.10100000352E+00 0.  1.
</event>
<event>
 5   0  0.6188930E-07  0.3506028E+04  0.7818609E-02  0.8112363E-01
        2   -1    0    0  501    0  0.00000000000E+00  0.00000000000E+00  0.22203132302E+04  0.22203132302E+04  0.25500000920E-02 0. -1.
       -2   -1    0    0    0  501  0.00000000000E+00  0.00000000000E+00 -0.13840654965E+04  0.13840654965E+04  0.25500000920E-02 0.  1.
    10030    2    1    2    0    0  0.00000000000E+00  0.00000000000E+00  0.83624773375E+03  0.36043787267E+04  0.35060284843E+04 0.  0.
        3    1    3    3  502    0 -0.18333727431E+03 -0.61129173665E+03 -0.12603949581E+04  0.14127581548E+04  0.10100000352E+00 0.  1.
       -3    1    3    3    0  502  0.18333727431E+03  0.61129173665E+03  0.20966426918E+04  0.21916205718E+04  0.10100000352E+00 0. -1.
</event>
<event>
 5   0  0.8950809E-07  0.3490066E+04  0.7818609E-02  0.8116148E-01
        2   -1    0    0  501    0  0.00000000000E+00  0.00000000000E+00  0.11192056190E+04  0.11192056190E+04  0.25500000920E-02 0.  1.
       -2   -1    0    0    0  501  0.00000000000E+00  0.00000000000E+00 -0.27208042076E+04  0.27208042076E+04  0.25500000920E-02 0. -1.
    10030    2    1    2    0    0  0.00000000000E+00  0.00000000000E+00 -0.16015985886E+04  0.38400098266E+04  0.34900655337E+04 0.  0.
        2    1    3    3  502    0 -0.10801351351E+04  0.67624548529E+03 -0.21124467097E+04  0.24670693074E+04  0.25500000920E-02 0. -1.
       -2    1    3    3    0  502  0.10801351351E+04 -0.67624548529E+03  0.51084812104E+03  0.13729405192E+04  0.25500000920E-02 0.  1.
</event>
<event>
 5   0  0.3061330E-07  0.3639880E+04  0.7818609E-02  0.8081417E-01
        1   -1    0    0  501    0  0.00000000000E+00  0.00000000000E+00  0.16733838071E+04  0.16733838071E+04  0.50400001928E-02 0.  1.
       -1   -1    0    0    0  501  0.00000000000E+00  0.00000000000E+00 -0.19793319980E+04  0.19793319980E+04  0.50400001928E-02 0. -1.
    10030    2    1    2    0    0  0.00000000000E+00  0.00000000000E+00 -0.30594819093E+03  0.36527158051E+04  0.36398802806E+04 0.  0.
        5    1    3    3  502    0 -0.10871910024E+02 -0.25227885757E+02 -0.19791178373E+04  0.19793140601E+04  0.46999998093E+01 0. -1.
       -5    1    3    3    0  502  0.10871910024E+02  0.25227885757E+02  0.16731696464E+04  0.16734017450E+04  0.46999998093E+01 0.  1.
</event>
<event>
 5   0  0.8845195E-07  0.3497443E+04  0.7818609E-02  0.8114396E-01
       -2   -1    0    0    0  501  0.00000000000E+00  0.00000000000E+00  0.12818909833E+04  0.12818909833E+04  0.25500000920E-02 0. -1.
        2   -1    0    0  501    0  0.00000000000E+00  0.00000000000E+00 -0.23855592481E+04  0.23855592481E+04  0.25500000920E-02 0.  1.
    10030    2    1    2    0    0  0.00000000000E+00  0.00000000000E+00 -0.11036682648E+04  0.36674502313E+04  0.34974430032E+04 0.  0.
        5    1    3    3  502    0 -0.67698501037E+03  0.14109056185E+03 -0.22360809015E+04  0.23405758135E+04  0.46999998093E+01 0.  1.
       -5    1    3    3    0  502  0.67698501037E+03 -0.14109056185E+03  0.11324126367E+04  0.13268744178E+04  0.46999998093E+01 0. -1.
</event>
<event>
 5   0  0.6188930E-07  0.3493608E+04  0.7818609E-02  0.8115306E-01
       -2   -1    0    0    0  501  0.00000000000E+00  0.00000000000E+00  0.21598884285E+04  0.21598884285E+04  0.25500000920E-02 0.  1.
        2   -1    0    0  501    0  0.00000000000E+00  0.00000000000E+00 -0.14127232941E+04  0.14127232941E+04  0.25500000920E-02 0. -1.
    10030    2    1    2    0    0  0.00000000000E+00  0.00000000000E+00  0.74716513431E+03  0.35726117226E+04  0.34936082755E+04 0.  0.
        3    1    3    3  502    0  0.48479972798E+03 -0.14716138282E+04  0.11984501006E+04  0.19588161449E+04  0.10100000352E+00 0. -1.
       -3    1    3    3    0  502 -0.48479972798E+03  0.14716138282E+04 -0.45128496629E+03  0.16137955777E+04  0.10100000352E+00 0.  1.
</event>
<event>
 5   0  0.2933506E-07  0.3495314E+04  0.7818609E-02  0.8114901E-01
        1   -1    0    0  501    0  0.00000000000E+00  0.00000000000E+00  0.17829128366E+04  0.17829128366E+04  0.50400001928E-02 0.  1.
       -1   -1    0    0    0  501  0.00000000000E+00  0.00000000000E+00 -0.17130984894E+04  0.17130984894E+04  0.50400001928E-02 0. -1.
    10030    2    1    2    0    0  0.00000000000E+00  0.00000000000E+00  0.69814347212E+02  0.34960113261E+04  0.34953141703E+04 0.  0.
        4    1    3    3  502    0 -0.28206540291E+03  0.41186135903E+03  0.17100883876E+04  0.17814585532E+04  0.12699999809E+01 0.  1.
       -4    1    3    3    0  502  0.28206540291E+03 -0.41186135903E+03 -0.16402740404E+04  0.17145527729E+04  0.12699999809E+01 0. -1.
</event>
<event>
 5   0  0.9128871E-07  0.3493198E+04  0.7818609E-02  0.8115404E-01
       -2   -1    0    0    0  501  0.00000000000E+00  0.00000000000E+00  0.22589210633E+04  0.22589210633E+04  0.25500000920E-02 0.  1.
        2   -1    0    0  501    0  0.00000000000E+00  0.00000000000E+00 -0.13504710466E+04  0.13504710466E+04  0.25500000920E-02 0. -1.
    10030    2    1    2    0    0  0.00000000000E+00  0.00000000000E+00  0.90845001671E+03  0.36093921098E+04  0.34931976711E+04 0.  0.
        1    1    3    3  502    0  0.53008833772E+03 -0.11414441943E+04  0.17055910384E+04  0.21196531048E+04  0.50400001928E-02 0.  1.
       -1    1    3    3    0  502 -0.53008833772E+03  0.11414441943E+04 -0.79714102171E+03  0.14897390050E+04  0.50400001928E-02 0. -1.
</event>
<event>
 5   0  0.8950809E-07  0.3494500E+04  0.7818609E-02  0.8115095E-01
        2   -1    0    0  501    0  0.00000000000E+00  0.00000000000E+00  0.31675651965E+04  0.31675651965E+04  0.25500000920E-02 0.  1.
       -2   -1    0    0    0  501  0.00000000000E+00  0.00000000000E+00 -0.96379489753E+03  0.96379489753E+03  0.25500000920E-02 0. -1.
    10030    2    1    2    0    0  0.00000000000E+00  0.00000000000E+00  0.22037702990E+04  0.41313600941E+04  0.34945003500E+04 0.  0.
        2    1    3    3  502    0 -0.95748903412E+03 -0.13457269024E+04  0.42777972829E+03  0.17060954376E+04  0.25500000920E-02 0.  1.
       -2    1    3    3    0  502  0.95748903412E+03  0.13457269024E+04  0.17759905707E+04  0.24252646564E+04  0.25500000920E-02 0. -1.
</event>
<event>
 5   0  0.2936607E-07  0.3183921E+04  0.7818609E-02  0.8193076E-01
        1   -1    0    0  501    0  0.00000000000E+00  0.00000000000E+00  0.16863824703E+04  0.16863824703E+04  0.50400001928E-02 0. -1.
       -1   -1    0    0    0  501  0.00000000000E+00  0.00000000000E+00 -0.15028256289E+04  0.15028256289E+04  0.50400001928E-02 0.  1.
    10030    2    1    2    0    0  0.00000000000E+00  0.00000000000E+00  0.18355684145E+03  0.31892080992E+04  0.31839213536E+04 0.  0.
        2    1    3    3  502    0 -0.46093787653E+03 -0.14902456514E+04 -0.22662195846E+03  0.15762783192E+04  0.25500000920E-02 0.  1.
       -2    1    3    3    0  502  0.46093787653E+03  0.14902456514E+04  0.41017879991E+03  0.16129297800E+04  0.25500000920E-02 0. -1.
</event>
<event>
 5   0  0.8845195E-07  0.3497746E+04  0.7818609E-02  0.8114324E-01
        2   -1    0    0  501    0  0.00000000000E+00  0.00000000000E+00  0.22984158660E+04  0.22984158660E+04  0.25500000920E-02 0.  1.
       -2   -1    0    0    0  501  0.00000000000E+00  0.00000000000E+00 -0.13307234796E+04  0.13307234796E+04  0.25500000920E-02 0. -1.
    10030    2    1    2    0    0  0.00000000000E+00  0.00000000000E+00  0.96769238638E+03  0.36291393456E+04  0.34977455361E+04 0.  0.
        5    1    3    3  502    0  0.17442799778E+04 -0.12476498470E+03  0.46171595412E+03  0.18086687520E+04  0.46999998093E+01 0.  1.
       -5    1    3    3    0  502 -0.17442799778E+04  0.12476498470E+03  0.50597643225E+03  0.18204705936E+04  0.46999998093E+01 0. -1.
</event>
<event>
 5   0  0.2972541E-07  0.3534080E+04  0.7818609E-02  0.8105761E-01
        1   -1    0    0  501    0  0.00000000000E+00  0.00000000000E+00  0.23731068341E+04  0.23731068341E+04  0.50400001928E-02 0.  1.
       -1   -1    0    0    0  501  0.00000000000E+00  0.00000000000E+00 -0.13157566137E+04  0.13157566137E+04  0.50400001928E-02 0. -1.
    10030    2    1    2    0    0  0.00000000000E+00  0.00000000000E+00  0.10573502204E+04  0.36888634477E+04  0.35340803680E+04 0.  0.
        3    1    3    3  502    0  0.13201549351E+04  0.42574602254E+03  0.16713172109E+04  0.21719507264E+04  0.10100000352E+00 0.  1.
       -3    1    3    3    0  502 -0.13201549351E+04 -0.42574602254E+03 -0.61396699047E+03  0.15169127213E+04  0.10100000352E+00 0. -1.
</event>
<event>
 5   0  0.2972541E-07  0.3373694E+04  0.7818609E-02  0.8144393E-01
       -1   -1    0    0    0  501  0.00000000000E+00  0.00000000000E+00  0.31618745193E+04  0.31618745193E+04  0.50400001928E-02 0.  1.
        1   -1    0    0  501    0  0.00000000000E+00  0.00000000000E+00 -0.89992614308E+03  0.89992614310E+03  0.50400001928E-02 0. -1.
    10030    2    1    2    0    0  0.00000000000E+00  0.00000000000E+00  0.22619483762E+04  0.40618006624E+04  0.33736944385E+04 0.  0.
        3    1    3    3  502    0  0.11276245206E+04  0.11960528723E+04  0.15868515844E+04  0.22847707749E+04  0.10100000352E+00 0.  1.
       -3    1    3    3    0  502 -0.11276245206E+04 -0.11960528723E+04  0.67509679181E+03  0.17770298875E+04  0.10100000352E+00 0. -1.
</event>
<event>
 5   0  0.2936607E-07  0.3556079E+04  0.7818609E-02  0.8100627E-01
       -1   -1    0    0    0  501  0.00000000000E+00  0.00000000000E+00  0.22983413354E+04  0.22983413354E+04  0.50400001928E-02 0.  1.
        1   -1    0    0  501    0  0.00000000000E+00  0.00000000000E+00 -0.13755241866E+04  0.13755241866E+04  0.50400001928E-02 0. -1.
    10030    2    1    2    0    0  0.00000000000E+00  0.00000000000E+00  0.92281714879E+03  0.36738655221E+04  0.35560787933E+04 0.  0.
        2    1    3    3  502    0 -0.13558278623E+04 -0.10884154535E+04  0.84590054802E+03  0.19335110883E+04  0.25500000920E-02 0.  1.
       -2    1    3    3    0  502  0.13558278623E+04  0.10884154535E+04  0.76916600772E+02  0.17403544337E+04  0.25500000920E-02 0. -1.
</event>
<event>
 5   0  0.9311672E-07  0.3486090E+04  0.7818609E-02  0.8117094E-01
        2   -1    0    0  501    0  0.00000000000E+00  0.00000000000E+00  0.15423658972E+04  0.15423658972E+04  0.25500000920E-02 0.  1.
       -2   -1    0    0    0  501  0.00000000000E+00  0.00000000000E+00 -0.19698348274E+04  0.19698348274E+04  0.25500000920E-02 0. -1.
    10030    2    1    2    0    0  0.00000000000E+00  0.00000000000E+00 -0.42746893018E+03  0.35122007245E+04  0.34860901083E+04 0.  0.
        4    1    3    3  502    0  0.11438320345E+04 -0.12260387357E+04 -0.69341157178E+03  0.18144817236E+04  0.12699999809E+01 0. -1.
       -4    1    3    3    0  502 -0.11438320345E+04  0.12260387357E+04  0.26594264160E+03  0.16977190009E+04  0.12699999809E+01 0.  1.
</event>
<event>
 5   0  0.8950809E-07  0.3503385E+04  0.7818609E-02  0.8112988E-01
        2   -1    0    0  501    0  0.00000000000E+00  0.00000000000E+00  0.23985375970E+04  0.23985375970E+04  0.25500000920E-02 0.  1.
       -2   -1    0    0    0  501  0.00000000000E+00  0.00000000000E+00 -0.12792909586E+04  0.12792909586E+04  0.25500000920E-02 0. -1.
    10030    2    1    2    0    0  0.00000000000E+00  0.00000000000E+00  0.11192466384E+04  0.36778285555E+04  0.35033854835E+04 0.  0.
        2    1    3    3  502    0 -0.47125563706E+03 -0.24156533201E+03  0.23124916656E+04  0.23723518686E+04  0.25500000920E-02 0.  1.
       -2    1    3    3    0  502  0.47125563706E+03  0.24156533201E+03 -0.11932450272E+04  0.13054766869E+04  0.25500000920E-02 0. -1.
</event>
<event>
 5   0  0.9311672E-07  0.3587747E+04  0.7818609E-02  0.8093304E-01
        2   -1    0    0  501    0  0.00000000000E+00  0.00000000000E+00  0.20903563800E+04  0.20903563800E+04  0.25500000920E-02 0. -1.
       -2   -1    0    0    0  501  0.00000000000E+00  0.00000000000E+00 -0.15394421143E+04  0.15394421143E+04  0.25500000920E-02 0.  1.
    10030    2    1    2    0    0  0.00000000000E+00  0.00000000000E+00  0.55091426572E+03  0.36297984944E+04  0.35877472851E+04 0.  0.
        4    1    3    3  502    0  0.49192182120E+03 -0.66217240874E+03  0.18870879020E+04  0.20595052172E+04  0.12699999809E+01 0. -1.
       -4    1    3    3    0  502 -0.49192182120E+03  0.66217240874E+03 -0.13361736363E+04  0.15702932771E+04  0.12699999809E+01 0.  1.
</event>
<event>
 5   0  0.9128871E-07  0.3528933E+04  0.7818609E-02  0.8106967E-01
       -2   -1    0    0    0  501  0.00000000000E+00  0.00000000000E+00  0.10087386779E+04  0.10087386779E+04  0.25500000920E-02 0.  1.
        2   -1    0    0  501    0  0.00000000000E+00  0.00000000000E+00 -0.30863705518E+04  0.30863705518E+04  0.25500000920E-02 0. -1.
    10030    2    1    2    0    0  0.00000000000E+00  0.00000000000E+00 -0.20776318740E+04  0.40951092297E+04  0.35289326148E+04 0.  0.
        1    1    3    3  502    0  0.15197274860E+04  0.89652069481E+03 -0.10440523389E+04  0.20502112755E+04  0.50400001928E-02 0. -1.
       -1    1    3    3    0  502 -0.15197274860E+04 -0.89652069481E+03 -0.10335795351E+04  0.20448979542E+04  0.50400001928E-02 0.  1.
</event>
<event>
 5   0  0.6188930E-07  0.3517780E+04  0.7818609E-02  0.8109589E-01
       -2   -1    0    0    0  501  0.00000000000E+00  0.00000000000E+00  0.16687182432E+04  0.16687182433E+04  0.25500000920E-02 0.  1.
        2   -1    0    0  501    0  0.00000000000E+00  0.00000000000E+00 -0.18539338047E+04  0.18539338047E+04  0.25500000920E-02 0. -1.
    10030    2    1    2    0    0  0.00000000000E+00  0.00000000000E+00 -0.18521556144E+03  0.35226520479E+04  0.35177795051E+04 0.  0.
        3    1    3    3  502    0 -0.75402375264E+03  0.77145964949E+03 -0.14837733276E+04  0.18344713430E+04  0.10100000352E+00 0. -1.
       -3    1    3    3    0  502  0.75402375264E+03 -0.77145964949E+03  0.12985577662E+04  0.16881807050E+04  0.10100000352E+00 0.  1.
</event>
<event>
 5   0  0.3026332E-07  0.3241615E+04  0.7818609E-02  0.8177912E-01
       -1   -1    0    0    0  501  0.00000000000E+00  0.00000000000E+00  0.21788462171E+04  0.21788462171E+04  0.50400001928E-02 0. -1.
        1   -1    0    0  501    0  0.00000000000E+00  0.00000000000E+00 -0.12056920967E+04  0.12056920968E+04  0.50400001928E-02 0.  1.
    10030    2    1    2    0    0  0.00000000000E+00  0.00000000000E+00  0.97315412034E+03  0.33845383139E+04  0.32416154393E+04 0.  0.
        1    1    3    3  502    0 -0.31447281661E+03 -0.90030822511E+03 -0.88176638603E+03  0.12988302476E+04  0.50400001928E-02 0.  1.
       -1    1    3    3    0  502  0.31447281661E+03  0.90030822511E+03  0.18549205064E+04  0.20857080662E+04  0.50400001928E-02 0. -1.
</event>
<event>
 5   0  0.8950809E-07  0.3499942E+04  0.7818609E-02  0.8113804E-01
        2   -1    0    0  501    0  0.00000000000E+00  0.00000000000E+00  0.23135024049E+04  0.23135024049E+04  0.25500000920E-02 0.  1.
       -2   -1    0    0    0  501  0.00000000000E+00  0.00000000000E+00 -0.13237064215E+04  0.13237064215E+04  0.25500000920E-02 0. -1.
    10030    2    1    2    0    0  0.00000000000E+00  0.00000000000E+00  0.98979598344E+03  0.36372088264E+04  0.34999417078E+04 0.  0.
        2    1    3    3  502    0 -0.82335869330E+03 -0.10859990041E+04  0.16357155482E+04  0.21290558305E+04  0.25500000920E-02 0.  1.
       -2    1    3    3    0  502  0.82335869330E+03  0.10859990041E+04 -0.64591956480E+03  0.15081529959E+04  0.25500000920E-02 0. -1.
</event>
<event>
 5   0  0.2936607E-07  0.3505473E+04  0.7818609E-02  0.8112494E-01
        1   -1    0    0  501    0  0.00000000000E+00  0.00000000000E+00  0.11519634184E+04  0.11519634184E+04  0.50400001928E-02 0. -1.
       -1   -1    0    0    0  501  0.00000000000E+00  0.00000000000E+00 -0.26668257068E+04  0.26668257068E+04  0.50400001928E-02 0.  1.
    10030    2    1    2    0    0  0.00000000000E+00  0.00000000000E+00 -0.15148622884E+04  0.38187891252E+04  0.35054732390E+04 0.  0.
        2    1    3    3  502    0 -0.36421709697E+03 -0.11792304335E+04 -0.21131926580E+04  0.24472069219E+04  0.25500000920E-02 0.  1.
       -2    1    3    3    0  502  0.36421709697E+03  0.11792304335E+04  0.59833036959E+03  0.13715822032E+04  0.25500000920E-02 0. -1.
</event>
<event>
 5   0  0.8950809E-07  0.3476763E+04  0.7818609E-02  0.8119319E-01
       -2   -1    0    0    0  501  0.00000000000E+00  0.00000000000E+00  0.11734664138E+04  0.11734664138E+04  0.25500000920E-02 0.  1.
        2   -1    0    0  501    0  0.00000000000E+00  0.00000000000E+00 -0.25752501280E+04  0.25752501280E+04  0.25500000920E-02 0. -1.
    10030    2    1    2    0    0  0.00000000000E+00  0.00000000000E+00 -0.14017837142E+04  0.37487165418E+04  0.34767625932E+04 0.  0.
        2    1    3    3  502    0 -0.14199183513E+04  0.95492766281E+03 -0.37046598398E+03  0.17507998203E+04  0.25500000920E-02 0.  1.
       -2    1    3    3    0  502  0.14199183513E+04 -0.95492766281E+03 -0.10313177302E+04  0.19979167215E+04  0.25500000920E-02 0. -1.
</event>
<event>
 5   0  0.9311672E-07  0.3597307E+04  0.7818609E-02  0.8091109E-01
        2   -1    0    0  501    0  0.00000000000E+00  0.00000000000E+00  0.32577490633E+04  0.32577490633E+04  0.25500000920E-02 0.  1.
       -2   -1    0    0    0  501  0.00000000000E+00  0.00000000000E+00 -0.99306434684E+03  0.99306434684E+03  0.25500000920E-02 0. -1.
    10030    2    1    2    0    0  0.00000000000E+00  0.00000000000E+00  0.22646847165E+04  0.42508134102E+04  0.35973070182E+04 0.  0.
        4    1    3    3  502    0  0.82913888160E+03  0.62572361380E+03  0.28674809699E+04  0.30498278724E+04  0.12699999809E+01 0.  1.
       -4    1    3    3    0  502 -0.82913888160E+03 -0.62572361380E+03 -0.60279625340E+03  0.12009855377E+04  0.12699999809E+01 0. -1.
</event>
<event>
 5   0  0.2933506E-07  0.3371218E+04  0.7818609E-02  0.8145007E-01
        1   -1    0    0  501    0  0.00000000000E+00  0.00000000000E+00  0.20657039477E+04  0.20657039477E+04  0.50400001928E-02 0. -1.
       -1   -1    0    0    0  501  0.00000000000E+00  0.00000000000E+00 -0.13754524748E+04  0.13754524748E+04  0.50400001928E-02 0.  1.
    10030    2    1    2    0    0  0.00000000000E+00  0.00000000000E+00  0.69025147291E+03  0.34411564225E+04  0.33712179443E+04 0.  0.
        4    1    3    3  502    0 -0.15380779807E+04  0.43953813189E+03  0.88756193288E+03  0.18293838968E+04  0.12699999809E+01 0. -1.
       -4    1    3    3    0  502  0.15380779807E+04 -0.43953813189E+03 -0.19731045997E+03  0.16117725257E+04  0.12699999809E+01 0.  1.
</event>
<event>
 5   0  0.2972541E-07  0.3516925E+04  0.7818609E-02  0.8109791E-01
        1   -1    0    0  501    0  0.00000000000E+00  0.00000000000E+00  0.18785368996E+04  0.18785368997E+04  0.50400001928E-02 0.  1.
       -1   -1    0    0    0  501  0.00000000000E+00  0.00000000000E+00 -0.16460631972E+04  0.16460631972E+04  0.50400001928E-02 0. -1.
    10030    2    1    2    0    0  0.00000000000E+00  0.00000000000E+00  0.23247370249E+03  0.35246000968E+04  0.35169250518E+04 0.  0.
        3    1    3    3  502    0 -0.68409182349E+03  0.15833436795E+04 -0.22690138026E+03  0.17396675191E+04  0.10100000352E+00 0.  1.
       -3    1    3    3    0  502  0.68409182349E+03 -0.15833436795E+04  0.45937508275E+03  0.17849325778E+04  0.10100000352E+00 0. -1.
</event>
<event>
 5   0  0.6188930E-07  0.3499989E+04  0.7818609E-02  0.8113793E-01
       -2   -1    0    0    0  501  0.00000000000E+00  0.00000000000E+00  0.22334305661E+04  0.22334305661E+04  0.25500000920E-02 0.  1.
        2   -1    0    0  501    0  0.00000000000E+00  0.00000000000E+00 -0.13712002672E+04  0.13712002672E+04  0.25500000920E-02 0. -1.
    10030    2    1    2    0    0  0.00000000000E+00  0.00000000000E+00  0.86223029883E+03  0.36046308333E+04  0.34999889080E+04 0.  0.
        3    1    3    3  502    0  0.91216996241E+03  0.11567368893E+04 -0.54179016171E+03  0.15695957635E+04  0.10100000352E+00 0. -1.
       -3    1    3    3    0  502 -0.91216996241E+03 -0.11567368893E+04  0.14040204605E+04  0.20350350698E+04  0.10100000352E+00 0.  1.
</event>
<event>
 5   0  0.3061330E-07  0.3483879E+04  0.7818609E-02  0.8117621E-01
       -1   -1    0    0    0  501  0.00000000000E+00  0.00000000000E+00  0.16884581634E+04  0.16884581634E+04  0.50400001928E-02 0. -1.
        1   -1    0    0  501    0  0.00000000000E+00  0.00000000000E+00 -0.17971148757E+04  0.17971148757E+04  0.50400001928E-02 0.  1.
    10030    2    1    2    0    0  0.00000000000E+00  0.00000000000E+00 -0.10865671228E+03  0.34855730391E+04  0.34838790349E+04 0.  0.
        5    1    3    3  502    0 -0.11212207965E+04 -0.89469450189E+03  0.93444206031E+03  0.17119633116E+04  0.46999998093E+01 0. -1.
       -5    1    3    3    0  502  0.11212207965E+04  0.89469450189E+03 -0.10430987726E+04  0.17736097275E+04  0.46999998093E+01 0.  1.
</event>
<event>
 5   0  0.2933506E-07  0.3478019E+04  0.7818609E-02  0.8119019E-01
        1   -1    0    0  501    0  0.00000000000E+00  0.00000000000E+00  0.18911487167E+04  0.18911487167E+04  0.50400001928E-02 0.  1.
       -1   -1    0    0    0  501  0.00000000000E+00  0.00000000000E+00 -0.15991093653E+04  0.15991093653E+04  0.50400001928E-02 0. -1.
    10030    2    1    2    0    0  0.00000000000E+00  0.00000000000E+00  0.29203935136E+03  0.34902580820E+04  0.34780187602E+04 0.  0.
        4    1    3    3  502    0  0.73892580312E+02  0.17357343424E+04  0.22322017155E+03  0.17515886157E+04  0.12699999809E+01 0. -1.
       -4    1    3    3    0  502 -0.73892580312E+02 -0.17357343424E+04  0.68819179814E+02  0.17386694663E+04  0.12699999809E+01 0.  1.
</event>
<event>
 5   0  0.9311672E-07  0.3454862E+04  0.7818609E-02  0.8124571E-01
        2   -1    0    0  501    0  0.00000000000E+00  0.00000000000E+00  0.26852642282E+04  0.26852642282E+04  0.25500000920E-02 0. -1.
       -2   -1    0    0    0  501  0.00000000000E+00  0.00000000000E+00 -0.11112566304E+04  0.11112566304E+04  0.25500000920E-02 0.  1.
    10030    2    1    2    0    0  0.00000000000E+00  0.00000000000E+00  0.15740075979E+04  0.37965208586E+04  0.34548618948E+04 0.  0.
        4    1    3    3  502    0 -0.36970402566E+03 -0.16004610653E+04  0.19947207673E+03  0.16546744122E+04  0.12699999809E+01 0.  1.
       -4    1    3    3    0  502  0.36970402566E+03  0.16004610653E+04  0.13745355211E+04  0.21418464464E+04  0.12699999809E+01 0. -1.
</event>
<event>
 5   0  0.9128871E-07  0.3507044E+04  0.7818609E-02  0.8112123E-01
        2   -1    0    0  501    0  0.00000000000E+00  0.00000000000E+00  0.24324071311E+04  0.24324071311E+04  0.25500000920E-02 0.  1.
       -2   -1    0    0    0  501  0.00000000000E+00  0.00000000000E+00 -0.12641135399E+04  0.12641135399E+04  0.25500000920E-02 0. -1.
    10030    2    1    2    0    0  0.00000000000E+00  0.00000000000E+00  0.11682935912E+04  0.36965206710E+04  0.35070436490E+04 0.  0.
        1    1    3    3  502    0  0.71972792139E+03  0.13505957045E+04  0.14863856170E+04  0.21334149245E+04  0.50400001928E-02 0.  1.
       -1    1    3    3    0  502 -0.71972792139E+03 -0.13505957045E+04 -0.31809202577E+03  0.15631057465E+04  0.50400001928E-02 0. -1.
</event>
<event>
 5   0  0.2936607E-07  0.3483942E+04  0.7818609E-02  0.8117606E-01
       -1   -1    0    0    0  501  0.00000000000E+00  0.00000000000E+00  0.28509389054E+04  0.28509389054E+04  0.50400001928E-02 0.  1.
        1   -1    0    0  501    0  0.00000000000E+00  0.00000000000E+00 -0.10643731135E+04  0.10643731135E+04  0.50400001928E-02 0. -1.
    10030    2    1    2    0    0  0.00000000000E+00  0.00000000000E+00  0.17865657920E+04  0.39153120189E+04  0.34839418589E+04 0.  0.
        2    1    3    3  502    0  0.25792640659E+03 -0.41235558335E+03 -0.98651664338E+03  0.10998991981E+04  0.25500000920E-02 0. -1.
       -2    1    3    3    0  502 -0.25792640659E+03  0.41235558335E+03  0.27730824353E+04  0.28154128208E+04  0.25500000920E-02 0.  1.
</event>
<event>
 5   0  0.8950809E-07  0.3508482E+04  0.7818609E-02  0.8111783E-01
        2   -1    0    0  501    0  0.00000000000E+00  0.00000000000E+00  0.23785433603E+04  0.23785433603E+04  0.25500000920E-02 0. -1.
       -2   -1    0    0    0  501  0.00000000000E+00  0.00000000000E+00 -0.12938009848E+04  0.12938009848E+04  0.25500000920E-02 0.  1.
    10030    2    1    2    0    0  0.00000000000E+00  0.00000000000E+00  0.10847423755E+04  0.36723443451E+04  0.35084821458E+04 0.  0.
        2    1    3    3  502    0  0.34001334630E+03 -0.17009119154E+04  0.81662241518E+03  0.19171808961E+04  0.25500000920E-02 0. -1.
       -2    1    3    3    0  502 -0.34001334630E+03  0.17009119154E+04  0.26811996029E+03  0.17551634490E+04  0.25500000920E-02 0.  1.
</event>
<event>
 5   0  0.2907000E-07  0.3517037E+04  0.7818609E-02  0.8109764E-01
        3   -1    0    0  501    0  0.00000000000E+00  0.00000000000E+00  0.13102226243E+04  0.13102226282E+04  0.10100000352E+00 0. -1.
       -3   -1    0    0    0  501  0.00000000000E+00  0.00000000000E+00 -0.23602004992E+04  0.23602005014E+04  0.10100000352E+00 0.  1.
    10030    2    1    2    0    0  0.00000000000E+00  0.00000000000E+00 -0.10499778749E+04  0.36704231296E+04  0.35170374482E+04 0.  0.
        1    1    3    3  502    0  0.15526714239E+04  0.49126007258E+03  0.16747200238E+03  0.16371230501E+04  0.50400001928E-02 0. -1.
       -1    1    3    3    0  502 -0.15526714239E+04 -0.49126007258E+03 -0.12174498773E+04  0.20333000795E+04  0.50400001928E-02 0.  1.
</event>
<event>
 5   0  0.9128871E-07  0.3519760E+04  0.7818609E-02  0.8109123E-01
       -2   -1    0    0    0  501  0.00000000000E+00  0.00000000000E+00  0.19747315518E+04  0.19747315518E+04  0.25500000920E-02 0.  1.
        2   -1    0    0  501    0  0.00000000000E+00  0.00000000000E+00 -0.15684044274E+04  0.15684044274E+04  0.25500000920E-02 0. -1.
    10030    2    1    2    0    0  0.00000000000E+00  0.00000000000E+00  0.40632712441E+03  0.35431359792E+04  0.35197600536E+04 0.  0.
        1    1    3    3  502    0  0.17351921419E+04 -0.33024600145E+02 -0.90657293618E+02  0.17378725898E+04  0.50400001928E-02 0.  1.
       -1    1    3    3    0  502 -0.17351921419E+04  0.33024600145E+02  0.49698441803E+03  0.18052633894E+04  0.50400001928E-02 0. -1.
</event>
<event>
 5   0  0.6188930E-07  0.3499296E+04  0.7818609E-02  0.8113957E-01
       -2   -1    0    0    0  501  0.00000000000E+00  0.00000000000E+00  0.29684533429E+04  0.29684533429E+04  0.25500000920E-02 0.  1.
        2   -1    0    0  501    0  0.00000000000E+00  0.00000000000E+00 -0.10312669590E+04  0.10312669590E+04  0.25500000920E-02 0. -1.
    10030    2    1    2    0    0  0.00000000000E+00  0.00000000000E+00  0.19371863839E+04  0.39997203019E+04  0.34992958446E+04 0.  0.
        3    1    3    3  502    0  0.57703669940E+02  0.17168772763E+04  0.13481516943E+04  0.21836918960E+04  0.10100000352E+00 0.  1.
       -3    1    3    3    0  502 -0.57703669940E+02 -0.17168772763E+04  0.58903468951E+03  0.18160284059E+04  0.10100000352E+00 0. -1.
</event>
<event>
 5   0  0.8950809E-07  0.3484729E+04  0.7818609E-02  0.8117418E-01
        2   -1    0    0  501    0  0.00000000000E+00  0.00000000000E+00  0.13956112527E+04  0.13956112527E+04  0.25500000920E-02 0.  1.
       -2   -1    0    0    0  501  0.00000000000E+00  0.00000000000E+00 -0.21752721537E+04  0.21752721537E+04  0.25500000920E-02 0. -1.
    10030    2    1    2    0    0  0.00000000000E+00  0.00000000000E+00 -0.77966090098E+03  0.35708834064E+04  0.34847291403E+04 0.  0.
        2    1    3    3  502    0  0.15961645162E+04 -0.33313996998E+03 -0.10191064699E+04  0.19228368103E+04  0.25500000920E-02 0. -1.
       -2    1    3    3    0  502 -0.15961645162E+04  0.33313996998E+03  0.23944556889E+03  0.16480465960E+04  0.25500000920E-02 0.  1.
</event>
<event>
 5   0  0.3061330E-07  0.3434124E+04  0.7818609E-02  0.8129582E-01
        1   -1    0    0  501    0  0.00000000000E+00  0.00000000000E+00  0.17698025999E+04  0.17698025999E+04  0.50400001928E-02 0. -1.
       -1   -1    0    0    0  501  0.00000000000E+00  0.00000000000E+00 -0.16658930102E+04  0.16658930102E+04  0.50400001928E-02 0.  1.
    10030    2    1    2    0    0  0.00000000000E+00  0.00000000000E+00  0.10390958965E+03  0.34356956101E+04  0.34341239236E+04 0.  0.
        5    1    3    3  502    0 -0.36420855446E+03 -0.86823798525E+03  0.14885070162E+04  0.17612950625E+04  0.46999998093E+01 0. -1.
       -5    1    3    3    0  502  0.36420855446E+03  0.86823798525E+03 -0.13845974265E+04  0.16744005476E+04  0.46999998093E+01 0.  1.
</event>
<event>
 5   0  0.9311672E-07  0.3486908E+04  0.7818609E-02  0.8116900E-01
       -2   -1    0    0    0  501  0.00000000000E+00  0.00000000000E+00  0.16030411787E+04  0.16030411787E+04  0.25500000920E-02 0.  1.
        2   -1    0    0  501    0  0.00000000000E+00  0.00000000000E+00 -0.18961652721E+04  0.18961652721E+04  0.25500000920E-02 0. -1.
    10030    2    1    2    0    0  0.00000000000E+00  0.00000000000E+00 -0.29312409336E+03  0.34992064509E+04  0.34869075198E+04 0.  0.
        4    1    3    3  502    0  0.44913143664E+03 -0.11612060587E+04 -0.13713219832E+04  0.18521998144E+04  0.12699999809E+01 0. -1.
       -4    1    3    3    0  502 -0.44913143664E+03  0.11612060587E+04  0.10781978898E+04  0.16470066365E+04  0.12699999809E+01 0.  1.
</event>
<event>
 5   0  0.3026332E-07  0.3491269E+04  0.7818609E-02  0.8115862E-01
       -1   -1    0    0    0  501  0.00000000000E+00  0.00000000000E+00  0.17705331461E+04  0.17705331461E+04  0.50400001928E-02 0.  1.
        1   -1    0    0  501    0  0.00000000000E+00  0.00000000000E+00 -0.17210856974E+04  0.17210856974E+04  0.50400001928E-02 0. -1.
    10030    2    1    2    0    0  0.00000000000E+00  0.00000000000E+00  0.49447448721E+02  0.34916188435E+04  0.34912686947E+04 0.  0.
        1    1    3    3  502    0 -0.12373043335E+04 -0.53263022523E+03 -0.10856228713E+04  0.17300849659E+04  0.50400001928E-02 0. -1.
       -1    1    3    3    0  502  0.12373043335E+04  0.53263022523E+03  0.11350703200E+04  0.17615338776E+04  0.50400001928E-02 0.  1.
</event>
<event>
 5   0  0.3026332E-07  0.3505428E+04  0.7818609E-02  0.8112505E-01
       -1   -1    0    0    0  501  0.00000000000E+00  0.00000000000E+00  0.10720901827E+04  0.10720901827E+04  0.50400001928E-02 0. -1.
        1   -1    0    0  501    0  0.00000000000E+00  0.00000000000E+00 -0.28654368678E+04  0.28654368678E+04  0.50400001928E-02 0.  1.
    10030    2    1    2    0    0  0.00000000000E+00  0.00000000000E+00 -0.17933466851E+04  0.39375270506E+04  0.35054282108E+04 0.  0.
        1    1    3    3  502    0 -0.39067276374E+02 -0.40749024917E+02 -0.28644154580E+04  0.28649716667E+04  0.50400001928E-02 0.  1.
       -1    1    3    3    0  502  0.39067276374E+02  0.40749024917E+02  0.10710687729E+04  0.10725553838E+04  0.50400001928E-02 0. -1.
</event>
<event>
 5   0  0.6188930E-07  0.3535873E+04  0.7818609E-02  0.8105341E-01
       -2   -1    0    0    0  501  0.00000000000E+00  0.00000000000E+00  0.34300454379E+04  0.34300454379E+04  0.25500000920E-02 0.  1.
        2   -1    0    0  501    0  0.00000000000E+00  0.00000000000E+00 -0.91124164949E+03  0.91124164949E+03  0.25500000920E-02 0. -1.
    10030    2    1    2    0    0  0.00000000000E+00  0.00000000000E+00  0.25188037884E+04  0.43412870874E+04  0.35358734495E+04 0.  0.
        3    1    3    3  502    0 -0.40544774955E+03 -0.84675673203E+03 -0.57990442825E+03  0.11034826673E+04  0.10100000352E+00 0. -1.
       -3    1    3    3    0  502  0.40544774955E+03  0.84675673203E+03  0.30987082167E+04  0.32378044202E+04  0.10100000352E+00 0.  1.
</event>
<event>
 5   0  0.3061330E-07  0.3477918E+04  0.7818609E-02  0.8119043E-01
        1   -1    0    0  501    0  0.00000000000E+00  0.00000000000E+00  0.17963587956E+04  0.17963587956E+04  0.50400001928E-02 0.  1.
       -1   -1    0    0    0  501  0.00000000000E+00  0.00000000000E+00 -0.16833934195E+04  0.16833934195E+04  0.50400001928E-02 0. -1.
    10030    2    1    2    0    0  0.00000000000E+00  0.00000000000E+00  0.11296537614E+03  0.34797522151E+04  0.34779180988E+04 0.  0.
        5    1    3    3  502    0  0.13087938719E+04 -0.11447043025E+04  0.30639891478E+02  0.17390371567E+04  0.46999998093E+01 0.  1.
       -5    1    3    3    0  502 -0.13087938719E+04  0.11447043025E+04  0.82325484662E+02  0.17407150584E+04  0.46999998093E+01 0. -1.
</event>
<event>
 5   0  0.3026332E-07  0.3658683E+04  0.7818609E-02  0.8077180E-01
       -1   -1    0    0    0  501  0.00000000000E+00  0.00000000000E+00  0.32826429945E+04  0.32826429945E+04  0.50400001928E-02 0.  1.
        1   -1    0    0  501    0  0.00000000000E+00  0.00000000000E+00 -0.10194501040E+04  0.10194501040E+04  0.50400001928E-02 0. -1.
    10030    2    1    2    0    0  0.00000000000E+00  0.00000000000E+00  0.22631928905E+04  0.43020930985E+04  0.36586832288E+04 0.  0.
        1    1    3    3  502    0  0.73363818988E+03 -0.15951483098E+04  0.52769546631E+03  0.18333536563E+04  0.50400001928E-02 0. -1.
       -1    1    3    3    0  502 -0.73363818988E+03  0.15951483098E+04  0.17354974242E+04  0.24687394422E+04  0.50400001928E-02 0.  1.
</event>
<event>
 5   0  0.2936607E-07  0.3489205E+04  0.7818609E-02  0.8116353E-01
        1   -1    0    0  501    0  0.00000000000E+00  0.00000000000E+00  0.19360198358E+04  0.19360198358E+04  0.50400001928E-02 0.  1.
       -1   -1    0    0    0  501  0.00000000000E+00  0.00000000000E+00 -0.15721112485E+04  0.15721112485E+04  0.50400001928E-02 0. -1.
    10030    2    1    2    0    0  0.00000000000E+00  0.00000000000E+00  0.36390858730E+03  0.35081310842E+04  0.34892053887E+04 0.  0.
        2    1    3    3  502    0  0.92802534945E+03 -0.14772824445E+04  0.18863041146E+03  0.17547580751E+04  0.25500000920E-02 0. -1.
       -2    1    3    3    0  502 -0.92802534945E+03  0.14772824445E+04  0.17527817584E+03  0.17533730091E+04  0.25500000920E-02 0.  1.
</event>
<event>
 5   0  0.3061330E-07  0.3356145E+04  0.7818609E-02  0.8148754E-01
       -1   -1    0    0    0  501  0.00000000000E+00  0.00000000000E+00  0.12789637155E+04  0.12789637155E+04  0.50400001928E-02 0.  1.
        1   -1    0    0  501    0  0.00000000000E+00  0.00000000000E+00 -0.22017253805E+04  0.22017253805E+04  0.50400001928E-02 0. -1.
    10030    2    1    2    0    0  0.00000000000E+00  0.00000000000E+00 -0.92276166508E+03  0.34806890960E+04  0.33561447365E+04 0.  0.
        5    1    3    3  502    0 -0.37634199277E+03 -0.62275200149E+03 -0.20295956074E+04  0.21560922454E+04  0.46999998093E+01 0. -1.
       -5    1    3    3    0  502  0.37634199277E+03  0.62275200149E+03  0.11068339423E+04  0.13245968507E+04  0.46999998093E+01 0.  1.
</event>
<event>
 5   0  0.2933506E-07  0.3555629E+04  0.7818609E-02  0.8100732E-01
       -1   -1    0    0    0  501  0.00000000000E+00  0.00000000000E+00  0.14957157224E+04  0.14957157224E+04  0.50400001928E-02 0.  1.
        1   -1    0    0  501    0  0.00000000000E+00  0.00000000000E+00 -0.21131187732E+04  0.21131187732E+04  0.50400001928E-02 0. -1.
    10030    2    1    2    0    0  0.00000000000E+00  0.00000000000E+00 -0.61740305079E+03  0.36088344956E+04  0.35556293240E+04 0.  0.
        4    1    3    3  502    0  0.74510790909E+03 -0.16055404952E+04 -0.13984719527E+03  0.17755294784E+04  0.12699999809E+01 0. -1.
       -4    1    3    3    0  502 -0.74510790909E+03  0.16055404952E+04 -0.47755585552E+03  0.18333050172E+04  0.12699999809E+01 0.  1.
</event>
<event>
 5   0  0.6188930E-07  0.2882557E+04  0.7818609E-02  0.8278086E-01
       -2   -1    0    0    0  501  0.00000000000E+00  0.00000000000E+00  0.12123141441E+04  0.12123141441E+04  0.25500000920E-02 0. -1.
        2   -1    0    0  501    0  0.00000000000E+00  0.00000000000E+00 -0.17134867040E+04  0.17134867040E+04  0.25500000920E-02 0.  1.
    10030    2    1    2    0    0  0.00000000000E+00  0.00000000000E+00 -0.50117255989E+03  0.29258008480E+04  0.28825573138E+04 0.  0.
        3    1    3    3  502    0 -0.85779503040E+03  0.52922312556E+03 -0.12962818615E+04  0.16420219564E+04  0.10100000352E+00 0.  1.
       -3    1    3    3    0  502  0.85779503040E+03 -0.52922312556E+03  0.79510930159E+03  0.12837788916E+04  0.10100000352E+00 0. -1.
</event>
<event>
 5   0  0.2933506E-07  0.3624627E+04  0.7818609E-02  0.8084874E-01
        1   -1    0    0  501    0  0.00000000000E+00  0.00000000000E+00  0.19239208619E+04  0.19239208619E+04  0.50400001928E-02 0. -1.
       -1   -1    0    0    0  501  0.00000000000E+00  0.00000000000E+00 -0.17071801390E+04  0.17071801390E+04  0.50400001928E-02 0.  1.
    10030    2    1    2    0    0  0.00000000000E+00  0.00000000000E+00  0.21674072295E+03  0.36311010009E+04  0.36246265929E+04 0.  0.
        4    1    3    3  502    0 -0.52457768403E+03  0.10459516079E+04 -0.12780385705E+04  0.17327956352E+04  0.12699999809E+01 0.  1.
       -4    1    3    3    0  502  0.52457768403E+03 -0.10459516079E+04  0.14947792934E+04  0.18983053657E+04  0.12699999809E+01 0. -1.
</event>
<event>
 5   0  0.6188930E-07  0.3428950E+04  0.7818609E-02  0.8130837E-01
       -2   -1    0    0    0  501  0.00000000000E+00  0.00000000000E+00  0.16366953799E+04  0.16366953799E+04  0.25500000920E-02 0. -1.
        2   -1    0    0  501    0  0.00000000000E+00  0.00000000000E+00 -0.17959511432E+04  0.17959511432E+04  0.25500000920E-02 0.  1.
    10030    2    1    2    0    0  0.00000000000E+00  0.00000000000E+00 -0.15925576332E+03  0.34326465230E+04  0.34289502408E+04 0.  0.
        3    1    3    3  502    0  0.84139973412E+02 -0.52122096652E+03  0.15532877336E+04  0.16405650321E+04  0.10100000352E+00 0. -1.
       -3    1    3    3    0  502 -0.84139973412E+02  0.52122096652E+03 -0.17125434969E+04  0.17920814909E+04  0.10100000352E+00 0.  1.
</event>
<event>
 5   0  0.9311672E-07  0.3467321E+04  0.7818609E-02  0.8121578E-01
        2   -1    0    0  501    0  0.00000000000E+00  0.00000000000E+00  0.20901176835E+04  0.20901176835E+04  0.25500000920E-02 0.  1.
       -2   -1    0    0    0  501  0.00000000000E+00  0.00000000000E+00 -0.14379952154E+04  0.14379952154E+04  0.25500000920E-02 0. -1.
    10030    2    1    2    0    0  0.00000000000E+00  0.00000000000E+00  0.65212246814E+03  0.35281128988E+04  0.34673212879E+04 0.  0.
        4    1    3    3  502    0  0.17427296139E+03 -0.64669711930E+03 -0.13010335418E+04  0.14633106707E+04  0.12699999809E+01 0. -1.
       -4    1    3    3    0  502 -0.17427296139E+03  0.64669711930E+03  0.19531560100E+04  0.20648022281E+04  0.12699999809E+01 0.  1.
</event>
<event>
 5   0  0.2933506E-07  0.3553332E+04  0.7818609E-02  0.8101266E-01
        1   -1    0    0  501    0  0.00000000000E+00  0.00000000000E+00  0.15310634594E+04  0.15310634595E+04  0.50400001928E-02 0.  1.
       -1   -1    0    0    0  501  0.00000000000E+00  0.00000000000E+00 -0.20616663052E+04  0.20616663052E+04  0.50400001928E-02 0. -1.
    10030    2    1    2    0    0  0.00000000000E+00  0.00000000000E+00 -0.53060284579E+03  0.35927297647E+04  0.35533319268E+04 0.  0.
        4    1    3    3  502    0  0.63058422492E+02 -0.28413496108E+03  0.15067954287E+04  0.15346475548E+04  0.12699999809E+01 0.  1.
       -4    1    3    3    0  502 -0.63058422492E+02  0.28413496108E+03 -0.20373982745E+04  0.20580822099E+04  0.12699999809E+01 0. -1.
</event>
<event>
 5   0  0.3026332E-07  0.3509254E+04  0.7818609E-02  0.8111600E-01
       -1   -1    0    0    0  501  0.00000000000E+00  0.00000000000E+00  0.14723144650E+04  0.14723144650E+04  0.50400001928E-02 0. -1.
        1   -1    0    0  501    0  0.00000000000E+00  0.00000000000E+00 -0.20910716569E+04  0.20910716569E+04  0.50400001928E-02 0.  1.
    10030    2    1    2    0    0  0.00000000000E+00  0.00000000000E+00 -0.61875719187E+03  0.35633861219E+04  0.35092535091E+04 0.  0.
        1    1    3    3  502    0 -0.10690621782E+04 -0.31365785131E+03 -0.16858104287E+04  0.20207008660E+04  0.50400001928E-02 0.  1.
       -1    1    3    3    0  502  0.10690621782E+04  0.31365785131E+03  0.10670532368E+04  0.15426852559E+04  0.50400001928E-02 0. -1.
</event>
<event>
 5   0  0.8950809E-07  0.3527449E+04  0.7818609E-02  0.8107315E-01
       -2   -1    0    0    0  501  0.00000000000E+00  0.00000000000E+00  0.15886209036E+04  0.15886209036E+04  0.25500000920E-02 0.  1.
        2   -1    0    0  501    0  0.00000000000E+00  0.00000000000E+00 -0.19581291543E+04  0.19581291543E+04  0.25500000920E-02 0. -1.
    10030    2    1    2    0    0  0.00000000000E+00  0.00000000000E+00 -0.36950825064E+03  0.35467500579E+04  0.35274494505E+04 0.  0.
        2    1    3    3  502    0 -0.26529857488E+02  0.14921892716E+04  0.76027801330E+03  0.16749194946E+04  0.25500000920E-02 0.  1.
       -2    1    3    3    0  502  0.26529857488E+02 -0.14921892716E+04 -0.11297862639E+04  0.18718305634E+04  0.25500000920E-02 0. -1.
</event>
<event>
 5   0  0.6188930E-07  0.3511925E+04  0.7818609E-02  0.8110970E-01
       -2   -1    0    0    0  501  0.00000000000E+00  0.00000000000E+00  0.14277109865E+04  0.14277109865E+04  0.25500000920E-02 0. -1.
        2   -1    0    0  501    0  0.00000000000E+00  0.00000000000E+00 -0.21596837991E+04  0.21596837991E+04  0.25500000920E-02 0.  1.
    10030    2    1    2    0    0  0.00000000000E+00  0.00000000000E+00 -0.73197281261E+03  0.35873947857E+04  0.35119249920E+04 0.  0.
        3    1    3    3  502    0 -0.12873244506E+04  0.77782626941E+03  0.55968062632E+03  0.16048240901E+04  0.10100000352E+00 0. -1.
       -3    1    3    3    0  502  0.12873244506E+04 -0.77782626941E+03 -0.12916534389E+04  0.19825706956E+04  0.10100000352E+00 0.  1.
</event>
<event>
 5   0  0.2933506E-07  0.3496967E+04  0.7818609E-02  0.8114509E-01
        1   -1    0    0  501    0  0.00000000000E+00  0.00000000000E+00  0.29025081575E+04  0.29025081575E+04  0.50400001928E-02 0.  1.
       -1   -1    0    0    0  501  0.00000000000E+00  0.00000000000E+00 -0.10532940280E+04  0.10532940280E+04  0.50400001928E-02 0. -1.
    10030    2    1    2    0    0  0.00000000000E+00  0.00000000000E+00  0.18492141296E+04  0.39558021855E+04  0.34969669764E+04 0.  0.
        4    1    3    3  502    0  0.12802504071E+04 -0.14535493235E+03 -0.41243455791E+03  0.13528758401E+04  0.12699999809E+01 0. -1.
       -4    1    3    3    0  502 -0.12802504071E+04  0.14535493235E+03  0.22616486875E+04  0.26029263454E+04  0.12699999809E+01 0.  1.
</event>
<event>
 5   0  0.2936607E-07  0.3422997E+04  0.7818609E-02  0.8132285E-01
       -1   -1    0    0    0  501  0.00000000000E+00  0.00000000000E+00  0.16842152493E+04  0.16842152493E+04  0.50400001928E-02 0.  1.
        1   -1    0    0  501    0  0.00000000000E+00  0.00000000000E+00 -0.17392241649E+04  0.17392241649E+04  0.50400001928E-02 0. -1.
    10030    2    1    2    0    0  0.00000000000E+00  0.00000000000E+00 -0.55008915618E+02  0.34234394143E+04  0.34229974353E+04 0.  0.
        2    1    3    3  502    0  0.67720161752E+03  0.15717597543E+04 -0.13463248926E+02  0.17114940885E+04  0.25500000920E-02 0. -1.
       -2    1    3    3    0  502 -0.67720161752E+03 -0.15717597543E+04 -0.41545666692E+02  0.17119453258E+04  0.25500000920E-02 0.  1.
</event>
<event>
 5   0  0.2933506E-07  0.3831881E+04  0.7818609E-02  0.8039348E-01
       -1   -1    0    0    0  501  0.00000000000E+00  0.00000000000E+00  0.12309383897E+04  0.12309383897E+04  0.50400001928E-02 0.  1.
        1   -1    0    0  501    0  0.00000000000E+00  0.00000000000E+00 -0.29821383902E+04  0.29821383902E+04  0.50400001928E-02 0. -1.
    10030    2    1    2    0    0  0.00000000000E+00  0.00000000000E+00 -0.17512000005E+04  0.42130767799E+04  0.38318813280E+04 0.  0.
        4    1    3    3  502    0 -0.14457496417E+04  0.46356908274E+03  0.40930532839E+03  0.15724569265E+04  0.12699999809E+01 0.  1.
       -4    1    3    3    0  502  0.14457496417E+04 -0.46356908274E+03 -0.21605053289E+04  0.26406198534E+04  0.12699999809E+01 0. -1.
</event>
<event>
 5   0  0.8950809E-07  0.3500027E+04  0.7818609E-02  0.8113784E-01
       -2   -1    0    0    0  501  0.00000000000E+00  0.00000000000E+00  0.12805009530E+04  0.12805009530E+04  0.25500000920E-02 0.  1.
        2   -1    0    0  501    0  0.00000000000E+00  0.00000000000E+00 -0.23916786331E+04  0.23916786331E+04  0.25500000920E-02 0. -1.
    10030    2    1    2    0    0  0.00000000000E+00  0.00000000000E+00 -0.11111776801E+04  0.36721795860E+04  0.35000267250E+04 0.  0.
        2    1    3    3  502    0 -0.12266521165E+04  0.95710918896E+03  0.28494833526E+03  0.15817487058E+04  0.25500000920E-02 0.  1.
       -2    1    3    3    0  502  0.12266521165E+04 -0.95710918896E+03 -0.13961260154E+04  0.20904308803E+04  0.25500000920E-02 0. -1.
</event>
<event>
 5   0  0.2907000E-07  0.3482644E+04  0.7818609E-02  0.8117915E-01
        3   -1    0    0  501    0  0.00000000000E+00  0.00000000000E+00  0.12649067962E+04  0.12649068003E+04  0.10100000352E+00 0. -1.
       -3   -1    0    0    0  501  0.00000000000E+00  0.00000000000E+00 -0.23971743459E+04  0.23971743480E+04  0.10100000352E+00 0.  1.
    10030    2    1    2    0    0  0.00000000000E+00  0.00000000000E+00 -0.11322675497E+04  0.36620811483E+04  0.34826438998E+04 0.  0.
        5    1    3    3  502    0  0.87375353127E+03  0.15021351821E+04 -0.44939714498E+03  0.17949471364E+04  0.46999998093E+01 0. -1.
       -5    1    3    3    0  502 -0.87375353127E+03 -0.15021351821E+04 -0.68287040469E+03  0.18671340119E+04  0.46999998093E+01 0.  1.
</event>
<event>
 5   0  0.2972541E-07  0.3242265E+04  0.7818609E-02  0.8177743E-01
        1   -1    0    0  501    0  0.00000000000E+00  0.00000000000E+00  0.15579774597E+04  0.15579774597E+04  0.50400001928E-02 0.  1.
       -1   -1    0    0    0  501  0.00000000000E+00  0.00000000000E+00 -0.16868477066E+04  0.16868477066E+04  0.50400001928E-02 0. -1.
    10030    2    1    2    0    0  0.00000000000E+00  0.00000000000E+00 -0.12887024697E+03  0.32448251663E+04  0.32422650755E+04 0.  0.
        3    1    3    3  502    0 -0.90420605435E+03  0.11641180358E+04  0.61086526576E+03  0.15955926088E+04  0.10100000352E+00 0.  1.
       -3    1    3    3    0  502  0.90420605435E+03 -0.11641180358E+04 -0.73973551273E+03  0.16492325576E+04  0.10100000352E+00 0. -1.
</event>
<event>
 5   0  0.3026332E-07  0.3309185E+04  0.7818609E-02  0.8160562E-01
        1   -1    0    0  501    0  0.00000000000E+00  0.00000000000E+00  0.23131809772E+04  0.23131809772E+04  0.50400001928E-02 0. -1.
       -1   -1    0    0    0  501  0.00000000000E+00  0.00000000000E+00 -0.11835116254E+04  0.11835116254E+04  0.50400001928E-02 0.  1.
    10030    2    1    2    0    0  0.00000000000E+00  0.00000000000E+00  0.11296693518E+04  0.34966926026E+04  0.33091851433E+04 0.  0.
        1    1    3    3  502    0 -0.14632774420E+04  0.73507131265E+03  0.31441258389E+03  0.16674429465E+04  0.50400001928E-02 0. -1.
       -1    1    3    3    0  502  0.14632774420E+04 -0.73507131265E+03  0.81525676788E+03  0.18292496561E+04  0.50400001928E-02 0.  1.
</event>
<event>
 5   0  0.6188930E-07  0.3530123E+04  0.7818609E-02  0.8106688E-01
        2   -1    0    0  501    0  0.00000000000E+00  0.00000000000E+00  0.16445670867E+04  0.16445670867E+04  0.25500000920E-02 0. -1.
       -2   -1    0    0    0  501  0.00000000000E+00  0.00000000000E+00 -0.18943839451E+04  0.18943839451E+04  0.25500000920E-02 0.  1.
    10030    2    1    2    0    0  0.00000000000E+00  0.00000000000E+00 -0.24981685844E+03  0.35389510318E+04  0.35301226526E+04 0.  0.
        3    1    3    3  502    0  0.86550946746E+02  0.46684293329E+03  0.15793454342E+04  0.16491711256E+04  0.10100000352E+00 0. -1.
       -3    1    3    3    0  502 -0.86550946746E+02 -0.46684293329E+03 -0.18291622927E+04  0.18897799062E+04  0.10100000352E+00 0.  1.
</event>
<event>
 5   0  0.6188930E-07  0.3492241E+04  0.7818609E-02  0.8115631E-01
        2   -1    0    0  501    0  0.00000000000E+00  0.00000000000E+00  0.17842913122E+04  0.17842913123E+04  0.25500000920E-02 0. -1.
       -2   -1    0    0    0  501  0.00000000000E+00  0.00000000000E+00 -0.17087666153E+04  0.17087666153E+04  0.25500000920E-02 0.  1.
    10030    2    1    2    0    0  0.00000000000E+00  0.00000000000E+00  0.75524696992E+02  0.34930579275E+04  0.34922413584E+04 0.  0.
        3    1    3    3  502    0 -0.11437465777E+04 -0.41863152658E+03  0.12892658556E+04  0.17735881838E+04  0.10100000352E+00 0. -1.
       -3    1    3    3    0  502  0.11437465777E+04  0.41863152658E+03 -0.12137411586E+04  0.17194697437E+04  0.10100000352E+00 0.  1.
</event>
<event>
 5   0  0.2933506E-07  0.3514352E+04  0.7818609E-02  0.8110397E-01
        1   -1    0    0  501    0  0.00000000000E+00  0.00000000000E+00  0.12535735119E+04  0.12535735119E+04  0.50400001928E-02 0. -1.
       -1   -1    0    0    0  501  0.00000000000E+00  0.00000000000E+00 -0.24630923904E+04  0.24630923904E+04  0.50400001928E-02 0.  1.
    10030    2    1    2    0    0  0.00000000000E+00  0.00000000000E+00 -0.12095188785E+04  0.37166659023E+04  0.35143519334E+04 0.  0.
        4    1    3    3  502    0 -0.35471529004E+02 -0.11048017034E+03  0.12495168710E+04  0.12548936693E+04  0.12699999809E+01 0. -1.
       -4    1    3    3    0  502  0.35471529004E+02  0.11048017034E+03 -0.24590357495E+04  0.24617722331E+04  0.12699999809E+01 0.  1.
</event>
<event>
 5   0  0.9128871E-07  0.3515305E+04  0.7818609E-02  0.8110172E-01
       -2   -1    0    0    0  501  0.00000000000E+00  0.00000000000E+00  0.18968130561E+04  0.18968130561E+04  0.25500000920E-02 0. -1.
        2   -1    0    0  501    0  0.00000000000E+00  0.00000000000E+00 -0.16287015300E+04  0.16287015300E+04  0.25500000920E-02 0.  1.
    10030    2    1    2    0    0  0.00000000000E+00  0.00000000000E+00  0.26811152609E+03  0.35255145861E+04  0.35153050090E+04 0.  0.
        1    1    3    3  502    0 -0.10079392385E+04 -0.14380096561E+04  0.59482242995E+02  0.17570860584E+04  0.50400001928E-02 0. -1.
       -1    1    3    3    0  502  0.10079392385E+04  0.14380096561E+04  0.20862928310E+03  0.17684285276E+04  0.50400001928E-02 0.  1.
</event>
<event>
 5   0  0.2936607E-07  0.3571749E+04  0.7818609E-02  0.8096994E-01
        1   -1    0    0  501    0  0.00000000000E+00  0.00000000000E+00  0.19638299521E+04  0.19638299521E+04  0.50400001928E-02 0.  1.
       -1   -1    0    0    0  501  0.00000000000E+00  0.00000000000E+00 -0.16240444379E+04  0.16240444379E+04  0.50400001928E-02 0. -1.
    10030    2    1    2    0    0  0.00000000000E+00  0.00000000000E+00  0.33978551418E+03  0.35878743899E+04  0.35717486533E+04 0.  0.
        2    1    3    3  502    0  0.10778357191E+04  0.10368961060E+04 -0.81045591701E+03  0.17010944022E+04  0.25500000920E-02 0. -1.
       -2    1    3    3    0  502 -0.10778357191E+04 -0.10368961060E+04  0.11502414312E+04  0.18867799877E+04  0.25500000920E-02 0.  1.
</event>
<event>
 5   0  0.3026332E-07  0.3483000E+04  0.7818609E-02  0.8117831E-01
        1   -1    0    0  501    0  0.00000000000E+00  0.00000000000E+00  0.13914585724E+04  0.13914585724E+04  0.50400001928E-02 0. -1.
       -1   -1    0    0    0  501  0.00000000000E+00  0.00000000000E+00 -0.21795988882E+04  0.21795988882E+04  0.50400001928E-02 0.  1.
    10030    2    1    2    0    0  0.00000000000E+00  0.00000000000E+00 -0.78814031576E+03  0.35710574607E+04  0.34829996023E+04 0.  0.
        1    1    3    3  502    0  0.42539419826E+03 -0.78695907612E+02 -0.21236298306E+04  0.21672463928E+04  0.50400001928E-02 0.  1.
       -1    1    3    3    0  502 -0.42539419826E+03  0.78695907612E+02  0.13354895149E+04  0.14038110678E+04  0.50400001928E-02 0. -1.
</event>
<event>
 5   0  0.8845195E-07  0.3384165E+04  0.7818609E-02  0.8141804E-01
       -2   -1    0    0    0  501  0.00000000000E+00  0.00000000000E+00  0.11482455044E+04  0.11482455044E+04  0.25500000920E-02 0.  1.
        2   -1    0    0  501    0  0.00000000000E+00  0.00000000000E+00 -0.24934935889E+04  0.24934935889E+04  0.25500000920E-02 0. -1.
    10030    2    1    2    0    0  0.00000000000E+00  0.00000000000E+00 -0.13452480844E+04  0.36417390933E+04  0.33841647736E+04 0.  0.
        5    1    3    3  502    0  0.10267361985E+04 -0.31790968611E+03  0.73369656792E+03  0.13013787049E+04  0.46999998093E+01 0.  1.
       -5    1    3    3    0  502 -0.10267361985E+04  0.31790968611E+03 -0.20789446524E+04  0.23403603884E+04  0.46999998093E+01 0. -1.
</event>
<event>
 5   0  0.9128871E-07  0.3488784E+04  0.7818609E-02  0.8116453E-01
       -2   -1    0    0    0  501  0.00000000000E+00  0.00000000000E+00  0.16177487486E+04  0.16177487486E+04  0.25500000920E-02 0.  1.
        2   -1    0    0  501    0  0.00000000000E+00  0.00000000000E+00 -0.18809497236E+04  0.18809497236E+04  0.25500000920E-02 0. -1.
    10030    2    1    2    0    0  0.00000000000E+00  0.00000000000E+00 -0.26320097502E+03  0.34986984721E+04  0.34887843507E+04 0.  0.
        1    1    3    3  502    0 -0.14324358231E+03 -0.94316233954E+03 -0.15961718041E+04  0.18595263781E+04  0.50400001928E-02 0. -1.
       -1    1    3    3    0  502  0.14324358231E+03  0.94316233954E+03  0.13329708291E+04  0.16391720940E+04  0.50400001928E-02 0.  1.
</event>
<event>
 5   0  0.2936607E-07  0.3496399E+04  0.7818609E-02  0.8114644E-01
        1   -1    0    0  501    0  0.00000000000E+00  0.00000000000E+00  0.26102944153E+04  0.26102944153E+04  0.50400001928E-02 0. -1.
       -1   -1    0    0    0  501  0.00000000000E+00  0.00000000000E+00 -0.11708261813E+04  0.11708261813E+04  0.50400001928E-02 0.  1.
    10030    2    1    2    0    0  0.00000000000E+00  0.00000000000E+00  0.14394682340E+04  0.37811205966E+04  0.34963987429E+04 0.  0.
        2    1    3    3  502    0  0.11629312514E+04  0.99604118836E+03  0.16320520146E+04  0.22378786658E+04  0.25500000920E-02 0. -1.
       -2    1    3    3    0  502 -0.11629312514E+04 -0.99604118836E+03 -0.19258378055E+03  0.15432419308E+04  0.25500000920E-02 0.  1.
</event>
<event>
 5   0  0.2936607E-07  0.3452375E+04  0.7818609E-02  0.8125170E-01
        1   -1    0    0  501    0  0.00000000000E+00  0.00000000000E+00  0.15398977041E+04  0.15398977042E+04  0.50400001928E-02 0.  1.
       -1   -1    0    0    0  501  0.00000000000E+00  0.00000000000E+00 -0.19350139176E+04  0.19350139176E+04  0.50400001928E-02 0. -1.
    10030    2    1    2    0    0  0.00000000000E+00  0.00000000000E+00 -0.39511621341E+03  0.34749116217E+04  0.34523751182E+04 0.  0.
        2    1    3    3  502    0 -0.94733892060E+03  0.20702108987E+03  0.12398449404E+04  0.15740153235E+04  0.25500000920E-02 0.  1.
       -2    1    3    3    0  502  0.94733892060E+03 -0.20702108987E+03 -0.16349611538E+04  0.19008962983E+04  0.25500000920E-02 0. -1.
</event>
<event>
 5   0  0.8950809E-07  0.3472356E+04  0.7818609E-02  0.8120373E-01
        2   -1    0    0  501    0  0.00000000000E+00  0.00000000000E+00  0.32332875786E+04  0.32332875786E+04  0.25500000920E-02 0.  1.
       -2   -1    0    0    0  501  0.00000000000E+00  0.00000000000E+00 -0.93227516789E+03  0.93227516789E+03  0.25500000920E-02 0. -1.
    10030    2    1    2    0    0  0.00000000000E+00  0.00000000000E+00  0.23010124108E+04  0.41655627465E+04  0.34723558114E+04 0.  0.
        2    1    3    3  502    0  0.75165650520E+03  0.78192990856E+03  0.27768479039E+04  0.29811551730E+04  0.25500000920E-02 0.  1.
       -2    1    3    3    0  502 -0.75165650520E+03 -0.78192990856E+03 -0.47583549319E+03  0.11844075736E+04  0.25500000920E-02 0. -1.
</event>
<event>
 5   0  0.3061330E-07  0.3651593E+04  0.7818609E-02  0.8078775E-01
        1   -1    0    0  501    0  0.00000000000E+00  0.00000000000E+00  0.25410513638E+04  0.25410513638E+04  0.50400001928E-02 0. -1.
       -1   -1    0    0    0  501  0.00000000000E+00  0.00000000000E+00 -0.13118715592E+04  0.13118715592E+04  0.50400001928E-02 0.  1.
    10030    2    1    2    0    0  0.00000000000E+00  0.00000000000E+00  0.12291798045E+04  0.38529229230E+04  0.36515930851E+04 0.  0.
        5    1    3    3  502    0  0.57693837236E+03 -0.12866874762E+04  0.18383135574E+04  0.23168602401E+04  0.46999998093E+01 0. -1.
       -5    1    3    3    0  502 -0.57693837236E+03  0.12866874762E+04 -0.60913375287E+03  0.15360626829E+04  0.46999998093E+01 0.  1.
</event>
<event>
 5   0  0.3026332E-07  0.3526919E+04  0.7818609E-02  0.8107440E-01
        1   -1    0    0  501    0  0.00000000000E+00  0.00000000000E+00  0.29784396807E+04  0.29784396807E+04  0.50400001928E-02 0. -1.
       -1   -1    0    0    0  501  0.00000000000E+00  0.00000000000E+00 -0.10441001665E+04  0.10441001666E+04  0.50400001928E-02 0.  1.
    10030    2    1    2    0    0  0.00000000000E+00  0.00000000000E+00  0.19343395142E+04  0.40225398473E+04  0.35269189765E+04 0.  0.
        1    1    3    3  502    0 -0.41068251821E+03  0.26741184973E+03 -0.96487453270E+03  0.10821978063E+04  0.50400001928E-02 0.  1.
       -1    1    3    3    0  502  0.41068251821E+03 -0.26741184973E+03  0.28992140469E+04  0.29403420409E+04  0.50400001928E-02 0. -1.
</event>
<event>
 5   0  0.6188930E-07  0.3503853E+04  0.7818609E-02  0.8112877E-01
       -2   -1    0    0    0  501  0.00000000000E+00  0.00000000000E+00  0.12246895162E+04  0.12246895162E+04  0.25500000920E-02 0.  1.
        2   -1    0    0  501    0  0.00000000000E+00  0.00000000000E+00 -0.25061424724E+04  0.25061424724E+04  0.25500000920E-02 0. -1.
    10030    2    1    2    0    0  0.00000000000E+00  0.00000000000E+00 -0.12814529562E+04  0.37308319885E+04  0.35038529718E+04 0.  0.
        3    1    3    3  502    0  0.93684503514E+03  0.13454084840E+04  0.16893644764E+02  0.16395389639E+04  0.10100000352E+00 0. -1.
       -3    1    3    3    0  502 -0.93684503514E+03 -0.13454084840E+04 -0.12983466010E+04  0.20912930247E+04  0.10100000352E+00 0.  1.
</event>
<event>
 5   0  0.3026332E-07  0.3516284E+04  0.7818609E-02  0.8109942E-01
       -1   -1    0    0    0  501  0.00000000000E+00  0.00000000000E+00  0.25175699135E+04  0.25175699135E+04  0.50400001928E-02 0. -1.
        1   -1    0    0  501    0  0.00000000000E+00  0.00000000000E+00 -0.12277964978E+04  0.12277964978E+04  0.50400001928E-02 0.  1.
    10030    2    1    2    0    0  0.00000000000E+00  0.00000000000E+00  0.12897734157E+04  0.37453664113E+04  0.35162841312E+04 0.  0.
        1    1    3    3  502    0 -0.47689839689E+03  0.93517199882E+03  0.21471186673E+04  0.23899994393E+04  0.50400001928E-02 0. -1.
       -1    1    3    3    0  502  0.47689839689E+03 -0.93517199882E+03 -0.85734525165E+03  0.13553669720E+04  0.50400001928E-02 0.  1.
</event>
<event>
 5   0  0.8950809E-07  0.3630583E+04  0.7818609E-02  0.8083522E-01
       -2   -1    0    0    0  501  0.00000000000E+00  0.00000000000E+00  0.12127746076E+04  0.12127746076E+04  0.25500000920E-02 0.  1.
        2   -1    0    0  501    0  0.00000000000E+00  0.00000000000E+00 -0.27171436776E+04  0.27171436776E+04  0.25500000920E-02 0. -1.
    10030    2    1    2    0    0  0.00000000000E+00  0.00000000000E+00 -0.15043690700E+04  0.39299182851E+04  0.36305827947E+04 0.  0.
        2    1    3    3  502    0  0.39398886879E+03  0.76887893816E+03  0.97596746588E+03  0.13034241615E+04  0.25500000920E-02 0.  1.
       -2    1    3    3    0  502 -0.39398886879E+03 -0.76887893816E+03 -0.24803365359E+04  0.26264941237E+04  0.25500000920E-02 0. -1.
</event>
<event>
 5   0  0.8950809E-07  0.3499683E+04  0.7818609E-02  0.8113865E-01
       -2   -1    0    0    0  501  0.00000000000E+00  0.00000000000E+00  0.24098429747E+04  0.24098429747E+04  0.25500000920E-02 0. -1.
        2   -1    0    0  501    0  0.00000000000E+00  0.00000000000E+00 -0.12705998466E+04  0.12705998466E+04  0.25500000920E-02 0.  1.
    10030    2    1    2    0    0  0.00000000000E+00  0.00000000000E+00  0.11392431281E+04  0.36804428213E+04  0.34996834794E+04 0.  0.
        2    1    3    3  502    0  0.50575504647E+03  0.48629862715E+03 -0.11161942338E+04  0.13183945120E+04  0.25500000920E-02 0.  1.
       -2    1    3    3    0  502 -0.50575504647E+03 -0.48629862715E+03  0.22554373619E+04  0.23620483092E+04  0.25500000920E-02 0. -1.
</event>
<event>
 5   0  0.3026332E-07  0.2933611E+04  0.7818609E-02  0.8262947E-01
       -1   -1    0    0    0  501  0.00000000000E+00  0.00000000000E+00  0.13877785405E+04  0.13877785405E+04  0.50400001928E-02 0.  1.
        1   -1    0    0  501    0  0.00000000000E+00  0.00000000000E+00 -0.15503326461E+04  0.15503326461E+04  0.50400001928E-02 0. -1.
    10030    2    1    2    0    0  0.00000000000E+00  0.00000000000E+00 -0.16255410559E+03  0.29381111865E+04  0.29336110013E+04 0.  0.
        1    1    3    3  502    0 -0.10834414164E+04  0.73765425361E+03  0.57816999015E+03  0.14325709889E+04  0.50400001928E-02 0.  1.
       -1    1    3    3    0  502  0.10834414164E+04 -0.73765425361E+03 -0.74072409574E+03  0.15055401976E+04  0.50400001928E-02 0. -1.
</event>
<event>
 5   0  0.6188930E-07  0.3470216E+04  0.7818609E-02  0.8120885E-01
       -2   -1    0    0    0  501  0.00000000000E+00  0.00000000000E+00  0.15878485748E+04  0.15878485748E+04  0.25500000920E-02 0. -1.
        2   -1    0    0  501    0  0.00000000000E+00  0.00000000000E+00 -0.18960246488E+04  0.18960246488E+04  0.25500000920E-02 0.  1.
    10030    2    1    2    0    0  0.00000000000E+00  0.00000000000E+00 -0.30817607392E+03  0.34838732236E+04  0.34702161526E+04 0.  0.
        3    1    3    3  502    0  0.16440298968E+03  0.11023504448E+04 -0.14891317231E+04  0.18600317592E+04  0.10100000352E+00 0.  1.
       -3    1    3    3    0  502 -0.16440298968E+03 -0.11023504448E+04  0.11809556492E+04  0.16238414644E+04  0.10100000352E+00 0. -1.
</event>
<event>
 5   0  0.8950809E-07  0.3425448E+04  0.7818609E-02  0.8131689E-01
       -2   -1    0    0    0  501  0.00000000000E+00  0.00000000000E+00  0.11957678664E+04  0.11957678664E+04  0.25500000920E-02 0.  1.
        2   -1    0    0  501    0  0.00000000000E+00  0.00000000000E+00 -0.24531712317E+04  0.24531712317E+04  0.25500000920E-02 0. -1.
    10030    2    1    2    0    0  0.00000000000E+00  0.00000000000E+00 -0.12574033653E+04  0.36489390980E+04  0.34254479004E+04 0.  0.
        2    1    3    3  502    0  0.15401430041E+04 -0.74093462361E+03 -0.74731624907E+03  0.18653434444E+04  0.25500000920E-02 0.  1.
       -2    1    3    3    0  502 -0.15401430041E+04  0.74093462361E+03 -0.51008711620E+03  0.17835956536E+04  0.25500000920E-02 0. -1.
</event>
<event>
 5   0  0.2972541E-07  0.3520239E+04  0.7818609E-02  0.8109010E-01
        1   -1    0    0  501    0  0.00000000000E+00  0.00000000000E+00  0.13554947799E+04  0.13554947799E+04  0.50400001928E-02 0.  1.
       -1   -1    0    0    0  501  0.00000000000E+00  0.00000000000E+00 -0.22855269621E+04  0.22855269621E+04  0.50400001928E-02 0. -1.
    10030    2    1    2    0    0  0.00000000000E+00  0.00000000000E+00 -0.93003218226E+03  0.36410217420E+04  0.35202385524E+04 0.  0.
        3    1    3    3  502    0  0.28593311209E+03  0.11517401639E+04 -0.18095237077E+04  0.21639406666E+04  0.10100000352E+00 0. -1.
       -3    1    3    3    0  502 -0.28593311209E+03 -0.11517401639E+04  0.87949152541E+03  0.14770810754E+04  0.10100000352E+00 0.  1.
</event>
<event>
 5   0  0.2972541E-07  0.3410793E+04  0.7818609E-02  0.8135262E-01
        1   -1    0    0  501    0  0.00000000000E+00  0.00000000000E+00  0.17968540337E+04  0.17968540337E+04  0.50400001928E-02 0. -1.
       -1   -1    0    0    0  501  0.00000000000E+00  0.00000000000E+00 -0.16185941376E+04  0.16185941376E+04  0.50400001928E-02 0.  1.
    10030    2    1    2    0    0  0.00000000000E+00  0.00000000000E+00  0.17825989612E+03  0.34154481713E+04  0.34107931073E+04 0.  0.
        3    1    3    3  502    0 -0.13025106845E+04 -0.11001463647E+04  0.50073024716E+02  0.17056856173E+04  0.10100000352E+00 0.  1.
       -3    1    3    3    0  502  0.13025106845E+04  0.11001463647E+04  0.12818687140E+03  0.17097625541E+04  0.10100000352E+00 0. -1.
</event>
<event>
 5   0  0.2933506E-07  0.3514339E+04  0.7818609E-02  0.8110400E-01
        1   -1    0    0  501    0  0.00000000000E+00  0.00000000000E+00  0.19899241743E+04  0.19899241743E+04  0.50400001928E-02 0. -1.
       -1   -1    0    0    0  501  0.00000000000E+00  0.00000000000E+00 -0.15516394211E+04  0.15516394211E+04  0.50400001928E-02 0.  1.
    10030    2    1    2    0    0  0.00000000000E+00  0.00000000000E+00  0.43828475322E+03  0.35415635954E+04  0.35143390809E+04 0.  0.
        4    1    3    3  502    0  0.90486863868E+03 -0.13192698012E+04  0.95167310932E+03  0.18614358387E+04  0.12699999809E+01 0. -1.
       -4    1    3    3    0  502 -0.90486863868E+03  0.13192698012E+04 -0.51338835610E+03  0.16801277567E+04  0.12699999809E+01 0.  1.
</event>
<event>
 5   0  0.6188930E-07  0.3716532E+04  0.7818609E-02  0.8064308E-01
        2   -1    0    0  501    0  0.00000000000E+00  0.00000000000E+00  0.16486365354E+04  0.16486365354E+04  0.25500000920E-02 0. -1.
       -2   -1    0    0    0  501  0.00000000000E+00  0.00000000000E+00 -0.20945510489E+04  0.20945510489E+04  0.25500000920E-02 0.  1.
    10030    2    1    2    0    0  0.00000000000E+00  0.00000000000E+00 -0.44591451349E+03  0.37431875843E+04  0.37165324615E+04 0.  0.
        3    1    3    3  502    0 -0.66680040140E+01  0.18581974111E+04 -0.23759744029E+03  0.18733378325E+04  0.10100000352E+00 0.  1.
       -3    1    3    3    0  502  0.66680040140E+01 -0.18581974111E+04 -0.20831707321E+03  0.18698497517E+04  0.10100000352E+00 0. -1.
</event>
<event>
 5   0  0.8950809E-07  0.3521235E+04  0.7818609E-02  0.8108776E-01
       -2   -1    0    0    0  501  0.00000000000E+00  0.00000000000E+00  0.15050575438E+04  0.15050575438E+04  0.25500000920E-02 0. -1.
        2   -1    0    0  501    0  0.00000000000E+00  0.00000000000E+00 -0.20595722013E+04  0.20595722013E+04  0.25500000920E-02 0.  1.
    10030    2    1    2    0    0  0.00000000000E+00  0.00000000000E+00 -0.55451465754E+03  0.35646297451E+04  0.35212353960E+04 0.  0.
        2    1    3    3  502    0 -0.17399971246E+04  0.26785810824E+03 -0.25610197255E+03  0.17790239403E+04  0.25500000920E-02 0. -1.
       -2    1    3    3    0  502  0.17399971246E+04 -0.26785810824E+03 -0.29841268498E+03  0.17856058048E+04  0.25500000920E-02 0.  1.
</event>
<event>
 5   0  0.9311672E-07  0.3494369E+04  0.7818609E-02  0.8115126E-01
       -2   -1    0    0    0  501  0.00000000000E+00  0.00000000000E+00  0.17980875718E+04  0.17980875718E+04  0.25500000920E-02 0. -1.
        2   -1    0    0  501    0  0.00000000000E+00  0.00000000000E+00 -0.16977226845E+04  0.16977226845E+04  0.25500000920E-02 0.  1.
    10030    2    1    2    0    0  0.00000000000E+00  0.00000000000E+00  0.10036488732E+03  0.34958102563E+04  0.34943692188E+04 0.  0.
        4    1    3    3  502    0  0.15605935930E+04  0.44124726009E+03 -0.60008633186E+03  0.17292358791E+04  0.12699999809E+01 0.  1.
       -4    1    3    3    0  502 -0.15605935930E+04 -0.44124726009E+03  0.70045121918E+03  0.17665743772E+04  0.12699999809E+01 0. -1.
</event>
<event>
 5   0  0.2936607E-07  0.3442135E+04  0.7818609E-02  0.8127642E-01
       -1   -1    0    0    0  501  0.00000000000E+00  0.00000000000E+00  0.10176841655E+04  0.10176841655E+04  0.50400001928E-02 0.  1.
        1   -1    0    0  501    0  0.00000000000E+00  0.00000000000E+00 -0.29106014886E+04  0.29106014886E+04  0.50400001928E-02 0. -1.
    10030    2    1    2    0    0  0.00000000000E+00  0.00000000000E+00 -0.18929173230E+04  0.39282856541E+04  0.34421348301E+04 0.  0.
        2    1    3    3  502    0 -0.78171682264E+03  0.15229692249E+04 -0.11491897067E+04  0.20618325424E+04  0.25500000920E-02 0. -1.
       -2    1    3    3    0  502  0.78171682264E+03 -0.15229692249E+04 -0.74372761636E+03  0.18664531117E+04  0.25500000920E-02 0.  1.
</event>
<event>
 5   0  0.3061330E-07  0.3562376E+04  0.7818609E-02  0.8099165E-01
        1   -1    0    0  501    0  0.00000000000E+00  0.00000000000E+00  0.31633662860E+04  0.31633662860E+04  0.50400001928E-02 0.  1.
       -1   -1    0    0    0  501  0.00000000000E+00  0.00000000000E+00 -0.10029286768E+04  0.10029286768E+04  0.50400001928E-02 0. -1.
    10030    2    1    2    0    0  0.00000000000E+00  0.00000000000E+00  0.21604376092E+04  0.41662949628E+04  0.35623760405E+04 0.  0.
        5    1    3    3  502    0  0.11664468740E+04 -0.59825773663E+03 -0.33006688017E+03  0.13518420265E+04  0.46999998093E+01 0. -1.
       -5    1    3    3    0  502 -0.11664468740E+04  0.59825773663E+03  0.24905044894E+04  0.28144529363E+04  0.46999998093E+01 0.  1.
</event>
<event>
 5   0  0.6188930E-07  0.3522189E+04  0.7818609E-02  0.8108551E-01
        2   -1    0    0  501    0  0.00000000000E+00  0.00000000000E+00  0.14916163714E+04  0.14916163714E+04  0.25500000920E-02 0.  1.
       -2   -1    0    0    0  501  0.00000000000E+00  0.00000000000E+00 -0.20792575695E+04  0.20792575695E+04  0.25500000920E-02 0. -1.
    10030    2    1    2    0    0  0.00000000000E+00  0.00000000000E+00 -0.58764119809E+03  0.35708739408E+04  0.35221894503E+04 0.  0.
        3    1    3    3  502    0  0.14141656615E+03  0.77308104422E+03 -0.18916126817E+04  0.20483777713E+04  0.10100000352E+00 0. -1.
       -3    1    3    3    0  502 -0.14141656615E+03 -0.77308104422E+03  0.13039714836E+04  0.15224961696E+04  0.10100000352E+00 0.  1.
</event>
<event>
 5   0  0.8950809E-07  0.3497654E+04  0.7818609E-02  0.8114346E-01
       -2   -1    0    0    0  501  0.00000000000E+00  0.00000000000E+00  0.22229009422E+04  0.22229009422E+04  0.25500000920E-02 0. -1.
        2   -1    0    0  501    0  0.00000000000E+00  0.00000000000E+00 -0.13758576406E+04  0.13758576406E+04  0.25500000920E-02 0.  1.
    10030    2    1    2    0    0  0.00000000000E+00  0.00000000000E+00  0.84704330161E+03  0.35987585828E+04  0.34976536396E+04 0.  0.
        2    1    3    3  502    0 -0.58282314203E+03 -0.33031676427E+03 -0.12386013395E+04  0.14081637894E+04  0.25500000920E-02 0.  1.
       -2    1    3    3    0  502  0.58282314203E+03  0.33031676427E+03  0.20856446411E+04  0.21905947933E+04  0.25500000920E-02 0. -1.
</event>
<event>
 5   0  0.3026332E-07  0.3506628E+04  0.7818609E-02  0.8112221E-01
        1   -1    0    0  501    0  0.00000000000E+00  0.00000000000E+00  0.16355079525E+04  0.16355079525E+04  0.50400001928E-02 0.  1.
       -1   -1    0    0    0  501  0.00000000000E+00  0.00000000000E+00 -0.18796061254E+04  0.18796061254E+04  0.50400001928E-02 0. -1.
    10030    2    1    2    0    0  0.00000000000E+00  0.00000000000E+00 -0.24409817285E+03  0.35151140779E+04  0.35066284466E+04 0.  0.
        1    1    3    3  502    0  0.16138841039E+04 -0.46556090834E+03 -0.62600007320E+03  0.17925526358E+04  0.50400001928E-02 0. -1.
       -1    1    3    3    0  502 -0.16138841039E+04  0.46556090834E+03  0.38190190035E+03  0.17225614421E+04  0.50400001928E-02 0.  1.
</event>
<event>
 5   0  0.2972541E-07  0.3601319E+04  0.7818609E-02  0.8090190E-01
       -1   -1    0    0    0  501  0.00000000000E+00  0.00000000000E+00  0.12236866721E+04  0.12236866721E+04  0.50400001928E-02 0. -1.
        1   -1    0    0  501    0  0.00000000000E+00  0.00000000000E+00 -0.26496776825E+04  0.26496776825E+04  0.50400001928E-02 0.  1.
    10030    2    1    2    0    0  0.00000000000E+00  0.00000000000E+00 -0.14259910104E+04  0.38733643547E+04  0.36013193502E+04 0.  0.
        3    1    3    3  502    0  0.10561666164E+04  0.77152183203E+03 -0.20440788977E+04  0.24267246257E+04  0.10100000352E+00 0. -1.
       -3    1    3    3    0  502 -0.10561666164E+04 -0.77152183203E+03  0.61808788729E+03  0.14466397290E+04  0.10100000352E+00 0.  1.
</event>
<event>
 5   0  0.2936607E-07  0.3881206E+04  0.7818609E-02  0.8028949E-01
        1   -1    0    0  501    0  0.00000000000E+00  0.00000000000E+00  0.14327484828E+04  0.14327484829E+04  0.50400001928E-02 0. -1.
       -1   -1    0    0    0  501  0.00000000000E+00  0.00000000000E+00 -0.26284730526E+04  0.26284730526E+04  0.50400001928E-02 0.  1.
    10030    2    1    2    0    0  0.00000000000E+00  0.00000000000E+00 -0.11957245697E+04  0.40612215354E+04  0.38812063992E+04 0.  0.
        2    1    3    3  502    0 -0.66253229360E+03  0.18214558620E+04 -0.49700567447E+03  0.20009160746E+04  0.25500000920E-02 0. -1.
       -2    1    3    3    0  502  0.66253229360E+03 -0.18214558620E+04 -0.69871889525E+03  0.20603054608E+04  0.25500000920E-02 0.  1.
</event>
<event>
 5   0  0.3061330E-07  0.3522276E+04  0.7818609E-02  0.8108531E-01
       -1   -1    0    0    0  501  0.00000000000E+00  0.00000000000E+00  0.16747938059E+04  0.16747938059E+04  0.50400001928E-02 0.  1.
        1   -1    0    0  501    0  0.00000000000E+00  0.00000000000E+00 -0.18519333481E+04  0.18519333481E+04  0.50400001928E-02 0. -1.
    10030    2    1    2    0    0  0.00000000000E+00  0.00000000000E+00 -0.17713954222E+03  0.35267271540E+04  0.35222756850E+04 0.  0.
        5    1    3    3  502    0 -0.16572783979E+04  0.55100873894E+03  0.13843705290E+03  0.17519615368E+04  0.46999998093E+01 0.  1.
       -5    1    3    3    0  502  0.16572783979E+04 -0.55100873894E+03 -0.31557659513E+03  0.17747656172E+04  0.46999998093E+01 0. -1.
</event>
<event>
 5   0  0.3026332E-07  0.3060585E+04  0.7818609E-02  0.8226639E-01
        1   -1    0    0  501    0  0.00000000000E+00  0.00000000000E+00  0.18145703097E+04  0.18145703097E+04  0.50400001928E-02 0.  1.
       -1   -1    0    0    0  501  0.00000000000E+00  0.00000000000E+00 -0.12905504437E+04  0.12905504438E+04  0.50400001928E-02 0. -1.
    10030    2    1    2    0    0  0.00000000000E+00  0.00000000000E+00  0.52401986594E+03  0.31051207534E+04  0.30605845967E+04 0.  0.
        1    1    3    3  502    0  0.12025835700E+04  0.18248247439E+03 -0.68009685139E+03  0.13935705306E+04  0.50400001928E-02 0.  1.
       -1    1    3    3    0  502 -0.12025835700E+04 -0.18248247439E+03  0.12041167173E+04  0.17115502229E+04  0.50400001928E-02 0. -1.
</event>
<event>
 5   0  0.6188930E-07  0.3568270E+04  0.7818609E-02  0.8097799E-01
       -2   -1    0    0    0  501  0.00000000000E+00  0.00000000000E+00  0.17507430928E+04  0.17507430928E+04  0.25500000920E-02 0. -1.
        2   -1    0    0  501    0  0.00000000000E+00  0.00000000000E+00 -0.18181633659E+04  0.18181633659E+04  0.25500000920E-02 0.  1.
    10030    2    1    2    0    0  0.00000000000E+00  0.00000000000E+00 -0.67420273084E+02  0.35689064587E+04  0.35682695831E+04 0.  0.
        3    1    3    3  502    0  0.12704297411E+04 -0.60857862521E+03 -0.11287924325E+04  0.18051404478E+04  0.10100000352E+00 0.  1.
       -3    1    3    3    0  502 -0.12704297411E+04  0.60857862521E+03  0.10613721595E+04  0.17637660109E+04  0.10100000352E+00 0. -1.
</event>
<event>
 5   0  0.2936607E-07  0.3510420E+04  0.7818609E-02  0.8111325E-01
        1   -1    0    0  501    0  0.00000000000E+00  0.00000000000E+00  0.24010565659E+04  0.24010565659E+04  0.50400001928E-02 0. -1.
       -1   -1    0    0    0  501  0.00000000000E+00  0.00000000000E+00 -0.12830859964E+04  0.12830859964E+04  0.50400001928E-02 0.  1.
    10030    2    1    2    0    0  0.00000000000E+00  0.00000000000E+00  0.11179705695E+04  0.36841425623E+04  0.35104199500E+04 0.  0.
        2    1    3    3  502    0  0.69146589034E+03 -0.34611010558E+03 -0.10946972422E+04  0.13402534592E+04  0.25500000920E-02 0.  1.
       -2    1    3    3    0  502 -0.69146589034E+03  0.34611010558E+03  0.22126678117E+04  0.23438891031E+04  0.25500000920E-02 0. -1.
</event>
<event>
 5   0  0.9128871E-07  0.3463220E+04  0.7818609E-02  0.8122562E-01
       -2   -1    0    0    0  501  0.00000000000E+00  0.00000000000E+00  0.14214258301E+04  0.14214258301E+04  0.25500000920E-02 0. -1.
        2   -1    0    0  501    0  0.00000000000E+00  0.00000000000E+00 -0.21094825777E+04  0.21094825777E+04  0.25500000920E-02 0.  1.
    10030    2    1    2    0    0  0.00000000000E+00  0.00000000000E+00 -0.68805674759E+03  0.35309084078E+04  0.34632199029E+04 0.  0.
        1    1    3    3  502    0  0.12255486424E+03  0.12018852926E+04  0.92075200943E+03  0.15189905247E+04  0.50400001928E-02 0. -1.
       -1    1    3    3    0  502 -0.12255486424E+03 -0.12018852926E+04 -0.16088087570E+04  0.20119178830E+04  0.50400001928E-02 0.  1.
</event>
<event>
 5   0  0.2936607E-07  0.3502522E+04  0.7818609E-02  0.8113192E-01
       -1   -1    0    0    0  501  0.00000000000E+00  0.00000000000E+00  0.13420421549E+04  0.13420421549E+04  0.50400001928E-02 0. -1.
        1   -1    0    0  501    0  0.00000000000E+00  0.00000000000E+00 -0.22852603816E+04  0.22852603816E+04  0.50400001928E-02 0.  1.
    10030    2    1    2    0    0  0.00000000000E+00  0.00000000000E+00 -0.94321822665E+03  0.36273025365E+04  0.35025223866E+04 0.  0.
        2    1    3    3  502    0 -0.54091886282E+03 -0.45405940204E+03 -0.21312467448E+04  0.22452117593E+04  0.25500000920E-02 0.  1.
       -2    1    3    3    0  502  0.54091886282E+03  0.45405940204E+03  0.11880285181E+04  0.13820907773E+04  0.25500000920E-02 0. -1.
</event>
<event>
 5   0  0.2972541E-07  0.3503100E+04  0.7818609E-02  0.8113056E-01
       -1   -1    0    0    0  501  0.00000000000E+00  0.00000000000E+00  0.10968464553E+04  0.10968464553E+04  0.50400001928E-02 0.  1.
        1   -1    0    0  501    0  0.00000000000E+00  0.00000000000E+00 -0.27970440564E+04  0.27970440564E+04  0.50400001928E-02 0. -1.
    10030    2    1    2    0    0  0.00000000000E+00  0.00000000000E+00 -0.17001976011E+04  0.38938905117E+04  0.35031002604E+04 0.  0.
        3    1    3    3  502    0 -0.95923327741E+03  0.10025764052E+04 -0.20382887239E+04  0.24657471203E+04  0.10100000352E+00 0. -1.
       -3    1    3    3    0  502  0.95923327741E+03 -0.10025764052E+04  0.33809112288E+03  0.14281433914E+04  0.10100000352E+00 0.  1.
</event>
<event>
 5   0  0.9128871E-07  0.3493897E+04  0.7818609E-02  0.8115238E-01
        2   -1    0    0  501    0  0.00000000000E+00  0.00000000000E+00  0.20956867439E+04  0.20956867439E+04  0.25500000920E-02 0.  1.
       -2   -1    0    0    0  501  0.00000000000E+00  0.00000000000E+00 -0.14562428037E+04  0.14562428037E+04  0.25500000920E-02 0. -1.
    10030    2    1    2    0    0  0.00000000000E+00  0.00000000000E+00  0.63944394020E+03  0.35519295475E+04  0.34938968156E+04 0.  0.
        1    1    3    3  502    0  0.26665979317E+03  0.36418035681E+03  0.20353827547E+04  0.20848303854E+04  0.50400001928E-02 0.  1.
       -1    1    3    3    0  502 -0.26665979317E+03 -0.36418035681E+03 -0.13959388145E+04  0.14670991621E+04  0.50400001928E-02 0. -1.
</event>
<event>
 5   0  0.2933506E-07  0.3535144E+04  0.7818609E-02  0.8105511E-01
       -1   -1    0    0    0  501  0.00000000000E+00  0.00000000000E+00  0.24035689713E+04  0.24035689713E+04  0.50400001928E-02 0. -1.
        1   -1    0    0  501    0  0.00000000000E+00  0.00000000000E+00 -0.12998630570E+04  0.12998630570E+04  0.50400001928E-02 0.  1.
    10030    2    1    2    0    0  0.00000000000E+00  0.00000000000E+00  0.11037059143E+04  0.37034320283E+04  0.35351438503E+04 0.  0.
        4    1    3    3  502    0  0.14189089733E+04  0.10364403279E+04  0.75281195109E+03  0.19116063074E+04  0.12699999809E+01 0. -1.
       -4    1    3    3    0  502 -0.14189089733E+04 -0.10364403279E+04  0.35089396322E+03  0.17918257209E+04  0.12699999809E+01 0.  1.
</event>
<event>
 5   0  0.8950809E-07  0.3338687E+04  0.7818609E-02  0.8153121E-01
       -2   -1    0    0    0  501  0.00000000000E+00  0.00000000000E+00  0.11961299187E+04  0.11961299187E+04  0.25500000920E-02 0. -1.
        2   -1    0    0  501    0  0.00000000000E+00  0.00000000000E+00 -0.23297702761E+04  0.23297702761E+04  0.25500000920E-02 0.  1.
    10030    2    1    2    0    0  0.00000000000E+00  0.00000000000E+00 -0.11336403574E+04  0.35259001948E+04  0.33386871258E+04 0.  0.
        2    1    3    3  502    0 -0.87142311629E+03  0.13611535609E+04 -0.12554977054E+03  0.16210737210E+04  0.25500000920E-02 0.  1.
       -2    1    3    3    0  502  0.87142311629E+03 -0.13611535609E+04 -0.10080905868E+04  0.19048264738E+04  0.25500000920E-02 0. -1.
</event>
<event>
 5   0  0.2972541E-07  0.2947459E+04  0.7818609E-02  0.8258895E-01
        1   -1    0    0  501    0  0.00000000000E+00  0.00000000000E+00  0.12715235821E+04  0.12715235821E+04  0.50400001928E-02 0.  1.
       -1   -1    0    0    0  501  0.00000000000E+00  0.00000000000E+00 -0.17080915416E+04  0.17080915416E+04  0.50400001928E-02 0. -1.
    10030    2    1    2    0    0  0.00000000000E+00  0.00000000000E+00 -0.43656795953E+03  0.29796151237E+04  0.29474590246E+04 0.  0.
        3    1    3    3  502    0 -0.24582814642E+03  0.26759968196E+03 -0.16620944598E+04  0.17013521302E+04  0.10100000352E+00 0. -1.
       -3    1    3    3    0  502  0.24582814642E+03 -0.26759968196E+03  0.12255265003E+04  0.12782629935E+04  0.10100000352E+00 0.  1.
</event>
<event>
 5   0  0.6188930E-07  0.3200140E+04  0.7818609E-02  0.8188780E-01
        2   -1    0    0  501    0  0.00000000000E+00  0.00000000000E+00  0.14095502611E+04  0.14095502611E+04  0.25500000920E-02 0. -1.
       -2   -1    0    0    0  501  0.00000000000E+00  0.00000000000E+00 -0.18163414616E+04  0.18163414616E+04  0.25500000920E-02 0.  1.
    10030    2    1    2    0    0  0.00000000000E+00  0.00000000000E+00 -0.40679120051E+03  0.32258917227E+04  0.32001403604E+04 0.  0.
        3    1    3    3  502    0  0.15937386993E+02  0.15891441427E+04 -0.15911158059E+02  0.15893037097E+04  0.10100000352E+00 0. -1.
       -3    1    3    3    0  502 -0.15937386993E+02 -0.15891441427E+04 -0.39088004245E+03  0.16365880130E+04  0.10100000352E+00 0.  1.
</event>
<event>
 5   0  0.2936607E-07  0.3129908E+04  0.7818609E-02  0.8207578E-01
       -1   -1    0    0    0  501  0.00000000000E+00  0.00000000000E+00  0.13572225621E+04  0.13572225621E+04  0.50400001928E-02 0. -1.
        1   -1    0    0  501    0  0.00000000000E+00  0.00000000000E+00 -0.18044795585E+04  0.18044795585E+04  0.50400001928E-02 0.  1.
    10030    2    1    2    0    0  0.00000000000E+00  0.00000000000E+00 -0.44725699640E+03  0.31617021206E+04  0.31299075831E+04 0.  0.
        2    1    3    3  502    0 -0.33176002805E+03  0.16395349089E+03 -0.17596454949E+04  0.17981372948E+04  0.25500000920E-02 0.  1.
       -2    1    3    3    0  502  0.33176002805E+03 -0.16395349089E+03  0.13123884984E+04  0.13635648258E+04  0.25500000920E-02 0. -1.
</event>
<event>
 5   0  0.8950809E-07  0.3478808E+04  0.7818609E-02  0.8118831E-01
        2   -1    0    0  501    0  0.00000000000E+00  0.00000000000E+00  0.23933952380E+04  0.23933952380E+04  0.25500000920E-02 0.  1.
       -2   -1    0    0    0  501  0.00000000000E+00  0.00000000000E+00 -0.12641144497E+04  0.12641144497E+04  0.25500000920E-02 0. -1.
    10030    2    1    2    0    0  0.00000000000E+00  0.00000000000E+00  0.11292807882E+04  0.36575096877E+04  0.34788075567E+04 0.  0.
        2    1    3    3  502    0 -0.12100574443E+04 -0.11299383149E+04  0.38301015267E+01  0.16556008830E+04  0.25500000920E-02 0. -1.
       -2    1    3    3    0  502  0.12100574443E+04  0.11299383149E+04  0.11254506867E+04  0.20019088047E+04  0.25500000920E-02 0.  1.
</event>
<event>
 5   0  0.9128871E-07  0.3498311E+04  0.7818609E-02  0.8114190E-01
        2   -1    0    0  501    0  0.00000000000E+00  0.00000000000E+00  0.16683168563E+04  0.16683168563E+04  0.25500000920E-02 0.  1.
       -2   -1    0    0    0  501  0.00000000000E+00  0.00000000000E+00 -0.18339114173E+04  0.18339114173E+04  0.25500000920E-02 0. -1.
    10030    2    1    2    0    0  0.00000000000E+00  0.00000000000E+00 -0.16559456096E+03  0.35022282736E+04  0.34983112100E+04 0.  0.
        1    1    3    3  502    0  0.12275196674E+04 -0.12280515029E+04 -0.29429267995E+03  0.17611141954E+04  0.50400001928E-02 0.  1.
       -1    1    3    3    0  502 -0.12275196674E+04  0.12280515029E+04  0.12869811900E+03  0.17411140783E+04  0.50400001928E-02 0. -1.
</event>
<event>
 5   0  0.3026332E-07  0.3427249E+04  0.7818609E-02  0.8131251E-01
       -1   -1    0    0    0  501  0.00000000000E+00  0.00000000000E+00  0.27912201375E+04  0.27912201375E+04  0.50400001928E-02 0.  1.
        1   -1    0    0  501    0  0.00000000000E+00  0.00000000000E+00 -0.10520518378E+04  0.10520518378E+04  0.50400001928E-02 0. -1.
    10030    2    1    2    0    0  0.00000000000E+00  0.00000000000E+00  0.17391682997E+04  0.38432719753E+04  0.34272486197E+04 0.  0.
        1    1    3    3  502    0  0.52916008963E+03  0.10761828739E+03 -0.95414972731E+03  0.10963547776E+04  0.50400001928E-02 0. -1.
       -1    1    3    3    0  502 -0.52916008963E+03 -0.10761828739E+03  0.26933180270E+04  0.27469171976E+04  0.50400001928E-02 0.  1.
</event>
<event>
 5   0  0.2936607E-07  0.3446344E+04  0.7818609E-02  0.8126625E-01
       -1   -1    0    0    0  501  0.00000000000E+00  0.00000000000E+00  0.14500739976E+04  0.14500739977E+04  0.50400001928E-02 0. -1.
        1   -1    0    0  501    0  0.00000000000E+00  0.00000000000E+00 -0.20477040053E+04  0.20477040053E+04  0.50400001928E-02 0.  1.
    10030    2    1    2    0    0  0.00000000000E+00  0.00000000000E+00 -0.59763000768E+03  0.34977780030E+04  0.34463443432E+04 0.  0.
        2    1    3    3  502    0  0.17115109197E+04  0.18534497176E+03 -0.37543973386E+03  0.17619810954E+04  0.25500000920E-02 0.  1.
       -2    1    3    3    0  502 -0.17115109197E+04 -0.18534497176E+03 -0.22219027382E+03  0.17357969076E+04  0.25500000920E-02 0. -1.
</event>
<event>
 5   0  0.8950809E-07  0.3403865E+04  0.7818609E-02  0.8136958E-01
       -2   -1    0    0    0  501  0.00000000000E+00  0.00000000000E+00  0.14709953471E+04  0.14709953471E+04  0.25500000920E-02 0.  1.
        2   -1    0    0  501    0  0.00000000000E+00  0.00000000000E+00 -0.19691256875E+04  0.19691256875E+04  0.25500000920E-02 0. -1.
    10030    2    1    2    0    0  0.00000000000E+00  0.00000000000E+00 -0.49813034037E+03  0.34401210346E+04  0.34038652877E+04 0.  0.
        2    1    3    3  502    0 -0.67203038203E+03  0.47559203993E+03  0.12563515257E+04  0.15020758233E+04  0.25500000920E-02 0.  1.
       -2    1    3    3    0  502  0.67203038203E+03 -0.47559203993E+03 -0.17544818661E+04  0.19380452113E+04  0.25500000920E-02 0. -1.
</event>
<event>
 5   0  0.9311672E-07  0.3507915E+04  0.7818609E-02  0.8111917E-01
       -2   -1    0    0    0  501  0.00000000000E+00  0.00000000000E+00  0.25428960701E+04  0.25428960701E+04  0.25500000920E-02 0. -1.
        2   -1    0    0  501    0  0.00000000000E+00  0.00000000000E+00 -0.12097890115E+04  0.12097890115E+04  0.25500000920E-02 0.  1.
    10030    2    1    2    0    0  0.00000000000E+00  0.00000000000E+00  0.13331070586E+04  0.37526850816E+04  0.35079154625E+04 0.  0.
        4    1    3    3  502    0 -0.26402524869E+03  0.16683034434E+03 -0.11798025230E+04  0.12204414373E+04  0.12699999809E+01 0.  1.
       -4    1    3    3    0  502  0.26402524869E+03 -0.16683034434E+03  0.25129095816E+04  0.25322436443E+04  0.12699999809E+01 0. -1.
</event>
<event>
 5   0  0.6188930E-07  0.3451873E+04  0.7818609E-02  0.8125291E-01
        2   -1    0    0  501    0  0.00000000000E+00  0.00000000000E+00  0.14901635951E+04  0.14901635951E+04  0.25500000920E-02 0.  1.
       -2   -1    0    0    0  501  0.00000000000E+00  0.00000000000E+00 -0.19990128367E+04  0.19990128367E+04  0.25500000920E-02 0. -1.
    10030    2    1    2    0    0  0.00000000000E+00  0.00000000000E+00 -0.50884924166E+03  0.34891764318E+04  0.34518726253E+04 0.  0.
        3    1    3    3  502    0 -0.35041349525E+03  0.15216019258E+04 -0.99775887058E+03  0.18529934733E+04  0.10100000352E+00 0. -1.
       -3    1    3    3    0  502  0.35041349525E+03 -0.15216019258E+04  0.48890962892E+03  0.16361829585E+04  0.10100000352E+00 0.  1.
</event>
<event>
 5   0  0.6188930E-07  0.3460664E+04  0.7818609E-02  0.8123176E-01
        2   -1    0    0  501    0  0.00000000000E+00  0.00000000000E+00  0.21831517461E+04  0.21831517461E+04  0.25500000920E-02 0. -1.
       -2   -1    0    0    0  501  0.00000000000E+00  0.00000000000E+00 -0.13714342341E+04  0.13714342341E+04  0.25500000920E-02 0.  1.
    10030    2    1    2    0    0  0.00000000000E+00  0.00000000000E+00  0.81171751198E+03  0.35545859802E+04  0.34606641229E+04 0.  0.
        3    1    3    3  502    0 -0.80766805754E+02  0.72351625487E+03  0.20181902224E+04  0.21454814919E+04  0.10100000352E+00 0. -1.
       -3    1    3    3    0  502  0.80766805754E+02 -0.72351625487E+03 -0.12064727104E+04  0.14091044884E+04  0.10100000352E+00 0.  1.
</event>
<event>
 5   0  0.2933506E-07  0.3614482E+04  0.7818609E-02  0.8087182E-01
        1   -1    0    0  501    0  0.00000000000E+00  0.00000000000E+00  0.13692336180E+04  0.13692336180E+04  0.50400001928E-02 0.  1.
       -1   -1    0    0    0  501  0.00000000000E+00  0.00000000000E+00 -0.23853641439E+04  0.23853641439E+04  0.50400001928E-02 0. -1.
    10030    2    1    2    0    0  0.00000000000E+00  0.00000000000E+00 -0.10161305259E+04  0.37545977619E+04  0.36144824121E+04 0.  0.
        4    1    3    3  502    0 -0.25405402390E+03  0.71151906353E+03 -0.22134492198E+04  0.23388377213E+04  0.12699999809E+01 0. -1.
       -4    1    3    3    0  502  0.25405402390E+03 -0.71151906353E+03  0.11973186939E+04  0.14157600406E+04  0.12699999809E+01 0.  1.
</event>
<event>
 5   0  0.2972541E-07  0.3473295E+04  0.7818609E-02  0.8120148E-01
        1   -1    0    0  501    0  0.00000000000E+00  0.00000000000E+00  0.21065849988E+04  0.21065849988E+04  0.50400001928E-02 0.  1.
       -1   -1    0    0    0  501  0.00000000000E+00  0.00000000000E+00 -0.14316748476E+04  0.14316748476E+04  0.50400001928E-02 0. -1.
    10030    2    1    2    0    0  0.00000000000E+00  0.00000000000E+00  0.67491015121E+03  0.35382598465E+04  0.34732951255E+04 0.  0.
        3    1    3    3  502    0 -0.71787954679E+03 -0.60253540506E+03 -0.11519253742E+04  0.14850360386E+04  0.10100000352E+00 0. -1.
       -3    1    3    3    0  502  0.71787954679E+03  0.60253540506E+03  0.18268355254E+04  0.20532238079E+04  0.10100000352E+00 0.  1.
</event>
<event>
 5   0  0.2933506E-07  0.3444565E+04  0.7818609E-02  0.8127054E-01
        1   -1    0    0  501    0  0.00000000000E+00  0.00000000000E+00  0.20396441141E+04  0.20396441141E+04  0.50400001928E-02 0. -1.
       -1   -1    0    0    0  501  0.00000000000E+00  0.00000000000E+00 -0.14543012200E+04  0.14543012200E+04  0.50400001928E-02 0.  1.
    10030    2    1    2    0    0  0.00000000000E+00  0.00000000000E+00  0.58534289412E+03  0.34939453342E+04  0.34445649500E+04 0.  0.
        4    1    3    3  502    0  0.15205027854E+04 -0.40914182599E+02 -0.52677913978E+03  0.16096895867E+04  0.12699999809E+01 0.  1.
       -4    1    3    3    0  502 -0.15205027854E+04  0.40914182599E+02  0.11121220339E+04  0.18842557475E+04  0.12699999809E+01 0. -1.
</event>
<event>
 5   0  0.9311672E-07  0.3499424E+04  0.7818609E-02  0.8113926E-01
       -2   -1    0    0    0  501  0.00000000000E+00  0.00000000000E+00  0.18101945745E+04  0.18101945745E+04  0.25500000920E-02 0.  1.
        2   -1    0    0  501    0  0.00000000000E+00  0.00000000000E+00 -0.16912503541E+04  0.16912503541E+04  0.25500000920E-02 0. -1.
    10030    2    1    2    0    0  0.00000000000E+00  0.00000000000E+00  0.11894422038E+03  0.35014449287E+04  0.34994240756E+04 0.  0.
        4    1    3    3  502    0 -0.13419792607E+04 -0.96748979735E+03 -0.51054605178E+03  0.17313589252E+04  0.12699999809E+01 0. -1.
       -4    1    3    3    0  502  0.13419792607E+04  0.96748979735E+03  0.62949027215E+03  0.17700860035E+04  0.12699999809E+01 0.  1.
</event>
<event>
 5   0  0.9311672E-07  0.3478710E+04  0.7818609E-02  0.8118854E-01
        2   -1    0    0  501    0  0.00000000000E+00  0.00000000000E+00  0.12239565058E+04  0.12239565058E+04  0.25500000920E-02 0. -1.
       -2   -1    0    0    0  501  0.00000000000E+00  0.00000000000E+00 -0.24717844571E+04  0.24717844571E+04  0.25500000920E-02 0.  1.
    10030    2    1    2    0    0  0.00000000000E+00  0.00000000000E+00 -0.12478279513E+04  0.36957409629E+04  0.34787104893E+04 0.  0.
        4    1    3    3  502    0 -0.10102332139E+02  0.16630890353E+04 -0.82838240770E+02  0.16651819671E+04  0.12699999809E+01 0. -1.
       -4    1    3    3    0  502  0.10102332139E+02 -0.16630890353E+04 -0.11649897106E+04  0.20305589957E+04  0.12699999809E+01 0.  1.
</event>
<event>
 5   0  0.3061330E-07  0.3503941E+04  0.7818609E-02  0.8112857E-01
        1   -1    0    0  501    0  0.00000000000E+00  0.00000000000E+00  0.13137353756E+04  0.13137353756E+04  0.50400001928E-02 0. -1.
       -1   -1    0    0    0  501  0.00000000000E+00  0.00000000000E+00 -0.23363920390E+04  0.23363920390E+04  0.50400001928E-02 0.  1.
    10030    2    1    2    0    0  0.00000000000E+00  0.00000000000E+00 -0.10226566634E+04  0.36501274146E+04  0.35039411370E+04 0.  0.
        5    1    3    3  502    0 -0.12391226380E+03 -0.83801230372E+03 -0.21088535198E+04  0.22726425430E+04  0.46999998093E+01 0.  1.
       -5    1    3    3    0  502  0.12391226380E+03  0.83801230372E+03  0.10861968565E+04  0.13774848715E+04  0.46999998093E+01 0. -1.
</event>
<event>
 5   0  0.8950809E-07  0.3456457E+04  0.7818609E-02  0.8124187E-01
       -2   -1    0    0    0  501  0.00000000000E+00  0.00000000000E+00  0.13950516992E+04  0.13950516992E+04  0.25500000920E-02 0. -1.
        2   -1    0    0  501    0  0.00000000000E+00  0.00000000000E+00 -0.21409774670E+04  0.21409774670E+04  0.25500000920E-02 0.  1.
    10030    2    1    2    0    0  0.00000000000E+00  0.00000000000E+00 -0.74592576778E+03  0.35360291661E+04  0.34564572922E+04 0.  0.
        2    1    3    3  502    0  0.11077527622E+04  0.12867066607E+03  0.97769710683E+03  0.14830926994E+04  0.25500000920E-02 0. -1.
       -2    1    3    3    0  502 -0.11077527622E+04 -0.12867066607E+03 -0.17236228746E+04  0.20529364667E+04  0.25500000920E-02 0.  1.
</event>
<event>
 5   0  0.2936607E-07  0.3515152E+04  0.7818609E-02  0.8110208E-01
        1   -1    0    0  501    0  0.00000000000E+00  0.00000000000E+00  0.22516566725E+04  0.22516566725E+04  0.50400001928E-02 0. -1.
       -1   -1    0    0    0  501  0.00000000000E+00  0.00000000000E+00 -0.13719116058E+04  0.13719116058E+04  0.50400001928E-02 0.  1.
    10030    2    1    2    0    0  0.00000000000E+00  0.00000000000E+00  0.87974506678E+03  0.36235682783E+04  0.35151522990E+04 0.  0.
        2    1    3    3  502    0 -0.36289294347E+03 -0.40786276518E+03  0.21620369107E+04  0.22298984118E+04  0.25500000920E-02 0. -1.
       -2    1    3    3    0  502  0.36289294347E+03  0.40786276518E+03 -0.12822918440E+04  0.13936698665E+04  0.25500000920E-02 0.  1.
</event>
<event>
 5   0  0.2972541E-07  0.3505496E+04  0.7818609E-02  0.8112489E-01
       -1   -1    0    0    0  501  0.00000000000E+00  0.00000000000E+00  0.16720576444E+04  0.16720576444E+04  0.50400001928E-02 0.  1.
        1   -1    0    0  501    0  0.00000000000E+00  0.00000000000E+00 -0.18373323044E+04  0.18373323044E+04  0.50400001928E-02 0. -1.
    10030    2    1    2    0    0  0.00000000000E+00  0.00000000000E+00 -0.16527466007E+03  0.35093899488E+04  0.35054959848E+04 0.  0.
        3    1    3    3  502    0 -0.38566947960E+03  0.15622947287E+04 -0.77811741443E+03  0.17874485972E+04  0.10100000352E+00 0. -1.
       -3    1    3    3    0  502  0.38566947960E+03 -0.15622947287E+04  0.61284275436E+03  0.17219413516E+04  0.10100000352E+00 0.  1.
</event>
<event>
 5   0  0.6188930E-07  0.3510651E+04  0.7818609E-02  0.8111270E-01
        2   -1    0    0  501    0  0.00000000000E+00  0.00000000000E+00  0.16557901803E+04  0.16557901803E+04  0.25500000920E-02 0. -1.
       -2   -1    0    0    0  501  0.00000000000E+00  0.00000000000E+00 -0.18608440353E+04  0.18608440353E+04  0.25500000920E-02 0.  1.
    10030    2    1    2    0    0  0.00000000000E+00  0.00000000000E+00 -0.20505385498E+03  0.35166342155E+04  0.35106508118E+04 0.  0.
        3    1    3    3  502    0 -0.80181368809E+03  0.94976899518E+03  0.11390212468E+04  0.16859228172E+04  0.10100000352E+00 0. -1.
       -3    1    3    3    0  502  0.80181368809E+03 -0.94976899518E+03 -0.13440751018E+04  0.18307113984E+04  0.10100000352E+00 0.  1.
</event>
<event>
 5   0  0.9128871E-07  0.3510561E+04  0.7818609E-02  0.8111292E-01
       -2   -1    0    0    0  501  0.00000000000E+00  0.00000000000E+00  0.13031866611E+04  0.13031866611E+04  0.25500000920E-02 0. -1.
        2   -1    0    0  501    0  0.00000000000E+00  0.00000000000E+00 -0.23642122215E+04  0.23642122215E+04  0.25500000920E-02 0.  1.
    10030    2    1    2    0    0  0.00000000000E+00  0.00000000000E+00 -0.10610255603E+04  0.36673988826E+04  0.35105611125E+04 0.  0.
        1    1    3    3  502    0 -0.17432399586E+04  0.86317311207E+01 -0.74473446356E+03  0.18956765234E+04  0.50400001928E-02 0.  1.
       -1    1    3    3    0  502  0.17432399586E+04 -0.86317311207E+01 -0.31629109677E+03  0.17717223592E+04  0.50400001928E-02 0. -1.
</event>
<event>
 5   0  0.2933506E-07  0.3524947E+04  0.7818609E-02  0.8107903E-01
        1   -1    0    0  501    0  0.00000000000E+00  0.00000000000E+00  0.11522119301E+04  0.11522119301E+04  0.50400001928E-02 0. -1.
       -1   -1    0    0    0  501  0.00000000000E+00  0.00000000000E+00 -0.26959567172E+04  0.26959567172E+04  0.50400001928E-02 0.  1.
    10030    2    1    2    0    0  0.00000000000E+00  0.00000000000E+00 -0.15437447871E+04  0.38481686473E+04  0.35249473713E+04 0.  0.
        4    1    3    3  502    0 -0.49135287161E+03 -0.71740006363E+03  0.90174371162E+03  0.12526906362E+04  0.12699999809E+01 0. -1.
       -4    1    3    3    0  502  0.49135287161E+03  0.71740006363E+03 -0.24454884987E+04  0.25954780111E+04  0.12699999809E+01 0.  1.
</event>
<event>
 5   0  0.2936607E-07  0.3429853E+04  0.7818609E-02  0.8130618E-01
        1   -1    0    0  501    0  0.00000000000E+00  0.00000000000E+00  0.18485490785E+04  0.18485490785E+04  0.50400001928E-02 0. -1.
       -1   -1    0    0    0  501  0.00000000000E+00  0.00000000000E+00 -0.15909628460E+04  0.15909628460E+04  0.50400001928E-02 0.  1.
    10030    2    1    2    0    0  0.00000000000E+00  0.00000000000E+00  0.25758623249E+03  0.34395119245E+04  0.34298530015E+04 0.  0.
        2    1    3    3  502    0 -0.59233511961E+03 -0.34383234123E+03 -0.14478594404E+04  0.16016799093E+04  0.25500000920E-02 0.  1.
       -2    1    3    3    0  502  0.59233511961E+03  0.34383234123E+03  0.17054456729E+04  0.18378320152E+04  0.25500000920E-02 0. -1.
</event>
<event>
 5   0  0.2972541E-07  0.3613957E+04  0.7818609E-02  0.8087302E-01
       -1   -1    0    0    0  501  0.00000000000E+00  0.00000000000E+00  0.19329087251E+04  0.19329087251E+04  0.50400001928E-02 0.  1.
        1   -1    0    0  501    0  0.00000000000E+00  0.00000000000E+00 -0.16892530898E+04  0.16892530898E+04  0.50400001928E-02 0. -1.
    10030    2    1    2    0    0  0.00000000000E+00  0.00000000000E+00  0.24365563529E+03  0.36221618149E+04  0.36139574077E+04 0.  0.
        3    1    3    3  502    0 -0.88022520219E+03 -0.98953852220E+03  0.13539229134E+04  0.18939614988E+04  0.10100000352E+00 0.  1.
       -3    1    3    3    0  502  0.88022520219E+03  0.98953852220E+03 -0.11102672781E+04  0.17282003161E+04  0.10100000352E+00 0. -1.
</event>
<event>
 5   0  0.9311672E-07  0.3503795E+04  0.7818609E-02  0.8112891E-01
       -2   -1    0    0    0  501  0.00000000000E+00  0.00000000000E+00  0.24056694733E+04  0.24056694733E+04  0.25500000920E-02 0. -1.
        2   -1    0    0  501    0  0.00000000000E+00  0.00000000000E+00 -0.12757966051E+04  0.12757966051E+04  0.25500000920E-02 0.  1.
    10030    2    1    2    0    0  0.00000000000E+00  0.00000000000E+00  0.11298728682E+04  0.36814660783E+04  0.35037950550E+04 0.  0.
        4    1    3    3  502    0  0.13214908005E+03 -0.16848464473E+04  0.80045823974E+02  0.16919160372E+04  0.12699999809E+01 0. -1.
       -4    1    3    3    0  502 -0.13214908005E+03  0.16848464473E+04  0.10498270442E+04  0.19895500411E+04  0.12699999809E+01 0.  1.
</event>
<event>
 5   0  0.3061330E-07  0.3498056E+04  0.7818609E-02  0.8114251E-01
       -1   -1    0    0    0  501  0.00000000000E+00  0.00000000000E+00  0.13487055544E+04  0.13487055544E+04  0.50400001928E-02 0. -1.
        1   -1    0    0  501    0  0.00000000000E+00  0.00000000000E+00 -0.22681746707E+04  0.22681746707E+04  0.50400001928E-02 0.  1.
    10030    2    1    2    0    0  0.00000000000E+00  0.00000000000E+00 -0.91946911632E+03  0.36168802251E+04  0.34980564757E+04 0.  0.
        5    1    3    3  502    0 -0.82847095026E+02  0.85364477192E+03  0.11163484364E+04  0.14077744703E+04  0.46999998093E+01 0. -1.
       -5    1    3    3    0  502  0.82847095026E+02 -0.85364477192E+03 -0.20358175528E+04  0.22091057548E+04  0.46999998093E+01 0.  1.
</event>
<event>
 5   0  0.6188930E-07  0.2931666E+04  0.7818609E-02  0.8263518E-01
       -2   -1    0    0    0  501  0.00000000000E+00  0.00000000000E+00  0.94784164820E+03  0.94784164820E+03  0.25500000920E-02 0.  1.
        2   -1    0    0  501    0  0.00000000000E+00  0.00000000000E+00 -0.22669037174E+04  0.22669037174E+04  0.25500000920E-02 0. -1.
    10030    2    1    2    0    0  0.00000000000E+00  0.00000000000E+00 -0.13190620692E+04  0.32147453656E+04  0.29316655715E+04 0.  0.
        3    1    3    3  502    0  0.96012316286E+03 -0.64207167470E+02 -0.18720632823E+04  0.21048942945E+04  0.10100000352E+00 0. -1.
       -3    1    3    3    0  502 -0.96012316286E+03  0.64207167470E+02  0.55300121302E+03  0.11098510711E+04  0.10100000352E+00 0.  1.
</event>
<event>
 5   0  0.6188930E-07  0.3476126E+04  0.7818609E-02  0.8119471E-01
        2   -1    0    0  501    0  0.00000000000E+00  0.00000000000E+00  0.31153446271E+04  0.31153446272E+04  0.25500000920E-02 0. -1.
       -2   -1    0    0    0  501  0.00000000000E+00  0.00000000000E+00 -0.96967192755E+03  0.96967192756E+03  0.25500000920E-02 0.  1.
    10030    2    1    2    0    0  0.00000000000E+00  0.00000000000E+00  0.21456726996E+04  0.40850165547E+04  0.34761255614E+04 0.  0.
        3    1    3    3  502    0  0.14062939774E+04 -0.96231972704E+03  0.14750449639E+04  0.22537701000E+04  0.10100000352E+00 0. -1.
       -3    1    3    3    0  502 -0.14062939774E+04  0.96231972704E+03  0.67062773565E+03  0.18312464547E+04  0.10100000352E+00 0.  1.
</event>
<event>
 5   0  0.3061330E-07  0.3537477E+04  0.7818609E-02  0.8104965E-01
       -1   -1    0    0    0  501  0.00000000000E+00  0.00000000000E+00  0.15747158863E+04  0.15747158863E+04  0.50400001928E-02 0.  1.
        1   -1    0    0  501    0  0.00000000000E+00  0.00000000000E+00 -0.19866666875E+04  0.19866666875E+04  0.50400001928E-02 0. -1.
    10030    2    1    2    0    0  0.00000000000E+00  0.00000000000E+00 -0.41195080118E+03  0.35613825738E+04  0.35374768373E+04 0.  0.
        5    1    3    3  502    0  0.88552054834E+03 -0.12560316232E+04 -0.10874788126E+04  0.18826561922E+04  0.46999998093E+01 0. -1.
       -5    1    3    3    0  502 -0.88552054834E+03  0.12560316232E+04  0.67552801142E+03  0.16787263816E+04  0.46999998093E+01 0.  1.
</event>
<event>
 5   0  0.2907000E-07  0.3495127E+04  0.7818609E-02  0.8114946E-01
        3   -1    0    0  501    0  0.00000000000E+00  0.00000000000E+00  0.15275809499E+04  0.15275809532E+04  0.10100000352E+00 0.  1.
       -3   -1    0    0    0  501  0.00000000000E+00  0.00000000000E+00 -0.19992253658E+04  0.19992253684E+04  0.10100000352E+00 0. -1.
    10030    2    1    2    0    0  0.00000000000E+00  0.00000000000E+00 -0.47164441594E+03  0.35268063216E+04  0.34951272330E+04 0.  0.
        3    1    3    3  502    0  0.11329009413E+04  0.66625197097E+03 -0.13980527279E+04  0.19188297663E+04  0.10100000352E+00 0. -1.
       -3    1    3    3    0  502 -0.11329009413E+04 -0.66625197097E+03  0.92640831200E+03  0.16079765553E+04  0.10100000352E+00 0.  1.
</event>
<event>
 5   0  0.3061330E-07  0.3464595E+04  0.7818609E-02  0.8122232E-01
       -1   -1    0    0    0  501  0.00000000000E+00  0.00000000000E+00  0.17867742347E+04  0.17867742347E+04  0.50400001928E-02 0.  1.
        1   -1    0    0  501    0  0.00000000000E+00  0.00000000000E+00 -0.16794817061E+04  0.16794817061E+04  0.50400001928E-02 0. -1.
    10030    2    1    2    0    0  0.00000000000E+00  0.00000000000E+00  0.10729252868E+03  0.34662559408E+04  0.34645950067E+04 0.  0.
        5    1    3    3  502    0  0.82618733198E+03 -0.15177765028E+04  0.17454098545E+03  0.17368700773E+04  0.46999998093E+01 0.  1.
       -5    1    3    3    0  502 -0.82618733198E+03  0.15177765028E+04 -0.67248456766E+02  0.17293858635E+04  0.46999998093E+01 0. -1.
</event>
<event>
 5   0  0.6188930E-07  0.3436988E+04  0.7818609E-02  0.8128887E-01
       -2   -1    0    0    0  501  0.00000000000E+00  0.00000000000E+00  0.21049237806E+04  0.21049237806E+04  0.25500000920E-02 0. -1.
        2   -1    0    0  501    0  0.00000000000E+00  0.00000000000E+00 -0.14030064495E+04  0.14030064495E+04  0.25500000920E-02 0.  1.
    10030    2    1    2    0    0  0.00000000000E+00  0.00000000000E+00  0.70191733110E+03  0.35079302302E+04  0.34369880070E+04 0.  0.
        3    1    3    3  502    0 -0.32588058510E+03 -0.14448167862E+04  0.12404563139E+04  0.19319486480E+04  0.10100000352E+00 0. -1.
       -3    1    3    3    0  502  0.32588058510E+03  0.14448167862E+04 -0.53853898283E+03  0.15759815822E+04  0.10100000352E+00 0.  1.
</event>
<event>
 5   0  0.3061330E-07  0.3485334E+04  0.7818609E-02  0.8117274E-01
        1   -1    0    0  501    0  0.00000000000E+00  0.00000000000E+00  0.19875403895E+04  0.19875403895E+04  0.50400001928E-02 0.  1.
       -1   -1    0    0    0  501  0.00000000000E+00  0.00000000000E+00 -0.15279633247E+04  0.15279633247E+04  0.50400001928E-02 0. -1.
    10030    2    1    2    0    0  0.00000000000E+00  0.00000000000E+00  0.45957706486E+03  0.35155037142E+04  0.34853343149E+04 0.  0.
        5    1    3    3  502    0  0.21542072801E+03  0.16335353284E+04 -0.34259422966E+03  0.16829250297E+04  0.46999998093E+01 0. -1.
       -5    1    3    3    0  502 -0.21542072801E+03 -0.16335353284E+04  0.80217129451E+03  0.18325786846E+04  0.46999998093E+01 0.  1.
</event>
<event>
 5   0  0.8950809E-07  0.3534183E+04  0.7818609E-02  0.8105736E-01
       -2   -1    0    0    0  501  0.00000000000E+00  0.00000000000E+00  0.16075418999E+04  0.16075418999E+04  0.25500000920E-02 0.  1.
        2   -1    0    0  501    0  0.00000000000E+00  0.00000000000E+00 -0.19424764418E+04  0.19424764418E+04  0.25500000920E-02 0. -1.
    10030    2    1    2    0    0  0.00000000000E+00  0.00000000000E+00 -0.33493454191E+03  0.35500183416E+04  0.35341829436E+04 0.  0.
        2    1    3    3  502    0 -0.10362218055E+04 -0.13571530590E+04 -0.62446977010E+03  0.18181261094E+04  0.25500000920E-02 0. -1.
       -2    1    3    3    0  502  0.10362218055E+04  0.13571530590E+04  0.28953522819E+03  0.17318922323E+04  0.25500000920E-02 0.  1.
</event>
<event>
 5   0  0.9128871E-07  0.3560777E+04  0.7818609E-02  0.8099536E-01
       -2   -1    0    0    0  501  0.00000000000E+00  0.00000000000E+00  0.29298886072E+04  0.29298886072E+04  0.25500000920E-02 0. -1.
        2   -1    0    0  501    0  0.00000000000E+00  0.00000000000E+00 -0.10818781787E+04  0.10818781787E+04  0.25500000920E-02 0.  1.
    10030    2    1    2    0    0  0.00000000000E+00  0.00000000000E+00  0.18480104285E+04  0.40117667860E+04  0.35607766289E+04 0.  0.
        1    1    3    3  502    0 -0.52860469334E+03 -0.16670255414E+04  0.54799016760E+03  0.18326729935E+04  0.50400001928E-02 0.  1.
       -1    1    3    3    0  502  0.52860469334E+03  0.16670255414E+04  0.13000202609E+04  0.21790937924E+04  0.50400001928E-02 0. -1.
</event>
<event>
 5   0  0.3026332E-07  0.2917014E+04  0.7818609E-02  0.8267833E-01
        1   -1    0    0  501    0  0.00000000000E+00  0.00000000000E+00  0.12692198704E+04  0.12692198704E+04  0.50400001928E-02 0. -1.
       -1   -1    0    0    0  501  0.00000000000E+00  0.00000000000E+00 -0.16760240731E+04  0.16760240731E+04  0.50400001928E-02 0.  1.
    10030    2    1    2    0    0  0.00000000000E+00  0.00000000000E+00 -0.40680420269E+03  0.29452439436E+04  0.29170142660E+04 0.  0.
        1    1    3    3  502    0  0.14434581573E+04 -0.19474295505E+03 -0.27994329815E+03  0.14831940266E+04  0.50400001928E-02 0.  1.
       -1    1    3    3    0  502 -0.14434581573E+04  0.19474295505E+03 -0.12686090455E+03  0.14620499169E+04  0.50400001928E-02 0. -1.
</event>
<event>
 5   0  0.9311672E-07  0.3490910E+04  0.7818609E-02  0.8115947E-01
       -2   -1    0    0    0  501  0.00000000000E+00  0.00000000000E+00  0.15103239508E+04  0.15103239508E+04  0.25500000920E-02 0.  1.
        2   -1    0    0  501    0  0.00000000000E+00  0.00000000000E+00 -0.20171922492E+04  0.20171922492E+04  0.25500000920E-02 0. -1.
    10030    2    1    2    0    0  0.00000000000E+00  0.00000000000E+00 -0.50686829843E+03  0.35275162000E+04  0.34909103496E+04 0.  0.
        4    1    3    3  502    0 -0.43943742071E+02  0.17190922029E+04 -0.55557302558E+03  0.18071723919E+04  0.12699999809E+01 0. -1.
       -4    1    3    3    0  502  0.43943742071E+02 -0.17190922029E+04  0.48704727149E+02  0.17203438080E+04  0.12699999809E+01 0.  1.
</event>
<event>
 5   0  0.9311672E-07  0.2977515E+04  0.7818609E-02  0.8250181E-01
       -2   -1    0    0    0  501  0.00000000000E+00  0.00000000000E+00  0.85781386931E+03  0.85781386932E+03  0.25500000920E-02 0. -1.
        2   -1    0    0  501    0  0.00000000000E+00  0.00000000000E+00 -0.25837768264E+04  0.25837768264E+04  0.25500000920E-02 0.  1.
    10030    2    1    2    0    0  0.00000000000E+00  0.00000000000E+00 -0.17259629571E+04  0.34415906958E+04  0.29775154723E+04 0.  0.
        4    1    3    3  502    0 -0.96827739750E+03 -0.99100387372E+03 -0.23333144657E+03  0.14050249012E+04  0.12699999809E+01 0.  1.
       -4    1    3    3    0  502  0.96827739750E+03  0.99100387372E+03 -0.14926315106E+04  0.20365657945E+04  0.12699999809E+01 0. -1.
</event>
<event>
 5   0  0.6188930E-07  0.3482282E+04  0.7818609E-02  0.8118002E-01
       -2   -1    0    0    0  501  0.00000000000E+00  0.00000000000E+00  0.19337190274E+04  0.19337190274E+04  0.25500000920E-02 0.  1.
        2   -1    0    0  501    0  0.00000000000E+00  0.00000000000E+00 -0.15677414217E+04  0.15677414217E+04  0.25500000920E-02 0. -1.
    10030    2    1    2    0    0  0.00000000000E+00  0.00000000000E+00  0.36597760572E+03  0.35014604490E+04  0.34822816756E+04 0.  0.
        3    1    3    3  502    0 -0.14050849638E+03 -0.10331676728E+03 -0.15589363818E+04  0.15686617369E+04  0.10100000352E+00 0. -1.
       -3    1    3    3    0  502  0.14050849638E+03  0.10331676728E+03  0.19249139876E+04  0.19327987121E+04  0.10100000352E+00 0.  1.
</event>
<event>
 5   0  0.2933506E-07  0.3458405E+04  0.7818609E-02  0.8123719E-01
       -1   -1    0    0    0  501  0.00000000000E+00  0.00000000000E+00  0.14263016437E+04  0.14263016437E+04  0.50400001928E-02 0.  1.
        1   -1    0    0  501    0  0.00000000000E+00  0.00000000000E+00 -0.20964296749E+04  0.20964296749E+04  0.50400001928E-02 0. -1.
    10030    2    1    2    0    0  0.00000000000E+00  0.00000000000E+00 -0.67012803117E+03  0.35227313186E+04  0.34584048874E+04 0.  0.
        4    1    3    3  502    0 -0.15390867594E+04  0.18749293644E+03  0.44481239696E+03  0.16130100234E+04  0.12699999809E+01 0.  1.
       -4    1    3    3    0  502  0.15390867594E+04 -0.18749293644E+03 -0.11149404281E+04  0.19097212952E+04  0.12699999809E+01 0. -1.
</event>
<event>
 5   0  0.8845195E-07  0.3494346E+04  0.7818609E-02  0.8115131E-01
       -2   -1    0    0    0  501  0.00000000000E+00  0.00000000000E+00  0.29056716249E+04  0.29056716249E+04  0.25500000920E-02 0.  1.
        2   -1    0    0  501    0  0.00000000000E+00  0.00000000000E+00 -0.10505710031E+04  0.10505710031E+04  0.25500000920E-02 0. -1.
    10030    2    1    2    0    0  0.00000000000E+00  0.00000000000E+00  0.18551006217E+04  0.39562426280E+04  0.34943464932E+04 0.  0.
        5    1    3    3  502    0  0.83645268556E+03 -0.15308826312E+04  0.10369542956E+04  0.20294213528E+04  0.46999998093E+01 0. -1.
       -5    1    3    3    0  502 -0.83645268556E+03  0.15308826312E+04  0.81814632609E+03  0.19268212752E+04  0.46999998093E+01 0.  1.
</event>
<event>
 5   0  0.6188930E-07  0.3489161E+04  0.7818609E-02  0.8116363E-01
       -2   -1    0    0    0  501  0.00000000000E+00  0.00000000000E+00  0.28539115324E+04  0.28539115324E+04  0.25500000920E-02 0.  1.
        2   -1    0    0  501    0  0.00000000000E+00  0.00000000000E+00 -0.10664526312E+04  0.10664526312E+04  0.25500000920E-02 0. -1.
    10030    2    1    2    0    0  0.00000000000E+00  0.00000000000E+00  0.17874589013E+04  0.39203641636E+04  0.34891611960E+04 0.  0.
        3    1    3    3  502    0 -0.67449531923E+03  0.15741294702E+03 -0.90535158024E+03  0.11399053757E+04  0.10100000352E+00 0. -1.
       -3    1    3    3    0  502  0.67449531923E+03 -0.15741294702E+03  0.26928104815E+04  0.27804587879E+04  0.10100000352E+00 0.  1.
</event>
<event>
 5   0  0.9311672E-07  0.3495855E+04  0.7818609E-02  0.8114773E-01
       -2   -1    0    0    0  501  0.00000000000E+00  0.00000000000E+00  0.12309769005E+04  0.12309769005E+04  0.25500000920E-02 0.  1.
        2   -1    0    0  501    0  0.00000000000E+00  0.00000000000E+00 -0.24819723342E+04  0.24819723342E+04  0.25500000920E-02 0. -1.
    10030    2    1    2    0    0  0.00000000000E+00  0.00000000000E+00 -0.12509954337E+04  0.37129492347E+04  0.34958550377E+04 0.  0.
        4    1    3    3  502    0  0.95854928911E+03 -0.14607288291E+04 -0.57027312587E+03  0.18378679231E+04  0.12699999809E+01 0.  1.
       -4    1    3    3    0  502 -0.95854928911E+03  0.14607288291E+04 -0.68072230786E+03  0.18750813116E+04  0.12699999809E+01 0. -1.
</event>
<event>
 5   0  0.9311672E-07  0.3498353E+04  0.7818609E-02  0.8114180E-01
       -2   -1    0    0    0  501  0.00000000000E+00  0.00000000000E+00  0.17128159708E+04  0.17128159708E+04  0.25500000920E-02 0. -1.
        2   -1    0    0  501    0  0.00000000000E+00  0.00000000000E+00 -0.17863090970E+04  0.17863090970E+04  0.25500000920E-02 0.  1.
    10030    2    1    2    0    0  0.00000000000E+00  0.00000000000E+00 -0.73493126203E+02  0.34991250679E+04  0.34983531841E+04 0.  0.
        4    1    3    3  502    0 -0.45337731919E+03 -0.15242071766E+04 -0.76550778040E+03  0.17648689145E+04  0.12699999809E+01 0.  1.
       -4    1    3    3    0  502  0.45337731919E+03  0.15242071766E+04  0.69201465420E+03  0.17342561533E+04  0.12699999809E+01 0. -1.
</event>
<event>
 5   0  0.2972541E-07  0.3495667E+04  0.7818609E-02  0.8114818E-01
        1   -1    0    0  501    0  0.00000000000E+00  0.00000000000E+00  0.20631976836E+04  0.20631976836E+04  0.50400001928E-02 0.  1.
       -1   -1    0    0    0  501  0.00000000000E+00  0.00000000000E+00 -0.14806735325E+04  0.14806735325E+04  0.50400001928E-02 0. -1.
    10030    2    1    2    0    0  0.00000000000E+00  0.00000000000E+00  0.58252415110E+03  0.35438712162E+04  0.34956671481E+04 0.  0.
        3    1    3    3  502    0  0.70443968317E+03 -0.15036347677E+04 -0.26194521980E+03  0.16810021090E+04  0.10100000352E+00 0. -1.
       -3    1    3    3    0  502 -0.70443968317E+03  0.15036347677E+04  0.84446937090E+03  0.18628691072E+04  0.10100000352E+00 0.  1.
</event>
<event>
 5   0  0.3026332E-07  0.3388129E+04  0.7818609E-02  0.8140826E-01
        1   -1    0    0  501    0  0.00000000000E+00  0.00000000000E+00  0.10429942813E+04  0.10429942813E+04  0.50400001928E-02 0. -1.
       -1   -1    0    0    0  501  0.00000000000E+00  0.00000000000E+00 -0.27515535066E+04  0.27515535066E+04  0.50400001928E-02 0.  1.
    10030    2    1    2    0    0  0.00000000000E+00  0.00000000000E+00 -0.17085592253E+04  0.37945477879E+04  0.33881290247E+04 0.  0.
        1    1    3    3  502    0 -0.42000745300E+03  0.10814272732E+04  0.52829108922E+03  0.12747480860E+04  0.50400001928E-02 0. -1.
       -1    1    3    3    0  502  0.42000745300E+03 -0.10814272732E+04 -0.22368503145E+04  0.25197997019E+04  0.50400001928E-02 0.  1.
</event>
<event>
 5   0  0.2936607E-07  0.3536811E+04  0.7818609E-02  0.8105121E-01
        1   -1    0    0  501    0  0.00000000000E+00  0.00000000000E+00  0.19126645607E+04  0.19126645607E+04  0.50400001928E-02 0. -1.
       -1   -1    0    0    0  501  0.00000000000E+00  0.00000000000E+00 -0.16350271507E+04  0.16350271507E+04  0.50400001928E-02 0.  1.
    10030    2    1    2    0    0  0.00000000000E+00  0.00000000000E+00  0.27763741005E+03  0.35476917114E+04  0.35368112683E+04 0.  0.
        2    1    3    3  502    0  0.14689241214E+04  0.72301182031E+03 -0.53164934802E+03  0.17213759601E+04  0.25500000920E-02 0.  1.
       -2    1    3    3    0  502 -0.14689241214E+04 -0.72301182031E+03  0.80928675806E+03  0.18263157513E+04  0.25500000920E-02 0. -1.
</event>
<event>
 5   0  0.9128871E-07  0.3579735E+04  0.7818609E-02  0.8095149E-01
       -2   -1    0    0    0  501  0.00000000000E+00  0.00000000000E+00  0.15433470034E+04  0.15433470034E+04  0.25500000920E-02 0. -1.
        2   -1    0    0  501    0  0.00000000000E+00  0.00000000000E+00 -0.20757650115E+04  0.20757650115E+04  0.25500000920E-02 0.  1.
    10030    2    1    2    0    0  0.00000000000E+00  0.00000000000E+00 -0.53241800811E+03  0.36191120149E+04  0.35797350239E+04 0.  0.
        1    1    3    3  502    0  0.39520667462E+02  0.17050643081E+04 -0.81515455662E+03  0.18903129712E+04  0.50400001928E-02 0.  1.
       -1    1    3    3    0  502 -0.39520667462E+02 -0.17050643081E+04  0.28273654851E+03  0.17287990438E+04  0.50400001928E-02 0. -1.
</event>
<event>
 5   0  0.9311672E-07  0.3496937E+04  0.7818609E-02  0.8114516E-01
       -2   -1    0    0    0  501  0.00000000000E+00  0.00000000000E+00  0.16050132738E+04  0.16050132738E+04  0.25500000920E-02 0.  1.
        2   -1    0    0  501    0  0.00000000000E+00  0.00000000000E+00 -0.19047455243E+04  0.19047455243E+04  0.25500000920E-02 0. -1.
    10030    2    1    2    0    0  0.00000000000E+00  0.00000000000E+00 -0.29973225049E+03  0.35097587981E+04  0.34969368594E+04 0.  0.
        4    1    3    3  502    0 -0.16054519623E+04 -0.69242467064E+03 -0.16449037779E+03  0.17561283054E+04  0.12699999809E+01 0.  1.
       -4    1    3    3    0  502  0.16054519623E+04  0.69242467064E+03 -0.13524187269E+03  0.17536304927E+04  0.12699999809E+01 0. -1.
</event>
<event>
 5   0  0.3061330E-07  0.3514372E+04  0.7818609E-02  0.8110392E-01
        1   -1    0    0  501    0  0.00000000000E+00  0.00000000000E+00  0.28268806333E+04  0.28268806333E+04  0.50400001928E-02 0. -1.
       -1   -1    0    0    0  501  0.00000000000E+00  0.00000000000E+00 -0.10922647499E+04  0.10922647499E+04  0.50400001928E-02 0.  1.
    10030    2    1    2    0    0  0.00000000000E+00  0.00000000000E+00  0.17346158834E+04  0.39191453832E+04  0.35143716753E+04 0.  0.
        5    1    3    3  502    0 -0.73790279849E+03 -0.39959383556E+03  0.25889848135E+04  0.27215878138E+04  0.46999998093E+01 0. -1.
       -5    1    3    3    0  502  0.73790279849E+03  0.39959383556E+03 -0.85436893011E+03  0.11975575695E+04  0.46999998093E+01 0.  1.
</event>
<event>
 5   0  0.9128871E-07  0.3503389E+04  0.7818609E-02  0.8112987E-01
        2   -1    0    0  501    0  0.00000000000E+00  0.00000000000E+00  0.20501782142E+04  0.20501782142E+04  0.25500000920E-02 0.  1.
       -2   -1    0    0    0  501  0.00000000000E+00  0.00000000000E+00 -0.14966670264E+04  0.14966670264E+04  0.25500000920E-02 0. -1.
    10030    2    1    2    0    0  0.00000000000E+00  0.00000000000E+00  0.55351118778E+03  0.35468452405E+04  0.35033892912E+04 0.  0.
        1    1    3    3  502    0  0.25414912372E+03 -0.95578032787E+03  0.17404852957E+04  0.20018483651E+04  0.50400001928E-02 0.  1.
       -1    1    3    3    0  502 -0.25414912372E+03  0.95578032787E+03 -0.11869741079E+04  0.15449968755E+04  0.50400001928E-02 0. -1.
</event>
<event>
 5   0  0.3026332E-07  0.2841811E+04  0.7818609E-02  0.8290404E-01
       -1   -1    0    0    0  501  0.00000000000E+00  0.00000000000E+00  0.10046383062E+04  0.10046383062E+04  0.50400001928E-02 0.  1.
        1   -1    0    0  501    0  0.00000000000E+00  0.00000000000E+00 -0.20096515146E+04  0.20096515146E+04  0.50400001928E-02 0. -1.
    10030    2    1    2    0    0  0.00000000000E+00  0.00000000000E+00 -0.10050132084E+04  0.30142898208E+04  0.28418113193E+04 0.  0.
        1    1    3    3  502    0  0.41069588104E+03  0.74869035933E+03  0.70209928542E+03  0.11055097320E+04  0.50400001928E-02 0.  1.
       -1    1    3    3    0  502 -0.41069588104E+03 -0.74869035933E+03 -0.17071124938E+04  0.19087800888E+04  0.50400001928E-02 0. -1.
</event>
<event>
 5   0  0.3061330E-07  0.3515460E+04  0.7818609E-02  0.8110136E-01
        1   -1    0    0  501    0  0.00000000000E+00  0.00000000000E+00  0.21768217315E+04  0.21768217315E+04  0.50400001928E-02 0. -1.
       -1   -1    0    0    0  501  0.00000000000E+00  0.00000000000E+00 -0.14193241299E+04  0.14193241299E+04  0.50400001928E-02 0.  1.
    10030    2    1    2    0    0  0.00000000000E+00  0.00000000000E+00  0.75749760162E+03  0.35961458614E+04  0.35154604876E+04 0.  0.
        5    1    3    3  502    0  0.49605210459E+03  0.11430904985E+04  0.16469075899E+04  0.20651998155E+04  0.46999998093E+01 0. -1.
       -5    1    3    3    0  502 -0.49605210459E+03 -0.11430904985E+04 -0.88940998828E+03  0.15309460459E+04  0.46999998093E+01 0.  1.
</event>
<event>
 5   0  0.3061330E-07  0.3535828E+04  0.7818609E-02  0.8105351E-01
       -1   -1    0    0    0  501  0.00000000000E+00  0.00000000000E+00  0.11541617576E+04  0.11541617576E+04  0.50400001928E-02 0.  1.
        1   -1    0    0  501    0  0.00000000000E+00  0.00000000000E+00 -0.27080425556E+04  0.27080425556E+04  0.50400001928E-02 0. -1.
    10030    2    1    2    0    0  0.00000000000E+00  0.00000000000E+00 -0.15538807980E+04  0.38622043132E+04  0.35358275726E+04 0.  0.
        5    1    3    3  502    0  0.29377455145E+03  0.31384058099E+03  0.10961957921E+04  0.11774832066E+04  0.46999998093E+01 0.  1.
       -5    1    3    3    0  502 -0.29377455145E+03 -0.31384058099E+03 -0.26500765900E+04  0.26847211066E+04  0.46999998093E+01 0. -1.
</event>
<event>
 5   0  0.8845195E-07  0.3384586E+04  0.7818609E-02  0.8141700E-01
        2   -1    0    0  501    0  0.00000000000E+00  0.00000000000E+00  0.21716221110E+04  0.21716221110E+04  0.25500000920E-02 0. -1.
       -2   -1    0    0    0  501  0.00000000000E+00  0.00000000000E+00 -0.13187631271E+04  0.13187631271E+04  0.25500000920E-02 0.  1.
    10030    2    1    2    0    0  0.00000000000E+00  0.00000000000E+00  0.85285898386E+03  0.34903852381E+04  0.33845857448E+04 0.  0.
        5    1    3    3  502    0  0.77136339544E+03 -0.10297669581E+04 -0.70721083093E+03  0.14681930136E+04  0.46999998093E+01 0.  1.
       -5    1    3    3    0  502 -0.77136339544E+03  0.10297669581E+04  0.15600698148E+04  0.20221922245E+04  0.46999998093E+01 0. -1.
</event>
<event>
 5   0  0.8845195E-07  0.3468103E+04  0.7818609E-02  0.8121391E-01
       -2   -1    0    0    0  501  0.00000000000E+00  0.00000000000E+00  0.16731282158E+04  0.16731282158E+04  0.25500000920E-02 0. -1.
        2   -1    0    0  501    0  0.00000000000E+00  0.00000000000E+00 -0.17971936251E+04  0.17971936251E+04  0.25500000920E-02 0.  1.
    10030    2    1    2    0    0  0.00000000000E+00  0.00000000000E+00 -0.12406540925E+03  0.34703218409E+04  0.34681034376E+04 0.  0.
        5    1    3    3  502    0  0.12057314314E+04 -0.11053976100E+04 -0.63791896532E+03  0.17557490872E+04  0.46999998093E+01 0.  1.
       -5    1    3    3    0  502 -0.12057314314E+04  0.11053976100E+04  0.51385355607E+03  0.17145727537E+04  0.46999998093E+01 0. -1.
</event>
<event>
 5   0  0.9311672E-07  0.3496118E+04  0.7818609E-02  0.8114710E-01
        2   -1    0    0  501    0  0.00000000000E+00  0.00000000000E+00  0.29467804436E+04  0.29467804436E+04  0.25500000920E-02 0.  1.
       -2   -1    0    0    0  501  0.00000000000E+00  0.00000000000E+00 -0.10369658303E+04  0.10369658303E+04  0.25500000920E-02 0. -1.
    10030    2    1    2    0    0  0.00000000000E+00  0.00000000000E+00  0.19098146133E+04  0.39837462739E+04  0.34961182071E+04 0.  0.
        4    1    3    3  502    0  0.64914343052E+03 -0.13303473101E+04  0.20143745235E+04  0.24997834892E+04  0.12699999809E+01 0.  1.
       -4    1    3    3    0  502 -0.64914343052E+03  0.13303473101E+04 -0.10455991023E+03  0.14839627848E+04  0.12699999809E+01 0. -1.
</event>
<event>
 5   0  0.3026332E-07  0.3067822E+04  0.7818609E-02  0.8224625E-01
       -1   -1    0    0    0  501  0.00000000000E+00  0.00000000000E+00  0.23591325476E+04  0.23591325476E+04  0.50400001928E-02 0. -1.
        1   -1    0    0  501    0  0.00000000000E+00  0.00000000000E+00 -0.99735088668E+03  0.99735088669E+03  0.50400001928E-02 0.  1.
    10030    2    1    2    0    0  0.00000000000E+00  0.00000000000E+00  0.13617816609E+04  0.33564834343E+04  0.30678219884E+04 0.  0.
        1    1    3    3  502    0 -0.17265232641E+03  0.57520741605E+03 -0.86337466921E+03  0.10517072866E+04  0.50400001928E-02 0.  1.
       -1    1    3    3    0  502  0.17265232641E+03 -0.57520741605E+03  0.22251563301E+04  0.23047761476E+04  0.50400001928E-02 0. -1.
</event>
<event>
 5   0  0.8845195E-07  0.3503459E+04  0.7818609E-02  0.8112971E-01
        2   -1    0    0  501    0  0.00000000000E+00  0.00000000000E+00  0.24012147620E+04  0.24012147620E+04  0.25500000920E-02 0. -1.
       -2   -1    0    0    0  501  0.00000000000E+00  0.00000000000E+00 -0.12779183455E+04  0.12779183455E+04  0.25500000920E-02 0.  1.
    10030    2    1    2    0    0  0.00000000000E+00  0.00000000000E+00  0.11232964164E+04  0.36791331075E+04  0.35034590883E+04 0.  0.
        5    1    3    3  502    0 -0.33887709001E+03  0.13462134230E+04 -0.56028895513E+03  0.14970217319E+04  0.46999998093E+01 0.  1.
       -5    1    3    3    0  502  0.33887709001E+03 -0.13462134230E+04  0.16835853716E+04  0.21821113757E+04  0.46999998093E+01 0. -1.
</event>
<event>
 5   0  0.2972541E-07  0.3469244E+04  0.7818609E-02  0.8121118E-01
       -1   -1    0    0    0  501  0.00000000000E+00  0.00000000000E+00  0.14902742024E+04  0.14902742024E+04  0.50400001928E-02 0.  1.
        1   -1    0    0  501    0  0.00000000000E+00  0.00000000000E+00 -0.20190334739E+04  0.20190334739E+04  0.50400001928E-02 0. -1.
    10030    2    1    2    0    0  0.00000000000E+00  0.00000000000E+00 -0.52875927150E+03  0.35093076763E+04  0.34692440098E+04 0.  0.
        3    1    3    3  502    0 -0.97145204633E+03 -0.13694211012E+04 -0.70516433141E+03  0.18210683609E+04  0.10100000352E+00 0. -1.
       -3    1    3    3    0  502  0.97145204633E+03  0.13694211012E+04  0.17640505991E+03  0.16882393154E+04  0.10100000352E+00 0.  1.
</event>
<event>
 5   0  0.6188930E-07  0.3521823E+04  0.7818609E-02  0.8108637E-01
        2   -1    0    0  501    0  0.00000000000E+00  0.00000000000E+00  0.17706204233E+04  0.17706204233E+04  0.25500000920E-02 0. -1.
       -2   -1    0    0    0  501  0.00000000000E+00  0.00000000000E+00 -0.17512561800E+04  0.17512561800E+04  0.25500000920E-02 0.  1.
    10030    2    1    2    0    0  0.00000000000E+00  0.00000000000E+00  0.19364243330E+02  0.35218766033E+04  0.35218233680E+04 0.  0.
        3    1    3    3  502    0 -0.36420497390E+03  0.17228355735E+04  0.81747397024E+01  0.17609300137E+04  0.10100000352E+00 0.  1.
       -3    1    3    3    0  502  0.36420497390E+03 -0.17228355735E+04  0.11189503628E+02  0.17609465897E+04  0.10100000352E+00 0. -1.
</event>
<event>
 5   0  0.6188930E-07  0.3473446E+04  0.7818609E-02  0.8120112E-01
        2   -1    0    0  501    0  0.00000000000E+00  0.00000000000E+00  0.14862396775E+04  0.14862396775E+04  0.25500000920E-02 0. -1.
       -2   -1    0    0    0  501  0.00000000000E+00  0.00000000000E+00 -0.20294212028E+04  0.20294212028E+04  0.25500000920E-02 0.  1.
    10030    2    1    2    0    0  0.00000000000E+00  0.00000000000E+00 -0.54318152527E+03  0.35156608803E+04  0.34734457324E+04 0.  0.
        3    1    3    3  502    0  0.11282123587E+04 -0.25226900256E+03  0.10401945851E+04  0.15551551565E+04  0.10100000352E+00 0. -1.
       -3    1    3    3    0  502 -0.11282123587E+04  0.25226900256E+03 -0.15833761104E+04  0.19605057238E+04  0.10100000352E+00 0.  1.
</event>
<event>
 5   0  0.2933506E-07  0.3471451E+04  0.7818609E-02  0.8120589E-01
       -1   -1    0    0    0  501  0.00000000000E+00  0.00000000000E+00  0.13226976559E+04  0.13226976559E+04  0.50400001928E-02 0. -1.
        1   -1    0    0  501    0  0.00000000000E+00  0.00000000000E+00 -0.22777260725E+04  0.22777260725E+04  0.50400001928E-02 0.  1.
    10030    2    1    2    0    0  0.00000000000E+00  0.00000000000E+00 -0.95502841661E+03  0.36004237285E+04  0.34714509572E+04 0.  0.
        4    1    3    3  502    0 -0.13857493372E+04 -0.50898097656E+03  0.46929771363E+03  0.15490657884E+04  0.12699999809E+01 0. -1.
       -4    1    3    3    0  502  0.13857493372E+04  0.50898097656E+03 -0.14243261302E+04  0.20513579400E+04  0.12699999809E+01 0.  1.
</event>
<event>
 5   0  0.6188930E-07  0.3512219E+04  0.7818609E-02  0.8110900E-01
       -2   -1    0    0    0  501  0.00000000000E+00  0.00000000000E+00  0.18415091386E+04  0.18415091386E+04  0.25500000920E-02 0. -1.
        2   -1    0    0  501    0  0.00000000000E+00  0.00000000000E+00 -0.16746702387E+04  0.16746702387E+04  0.25500000920E-02 0.  1.
    10030    2    1    2    0    0  0.00000000000E+00  0.00000000000E+00  0.16683889996E+03  0.35161793773E+04  0.35122189845E+04 0.  0.
        3    1    3    3  502    0 -0.14665143804E+04  0.15499287496E+03 -0.87119302948E+03  0.17127943613E+04  0.10100000352E+00 0. -1.
       -3    1    3    3    0  502  0.14665143804E+04 -0.15499287496E+03  0.10380319294E+04  0.18033850160E+04  0.10100000352E+00 0.  1.
</event>
<event>
 5   0  0.8950809E-07  0.3492054E+04  0.7818609E-02  0.8115676E-01
       -2   -1    0    0    0  501  0.00000000000E+00  0.00000000000E+00  0.17540691849E+04  0.17540691849E+04  0.25500000920E-02 0.  1.
        2   -1    0    0  501    0  0.00000000000E+00  0.00000000000E+00 -0.17380212401E+04  0.17380212401E+04  0.25500000920E-02 0. -1.
    10030    2    1    2    0    0  0.00000000000E+00  0.00000000000E+00  0.16047944786E+02  0.34920904250E+04  0.34920535505E+04 0.  0.
        2    1    3    3  502    0  0.85598351932E+03  0.13592801138E+04  0.69232593508E+03  0.17491899306E+04  0.25500000920E-02 0.  1.
       -2    1    3    3    0  502 -0.85598351932E+03 -0.13592801138E+04 -0.67627799030E+03  0.17429004943E+04  0.25500000920E-02 0. -1.
</event>
<event>
 5   0  0.9311672E-07  0.3467884E+04  0.7818609E-02  0.8121443E-01
        2   -1    0    0  501    0  0.00000000000E+00  0.00000000000E+00  0.18990473310E+04  0.18990473310E+04  0.25500000920E-02 0.  1.
       -2   -1    0    0    0  501  0.00000000000E+00  0.00000000000E+00 -0.15831911737E+04  0.15831911737E+04  0.25500000920E-02 0. -1.
    10030    2    1    2    0    0  0.00000000000E+00  0.00000000000E+00  0.31585615726E+03  0.34822385048E+04  0.34678840655E+04 0.  0.
        4    1    3    3  502    0  0.33862606281E+03 -0.16878309581E+04 -0.50566648654E+02  0.17222077553E+04  0.12699999809E+01 0.  1.
       -4    1    3    3    0  502 -0.33862606281E+03  0.16878309581E+04  0.36642280591E+03  0.17600307495E+04  0.12699999809E+01 0. -1.
</event>
<event>
 5   0  0.6188930E-07  0.3443825E+04  0.7818609E-02  0.8127233E-01
        2   -1    0    0  501    0  0.00000000000E+00  0.00000000000E+00  0.17499843589E+04  0.17499843589E+04  0.25500000920E-02 0.  1.
       -2   -1    0    0    0  501  0.00000000000E+00  0.00000000000E+00 -0.16942908637E+04  0.16942908637E+04  0.25500000920E-02 0. -1.
    10030    2    1    2    0    0  0.00000000000E+00  0.00000000000E+00  0.55693495155E+02  0.34442752226E+04  0.34438249147E+04 0.  0.
        3    1    3    3  502    0  0.34555274195E+03 -0.15575182368E+04 -0.62009037440E+03  0.17116605499E+04  0.10100000352E+00 0. -1.
       -3    1    3    3    0  502 -0.34555274195E+03  0.15575182368E+04  0.67578386955E+03  0.17326146727E+04  0.10100000352E+00 0.  1.
</event>
<event>
 5   0  0.9128871E-07  0.3521952E+04  0.7818609E-02  0.8108607E-01
       -2   -1    0    0    0  501  0.00000000000E+00  0.00000000000E+00  0.12695655312E+04  0.12695655312E+04  0.25500000920E-02 0.  1.
        2   -1    0    0  501    0  0.00000000000E+00  0.00000000000E+00 -0.24425963970E+04  0.24425963970E+04  0.25500000920E-02 0. -1.
    10030    2    1    2    0    0  0.00000000000E+00  0.00000000000E+00 -0.11730308658E+04  0.37121619283E+04  0.35219518409E+04 0.  0.
        1    1    3    3  502    0 -0.97351207696E+03 -0.92207062356E+03 -0.17896985720E+04  0.22362828483E+04  0.50400001928E-02 0. -1.
       -1    1    3    3    0  502  0.97351207696E+03  0.92207062356E+03  0.61666770620E+03  0.14758790800E+04  0.50400001928E-02 0.  1.
</event>
<event>
 5   0  0.9128871E-07  0.3505685E+04  0.7818609E-02  0.8112444E-01
        2   -1    0    0  501    0  0.00000000000E+00  0.00000000000E+00  0.19073573603E+04  0.19073573603E+04  0.25500000920E-02 0. -1.
       -2   -1    0    0    0  501  0.00000000000E+00  0.00000000000E+00 -0.16108452238E+04  0.16108452238E+04  0.25500000920E-02 0.  1.
    10030    2    1    2    0    0  0.00000000000E+00  0.00000000000E+00  0.29651213651E+03  0.35182025840E+04  0.35056853788E+04 0.  0.
        1    1    3    3  502    0  0.89446778545E+02 -0.17413303023E+04 -0.31899647894E+02  0.17439178695E+04  0.50400001928E-02 0.  1.
       -1    1    3    3    0  502 -0.89446778545E+02  0.17413303023E+04  0.32841178441E+03  0.17742847145E+04  0.50400001928E-02 0. -1.
</event>
<event>
 5   0  0.2933506E-07  0.2881404E+04  0.7818609E-02  0.8278432E-01
       -1   -1    0    0    0  501  0.00000000000E+00  0.00000000000E+00  0.89289496488E+03  0.89289496489E+03  0.50400001928E-02 0.  1.
        1   -1    0    0  501    0  0.00000000000E+00  0.00000000000E+00 -0.23245987193E+04  0.23245987193E+04  0.50400001928E-02 0. -1.
    10030    2    1    2    0    0  0.00000000000E+00  0.00000000000E+00 -0.14317037544E+04  0.32174936842E+04  0.28814041659E+04 0.  0.
        4    1    3    3  502    0 -0.12834132673E+04 -0.27052339988E+03 -0.50266135872E+02  0.13125779298E+04  0.12699999809E+01 0.  1.
       -4    1    3    3    0  502  0.12834132673E+04  0.27052339988E+03 -0.13814376185E+04  0.19049157544E+04  0.12699999809E+01 0. -1.
</event>
<event>
 5   0  0.8845195E-07  0.3449380E+04  0.7818609E-02  0.8125892E-01
       -2   -1    0    0    0  501  0.00000000000E+00  0.00000000000E+00  0.13546669209E+04  0.13546669209E+04  0.25500000920E-02 0. -1.
        2   -1    0    0  501    0  0.00000000000E+00  0.00000000000E+00 -0.21957843711E+04  0.21957843711E+04  0.25500000920E-02 0.  1.
    10030    2    1    2    0    0  0.00000000000E+00  0.00000000000E+00 -0.84111745011E+03  0.35504512920E+04  0.34493804968E+04 0.  0.
        5    1    3    3  502    0  0.17223098879E+04 -0.13709488503E+02 -0.32852364349E+03  0.17534221324E+04  0.46999998093E+01 0. -1.
       -5    1    3    3    0  502 -0.17223098879E+04  0.13709488503E+02 -0.51259380662E+03  0.17970291596E+04  0.46999998093E+01 0.  1.
</event>
<event>
 5   0  0.9128871E-07  0.3529858E+04  0.7818609E-02  0.8106750E-01
        2   -1    0    0  501    0  0.00000000000E+00  0.00000000000E+00  0.13801809912E+04  0.13801809912E+04  0.25500000920E-02 0.  1.
       -2   -1    0    0    0  501  0.00000000000E+00  0.00000000000E+00 -0.22569318533E+04  0.22569318533E+04  0.25500000920E-02 0. -1.
    10030    2    1    2    0    0  0.00000000000E+00  0.00000000000E+00 -0.87675086212E+03  0.36371128445E+04  0.35298580381E+04 0.  0.
        1    1    3    3  502    0  0.73938699531E+03 -0.16013759529E+04 -0.37422313577E+03  0.18030920738E+04  0.50400001928E-02 0. -1.
       -1    1    3    3    0  502 -0.73938699531E+03  0.16013759529E+04 -0.50252772635E+03  0.18340207706E+04  0.50400001928E-02 0.  1.
</event>
<event>
 5   0  0.2972541E-07  0.3421702E+04  0.7818609E-02  0.8132600E-01
        1   -1    0    0  501    0  0.00000000000E+00  0.00000000000E+00  0.12361519606E+04  0.12361519606E+04  0.50400001928E-02 0.  1.
       -1   -1    0    0    0  501  0.00000000000E+00  0.00000000000E+00 -0.23678413964E+04  0.23678413965E+04  0.50400001928E-02 0. -1.
    10030    2    1    2    0    0  0.00000000000E+00  0.00000000000E+00 -0.11316894359E+04  0.36039933570E+04  0.34217023743E+04 0.  0.
        3    1    3    3  502    0  0.11470648972E+04 -0.32201651832E+02 -0.19023908321E+04  0.22216853317E+04  0.10100000352E+00 0. -1.
       -3    1    3    3    0  502 -0.11470648972E+04  0.32201651832E+02  0.77070139620E+03  0.13823080254E+04  0.10100000352E+00 0.  1.
</event>
<event>
 5   0  0.6188930E-07  0.3474145E+04  0.7818609E-02  0.8119945E-01
       -2   -1    0    0    0  501  0.00000000000E+00  0.00000000000E+00  0.12954406008E+04  0.12954406008E+04  0.25500000920E-02 0.  1.
        2   -1    0    0  501    0  0.00000000000E+00  0.00000000000E+00 -0.23292617355E+04  0.23292617355E+04  0.25500000920E-02 0. -1.
    10030    2    1    2    0    0  0.00000000000E+00  0.00000000000E+00 -0.10338211347E+04  0.36247023363E+04  0.34741446268E+04 0.  0.
        3    1    3    3  502    0  0.16895554399E+04 -0.29828900670E+03 -0.23338723053E+03  0.17314859299E+04  0.10100000352E+00 0. -1.
       -3    1    3    3    0  502 -0.16895554399E+04  0.29828900670E+03 -0.80043390421E+03  0.18932164063E+04  0.10100000352E+00 0.  1.
</event>
<event>
 5   0  0.3026332E-07  0.3482132E+04  0.7818609E-02  0.8118038E-01
        1   -1    0    0  501    0  0.00000000000E+00  0.00000000000E+00  0.18570311541E+04  0.18570311541E+04  0.50400001928E-02 0.  1.
       -1   -1    0    0    0  501  0.00000000000E+00  0.00000000000E+00 -0.16323423622E+04  0.16323423622E+04  0.50400001928E-02 0. -1.
    10030    2    1    2    0    0  0.00000000000E+00  0.00000000000E+00  0.22468879193E+03  0.34893735163E+04  0.34821318877E+04 0.  0.
        1    1    3    3  502    0  0.13484331657E+03  0.17174920862E+04 -0.13987098037E+03  0.17284460296E+04  0.50400001928E-02 0. -1.
       -1    1    3    3    0  502 -0.13484331657E+03 -0.17174920862E+04  0.36455977230E+03  0.17609274868E+04  0.50400001928E-02 0.  1.
</event>
<event>
 5   0  0.8950809E-07  0.3476535E+04  0.7818609E-02  0.8119374E-01
       -2   -1    0    0    0  501  0.00000000000E+00  0.00000000000E+00  0.12223190377E+04  0.12223190377E+04  0.25500000920E-02 0.  1.
        2   -1    0    0  501    0  0.00000000000E+00  0.00000000000E+00 -0.24720003735E+04  0.24720003735E+04  0.25500000920E-02 0. -1.
    10030    2    1    2    0    0  0.00000000000E+00  0.00000000000E+00 -0.12496813359E+04  0.36943194112E+04  0.34765345491E+04 0.  0.
        2    1    3    3  502    0 -0.58448928957E+03  0.33333270590E+03 -0.23280027171E+04  0.24232901340E+04  0.25500000920E-02 0. -1.
       -2    1    3    3    0  502  0.58448928957E+03 -0.33333270590E+03  0.10783213812E+04  0.12710292773E+04  0.25500000920E-02 0.  1.
</event>
<event>
 5   0  0.2936607E-07  0.3481455E+04  0.7818609E-02  0.8118199E-01
       -1   -1    0    0    0  501  0.00000000000E+00  0.00000000000E+00  0.14439212141E+04  0.14439212141E+04  0.50400001928E-02 0.  1.
        1   -1    0    0  501    0  0.00000000000E+00  0.00000000000E+00 -0.20985439790E+04  0.20985439790E+04  0.50400001928E-02 0. -1.
    10030    2    1    2    0    0  0.00000000000E+00  0.00000000000E+00 -0.65462276489E+03  0.35424651931E+04  0.34814549660E+04 0.  0.
        2    1    3    3  502    0 -0.68211192825E+03 -0.12839873447E+04 -0.13012857656E+04  0.19512162432E+04  0.25500000920E-02 0. -1.
       -2    1    3    3    0  502  0.68211192825E+03  0.12839873447E+04  0.64666300072E+03  0.15912489499E+04  0.25500000920E-02 0.  1.
</event>
<event>
 5   0  0.3061330E-07  0.3524518E+04  0.7818609E-02  0.8108004E-01
       -1   -1    0    0    0  501  0.00000000000E+00  0.00000000000E+00  0.19362350273E+04  0.19362350273E+04  0.50400001928E-02 0.  1.
        1   -1    0    0  501    0  0.00000000000E+00  0.00000000000E+00 -0.16039149920E+04  0.16039149921E+04  0.50400001928E-02 0. -1.
    10030    2    1    2    0    0  0.00000000000E+00  0.00000000000E+00  0.33232003523E+03  0.35401500193E+04  0.35245177760E+04 0.  0.
        5    1    3    3  502    0  0.10544537673E+04 -0.32605967954E+03  0.15460605963E+04  0.18996086753E+04  0.46999998093E+01 0.  1.
       -5    1    3    3    0  502 -0.10544537673E+04  0.32605967954E+03 -0.12137405610E+04  0.16405413440E+04  0.46999998093E+01 0. -1.
</event>
<event>
 5   0  0.3026332E-07  0.3616787E+04  0.7818609E-02  0.8086657E-01
       -1   -1    0    0    0  501  0.00000000000E+00  0.00000000000E+00  0.14995681511E+04  0.14995681511E+04  0.50400001928E-02 0.  1.
        1   -1    0    0  501    0  0.00000000000E+00  0.00000000000E+00 -0.21808197942E+04  0.21808197942E+04  0.50400001928E-02 0. -1.
    10030    2    1    2    0    0  0.00000000000E+00  0.00000000000E+00 -0.68125164312E+03  0.36803879453E+04  0.36167874732E+04 0.  0.
        1    1    3    3  502    0 -0.15669169320E+03 -0.14426924257E+04 -0.14386626173E+04  0.20434441143E+04  0.50400001928E-02 0. -1.
       -1    1    3    3    0  502  0.15669169320E+03  0.14426924257E+04  0.75741097423E+03  0.16369438310E+04  0.50400001928E-02 0.  1.
</event>
<event>
 5   0  0.2936607E-07  0.3519347E+04  0.7818609E-02  0.8109220E-01
       -1   -1    0    0    0  501  0.00000000000E+00  0.00000000000E+00  0.14198240873E+04  0.14198240873E+04  0.50400001928E-02 0.  1.
        1   -1    0    0  501    0  0.00000000000E+00  0.00000000000E+00 -0.21808691670E+04  0.21808691670E+04  0.50400001928E-02 0. -1.
    10030    2    1    2    0    0  0.00000000000E+00  0.00000000000E+00 -0.76104507966E+03  0.36006932543E+04  0.35193468568E+04 0.  0.
        2    1    3    3  502    0  0.20389571602E+03  0.14229352705E+04  0.65789152424E+03  0.15808666942E+04  0.25500000920E-02 0. -1.
       -2    1    3    3    0  502 -0.20389571602E+03 -0.14229352705E+04 -0.14189366039E+04  0.20198265601E+04  0.25500000920E-02 0.  1.
</event>
<event>
 5   0  0.6188930E-07  0.3572660E+04  0.7818609E-02  0.8096783E-01
       -2   -1    0    0    0  501  0.00000000000E+00  0.00000000000E+00  0.22899864762E+04  0.22899864762E+04  0.25500000920E-02 0. -1.
        2   -1    0    0  501    0  0.00000000000E+00  0.00000000000E+00 -0.13934472244E+04  0.13934472244E+04  0.25500000920E-02 0.  1.
    10030    2    1    2    0    0  0.00000000000E+00  0.00000000000E+00  0.89653925184E+03  0.36834337006E+04  0.35726602408E+04 0.  0.
        3    1    3    3  502    0  0.93155087762E+03  0.15213365943E+04  0.35197556323E+03  0.18182790979E+04  0.10100000352E+00 0. -1.
       -3    1    3    3    0  502 -0.93155087762E+03 -0.15213365943E+04  0.54456368861E+03  0.18651546026E+04  0.10100000352E+00 0.  1.
</event>
<event>
 5   0  0.9128871E-07  0.3059465E+04  0.7818609E-02  0.8226951E-01
        2   -1    0    0  501    0  0.00000000000E+00  0.00000000000E+00  0.16060227721E+04  0.16060227721E+04  0.25500000920E-02 0.  1.
       -2   -1    0    0    0  501  0.00000000000E+00  0.00000000000E+00 -0.14570659999E+04  0.14570659999E+04  0.25500000920E-02 0. -1.
    10030    2    1    2    0    0  0.00000000000E+00  0.00000000000E+00  0.14895677220E+03  0.30630887721E+04  0.30594647744E+04 0.  0.
        1    1    3    3  502    0  0.24387232514E+03 -0.94948409557E+03  0.12502149494E+04  0.15887199811E+04  0.50400001928E-02 0.  1.
       -1    1    3    3    0  502 -0.24387232514E+03  0.94948409557E+03 -0.11012581772E+04  0.14743687909E+04  0.50400001928E-02 0. -1.
</event>
<event>
 5   0  0.8845195E-07  0.3515231E+04  0.7818609E-02  0.8110190E-01
        2   -1    0    0  501    0  0.00000000000E+00  0.00000000000E+00  0.12949517952E+04  0.12949517952E+04  0.25500000920E-02 0.  1.
       -2   -1    0    0    0  501  0.00000000000E+00  0.00000000000E+00 -0.23855808273E+04  0.23855808273E+04  0.25500000920E-02 0. -1.
    10030    2    1    2    0    0  0.00000000000E+00  0.00000000000E+00 -0.10906290321E+04  0.36805326225E+04  0.35152309596E+04 0.  0.
        5    1    3    3  502    0  0.38474617371E+01 -0.57461951989E+03  0.11938140483E+04  0.13249213062E+04  0.46999998093E+01 0.  1.
       -5    1    3    3    0  502 -0.38474617371E+01  0.57461951989E+03 -0.22844430804E+04  0.23556113163E+04  0.46999998093E+01 0. -1.
</event>
<event>
 5   0  0.2936607E-07  0.3558076E+04  0.7818609E-02  0.8100163E-01
       -1   -1    0    0    0  501  0.00000000000E+00  0.00000000000E+00  0.12257551659E+04  0.12257551659E+04  0.50400001928E-02 0. -1.
        1   -1    0    0  501    0  0.00000000000E+00  0.00000000000E+00 -0.25820629503E+04  0.25820629503E+04  0.50400001928E-02 0.  1.
    10030    2    1    2    0    0  0.00000000000E+00  0.00000000000E+00 -0.13563077844E+04  0.38078181162E+04  0.35580764467E+04 0.  0.
        2    1    3    3  502    0 -0.12529969252E+04 -0.83846848171E+03  0.33256475361E+03  0.15439009051E+04  0.25500000920E-02 0. -1.
       -2    1    3    3    0  502  0.12529969252E+04  0.83846848171E+03 -0.16888725380E+04  0.22639172111E+04  0.25500000920E-02 0.  1.
</event>
<event>
 5   0  0.2972541E-07  0.3517786E+04  0.7818609E-02  0.8109588E-01
       -1   -1    0    0    0  501  0.00000000000E+00  0.00000000000E+00  0.14895407996E+04  0.14895407996E+04  0.50400001928E-02 0.  1.
        1   -1    0    0  501    0  0.00000000000E+00  0.00000000000E+00 -0.20769516989E+04  0.20769516989E+04  0.50400001928E-02 0. -1.
    10030    2    1    2    0    0  0.00000000000E+00  0.00000000000E+00 -0.58741089932E+03  0.35664924985E+04  0.35177858345E+04 0.  0.
        3    1    3    3  502    0 -0.87515703055E+03 -0.84368101337E+03  0.99511824422E+03  0.15709735232E+04  0.10100000352E+00 0.  1.
       -3    1    3    3    0  502  0.87515703055E+03  0.84368101337E+03 -0.15825291435E+04  0.19955189753E+04  0.10100000352E+00 0. -1.
</event>
<event>
 5   0  0.2933506E-07  0.3464912E+04  0.7818609E-02  0.8122156E-01
       -1   -1    0    0    0  501  0.00000000000E+00  0.00000000000E+00  0.14447777154E+04  0.14447777154E+04  0.50400001928E-02 0.  1.
        1   -1    0    0  501    0  0.00000000000E+00  0.00000000000E+00 -0.20774157587E+04  0.20774157587E+04  0.50400001928E-02 0. -1.
    10030    2    1    2    0    0  0.00000000000E+00  0.00000000000E+00 -0.63263804332E+03  0.35221934741E+04  0.34649121165E+04 0.  0.
        4    1    3    3  502    0 -0.16790194202E+04  0.11340188257E+03 -0.73475022230E+03  0.18362531695E+04  0.12699999809E+01 0. -1.
       -4    1    3    3    0  502  0.16790194202E+04 -0.11340188257E+03  0.10211217898E+03  0.16859403046E+04  0.12699999809E+01 0.  1.
</event>
<event>
 5   0  0.8950809E-07  0.3564676E+04  0.7818609E-02  0.8098631E-01
       -2   -1    0    0    0  501  0.00000000000E+00  0.00000000000E+00  0.15383355299E+04  0.15383355299E+04  0.25500000920E-02 0.  1.
        2   -1    0    0  501    0  0.00000000000E+00  0.00000000000E+00 -0.20650422499E+04  0.20650422499E+04  0.25500000920E-02 0. -1.
    10030    2    1    2    0    0  0.00000000000E+00  0.00000000000E+00 -0.52670672001E+03  0.36033777798E+04  0.35646755048E+04 0.  0.
        2    1    3    3  502    0 -0.75134061784E+02  0.75434735623E+03  0.13672450422E+04  0.15633438735E+04  0.25500000920E-02 0.  1.
       -2    1    3    3    0  502  0.75134061784E+02 -0.75434735623E+03 -0.18939517623E+04  0.20400339063E+04  0.25500000920E-02 0. -1.
</event>
<event>
 5   0  0.9128871E-07  0.3602609E+04  0.7818609E-02  0.8089894E-01
        2   -1    0    0  501    0  0.00000000000E+00  0.00000000000E+00  0.12146927989E+04  0.12146927989E+04  0.25500000920E-02 0.  1.
       -2   -1    0    0    0  501  0.00000000000E+00  0.00000000000E+00 -0.26712093780E+04  0.26712093780E+04  0.25500000920E-02 0. -1.
    10030    2    1    2    0    0  0.00000000000E+00  0.00000000000E+00 -0.14565165791E+04  0.38859021769E+04  0.36026094963E+04 0.  0.
        1    1    3    3  502    0 -0.10313422364E+04 -0.10831947616E+04 -0.18110498177E+04  0.23488037684E+04  0.50400001928E-02 0. -1.
       -1    1    3    3    0  502  0.10313422364E+04  0.10831947616E+04  0.35453323858E+03  0.15370984085E+04  0.50400001928E-02 0.  1.
</event>
<event>
 5   0  0.3061330E-07  0.3423007E+04  0.7818609E-02  0.8132283E-01
        1   -1    0    0  501    0  0.00000000000E+00  0.00000000000E+00  0.15785450250E+04  0.15785450250E+04  0.50400001928E-02 0.  1.
       -1   -1    0    0    0  501  0.00000000000E+00  0.00000000000E+00 -0.18556609516E+04  0.18556609516E+04  0.50400001928E-02 0. -1.
    10030    2    1    2    0    0  0.00000000000E+00  0.00000000000E+00 -0.27711592661E+03  0.34342059767E+04  0.34230070776E+04 0.  0.
        5    1    3    3  502    0  0.17045382586E+04  0.30302623759E+01 -0.29321291794E+03  0.17295825400E+04  0.46999998093E+01 0.  1.
       -5    1    3    3    0  502 -0.17045382586E+04 -0.30302623759E+01  0.16096991337E+02  0.17046234366E+04  0.46999998093E+01 0. -1.
</event>
<event>
 5   0  0.3026332E-07  0.3518083E+04  0.7818609E-02  0.8109518E-01
        1   -1    0    0  501    0  0.00000000000E+00  0.00000000000E+00  0.18780030910E+04  0.18780030910E+04  0.50400001928E-02 0. -1.
       -1   -1    0    0    0  501  0.00000000000E+00  0.00000000000E+00 -0.16476157857E+04  0.16476157857E+04  0.50400001928E-02 0.  1.
    10030    2    1    2    0    0  0.00000000000E+00  0.00000000000E+00  0.23038730531E+03  0.35256188768E+04  0.35180833068E+04 0.  0.
        1    1    3    3  502    0 -0.46486083314E+03 -0.57340255075E+03  0.17152793678E+04  0.18673696444E+04  0.50400001928E-02 0. -1.
       -1    1    3    3    0  502  0.46486083314E+03  0.57340255075E+03 -0.14848920625E+04  0.16582492324E+04  0.50400001928E-02 0.  1.
</event>
<event>
 5   0  0.8950809E-07  0.3503834E+04  0.7818609E-02  0.8112882E-01
       -2   -1    0    0    0  501  0.00000000000E+00  0.00000000000E+00  0.14235273347E+04  0.14235273347E+04  0.25500000920E-02 0. -1.
        2   -1    0    0  501    0  0.00000000000E+00  0.00000000000E+00 -0.21560618875E+04  0.21560618875E+04  0.25500000920E-02 0.  1.
    10030    2    1    2    0    0  0.00000000000E+00  0.00000000000E+00 -0.73253455282E+03  0.35795892222E+04  0.35038339185E+04 0.  0.
        2    1    3    3  502    0  0.15989638484E+04 -0.40012328385E+03  0.24022531344E+03  0.16656807113E+04  0.25500000920E-02 0.  1.
       -2    1    3    3    0  502 -0.15989638484E+04  0.40012328385E+03 -0.97275986626E+03  0.19139085109E+04  0.25500000920E-02 0. -1.
</event>
<event>
 5   0  0.3026332E-07  0.3110138E+04  0.7818609E-02  0.8212961E-01
        1   -1    0    0  501    0  0.00000000000E+00  0.00000000000E+00  0.15843390113E+04  0.15843390113E+04  0.50400001928E-02 0.  1.
       -1   -1    0    0    0  501  0.00000000000E+00  0.00000000000E+00 -0.15263399584E+04  0.15263399584E+04  0.50400001928E-02 0. -1.
    10030    2    1    2    0    0  0.00000000000E+00  0.00000000000E+00  0.57999052850E+02  0.31106789697E+04  0.31101382224E+04 0.  0.
        1    1    3    3  502    0  0.29410282362E+03  0.75552748204E+03 -0.12982284403E+04  0.15305931302E+04  0.50400001928E-02 0. -1.
       -1    1    3    3    0  502 -0.29410282362E+03 -0.75552748204E+03  0.13562274931E+04  0.15800858395E+04  0.50400001928E-02 0.  1.
</event>
<event>
 5   0  0.9128871E-07  0.3501554E+04  0.7818609E-02  0.8113422E-01
       -2   -1    0    0    0  501  0.00000000000E+00  0.00000000000E+00  0.12790699316E+04  0.12790699316E+04  0.25500000920E-02 0.  1.
        2   -1    0    0  501    0  0.00000000000E+00  0.00000000000E+00 -0.23964451339E+04  0.23964451339E+04  0.25500000920E-02 0. -1.
    10030    2    1    2    0    0  0.00000000000E+00  0.00000000000E+00 -0.11173752023E+04  0.36755150654E+04  0.35015544624E+04 0.  0.
        1    1    3    3  502    0  0.82714988425E+03  0.74541792352E+02 -0.21765206266E+04  0.23295869694E+04  0.50400001928E-02 0. -1.
       -1    1    3    3    0  502 -0.82714988425E+03 -0.74541792352E+02  0.10591454243E+04  0.13459280960E+04  0.50400001928E-02 0.  1.
</event>
<event>
 5   0  0.2972541E-07  0.3507146E+04  0.7818609E-02  0.8112099E-01
       -1   -1    0    0    0  501  0.00000000000E+00  0.00000000000E+00  0.21932959914E+04  0.21932959914E+04  0.50400001928E-02 0. -1.
        1   -1    0    0  501    0  0.00000000000E+00  0.00000000000E+00 -0.14020078254E+04  0.14020078255E+04  0.50400001928E-02 0.  1.
    10030    2    1    2    0    0  0.00000000000E+00  0.00000000000E+00  0.79128816596E+03  0.35953038169E+04  0.35071459300E+04 0.  0.
        3    1    3    3  502    0  0.55497750009E+03  0.12347651764E+03 -0.13049002384E+04  0.14233801735E+04  0.10100000352E+00 0.  1.
       -3    1    3    3    0  502 -0.55497750009E+03 -0.12347651764E+03  0.20961884043E+04  0.21719236434E+04  0.10100000352E+00 0. -1.
</event>
<event>
 5   0  0.8845195E-07  0.3350906E+04  0.7818609E-02  0.8150062E-01
        2   -1    0    0  501    0  0.00000000000E+00  0.00000000000E+00  0.13327643536E+04  0.13327643536E+04  0.25500000920E-02 0.  1.
       -2   -1    0    0    0  501  0.00000000000E+00  0.00000000000E+00 -0.21062554857E+04  0.21062554857E+04  0.25500000920E-02 0. -1.
    10030    2    1    2    0    0  0.00000000000E+00  0.00000000000E+00 -0.77349113209E+03  0.34390198393E+04  0.33509056871E+04 0.  0.
        5    1    3    3  502    0 -0.92197714191E+02  0.42313727092E+03 -0.20478152795E+04  0.20931113390E+04  0.46999998093E+01 0. -1.
       -5    1    3    3    0  502  0.92197714191E+02 -0.42313727092E+03  0.12743241474E+04  0.13459085003E+04  0.46999998093E+01 0.  1.
</event>
<event>
 5   0  0.9128871E-07  0.3485612E+04  0.7818609E-02  0.8117208E-01
        2   -1    0    0  501    0  0.00000000000E+00  0.00000000000E+00  0.15513648838E+04  0.15513648838E+04  0.25500000920E-02 0.  1.
       -2   -1    0    0    0  501  0.00000000000E+00  0.00000000000E+00 -0.19578716577E+04  0.19578716577E+04  0.25500000920E-02 0. -1.
    10030    2    1    2    0    0  0.00000000000E+00  0.00000000000E+00 -0.40650677392E+03  0.35092365415E+04  0.34856123346E+04 0.  0.
        1    1    3    3  502    0  0.10836774844E+04  0.24406236178E+03 -0.15552811620E+04  0.19112359403E+04  0.50400001928E-02 0. -1.
       -1    1    3    3    0  502 -0.10836774844E+04 -0.24406236178E+03  0.11487743881E+04  0.15980006012E+04  0.50400001928E-02 0.  1.
</event>
<event>
 5   0  0.2936607E-07  0.3488456E+04  0.7818609E-02  0.8116531E-01
       -1   -1    0    0    0  501  0.00000000000E+00  0.00000000000E+00  0.20711999606E+04  0.20711999606E+04  0.50400001928E-02 0.  1.
        1   -1    0    0  501    0  0.00000000000E+00  0.00000000000E+00 -0.14688734556E+04  0.14688734557E+04  0.50400001928E-02 0. -1.
    10030    2    1    2    0    0  0.00000000000E+00  0.00000000000E+00  0.60232650497E+03  0.35400734163E+04  0.34884556145E+04 0.  0.
        2    1    3    3  502    0 -0.11534866748E+04  0.10578306370E+04  0.10824865524E+04  0.19029751185E+04  0.25500000920E-02 0.  1.
       -2    1    3    3    0  502  0.11534866748E+04 -0.10578306370E+04 -0.48016004747E+03  0.16370982978E+04  0.25500000920E-02 0. -1.
</event>
<event>
 5   0  0.8950809E-07  0.3496597E+04  0.7818609E-02  0.8114597E-01
        2   -1    0    0  501    0  0.00000000000E+00  0.00000000000E+00  0.16902323014E+04  0.16902323014E+04  0.25500000920E-02 0. -1.
       -2   -1    0    0    0  501  0.00000000000E+00  0.00000000000E+00 -0.18083593831E+04  0.18083593831E+04  0.25500000920E-02 0.  1.
    10030    2    1    2    0    0  0.00000000000E+00  0.00000000000E+00 -0.11812708166E+03  0.34985916845E+04  0.34965968837E+04 0.  0.
        2    1    3    3  502    0 -0.23273202546E+03  0.53815371573E+03  0.15889261345E+04  0.16936528211E+04  0.25500000920E-02 0. -1.
       -2    1    3    3    0  502  0.23273202546E+03 -0.53815371573E+03 -0.17070532162E+04  0.18049388633E+04  0.25500000920E-02 0.  1.
</event>
<event>
 5   0  0.9128871E-07  0.3458658E+04  0.7818609E-02  0.8123658E-01
       -2   -1    0    0    0  501  0.00000000000E+00  0.00000000000E+00  0.16407455718E+04  0.16407455718E+04  0.25500000920E-02 0.  1.
        2   -1    0    0  501    0  0.00000000000E+00  0.00000000000E+00 -0.18226952217E+04  0.18226952217E+04  0.25500000920E-02 0. -1.
    10030    2    1    2    0    0  0.00000000000E+00  0.00000000000E+00 -0.18194964992E+03  0.34634407935E+04  0.34586581871E+04 0.  0.
        1    1    3    3  502    0 -0.16882892169E+03  0.12323983989E+04 -0.12939978260E+04  0.17949204417E+04  0.50400001928E-02 0. -1.
       -1    1    3    3    0  502  0.16882892169E+03 -0.12323983989E+04  0.11120481761E+04  0.16685203518E+04  0.50400001928E-02 0.  1.
</event>
<event>
 5   0  0.2936607E-07  0.3454675E+04  0.7818609E-02  0.8124616E-01
        1   -1    0    0  501    0  0.00000000000E+00  0.00000000000E+00  0.15066560545E+04  0.15066560545E+04  0.50400001928E-02 0. -1.
       -1   -1    0    0    0  501  0.00000000000E+00  0.00000000000E+00 -0.19803418627E+04  0.19803418627E+04  0.50400001928E-02 0.  1.
    10030    2    1    2    0    0  0.00000000000E+00  0.00000000000E+00 -0.47368580814E+03  0.34869979172E+04  0.34546745476E+04 0.  0.
        2    1    3    3  502    0  0.86288840711E+03  0.11613322834E+04 -0.11892951621E+04  0.18728833541E+04  0.25500000920E-02 0.  1.
       -2    1    3    3    0  502 -0.86288840711E+03 -0.11613322834E+04  0.71560935393E+03  0.16141145631E+04  0.25500000920E-02 0. -1.
</event>
<event>
 5   0  0.2936607E-07  0.3516059E+04  0.7818609E-02  0.8109995E-01
       -1   -1    0    0    0  501  0.00000000000E+00  0.00000000000E+00  0.15138801507E+04  0.15138801507E+04  0.50400001928E-02 0. -1.
        1   -1    0    0  501    0  0.00000000000E+00  0.00000000000E+00 -0.20415540684E+04  0.20415540684E+04  0.50400001928E-02 0.  1.
    10030    2    1    2    0    0  0.00000000000E+00  0.00000000000E+00 -0.52767391767E+03  0.35554342191E+04  0.35160592604E+04 0.  0.
        2    1    3    3  502    0  0.10249030554E+04  0.14281891491E+04 -0.24082997934E+03  0.17743025665E+04  0.25500000920E-02 0. -1.
       -2    1    3    3    0  502 -0.10249030554E+04 -0.14281891491E+04 -0.28684393832E+03  0.17811316525E+04  0.25500000920E-02 0.  1.
</event>
<event>
 5   0  0.8845195E-07  0.3520737E+04  0.7818609E-02  0.8108893E-01
       -2   -1    0    0    0  501  0.00000000000E+00  0.00000000000E+00  0.15539070487E+04  0.15539070487E+04  0.25500000920E-02 0. -1.
        2   -1    0    0  501    0  0.00000000000E+00  0.00000000000E+00 -0.19942615736E+04  0.19942615736E+04  0.25500000920E-02 0.  1.
    10030    2    1    2    0    0  0.00000000000E+00  0.00000000000E+00 -0.44035452488E+03  0.35481686223E+04  0.35207369207E+04 0.  0.
        5    1    3    3  502    0  0.16161607861E+03 -0.16793946082E+04  0.28612037921E+03  0.17112489498E+04  0.46999998093E+01 0. -1.
       -5    1    3    3    0  502 -0.16161607861E+03  0.16793946082E+04 -0.72647490409E+03  0.18369196725E+04  0.46999998093E+01 0.  1.
</event>
<event>
 5   0  0.2972541E-07  0.3532553E+04  0.7818609E-02  0.8106118E-01
       -1   -1    0    0    0  501  0.00000000000E+00  0.00000000000E+00  0.17855157664E+04  0.17855157664E+04  0.50400001928E-02 0. -1.
        1   -1    0    0  501    0  0.00000000000E+00  0.00000000000E+00 -0.17472442638E+04  0.17472442638E+04  0.50400001928E-02 0.  1.
    10030    2    1    2    0    0  0.00000000000E+00  0.00000000000E+00  0.38271502624E+02  0.35327600302E+04  0.35325527205E+04 0.  0.
        3    1    3    3  502    0  0.18037662377E+03 -0.72064828674E+03  0.16216849370E+04  0.17837409354E+04  0.10100000352E+00 0. -1.
       -3    1    3    3    0  502 -0.18037662377E+03  0.72064828674E+03 -0.15834134344E+04  0.17490190948E+04  0.10100000352E+00 0.  1.
</event>
<event>
 5   0  0.3026332E-07  0.3536429E+04  0.7818609E-02  0.8105211E-01
       -1   -1    0    0    0  501  0.00000000000E+00  0.00000000000E+00  0.11810837105E+04  0.11810837105E+04  0.50400001928E-02 0.  1.
        1   -1    0    0  501    0  0.00000000000E+00  0.00000000000E+00 -0.26472156909E+04  0.26472156909E+04  0.50400001928E-02 0. -1.
    10030    2    1    2    0    0  0.00000000000E+00  0.00000000000E+00 -0.14661319804E+04  0.38282994014E+04  0.35364294596E+04 0.  0.
        1    1    3    3  502    0  0.53322189199E+03  0.94433774006E+02  0.10891096762E+04  0.12163072024E+04  0.50400001928E-02 0.  1.
       -1    1    3    3    0  502 -0.53322189199E+03 -0.94433774006E+02 -0.25552416566E+04  0.26119921990E+04  0.50400001928E-02 0. -1.
</event>
<event>
 5   0  0.6188930E-07  0.3519017E+04  0.7818609E-02  0.8109298E-01
        2   -1    0    0  501    0  0.00000000000E+00  0.00000000000E+00  0.14913969301E+04  0.14913969301E+04  0.25500000920E-02 0.  1.
       -2   -1    0    0    0  501  0.00000000000E+00  0.00000000000E+00 -0.20758192231E+04  0.20758192231E+04  0.25500000920E-02 0. -1.
    10030    2    1    2    0    0  0.00000000000E+00  0.00000000000E+00 -0.58442229291E+03  0.35672161532E+04  0.35190171450E+04 0.  0.
        3    1    3    3  502    0 -0.16623141453E+04  0.25040156260E+03 -0.81882746941E+03  0.18698844069E+04  0.10100000352E+00 0. -1.
       -3    1    3    3    0  502  0.16623141453E+04 -0.25040156260E+03  0.23440517650E+03  0.16973317463E+04  0.10100000352E+00 0.  1.
</event>
<event>
 5   0  0.8845195E-07  0.3487968E+04  0.7818609E-02  0.8116647E-01
        2   -1    0    0  501    0  0.00000000000E+00  0.00000000000E+00  0.17769496609E+04  0.17769496609E+04  0.25500000920E-02 0. -1.
       -2   -1    0    0    0  501  0.00000000000E+00  0.00000000000E+00 -0.17116302699E+04  0.17116302699E+04  0.25500000920E-02 0.  1.
    10030    2    1    2    0    0  0.00000000000E+00  0.00000000000E+00  0.65319391025E+02  0.34885799308E+04  0.34879683643E+04 0.  0.
        5    1    3    3  502    0  0.38600110794E+03  0.56035004926E+03  0.16387026529E+04  0.17743611548E+04  0.46999998093E+01 0. -1.
       -5    1    3    3    0  502 -0.38600110794E+03 -0.56035004926E+03 -0.15733832619E+04  0.17142187760E+04  0.46999998093E+01 0.  1.
</event>
<event>
 5   0  0.3061330E-07  0.3472599E+04  0.7818609E-02  0.8120315E-01
       -1   -1    0    0    0  501  0.00000000000E+00  0.00000000000E+00  0.13993245807E+04  0.13993245807E+04  0.50400001928E-02 0.  1.
        1   -1    0    0  501    0  0.00000000000E+00  0.00000000000E+00 -0.21544217543E+04  0.21544217543E+04  0.50400001928E-02 0. -1.
    10030    2    1    2    0    0  0.00000000000E+00  0.00000000000E+00 -0.75509717361E+03  0.35537463350E+04  0.34725986339E+04 0.  0.
        5    1    3    3  502    0  0.58638331036E+03 -0.89627380707E+03  0.10209732273E+04  0.14797163731E+04  0.46999998093E+01 0.  1.
       -5    1    3    3    0  502 -0.58638331036E+03  0.89627380707E+03 -0.17760704009E+04  0.20740299619E+04  0.46999998093E+01 0. -1.
</event>
<event>
 5   0  0.2936607E-07  0.3503968E+04  0.7818609E-02  0.8112850E-01
       -1   -1    0    0    0  501  0.00000000000E+00  0.00000000000E+00  0.14170617320E+04  0.14170617320E+04  0.50400001928E-02 0.  1.
        1   -1    0    0  501    0  0.00000000000E+00  0.00000000000E+00 -0.21660650774E+04  0.21660650774E+04  0.50400001928E-02 0. -1.
    10030    2    1    2    0    0  0.00000000000E+00  0.00000000000E+00 -0.74900334544E+03  0.35831268095E+04  0.35039679966E+04 0.  0.
        2    1    3    3  502    0  0.10700884287E+04 -0.13738068029E+04 -0.57123703850E+03  0.18326882253E+04  0.25500000920E-02 0. -1.
       -2    1    3    3    0  502 -0.10700884287E+04  0.13738068029E+04 -0.17776630694E+03  0.17504385841E+04  0.25500000920E-02 0.  1.
</event>
<event>
 5   0  0.9311672E-07  0.3535278E+04  0.7818609E-02  0.8105480E-01
        2   -1    0    0  501    0  0.00000000000E+00  0.00000000000E+00  0.27168399186E+04  0.27168399186E+04  0.25500000920E-02 0.  1.
       -2   -1    0    0    0  501  0.00000000000E+00  0.00000000000E+00 -0.11500666747E+04  0.11500666747E+04  0.25500000920E-02 0. -1.
    10030    2    1    2    0    0  0.00000000000E+00  0.00000000000E+00  0.15667732439E+04  0.38669065934E+04  0.35352776700E+04 0.  0.
        4    1    3    3  502    0  0.36845210779E+01  0.15558778669E+04 -0.13422172388E+03  0.15616614859E+04  0.12699999809E+01 0. -1.
       -4    1    3    3    0  502 -0.36845210779E+01 -0.15558778669E+04  0.17009949678E+04  0.23052451075E+04  0.12699999809E+01 0.  1.
</event>
<event>
 5   0  0.8845195E-07  0.3534989E+04  0.7818609E-02  0.8105548E-01
       -2   -1    0    0    0  501  0.00000000000E+00  0.00000000000E+00  0.17861546525E+04  0.17861546525E+04  0.25500000920E-02 0.  1.
        2   -1    0    0  501    0  0.00000000000E+00  0.00000000000E+00 -0.17490297423E+04  0.17490297423E+04  0.25500000920E-02 0. -1.
    10030    2    1    2    0    0  0.00000000000E+00  0.00000000000E+00  0.37124910214E+02  0.35351843948E+04  0.35349894549E+04 0.  0.
        5    1    3    3  502    0  0.22027065953E+03 -0.17485619260E+04 -0.11571165826E+03  0.17661821113E+04  0.46999998093E+01 0.  1.
       -5    1    3    3    0  502 -0.22027065953E+03  0.17485619260E+04  0.15283656847E+03  0.17690022835E+04  0.46999998093E+01 0. -1.
</event>
<event>
 5   0  0.2933506E-07  0.3466571E+04  0.7818609E-02  0.8121758E-01
        1   -1    0    0  501    0  0.00000000000E+00  0.00000000000E+00  0.13575231837E+04  0.13575231837E+04  0.50400001928E-02 0. -1.
       -1   -1    0    0    0  501  0.00000000000E+00  0.00000000000E+00 -0.22130593310E+04  0.22130593310E+04  0.50400001928E-02 0.  1.
    10030    2    1    2    0    0  0.00000000000E+00  0.00000000000E+00 -0.85553614731E+03  0.35705825147E+04  0.34665714178E+04 0.  0.
        4    1    3    3  502    0  0.11030424271E+04 -0.62181378762E+03 -0.16468868398E+04  0.20774005051E+04  0.12699999809E+01 0.  1.
       -4    1    3    3    0  502 -0.11030424271E+04  0.62181378762E+03  0.79135069247E+03  0.14931820096E+04  0.12699999809E+01 0. -1.
</event>
<event>
 5   0  0.8950809E-07  0.3532771E+04  0.7818609E-02  0.8106067E-01
        2   -1    0    0  501    0  0.00000000000E+00  0.00000000000E+00  0.28120253949E+04  0.28120253949E+04  0.25500000920E-02 0.  1.
       -2   -1    0    0    0  501  0.00000000000E+00  0.00000000000E+00 -0.11095623644E+04  0.11095623644E+04  0.25500000920E-02 0. -1.
    10030    2    1    2    0    0  0.00000000000E+00  0.00000000000E+00  0.17024630306E+04  0.39215877593E+04  0.35327708932E+04 0.  0.
        2    1    3    3  502    0 -0.17389427534E+04 -0.19946911517E+03  0.11148742038E+04  0.20752480136E+04  0.25500000920E-02 0.  1.
       -2    1    3    3    0  502  0.17389427534E+04  0.19946911517E+03  0.58758882677E+03  0.18463397458E+04  0.25500000920E-02 0. -1.
</event>
<event>
 5   0  0.2936607E-07  0.3532039E+04  0.7818609E-02  0.8106239E-01
       -1   -1    0    0    0  501  0.00000000000E+00  0.00000000000E+00  0.18131003363E+04  0.18131003363E+04  0.50400001928E-02 0. -1.
        1   -1    0    0  501    0  0.00000000000E+00  0.00000000000E+00 -0.17201616066E+04  0.17201616066E+04  0.50400001928E-02 0.  1.
    10030    2    1    2    0    0  0.00000000000E+00  0.00000000000E+00  0.92938729703E+02  0.35332619430E+04  0.35320394038E+04 0.  0.
        2    1    3    3  502    0  0.49931236254E+02  0.62040680924E+03  0.16997446072E+04  0.18101186334E+04  0.25500000920E-02 0. -1.
       -2    1    3    3    0  502 -0.49931236254E+02 -0.62040680924E+03 -0.16068058775E+04  0.17231433096E+04  0.25500000920E-02 0.  1.
</event>
<event>
 5   0  0.9128871E-07  0.3364382E+04  0.7818609E-02  0.8146704E-01
        2   -1    0    0  501    0  0.00000000000E+00  0.00000000000E+00  0.17362871898E+04  0.17362871898E+04  0.25500000920E-02 0.  1.
       -2   -1    0    0    0  501  0.00000000000E+00  0.00000000000E+00 -0.16297806192E+04  0.16297806192E+04  0.25500000920E-02 0. -1.
    10030    2    1    2    0    0  0.00000000000E+00  0.00000000000E+00  0.10650657058E+03  0.33660678090E+04  0.33643823869E+04 0.  0.
        1    1    3    3  502    0 -0.13256121213E+04  0.52000500996E+03  0.94931040461E+03  0.17113862659E+04  0.50400001928E-02 0.  1.
       -1    1    3    3    0  502  0.13256121213E+04 -0.52000500996E+03 -0.84280383403E+03  0.16546815432E+04  0.50400001928E-02 0. -1.
</event>
<event>
 5   0  0.3026332E-07  0.3528519E+04  0.7818609E-02  0.8107064E-01
        1   -1    0    0  501    0  0.00000000000E+00  0.00000000000E+00  0.14111475487E+04  0.14111475487E+04  0.50400001928E-02 0. -1.
       -1   -1    0    0    0  501  0.00000000000E+00  0.00000000000E+00 -0.22057308014E+04  0.22057308014E+04  0.50400001928E-02 0.  1.
    10030    2    1    2    0    0  0.00000000000E+00  0.00000000000E+00 -0.79458325277E+03  0.36168783501E+04  0.35285190171E+04 0.  0.
        1    1    3    3  502    0  0.51254848298E+03 -0.54022930347E+03 -0.20367357909E+04  0.21686046965E+04  0.50400001928E-02 0.  1.
       -1    1    3    3    0  502 -0.51254848298E+03  0.54022930347E+03  0.12421525381E+04  0.14482736536E+04  0.50400001928E-02 0. -1.
</event>
<event>
 5   0  0.2972541E-07  0.3674970E+04  0.7818609E-02  0.8073531E-01
       -1   -1    0    0    0  501  0.00000000000E+00  0.00000000000E+00  0.13910935315E+04  0.13910935315E+04  0.50400001928E-02 0.  1.
        1   -1    0    0  501    0  0.00000000000E+00  0.00000000000E+00 -0.24271204530E+04  0.24271204530E+04  0.50400001928E-02 0. -1.
    10030    2    1    2    0    0  0.00000000000E+00  0.00000000000E+00 -0.10360269215E+04  0.38182139845E+04  0.36749702379E+04 0.  0.
        3    1    3    3  502    0 -0.82069788412E+02  0.51964219335E+03  0.13111749015E+04  0.14127785006E+04  0.10100000352E+00 0.  1.
       -3    1    3    3    0  502  0.82069788412E+02 -0.51964219335E+03 -0.23472018230E+04  0.24054354839E+04  0.10100000352E+00 0. -1.
</event>
<event>
 5   0  0.9311672E-07  0.3220855E+04  0.7818609E-02  0.8183331E-01
       -2   -1    0    0    0  501  0.00000000000E+00  0.00000000000E+00  0.15989944812E+04  0.15989944812E+04  0.25500000920E-02 0.  1.
        2   -1    0    0  501    0  0.00000000000E+00  0.00000000000E+00 -0.16219424019E+04  0.16219424019E+04  0.25500000920E-02 0. -1.
    10030    2    1    2    0    0  0.00000000000E+00  0.00000000000E+00 -0.22947920725E+02  0.32209368831E+04  0.32208551346E+04 0.  0.
        4    1    3    3  502    0  0.19811048191E+02  0.76701385522E+03  0.14044619042E+04  0.16003804500E+04  0.12699999809E+01 0.  1.
       -4    1    3    3    0  502 -0.19811048191E+02 -0.76701385522E+03 -0.14274098249E+04  0.16205564331E+04  0.12699999809E+01 0. -1.
</event>
<event>
 5   0  0.9128871E-07  0.3429160E+04  0.7818609E-02  0.8130786E-01
        2   -1    0    0  501    0  0.00000000000E+00  0.00000000000E+00  0.13927888169E+04  0.13927888169E+04  0.25500000920E-02 0. -1.
       -2   -1    0    0    0  501  0.00000000000E+00  0.00000000000E+00 -0.21107175192E+04  0.21107175192E+04  0.25500000920E-02 0.  1.
    10030    2    1    2    0    0  0.00000000000E+00  0.00000000000E+00 -0.71792870228E+03  0.35035063360E+04  0.34291595217E+04 0.  0.
        1    1    3    3  502    0  0.70767153115E+03 -0.47597525833E+03  0.11607088857E+04  0.14403459861E+04  0.50400001928E-02 0. -1.
       -1    1    3    3    0  502 -0.70767153115E+03  0.47597525833E+03 -0.18786375879E+04  0.20631603499E+04  0.50400001928E-02 0.  1.
</event>
<event>
 5   0  0.8845195E-07  0.3554524E+04  0.7818609E-02  0.8100989E-01
       -2   -1    0    0    0  501  0.00000000000E+00  0.00000000000E+00  0.11836232286E+04  0.11836232286E+04  0.25500000920E-02 0. -1.
        2   -1    0    0  501    0  0.00000000000E+00  0.00000000000E+00 -0.26686359081E+04  0.26686359081E+04  0.25500000920E-02 0.  1.
    10030    2    1    2    0    0  0.00000000000E+00  0.00000000000E+00 -0.14850126795E+04  0.38522591367E+04  0.35545235683E+04 0.  0.
        5    1    3    3  502    0 -0.10234087770E+04  0.13712879000E+04 -0.22180238080E+03  0.17254026821E+04  0.46999998093E+01 0. -1.
       -5    1    3    3    0  502  0.10234087770E+04 -0.13712879000E+04 -0.12632102987E+04  0.21268564545E+04  0.46999998093E+01 0.  1.
</event>
<event>
 5   0  0.2933506E-07  0.3307055E+04  0.7818609E-02  0.8161103E-01
        1   -1    0    0  501    0  0.00000000000E+00  0.00000000000E+00  0.28175849410E+04  0.28175849410E+04  0.50400001928E-02 0. -1.
       -1   -1    0    0    0  501  0.00000000000E+00  0.00000000000E+00 -0.97038876376E+03  0.97038876377E+03  0.50400001928E-02 0.  1.
    10030    2    1    2    0    0  0.00000000000E+00  0.00000000000E+00  0.18471961773E+04  0.37879737048E+04  0.33070547427E+04 0.  0.
        4    1    3    3  502    0 -0.33332327013E+03 -0.11676772086E+04  0.22091152503E+04  0.25208661741E+04  0.12699999809E+01 0. -1.
       -4    1    3    3    0  502  0.33332327013E+03  0.11676772086E+04 -0.36191907301E+03  0.12671075307E+04  0.12699999809E+01 0.  1.
</event>
<event>
 5   0  0.3061330E-07  0.3413076E+04  0.7818609E-02  0.8134704E-01
       -1   -1    0    0    0  501  0.00000000000E+00  0.00000000000E+00  0.16268256688E+04  0.16268256688E+04  0.50400001928E-02 0.  1.
        1   -1    0    0  501    0  0.00000000000E+00  0.00000000000E+00 -0.17901566422E+04  0.17901566422E+04  0.50400001928E-02 0. -1.
    10030    2    1    2    0    0  0.00000000000E+00  0.00000000000E+00 -0.16333097345E+03  0.34169823110E+04  0.34130764871E+04 0.  0.
        5    1    3    3  502    0 -0.11657450858E+04  0.77359295098E+03  0.89661344414E+03  0.16617296462E+04  0.46999998093E+01 0.  1.
       -5    1    3    3    0  502  0.11657450858E+04 -0.77359295098E+03 -0.10599444176E+04  0.17552526648E+04  0.46999998093E+01 0. -1.
</event>
<event>
 5   0  0.8950809E-07  0.3461676E+04  0.7818609E-02  0.8122933E-01
        2   -1    0    0  501    0  0.00000000000E+00  0.00000000000E+00  0.22612190920E+04  0.22612190920E+04  0.25500000920E-02 0. -1.
       -2   -1    0    0    0  501  0.00000000000E+00  0.00000000000E+00 -0.13248605576E+04  0.13248605576E+04  0.25500000920E-02 0.  1.
    10030    2    1    2    0    0  0.00000000000E+00  0.00000000000E+00  0.93635853445E+03  0.35860796496E+04  0.34616758872E+04 0.  0.
        2    1    3    3  502    0 -0.12222565507E+04  0.86582702181E+03  0.13666616564E+04  0.20276418792E+04  0.25500000920E-02 0. -1.
       -2    1    3    3    0  502  0.12222565507E+04 -0.86582702181E+03 -0.43030312192E+03  0.15584377704E+04  0.25500000920E-02 0.  1.
</event>
<event>
 5   0  0.2933506E-07  0.3516542E+04  0.7818609E-02  0.8109881E-01
        1   -1    0    0  501    0  0.00000000000E+00  0.00000000000E+00  0.22801512386E+04  0.22801512386E+04  0.50400001928E-02 0. -1.
       -1   -1    0    0    0  501  0.00000000000E+00  0.00000000000E+00 -0.13558382271E+04  0.13558382271E+04  0.50400001928E-02 0.  1.
    10030    2    1    2    0    0  0.00000000000E+00  0.00000000000E+00  0.92431301155E+03  0.36359894657E+04  0.35165416038E+04 0.  0.
        4    1    3    3  502    0 -0.74183281765E+03  0.90259522054E+03 -0.89644700008E+03  0.14726210980E+04  0.12699999809E+01 0.  1.
       -4    1    3    3    0  502  0.74183281765E+03 -0.90259522054E+03  0.18207600116E+04  0.21633683677E+04  0.12699999809E+01 0. -1.
</event>
<event>
 5   0  0.8845195E-07  0.3314893E+04  0.7818609E-02  0.8159116E-01
        2   -1    0    0  501    0  0.00000000000E+00  0.00000000000E+00  0.20645840264E+04  0.20645840264E+04  0.25500000920E-02 0. -1.
       -2   -1    0    0    0  501  0.00000000000E+00  0.00000000000E+00 -0.13305966367E+04  0.13305966367E+04  0.25500000920E-02 0.  1.
    10030    2    1    2    0    0  0.00000000000E+00  0.00000000000E+00  0.73398738970E+03  0.33951806630E+04  0.33148927956E+04 0.  0.
        5    1    3    3  502    0  0.11111092023E+04  0.11237942929E+04  0.87872394792E+03  0.18082187752E+04  0.46999998093E+01 0.  1.
       -5    1    3    3    0  502 -0.11111092023E+04 -0.11237942929E+04 -0.14473655823E+03  0.15869618878E+04  0.46999998093E+01 0. -1.
</event>
<event>
 5   0  0.3061330E-07  0.3488146E+04  0.7818609E-02  0.8116605E-01
        1   -1    0    0  501    0  0.00000000000E+00  0.00000000000E+00  0.15299925689E+04  0.15299925689E+04  0.50400001928E-02 0.  1.
       -1   -1    0    0    0  501  0.00000000000E+00  0.00000000000E+00 -0.19881086339E+04  0.19881086339E+04  0.50400001928E-02 0. -1.
    10030    2    1    2    0    0  0.00000000000E+00  0.00000000000E+00 -0.45811606499E+03  0.35181012027E+04  0.34881464625E+04 0.  0.
        5    1    3    3  502    0  0.13269358335E+04  0.10974066289E+03 -0.13652164427E+04  0.19069975733E+04  0.46999998093E+01 0. -1.
       -5    1    3    3    0  502 -0.13269358335E+04 -0.10974066289E+03  0.90710037770E+03  0.16111036294E+04  0.46999998093E+01 0.  1.
</event>
<event>
 5   0  0.2933506E-07  0.3505314E+04  0.7818609E-02  0.8112532E-01
        1   -1    0    0  501    0  0.00000000000E+00  0.00000000000E+00  0.24255768426E+04  0.24255768426E+04  0.50400001928E-02 0. -1.
       -1   -1    0    0    0  501  0.00000000000E+00  0.00000000000E+00 -0.12664229419E+04  0.12664229419E+04  0.50400001928E-02 0.  1.
    10030    2    1    2    0    0  0.00000000000E+00  0.00000000000E+00  0.11591539007E+04  0.36919997846E+04  0.35053137725E+04 0.  0.
        4    1    3    3  502    0  0.12944831744E+04  0.78228340076E+03 -0.35310697276E+03  0.15531709999E+04  0.12699999809E+01 0. -1.
       -4    1    3    3    0  502 -0.12944831744E+04 -0.78228340076E+03  0.15122608734E+04  0.21388287847E+04  0.12699999809E+01 0.  1.
</event>
<event>
 5   0  0.8950809E-07  0.3578641E+04  0.7818609E-02  0.8095402E-01
        2   -1    0    0  501    0  0.00000000000E+00  0.00000000000E+00  0.15053584824E+04  0.15053584825E+04  0.25500000920E-02 0.  1.
       -2   -1    0    0    0  501  0.00000000000E+00  0.00000000000E+00 -0.21268475720E+04  0.21268475720E+04  0.25500000920E-02 0. -1.
    10030    2    1    2    0    0  0.00000000000E+00  0.00000000000E+00 -0.62148908951E+03  0.36322060544E+04  0.35786411015E+04 0.  0.
        2    1    3    3  502    0  0.97464157579E+03  0.14999010243E+04 -0.26491619050E+03  0.18082615607E+04  0.25500000920E-02 0.  1.
       -2    1    3    3    0  502 -0.97464157579E+03 -0.14999010243E+04 -0.35657289901E+03  0.18239444937E+04  0.25500000920E-02 0. -1.
</event>
<event>
 5   0  0.3061330E-07  0.3500106E+04  0.7818609E-02  0.8113765E-01
        1   -1    0    0  501    0  0.00000000000E+00  0.00000000000E+00  0.14650738336E+04  0.14650738336E+04  0.50400001928E-02 0. -1.
       -1   -1    0    0    0  501  0.00000000000E+00  0.00000000000E+00 -0.20904645900E+04  0.20904645900E+04  0.50400001928E-02 0.  1.
    10030    2    1    2    0    0  0.00000000000E+00  0.00000000000E+00 -0.62539075635E+03  0.35555384236E+04  0.35001056961E+04 0.  0.
        5    1    3    3  502    0 -0.56234010803E+03  0.32999171817E+03 -0.19624672883E+04  0.20679508889E+04  0.46999998093E+01 0.  1.
       -5    1    3    3    0  502  0.56234010803E+03 -0.32999171817E+03  0.13370765320E+04  0.14875875347E+04  0.46999998093E+01 0. -1.
</event>
<event>
 5   0  0.9128871E-07  0.3532021E+04  0.7818609E-02  0.8106243E-01
        2   -1    0    0  501    0  0.00000000000E+00  0.00000000000E+00  0.20747115152E+04  0.20747115152E+04  0.25500000920E-02 0. -1.
       -2   -1    0    0    0  501  0.00000000000E+00  0.00000000000E+00 -0.15032419468E+04  0.15032419468E+04  0.25500000920E-02 0.  1.
    10030    2    1    2    0    0  0.00000000000E+00  0.00000000000E+00  0.57146956838E+03  0.35779534620E+04  0.35320211648E+04 0.  0.
        1    1    3    3  502    0  0.96131721421E+03 -0.17326663786E+03 -0.12046704138E+04  0.15509296954E+04  0.50400001928E-02 0.  1.
       -1    1    3    3    0  502 -0.96131721421E+03  0.17326663786E+03  0.17761399822E+04  0.20270237666E+04  0.50400001928E-02 0. -1.
</event>
<event>
 5   0  0.2933506E-07  0.3460616E+04  0.7818609E-02  0.8123187E-01
       -1   -1    0    0    0  501  0.00000000000E+00  0.00000000000E+00  0.12842003053E+04  0.12842003053E+04  0.50400001928E-02 0.  1.
        1   -1    0    0  501    0  0.00000000000E+00  0.00000000000E+00 -0.23313854689E+04  0.23313854689E+04  0.50400001928E-02 0. -1.
    10030    2    1    2    0    0  0.00000000000E+00  0.00000000000E+00 -0.10471851636E+04  0.36155857742E+04  0.34606160902E+04 0.  0.
        4    1    3    3  502    0 -0.15240499415E+04 -0.93663433875E+02  0.32677391898E+03  0.15615005188E+04  0.12699999809E+01 0.  1.
       -4    1    3    3    0  502  0.15240499415E+04  0.93663433875E+02 -0.13739590826E+04  0.20540852554E+04  0.12699999809E+01 0. -1.
</event>
<event>
 5   0  0.8845195E-07  0.3538536E+04  0.7818609E-02  0.8104718E-01
        2   -1    0    0  501    0  0.00000000000E+00  0.00000000000E+00  0.14804749542E+04  0.14804749542E+04  0.25500000920E-02 0.  1.
       -2   -1    0    0    0  501  0.00000000000E+00  0.00000000000E+00 -0.21143949850E+04  0.21143949850E+04  0.25500000920E-02 0. -1.
    10030    2    1    2    0    0  0.00000000000E+00  0.00000000000E+00 -0.63392003080E+03  0.35948699392E+04  0.35385357529E+04 0.  0.
        5    1    3    3  502    0  0.10759379272E+04  0.12661983293E+04  0.30048724309E+03  0.16885542057E+04  0.46999998093E+01 0. -1.
       -5    1    3    3    0  502 -0.10759379272E+04 -0.12661983293E+04 -0.93440727389E+03  0.19063157335E+04  0.46999998093E+01 0.  1.
</event>
<event>
 5   0  0.9311672E-07  0.3491597E+04  0.7818609E-02  0.8115784E-01
        2   -1    0    0  501    0  0.00000000000E+00  0.00000000000E+00  0.27009540497E+04  0.27009540497E+04  0.25500000920E-02 0. -1.
       -2   -1    0    0    0  501  0.00000000000E+00  0.00000000000E+00 -0.11284209703E+04  0.11284209703E+04  0.25500000920E-02 0.  1.
    10030    2    1    2    0    0  0.00000000000E+00  0.00000000000E+00  0.15725330794E+04  0.38293750199E+04  0.34915974506E+04 0.  0.
        4    1    3    3  502    0  0.11767795827E+04  0.13005843717E+03 -0.62084983934E+03  0.13368550853E+04  0.12699999809E+01 0.  1.
       -4    1    3    3    0  502 -0.11767795827E+04 -0.13005843717E+03  0.21933829188E+04  0.24925199346E+04  0.12699999809E+01 0. -1.
</event>
<event>
 5   0  0.8950809E-07  0.3465286E+04  0.7818609E-02  0.8122066E-01
        2   -1    0    0  501    0  0.00000000000E+00  0.00000000000E+00  0.25966914572E+04  0.25966914572E+04  0.25500000920E-02 0.  1.
       -2   -1    0    0    0  501  0.00000000000E+00  0.00000000000E+00 -0.11561066599E+04  0.11561066599E+04  0.25500000920E-02 0. -1.
    10030    2    1    2    0    0  0.00000000000E+00  0.00000000000E+00  0.14405847974E+04  0.37527981171E+04  0.34652863012E+04 0.  0.
        2    1    3    3  502    0 -0.16535327515E+04  0.42474911793E+03  0.40000088674E+03  0.17534489108E+04  0.25500000920E-02 0. -1.
       -2    1    3    3    0  502  0.16535327515E+04 -0.42474911793E+03  0.10405839106E+04  0.19993492063E+04  0.25500000920E-02 0.  1.
</event>
<event>
 5   0  0.9311672E-07  0.3450043E+04  0.7818609E-02  0.8125732E-01
       -2   -1    0    0    0  501  0.00000000000E+00  0.00000000000E+00  0.11470514020E+04  0.11470514020E+04  0.25500000920E-02 0. -1.
        2   -1    0    0  501    0  0.00000000000E+00  0.00000000000E+00 -0.25942165103E+04  0.25942165103E+04  0.25500000920E-02 0.  1.
    10030    2    1    2    0    0  0.00000000000E+00  0.00000000000E+00 -0.14471651083E+04  0.37412679123E+04  0.34500432955E+04 0.  0.
        4    1    3    3  502    0  0.12008699424E+04 -0.49961528577E+03 -0.19523671674E+04  0.23459418623E+04  0.12699999809E+01 0.  1.
       -4    1    3    3    0  502 -0.12008699424E+04  0.49961528577E+03  0.50520205912E+03  0.13953260499E+04  0.12699999809E+01 0. -1.
</event>
<event>
 5   0  0.8845195E-07  0.3512501E+04  0.7818609E-02  0.8110834E-01
       -2   -1    0    0    0  501  0.00000000000E+00  0.00000000000E+00  0.11766967190E+04  0.11766967190E+04  0.25500000920E-02 0.  1.
        2   -1    0    0  501    0  0.00000000000E+00  0.00000000000E+00 -0.26212490409E+04  0.26212490409E+04  0.25500000920E-02 0. -1.
    10030    2    1    2    0    0  0.00000000000E+00  0.00000000000E+00 -0.14445523219E+04  0.37979457599E+04  0.35125006170E+04 0.  0.
        5    1    3    3  502    0  0.39130579858E+03 -0.34029204035E+03  0.10920197487E+04  0.12089036861E+04  0.46999998093E+01 0.  1.
       -5    1    3    3    0  502 -0.39130579858E+03  0.34029204035E+03 -0.25365720706E+04  0.25890420738E+04  0.46999998093E+01 0. -1.
</event>
<event>
 5   0  0.9128871E-07  0.3529361E+04  0.7818609E-02  0.8106867E-01
        2   -1    0    0  501    0  0.00000000000E+00  0.00000000000E+00  0.24845877435E+04  0.24845877435E+04  0.25500000920E-02 0.  1.
       -2   -1    0    0    0  501  0.00000000000E+00  0.00000000000E+00 -0.12533654597E+04  0.12533654597E+04  0.25500000920E-02 0. -1.
    10030    2    1    2    0    0  0.00000000000E+00  0.00000000000E+00  0.12312222837E+04  0.37379532032E+04  0.35293605423E+04 0.  0.
        1    1    3    3  502    0 -0.14262111190E+04 -0.14080311336E+03  0.17061226587E+04  0.22281737363E+04  0.50400001928E-02 0.  1.
       -1    1    3    3    0  502  0.14262111190E+04  0.14080311336E+03 -0.47490037491E+03  0.15097794669E+04  0.50400001928E-02 0. -1.
</event>
<event>
 5   0  0.2933506E-07  0.3528964E+04  0.7818609E-02  0.8106960E-01
       -1   -1    0    0    0  501  0.00000000000E+00  0.00000000000E+00  0.28058006426E+04  0.28058006426E+04  0.50400001928E-02 0. -1.
        1   -1    0    0  501    0  0.00000000000E+00  0.00000000000E+00 -0.11096284923E+04  0.11096284923E+04  0.50400001928E-02 0.  1.
    10030    2    1    2    0    0  0.00000000000E+00  0.00000000000E+00  0.16961721503E+04  0.39154291350E+04  0.35289637782E+04 0.  0.
        4    1    3    3  502    0  0.17546044299E+04 -0.25157277719E+02  0.10530461748E+04  0.20465037145E+04  0.12699999809E+01 0. -1.
       -4    1    3    3    0  502 -0.17546044299E+04  0.25157277719E+02  0.64312597552E+03  0.18689254205E+04  0.12699999809E+01 0.  1.
</event>
<event>
 5   0  0.2936607E-07  0.3510667E+04  0.7818609E-02  0.8111267E-01
        1   -1    0    0  501    0  0.00000000000E+00  0.00000000000E+00  0.23620508249E+04  0.23620508249E+04  0.50400001928E-02 0. -1.
       -1   -1    0    0    0  501  0.00000000000E+00  0.00000000000E+00 -0.13044577580E+04  0.13044577580E+04  0.50400001928E-02 0.  1.
    10030    2    1    2    0    0  0.00000000000E+00  0.00000000000E+00  0.10575930669E+04  0.36665085829E+04  0.35106669015E+04 0.  0.
        2    1    3    3  502    0 -0.94467738455E+03  0.71859328792E+03  0.18794180384E+04  0.22228368895E+04  0.25500000920E-02 0. -1.
       -2    1    3    3    0  502  0.94467738455E+03 -0.71859328792E+03 -0.82182497154E+03  0.14436716934E+04  0.25500000920E-02 0.  1.
</event>
<event>
 5   0  0.2933506E-07  0.3479580E+04  0.7818609E-02  0.8118646E-01
        1   -1    0    0  501    0  0.00000000000E+00  0.00000000000E+00  0.22008327708E+04  0.22008327708E+04  0.50400001928E-02 0.  1.
       -1   -1    0    0    0  501  0.00000000000E+00  0.00000000000E+00 -0.13753287761E+04  0.13753287761E+04  0.50400001928E-02 0. -1.
    10030    2    1    2    0    0  0.00000000000E+00  0.00000000000E+00  0.82550399465E+03  0.35761615469E+04  0.34795796534E+04 0.  0.
        4    1    3    3  502    0 -0.16589250237E+04 -0.17627473201E+02  0.95124561205E+03  0.19123840590E+04  0.12699999809E+01 0.  1.
       -4    1    3    3    0  502  0.16589250237E+04  0.17627473201E+02 -0.12574161740E+03  0.16637774879E+04  0.12699999809E+01 0. -1.
</event>
<event>
 5   0  0.9128871E-07  0.3514591E+04  0.7818609E-02  0.8110341E-01
       -2   -1    0    0    0  501  0.00000000000E+00  0.00000000000E+00  0.22339139661E+04  0.22339139661E+04  0.25500000920E-02 0.  1.
        2   -1    0    0  501    0  0.00000000000E+00  0.00000000000E+00 -0.13823661861E+04  0.13823661861E+04  0.25500000920E-02 0. -1.
    10030    2    1    2    0    0  0.00000000000E+00  0.00000000000E+00  0.85154778001E+03  0.36162801521E+04  0.35145908036E+04 0.  0.
        1    1    3    3  502    0 -0.93592651619E+03 -0.60161362465E+03 -0.97379871370E+03  0.14785740874E+04  0.50400001928E-02 0. -1.
       -1    1    3    3    0  502  0.93592651619E+03  0.60161362465E+03  0.18253464937E+04  0.21377060647E+04  0.50400001928E-02 0.  1.
</event>
<event>
 5   0  0.3026332E-07  0.2863431E+04  0.7818609E-02  0.8283842E-01
       -1   -1    0    0    0  501  0.00000000000E+00  0.00000000000E+00  0.11567028390E+04  0.11567028391E+04  0.50400001928E-02 0.  1.
        1   -1    0    0  501    0  0.00000000000E+00  0.00000000000E+00 -0.17721140229E+04  0.17721140229E+04  0.50400001928E-02 0. -1.
    10030    2    1    2    0    0  0.00000000000E+00  0.00000000000E+00 -0.61541118388E+03  0.29288168620E+04  0.28634310339E+04 0.  0.
        1    1    3    3  502    0  0.34698212254E+03  0.72937368883E+03 -0.15168272904E+04  0.17184724613E+04  0.50400001928E-02 0. -1.
       -1    1    3    3    0  502 -0.34698212254E+03 -0.72937368883E+03  0.90141610648E+03  0.12103444007E+04  0.50400001928E-02 0.  1.
</event>
<event>
 5   0  0.3061330E-07  0.3480891E+04  0.7818609E-02  0.8118334E-01
       -1   -1    0    0    0  501  0.00000000000E+00  0.00000000000E+00  0.16512649547E+04  0.16512649547E+04  0.50400001928E-02 0. -1.
        1   -1    0    0  501    0  0.00000000000E+00  0.00000000000E+00 -0.18344420933E+04  0.18344420933E+04  0.50400001928E-02 0.  1.
    10030    2    1    2    0    0  0.00000000000E+00  0.00000000000E+00 -0.18317713860E+03  0.34857070480E+04  0.34808906562E+04 0.  0.
        5    1    3    3  502    0  0.15923425632E+04 -0.53698857979E+03  0.36204627430E+03  0.17190145922E+04  0.46999998093E+01 0. -1.
       -5    1    3    3    0  502 -0.15923425632E+04  0.53698857979E+03 -0.54522341290E+03  0.17666924558E+04  0.46999998093E+01 0.  1.
</event>
<event>
 5   0  0.2972541E-07  0.3500171E+04  0.7818609E-02  0.8113750E-01
        1   -1    0    0  501    0  0.00000000000E+00  0.00000000000E+00  0.20419268976E+04  0.20419268976E+04  0.50400001928E-02 0.  1.
       -1   -1    0    0    0  501  0.00000000000E+00  0.00000000000E+00 -0.14999550822E+04  0.14999550822E+04  0.50400001928E-02 0. -1.
    10030    2    1    2    0    0  0.00000000000E+00  0.00000000000E+00  0.54197181546E+03  0.35418819798E+04  0.35001706402E+04 0.  0.
        3    1    3    3  502    0 -0.14332753601E+04 -0.61490632924E+03 -0.53245993870E+03  0.16479992865E+04  0.10100000352E+00 0. -1.
       -3    1    3    3    0  502  0.14332753601E+04  0.61490632924E+03  0.10744317542E+04  0.18938826934E+04  0.10100000352E+00 0.  1.
</event>
<event>
 5   0  0.8950809E-07  0.3506282E+04  0.7818609E-02  0.8112303E-01
       -2   -1    0    0    0  501  0.00000000000E+00  0.00000000000E+00  0.12121966994E+04  0.12121966994E+04  0.25500000920E-02 0. -1.
        2   -1    0    0  501    0  0.00000000000E+00  0.00000000000E+00 -0.25354825602E+04  0.25354825602E+04  0.25500000920E-02 0.  1.
    10030    2    1    2    0    0  0.00000000000E+00  0.00000000000E+00 -0.13232858608E+04  0.37476792596E+04  0.35062821284E+04 0.  0.
        2    1    3    3  502    0 -0.15638696288E+04 -0.78270281963E+03 -0.52990272562E+03  0.18273228555E+04  0.25500000920E-02 0. -1.
       -2    1    3    3    0  502  0.15638696288E+04  0.78270281963E+03 -0.79338313520E+03  0.19203564041E+04  0.25500000920E-02 0.  1.
</event>
<event>
 5   0  0.8950809E-07  0.3490011E+04  0.7818609E-02  0.8116161E-01
       -2   -1    0    0    0  501  0.00000000000E+00  0.00000000000E+00  0.13960845987E+04  0.13960845987E+04  0.25500000920E-02 0.  1.
        2   -1    0    0  501    0  0.00000000000E+00  0.00000000000E+00 -0.21811318256E+04  0.21811318256E+04  0.25500000920E-02 0. -1.
    10030    2    1    2    0    0  0.00000000000E+00  0.00000000000E+00 -0.78504722685E+03  0.35772164243E+04  0.34900112031E+04 0.  0.
        2    1    3    3  502    0  0.11587071106E+03  0.38784717038E+03 -0.21323446514E+04  0.21704251108E+04  0.25500000920E-02 0. -1.
       -2    1    3    3    0  502 -0.11587071106E+03 -0.38784717038E+03  0.13472974246E+04  0.14067913134E+04  0.25500000920E-02 0.  1.
</event>
<event>
 5   0  0.9311672E-07  0.3507229E+04  0.7818609E-02  0.8112079E-01
        2   -1    0    0  501    0  0.00000000000E+00  0.00000000000E+00  0.14456593544E+04  0.14456593544E+04  0.25500000920E-02 0. -1.
       -2   -1    0    0    0  501  0.00000000000E+00  0.00000000000E+00 -0.21271698390E+04  0.21271698390E+04  0.25500000920E-02 0.  1.
    10030    2    1    2    0    0  0.00000000000E+00  0.00000000000E+00 -0.68151048465E+03  0.35728291934E+04  0.35072285218E+04 0.  0.
        4    1    3    3  502    0  0.53792460576E+03  0.12198962346E+04 -0.15012074340E+04  0.20077686813E+04  0.12699999809E+01 0.  1.
       -4    1    3    3    0  502 -0.53792460576E+03 -0.12198962346E+04  0.81969694935E+03  0.15650605121E+04  0.12699999809E+01 0. -1.
</event>
<event>
 5   0  0.3061330E-07  0.2806694E+04  0.7818609E-02  0.8301193E-01
        1   -1    0    0  501    0  0.00000000000E+00  0.00000000000E+00  0.22672279703E+04  0.22672279703E+04  0.50400001928E-02 0. -1.
       -1   -1    0    0    0  501  0.00000000000E+00  0.00000000000E+00 -0.86863008771E+03  0.86863008772E+03  0.50400001928E-02 0.  1.
    10030    2    1    2    0    0  0.00000000000E+00  0.00000000000E+00  0.13985978826E+04  0.31358580580E+04  0.28066937352E+04 0.  0.
        5    1    3    3  502    0 -0.42666566797E+03 -0.90883053422E+03 -0.39617168769E+03  0.10793473159E+04  0.46999998093E+01 0.  1.
       -5    1    3    3    0  502  0.42666566797E+03  0.90883053422E+03  0.17947695703E+04  0.20565107422E+04  0.46999998093E+01 0. -1.
</event>
<event>
 5   0  0.3026332E-07  0.3492597E+04  0.7818609E-02  0.8115547E-01
       -1   -1    0    0    0  501  0.00000000000E+00  0.00000000000E+00  0.16331747997E+04  0.16331747997E+04  0.50400001928E-02 0.  1.
        1   -1    0    0  501    0  0.00000000000E+00  0.00000000000E+00 -0.18672582230E+04  0.18672582230E+04  0.50400001928E-02 0. -1.
    10030    2    1    2    0    0  0.00000000000E+00  0.00000000000E+00 -0.23408342331E+03  0.35004330227E+04  0.34925973569E+04 0.  0.
        1    1    3    3  502    0  0.97782747756E+03 -0.14468613201E+04 -0.11924180978E+03  0.17503636379E+04  0.50400001928E-02 0.  1.
       -1    1    3    3    0  502 -0.97782747756E+03  0.14468613201E+04 -0.11484161354E+03  0.17500693848E+04  0.50400001928E-02 0. -1.
</event>
<event>
 5   0  0.2936607E-07  0.3474038E+04  0.7818609E-02  0.8119970E-01
        1   -1    0    0  501    0  0.00000000000E+00  0.00000000000E+00  0.15023283091E+04  0.15023283091E+04  0.50400001928E-02 0. -1.
       -1   -1    0    0    0  501  0.00000000000E+00  0.00000000000E+00 -0.20083722080E+04  0.20083722080E+04  0.50400001928E-02 0.  1.
    10030    2    1    2    0    0  0.00000000000E+00  0.00000000000E+00 -0.50604389889E+03  0.35107005171E+04  0.34740376643E+04 0.  0.
        2    1    3    3  502    0  0.82304514361E+03  0.12802754598E+04  0.59290592131E+03  0.16334154379E+04  0.25500000920E-02 0. -1.
       -2    1    3    3    0  502 -0.82304514361E+03 -0.12802754598E+04 -0.10989498202E+04  0.18772850792E+04  0.25500000920E-02 0.  1.
</event>
<event>
 5   0  0.8845195E-07  0.3502971E+04  0.7818609E-02  0.8113086E-01
       -2   -1    0    0    0  501  0.00000000000E+00  0.00000000000E+00  0.17353601966E+04  0.17353601966E+04  0.25500000920E-02 0.  1.
        2   -1    0    0  501    0  0.00000000000E+00  0.00000000000E+00 -0.17677608079E+04  0.17677608079E+04  0.25500000920E-02 0. -1.
    10030    2    1    2    0    0  0.00000000000E+00  0.00000000000E+00 -0.32400611243E+02  0.35031210045E+04  0.35029711636E+04 0.  0.
        5    1    3    3  502    0  0.81198003134E+03 -0.57858808703E+03 -0.14562632590E+04  0.17648797453E+04  0.46999998093E+01 0. -1.
       -5    1    3    3    0  502 -0.81198003134E+03  0.57858808703E+03  0.14238626478E+04  0.17382412593E+04  0.46999998093E+01 0.  1.
</event>
<event>
 5   0  0.2972541E-07  0.3582060E+04  0.7818609E-02  0.8094614E-01
        1   -1    0    0  501    0  0.00000000000E+00  0.00000000000E+00  0.16869797219E+04  0.16869797219E+04  0.50400001928E-02 0.  1.
       -1   -1    0    0    0  501  0.00000000000E+00  0.00000000000E+00 -0.19014975744E+04  0.19014975744E+04  0.50400001928E-02 0. -1.
    10030    2    1    2    0    0  0.00000000000E+00  0.00000000000E+00 -0.21451785254E+03  0.35884772963E+04  0.35820596585E+04 0.  0.
        3    1    3    3  502    0  0.97678296976E+03 -0.13135182757E+04 -0.83543988127E+03  0.18377690378E+04  0.10100000352E+00 0. -1.
       -3    1    3    3    0  502 -0.97678296976E+03  0.13135182757E+04  0.62092202873E+03  0.17507082586E+04  0.10100000352E+00 0.  1.
</event>
<event>
 5   0  0.2936607E-07  0.3541728E+04  0.7818609E-02  0.8103972E-01
       -1   -1    0    0    0  501  0.00000000000E+00  0.00000000000E+00  0.20991407821E+04  0.20991407821E+04  0.50400001928E-02 0.  1.
        1   -1    0    0  501    0  0.00000000000E+00  0.00000000000E+00 -0.14939248661E+04  0.14939248661E+04  0.50400001928E-02 0. -1.
    10030    2    1    2    0    0  0.00000000000E+00  0.00000000000E+00  0.60521591603E+03  0.35930656483E+04  0.35417276078E+04 0.  0.
        2    1    3    3  502    0 -0.12553164815E+04 -0.62875277499E+03  0.13975153081E+04  0.19809589994E+04  0.25500000920E-02 0.  1.
       -2    1    3    3    0  502  0.12553164815E+04  0.62875277499E+03 -0.79229939211E+03  0.16121066489E+04  0.25500000920E-02 0. -1.
</event>
<event>
 5   0  0.6188930E-07  0.3444052E+04  0.7818609E-02  0.8127178E-01
        2   -1    0    0  501    0  0.00000000000E+00  0.00000000000E+00  0.21410427240E+04  0.21410427240E+04  0.25500000920E-02 0.  1.
       -2   -1    0    0    0  501  0.00000000000E+00  0.00000000000E+00 -0.13850133589E+04  0.13850133589E+04  0.25500000920E-02 0. -1.
    10030    2    1    2    0    0  0.00000000000E+00  0.00000000000E+00  0.75602936508E+03  0.35260560829E+04  0.34440515528E+04 0.  0.
        3    1    3    3  502    0 -0.35316287299E+03 -0.13596161424E+04  0.13977693408E+04  0.19816758589E+04  0.10100000352E+00 0.  1.
       -3    1    3    3    0  502  0.35316287299E+03  0.13596161424E+04 -0.64173997573E+03  0.15443802239E+04  0.10100000352E+00 0. -1.
</event>
<event>
 5   0  0.2972541E-07  0.3504865E+04  0.7818609E-02  0.8112638E-01
        1   -1    0    0  501    0  0.00000000000E+00  0.00000000000E+00  0.11833925365E+04  0.11833925366E+04  0.50400001928E-02 0. -1.
       -1   -1    0    0    0  501  0.00000000000E+00  0.00000000000E+00 -0.25950976870E+04  0.25950976870E+04  0.50400001928E-02 0.  1.
    10030    2    1    2    0    0  0.00000000000E+00  0.00000000000E+00 -0.14117051505E+04  0.37784902236E+04  0.35048647531E+04 0.  0.
        3    1    3    3  502    0 -0.90786122834E+03  0.48347615154E+03  0.82373795291E+03  0.13177653146E+04  0.10100000352E+00 0. -1.
       -3    1    3    3    0  502  0.90786122834E+03 -0.48347615154E+03 -0.22354431034E+04  0.24607249090E+04  0.10100000352E+00 0.  1.
</event>
<event>
 5   0  0.2972541E-07  0.3511808E+04  0.7818609E-02  0.8110997E-01
       -1   -1    0    0    0  501  0.00000000000E+00  0.00000000000E+00  0.16837281304E+04  0.16837281305E+04  0.50400001928E-02 0.  1.
        1   -1    0    0  501    0  0.00000000000E+00  0.00000000000E+00 -0.18311736927E+04  0.18311736927E+04  0.50400001928E-02 0. -1.
    10030    2    1    2    0    0  0.00000000000E+00  0.00000000000E+00 -0.14744556229E+03  0.35149018232E+04  0.35118078867E+04 0.  0.
        3    1    3    3  502    0 -0.64033079156E+03 -0.80753362912E+02 -0.17081507500E+04  0.18260130402E+04  0.10100000352E+00 0. -1.
       -3    1    3    3    0  502  0.64033079156E+03  0.80753362912E+02  0.15607051877E+04  0.16888887830E+04  0.10100000352E+00 0.  1.
</event>
<event>
 5   0  0.3026332E-07  0.3538050E+04  0.7818609E-02  0.8104831E-01
        1   -1    0    0  501    0  0.00000000000E+00  0.00000000000E+00  0.13210152957E+04  0.13210152957E+04  0.50400001928E-02 0.  1.
       -1   -1    0    0    0  501  0.00000000000E+00  0.00000000000E+00 -0.23689722561E+04  0.23689722561E+04  0.50400001928E-02 0. -1.
    10030    2    1    2    0    0  0.00000000000E+00  0.00000000000E+00 -0.10479569604E+04  0.36899875518E+04  0.35380495109E+04 0.  0.
        1    1    3    3  502    0 -0.12440768827E+04 -0.11288402158E+04 -0.11022634852E+04  0.20092267950E+04  0.50400001928E-02 0. -1.
       -1    1    3    3    0  502  0.12440768827E+04  0.11288402158E+04  0.54306524827E+02  0.16807607568E+04  0.50400001928E-02 0.  1.
</event>
<event>
 5   0  0.8845195E-07  0.3091080E+04  0.7818609E-02  0.8218190E-01
        2   -1    0    0  501    0  0.00000000000E+00  0.00000000000E+00  0.20915603201E+04  0.20915603201E+04  0.25500000920E-02 0.  1.
       -2   -1    0    0    0  501  0.00000000000E+00  0.00000000000E+00 -0.11420627529E+04  0.11420627529E+04  0.25500000920E-02 0. -1.
    10030    2    1    2    0    0  0.00000000000E+00  0.00000000000E+00  0.94949756721E+03  0.32336230731E+04  0.30910795118E+04 0.  0.
        5    1    3    3  502    0  0.14905640668E+04  0.21081833190E+03  0.84080731092E+03  0.17242983009E+04  0.46999998093E+01 0.  1.
       -5    1    3    3    0  502 -0.14905640668E+04 -0.21081833190E+03  0.10869025629E+03  0.15093247722E+04  0.46999998093E+01 0. -1.
</event>
<event>
 5   0  0.2936607E-07  0.3068565E+04  0.7818609E-02  0.8224418E-01
        1   -1    0    0  501    0  0.00000000000E+00  0.00000000000E+00  0.15347962214E+04  0.15347962214E+04  0.50400001928E-02 0. -1.
       -1   -1    0    0    0  501  0.00000000000E+00  0.00000000000E+00 -0.15337688675E+04  0.15337688675E+04  0.50400001928E-02 0.  1.
    10030    2    1    2    0    0  0.00000000000E+00  0.00000000000E+00  0.10273539179E+01  0.30685650889E+04  0.30685649169E+04 0.  0.
        2    1    3    3  502    0  0.16407515999E+03  0.15111287299E+04  0.20930057976E+03  0.15343524462E+04  0.25500000920E-02 0. -1.
       -2    1    3    3    0  502 -0.16407515999E+03 -0.15111287299E+04 -0.20827322585E+03  0.15342126427E+04  0.25500000920E-02 0.  1.
</event>
<event>
 5   0  0.2936607E-07  0.3474062E+04  0.7818609E-02  0.8119965E-01
        1   -1    0    0  501    0  0.00000000000E+00  0.00000000000E+00  0.18797406990E+04  0.18797406990E+04  0.50400001928E-02 0.  1.
       -1   -1    0    0    0  501  0.00000000000E+00  0.00000000000E+00 -0.16051556994E+04  0.16051556994E+04  0.50400001928E-02 0. -1.
    10030    2    1    2    0    0  0.00000000000E+00  0.00000000000E+00  0.27458499963E+03  0.34848963985E+04  0.34740618857E+04 0.  0.
        2    1    3    3  502    0 -0.16835667188E+02 -0.89507666819E+03  0.16305015720E+04  0.18601024321E+04  0.25500000920E-02 0.  1.
       -2    1    3    3    0  502  0.16835667188E+02  0.89507666819E+03 -0.13559165724E+04  0.16247939663E+04  0.25500000920E-02 0. -1.
</event>
<event>
 5   0  0.6188930E-07  0.3533179E+04  0.7818609E-02  0.8105972E-01
        2   -1    0    0  501    0  0.00000000000E+00  0.00000000000E+00  0.16539872813E+04  0.16539872813E+04  0.25500000920E-02 0. -1.
       -2   -1    0    0    0  501  0.00000000000E+00  0.00000000000E+00 -0.18868579149E+04  0.18868579149E+04  0.25500000920E-02 0.  1.
    10030    2    1    2    0    0  0.00000000000E+00  0.00000000000E+00 -0.23287063362E+03  0.35408451962E+04  0.35331793008E+04 0.  0.
        3    1    3    3  502    0  0.10115470717E+04 -0.34489246406E+03  0.12932654169E+04  0.16777108627E+04  0.10100000352E+00 0. -1.
       -3    1    3    3    0  502 -0.10115470717E+04  0.34489246406E+03 -0.15261360505E+04  0.18631343335E+04  0.10100000352E+00 0.  1.
</event>
<event>
 5   0  0.9311672E-07  0.3300240E+04  0.7818609E-02  0.8162834E-01
       -2   -1    0    0    0  501  0.00000000000E+00  0.00000000000E+00  0.12100453567E+04  0.12100453567E+04  0.25500000920E-02 0. -1.
        2   -1    0    0  501    0  0.00000000000E+00  0.00000000000E+00 -0.22502428613E+04  0.22502428613E+04  0.25500000920E-02 0.  1.
    10030    2    1    2    0    0  0.00000000000E+00  0.00000000000E+00 -0.10401975045E+04  0.34602882180E+04  0.33002399463E+04 0.  0.
        4    1    3    3  502    0  0.11067343055E+04 -0.63268340359E+03  0.57844543602E+03  0.13999106570E+04  0.12699999809E+01 0.  1.
       -4    1    3    3    0  502 -0.11067343055E+04  0.63268340359E+03 -0.16186429406E+04  0.20603775610E+04  0.12699999809E+01 0. -1.
</event>
<event>
 5   0  0.9311672E-07  0.3513247E+04  0.7818609E-02  0.8110658E-01
        2   -1    0    0  501    0  0.00000000000E+00  0.00000000000E+00  0.23802979575E+04  0.23802979575E+04  0.25500000920E-02 0.  1.
       -2   -1    0    0    0  501  0.00000000000E+00  0.00000000000E+00 -0.12963611832E+04  0.12963611832E+04  0.25500000920E-02 0. -1.
    10030    2    1    2    0    0  0.00000000000E+00  0.00000000000E+00  0.10839367743E+04  0.36766591407E+04  0.35132468610E+04 0.  0.
        4    1    3    3  502    0 -0.10523520813E+04 -0.12777384271E+04 -0.73310053050E+02  0.16569358370E+04  0.12699999809E+01 0.  1.
       -4    1    3    3    0  502  0.10523520813E+04  0.12777384271E+04  0.11572468273E+04  0.20197233037E+04  0.12699999809E+01 0. -1.
</event>
<event>
 5   0  0.3061330E-07  0.3496001E+04  0.7818609E-02  0.8114738E-01
        1   -1    0    0  501    0  0.00000000000E+00  0.00000000000E+00  0.97844256765E+03  0.97844256766E+03  0.50400001928E-02 0. -1.
       -1   -1    0    0    0  501  0.00000000000E+00  0.00000000000E+00 -0.31228258054E+04  0.31228258054E+04  0.50400001928E-02 0.  1.
    10030    2    1    2    0    0  0.00000000000E+00  0.00000000000E+00 -0.21443832378E+04  0.41012683731E+04  0.34960009722E+04 0.  0.
        5    1    3    3  502    0  0.57859370686E+03 -0.15050534543E+04 -0.18639701486E+04  0.24646223611E+04  0.46999998093E+01 0.  1.
       -5    1    3    3    0  502 -0.57859370686E+03  0.15050534543E+04 -0.28041308918E+03  0.16366460120E+04  0.46999998093E+01 0. -1.
</event>
<event>
 5   0  0.2972541E-07  0.3510531E+04  0.7818609E-02  0.8111299E-01
        1   -1    0    0  501    0  0.00000000000E+00  0.00000000000E+00  0.23796700060E+04  0.23796700060E+04  0.50400001928E-02 0.  1.
       -1   -1    0    0    0  501  0.00000000000E+00  0.00000000000E+00 -0.12946994868E+04  0.12946994868E+04  0.50400001928E-02 0. -1.
    10030    2    1    2    0    0  0.00000000000E+00  0.00000000000E+00  0.10849705192E+04  0.36743694929E+04  0.35105313191E+04 0.  0.
        3    1    3    3  502    0 -0.93519233309E+03  0.10757135795E+04  0.16146013922E+04  0.21537599845E+04  0.10100000352E+00 0.  1.
       -3    1    3    3    0  502  0.93519233309E+03 -0.10757135795E+04 -0.52963087294E+03  0.15206095083E+04  0.10100000352E+00 0. -1.
</event>
<event>
 5   0  0.9311672E-07  0.3491303E+04  0.7818609E-02  0.8115854E-01
        2   -1    0    0  501    0  0.00000000000E+00  0.00000000000E+00  0.19734352485E+04  0.19734352485E+04  0.25500000920E-02 0. -1.
       -2   -1    0    0    0  501  0.00000000000E+00  0.00000000000E+00 -0.15441599182E+04  0.15441599182E+04  0.25500000920E-02 0.  1.
    10030    2    1    2    0    0  0.00000000000E+00  0.00000000000E+00  0.42927533022E+03  0.35175951667E+04  0.34913032592E+04 0.  0.
        4    1    3    3  502    0 -0.93139096509E+03 -0.28270003289E+03 -0.12453746172E+04  0.15806226585E+04  0.12699999809E+01 0.  1.
       -4    1    3    3    0  502  0.93139096509E+03  0.28270003289E+03  0.16746499474E+04  0.19369725082E+04  0.12699999809E+01 0. -1.
</event>
<event>
 5   0  0.8845195E-07  0.3002845E+04  0.7818609E-02  0.8242919E-01
       -2   -1    0    0    0  501  0.00000000000E+00  0.00000000000E+00  0.12585616649E+04  0.12585616649E+04  0.25500000920E-02 0.  1.
        2   -1    0    0  501    0  0.00000000000E+00  0.00000000000E+00 -0.17911478538E+04  0.17911478538E+04  0.25500000920E-02 0. -1.
    10030    2    1    2    0    0  0.00000000000E+00  0.00000000000E+00 -0.53258618884E+03  0.30497095187E+04  0.30028453340E+04 0.  0.
        5    1    3    3  502    0  0.11036020600E+04  0.11003401863E+03  0.76153035365E+03  0.13453607552E+04  0.46999998093E+01 0.  1.
       -5    1    3    3    0  502 -0.11036020600E+04 -0.11003401863E+03 -0.12941165425E+04  0.17043487635E+04  0.46999998093E+01 0. -1.
</event>
<event>
 5   0  0.2972541E-07  0.3423528E+04  0.7818609E-02  0.8132156E-01
        1   -1    0    0  501    0  0.00000000000E+00  0.00000000000E+00  0.90251363017E+03  0.90251363018E+03  0.50400001928E-02 0. -1.
       -1   -1    0    0    0  501  0.00000000000E+00  0.00000000000E+00 -0.32466393861E+04  0.32466393861E+04  0.50400001928E-02 0.  1.
    10030    2    1    2    0    0  0.00000000000E+00  0.00000000000E+00 -0.23441257559E+04  0.41491530163E+04  0.34235281791E+04 0.  0.
        3    1    3    3  502    0  0.77539020188E+03 -0.12974120091E+04 -0.21458787708E+04  0.26247482919E+04  0.10100000352E+00 0. -1.
       -3    1    3    3    0  502 -0.77539020188E+03  0.12974120091E+04 -0.19824698515E+03  0.15244047244E+04  0.10100000352E+00 0.  1.
</event>
<event>
 5   0  0.3026332E-07  0.3484605E+04  0.7818609E-02  0.8117448E-01
        1   -1    0    0  501    0  0.00000000000E+00  0.00000000000E+00  0.10873740635E+04  0.10873740635E+04  0.50400001928E-02 0.  1.
       -1   -1    0    0    0  501  0.00000000000E+00  0.00000000000E+00 -0.27916963632E+04  0.27916963632E+04  0.50400001928E-02 0. -1.
    10030    2    1    2    0    0  0.00000000000E+00  0.00000000000E+00 -0.17043222997E+04  0.38790704267E+04  0.34846051246E+04 0.  0.
        1    1    3    3  502    0 -0.16554145892E+04  0.54334149576E+03 -0.85314148263E+03  0.19399659359E+04  0.50400001928E-02 0.  1.
       -1    1    3    3    0  502  0.16554145892E+04 -0.54334149576E+03 -0.85118081706E+03  0.19391044908E+04  0.50400001928E-02 0. -1.
</event>
<event>
 5   0  0.8950809E-07  0.3405229E+04  0.7818609E-02  0.8136624E-01
        2   -1    0    0  501    0  0.00000000000E+00  0.00000000000E+00  0.22266012074E+04  0.22266012074E+04  0.25500000920E-02 0. -1.
       -2   -1    0    0    0  501  0.00000000000E+00  0.00000000000E+00 -0.13019381147E+04  0.13019381147E+04  0.25500000920E-02 0.  1.
    10030    2    1    2    0    0  0.00000000000E+00  0.00000000000E+00  0.92466309276E+03  0.35285393221E+04  0.34052294948E+04 0.  0.
        2    1    3    3  502    0  0.21299474354E+03 -0.12687500719E+04 -0.69331348822E+03  0.14614298131E+04  0.25500000920E-02 0.  1.
       -2    1    3    3    0  502 -0.21299474354E+03  0.12687500719E+04  0.16179765810E+04  0.20671095090E+04  0.25500000920E-02 0. -1.
</event>
<event>
 5   0  0.6188930E-07  0.3449683E+04  0.7818609E-02  0.8125819E-01
        2   -1    0    0  501    0  0.00000000000E+00  0.00000000000E+00  0.28971770538E+04  0.28971770538E+04  0.25500000920E-02 0. -1.
       -2   -1    0    0    0  501  0.00000000000E+00  0.00000000000E+00 -0.10268883917E+04  0.10268883918E+04  0.25500000920E-02 0.  1.
    10030    2    1    2    0    0  0.00000000000E+00  0.00000000000E+00  0.18702886620E+04  0.39240654455E+04  0.34496825856E+04 0.  0.
        3    1    3    3  502    0  0.71970125113E+03 -0.93085996480E+03 -0.49948132301E+03  0.12782612281E+04  0.10100000352E+00 0.  1.
       -3    1    3    3    0  502 -0.71970125113E+03  0.93085996480E+03  0.23697699851E+04  0.26458042175E+04  0.10100000352E+00 0. -1.
</event>
<event>
 5   0  0.9128871E-07  0.3507487E+04  0.7818609E-02  0.8112018E-01
        2   -1    0    0  501    0  0.00000000000E+00  0.00000000000E+00  0.12782650915E+04  0.12782650915E+04  0.25500000920E-02 0. -1.
       -2   -1    0    0    0  501  0.00000000000E+00  0.00000000000E+00 -0.24060857271E+04  0.24060857271E+04  0.25500000920E-02 0.  1.
    10030    2    1    2    0    0  0.00000000000E+00  0.00000000000E+00 -0.11278206356E+04  0.36843508186E+04  0.35074865029E+04 0.  0.
        1    1    3    3  502    0 -0.11259398504E+04 -0.12750203599E+04 -0.11554017636E+03  0.17049243377E+04  0.50400001928E-02 0.  1.
       -1    1    3    3    0  502  0.11259398504E+04  0.12750203599E+04 -0.10122804593E+04  0.19794264809E+04  0.50400001928E-02 0. -1.
</event>
<event>
 5   0  0.9311672E-07  0.3445314E+04  0.7818609E-02  0.8126873E-01
       -2   -1    0    0    0  501  0.00000000000E+00  0.00000000000E+00  0.15229207748E+04  0.15229207748E+04  0.25500000920E-02 0.  1.
        2   -1    0    0  501    0  0.00000000000E+00  0.00000000000E+00 -0.19485896430E+04  0.19485896430E+04  0.25500000920E-02 0. -1.
    10030    2    1    2    0    0  0.00000000000E+00  0.00000000000E+00 -0.42566886816E+03  0.34715104178E+04  0.34453142956E+04 0.  0.
        4    1    3    3  502    0  0.13605046158E+04  0.57537139550E+03  0.68020065220E+03  0.16262532375E+04  0.12699999809E+01 0. -1.
       -4    1    3    3    0  502 -0.13605046158E+04 -0.57537139550E+03 -0.11058695204E+04  0.18452571803E+04  0.12699999809E+01 0.  1.
</event>
<event>
 5   0  0.8845195E-07  0.3492136E+04  0.7818609E-02  0.8115656E-01
        2   -1    0    0  501    0  0.00000000000E+00  0.00000000000E+00  0.20545343252E+04  0.20545343252E+04  0.25500000920E-02 0. -1.
       -2   -1    0    0    0  501  0.00000000000E+00  0.00000000000E+00 -0.14839146626E+04  0.14839146626E+04  0.25500000920E-02 0.  1.
    10030    2    1    2    0    0  0.00000000000E+00  0.00000000000E+00  0.57061966261E+03  0.35384489877E+04  0.34921360855E+04 0.  0.
        5    1    3    3  502    0 -0.78960555326E+03  0.33541385704E+03 -0.12556322832E+04  0.15207280841E+04  0.46999998093E+01 0.  1.
       -5    1    3    3    0  502  0.78960555326E+03 -0.33541385704E+03  0.18262519458E+04  0.20177209036E+04  0.46999998093E+01 0. -1.
</event>
<event>
 5   0  0.6188930E-07  0.3478943E+04  0.7818609E-02  0.8118798E-01
        2   -1    0    0  501    0  0.00000000000E+00  0.00000000000E+00  0.13081068236E+04  0.13081068236E+04  0.25500000920E-02 0. -1.
       -2   -1    0    0    0  501  0.00000000000E+00  0.00000000000E+00 -0.23130836379E+04  0.23130836379E+04  0.25500000920E-02 0.  1.
    10030    2    1    2    0    0  0.00000000000E+00  0.00000000000E+00 -0.10049768143E+04  0.36211904615E+04  0.34789426499E+04 0.  0.
        3    1    3    3  502    0 -0.83682339365E+03  0.10843171126E+04 -0.16185921828E+04  0.21203437593E+04  0.10100000352E+00 0.  1.
       -3    1    3    3    0  502  0.83682339365E+03 -0.10843171126E+04  0.61361536852E+03  0.15008467022E+04  0.10100000352E+00 0. -1.
</event>
<event>
 5   0  0.2936607E-07  0.3475779E+04  0.7818609E-02  0.8119554E-01
       -1   -1    0    0    0  501  0.00000000000E+00  0.00000000000E+00  0.12336320107E+04  0.12336320107E+04  0.50400001928E-02 0. -1.
        1   -1    0    0  501    0  0.00000000000E+00  0.00000000000E+00 -0.24482666666E+04  0.24482666666E+04  0.50400001928E-02 0.  1.
    10030    2    1    2    0    0  0.00000000000E+00  0.00000000000E+00 -0.12146346559E+04  0.36818986773E+04  0.34757791245E+04 0.  0.
        2    1    3    3  502    0  0.47988431062E+03  0.18455749940E+03  0.11512222812E+04  0.12608184496E+04  0.25500000920E-02 0. -1.
       -2    1    3    3    0  502 -0.47988431062E+03 -0.18455749940E+03 -0.23658569371E+04  0.24210802277E+04  0.25500000920E-02 0.  1.
</event>
<event>
 5   0  0.8845195E-07  0.3537771E+04  0.7818609E-02  0.8104897E-01
        2   -1    0    0  501    0  0.00000000000E+00  0.00000000000E+00  0.30603887871E+04  0.30603887871E+04  0.25500000920E-02 0.  1.
       -2   -1    0    0    0  501  0.00000000000E+00  0.00000000000E+00 -0.10224048835E+04  0.10224048835E+04  0.25500000920E-02 0. -1.
    10030    2    1    2    0    0  0.00000000000E+00  0.00000000000E+00  0.20379839036E+04  0.40827936707E+04  0.35377712992E+04 0.  0.
        5    1    3    3  502    0  0.16508001707E+04  0.48429714832E+03  0.14937707020E+04  0.22783893284E+04  0.46999998093E+01 0. -1.
       -5    1    3    3    0  502 -0.16508001707E+04 -0.48429714832E+03  0.54421320163E+03  0.18044043423E+04  0.46999998093E+01 0.  1.
</event>
<event>
 5   0  0.3061330E-07  0.3564912E+04  0.7818609E-02  0.8098577E-01
        1   -1    0    0  501    0  0.00000000000E+00  0.00000000000E+00  0.17153545230E+04  0.17153545230E+04  0.50400001928E-02 0. -1.
       -1   -1    0    0    0  501  0.00000000000E+00  0.00000000000E+00 -0.18521818719E+04  0.18521818719E+04  0.50400001928E-02 0.  1.
    10030    2    1    2    0    0  0.00000000000E+00  0.00000000000E+00 -0.13682734891E+03  0.35675363949E+04  0.35649115284E+04 0.  0.
        5    1    3    3  502    0 -0.13442643749E+04  0.10201730318E+04  0.50587883464E+03  0.17617420951E+04  0.46999998093E+01 0. -1.
       -5    1    3    3    0  502  0.13442643749E+04 -0.10201730318E+04 -0.64270618356E+03  0.18057942997E+04  0.46999998093E+01 0.  1.
</event>
<event>
 5   0  0.2972541E-07  0.3492389E+04  0.7818609E-02  0.8115596E-01
       -1   -1    0    0    0  501  0.00000000000E+00  0.00000000000E+00  0.11469253704E+04  0.11469253704E+04  0.50400001928E-02 0. -1.
        1   -1    0    0  501    0  0.00000000000E+00  0.00000000000E+00 -0.26585820640E+04  0.26585820640E+04  0.50400001928E-02 0.  1.
    10030    2    1    2    0    0  0.00000000000E+00  0.00000000000E+00 -0.15116566936E+04  0.38055074344E+04  0.34923889924E+04 0.  0.
        3    1    3    3  502    0  0.14511572284E+03  0.95558738076E+03  0.82886071718E+03  0.12732697727E+04  0.10100000352E+00 0. -1.
       -3    1    3    3    0  502 -0.14511572284E+03 -0.95558738076E+03 -0.23405174108E+04  0.25322376618E+04  0.10100000352E+00 0.  1.
</event>
<event>
 5   0  0.2972541E-07  0.3475515E+04  0.7818609E-02  0.8119617E-01
       -1   -1    0    0    0  501  0.00000000000E+00  0.00000000000E+00  0.14954172088E+04  0.14954172089E+04  0.50400001928E-02 0. -1.
        1   -1    0    0  501    0  0.00000000000E+00  0.00000000000E+00 -0.20193702981E+04  0.20193702981E+04  0.50400001928E-02 0.  1.
    10030    2    1    2    0    0  0.00000000000E+00  0.00000000000E+00 -0.52395308925E+03  0.35147875070E+04  0.34755149804E+04 0.  0.
        3    1    3    3  502    0  0.14366098339E+04 -0.72648267211E+03 -0.92372230796E+03  0.18560408940E+04  0.10100000352E+00 0.  1.
       -3    1    3    3    0  502 -0.14366098339E+04  0.72648267211E+03  0.39976921871E+03  0.16587466130E+04  0.10100000352E+00 0. -1.
</event>
<event>
 5   0  0.2933506E-07  0.3485847E+04  0.7818609E-02  0.8117152E-01
        1   -1    0    0  501    0  0.00000000000E+00  0.00000000000E+00  0.15653269978E+04  0.15653269978E+04  0.50400001928E-02 0. -1.
       -1   -1    0    0    0  501  0.00000000000E+00  0.00000000000E+00 -0.19406691629E+04  0.19406691629E+04  0.50400001928E-02 0.  1.
    10030    2    1    2    0    0  0.00000000000E+00  0.00000000000E+00 -0.37534216510E+03  0.35059961607E+04  0.34858467175E+04 0.  0.
        4    1    3    3  502    0  0.12888096135E+04 -0.30467698354E+03 -0.13273236148E+04  0.18750061001E+04  0.12699999809E+01 0.  1.
       -4    1    3    3    0  502 -0.12888096135E+04  0.30467698354E+03  0.95198144969E+03  0.16309900606E+04  0.12699999809E+01 0. -1.
</event>
<event>
 5   0  0.6188930E-07  0.3514753E+04  0.7818609E-02  0.8110303E-01
        2   -1    0    0  501    0  0.00000000000E+00  0.00000000000E+00  0.16967137306E+04  0.16967137306E+04  0.25500000920E-02 0.  1.
       -2   -1    0    0    0  501  0.00000000000E+00  0.00000000000E+00 -0.18202083457E+04  0.18202083457E+04  0.25500000920E-02 0. -1.
    10030    2    1    2    0    0  0.00000000000E+00  0.00000000000E+00 -0.12349461508E+03  0.35169220764E+04  0.35147531878E+04 0.  0.
        3    1    3    3  502    0  0.72181789652E+03 -0.11437133605E+04  0.10611176803E+04  0.17190323058E+04  0.10100000352E+00 0.  1.
       -3    1    3    3    0  502 -0.72181789652E+03  0.11437133605E+04 -0.11846122954E+04  0.17978897706E+04  0.10100000352E+00 0. -1.
</event>
<event>
 5   0  0.8845195E-07  0.3463655E+04  0.7818609E-02  0.8122458E-01
       -2   -1    0    0    0  501  0.00000000000E+00  0.00000000000E+00  0.11793830885E+04  0.11793830885E+04  0.25500000920E-02 0.  1.
        2   -1    0    0  501    0  0.00000000000E+00  0.00000000000E+00 -0.25430471396E+04  0.25430471396E+04  0.25500000920E-02 0. -1.
    10030    2    1    2    0    0  0.00000000000E+00  0.00000000000E+00 -0.13636640512E+04  0.37224302281E+04  0.34636551732E+04 0.  0.
        5    1    3    3  502    0 -0.16259274897E+04  0.29513362044E+03 -0.12498970951E+03  0.16572231513E+04  0.46999998093E+01 0.  1.
       -5    1    3    3    0  502  0.16259274897E+04 -0.29513362044E+03 -0.12386743417E+04  0.20652070768E+04  0.46999998093E+01 0. -1.
</event>
<event>
 5   0  0.2933506E-07  0.3487480E+04  0.7818609E-02  0.8116764E-01
       -1   -1    0    0    0  501  0.00000000000E+00  0.00000000000E+00  0.24154709318E+04  0.24154709318E+04  0.50400001928E-02 0.  1.
        1   -1    0    0  501    0  0.00000000000E+00  0.00000000000E+00 -0.12588139402E+04  0.12588139402E+04  0.50400001928E-02 0. -1.
    10030    2    1    2    0    0  0.00000000000E+00  0.00000000000E+00  0.11566569916E+04  0.36742848719E+04  0.34874795948E+04 0.  0.
        4    1    3    3  502    0  0.16360798983E+04  0.47453874236E+03  0.18598012847E+03  0.17136320120E+04  0.12699999809E+01 0. -1.
       -4    1    3    3    0  502 -0.16360798983E+04 -0.47453874236E+03  0.97067686310E+03  0.19606528599E+04  0.12699999809E+01 0.  1.
</event>
<event>
 5   0  0.8950809E-07  0.3525539E+04  0.7818609E-02  0.8107764E-01
        2   -1    0    0  501    0  0.00000000000E+00  0.00000000000E+00  0.19680213467E+04  0.19680213467E+04  0.25500000920E-02 0.  1.
       -2   -1    0    0    0  501  0.00000000000E+00  0.00000000000E+00 -0.15789243513E+04  0.15789243513E+04  0.25500000920E-02 0. -1.
    10030    2    1    2    0    0  0.00000000000E+00  0.00000000000E+00  0.38909699539E+03  0.35469456980E+04  0.35255392939E+04 0.  0.
        2    1    3    3  502    0 -0.95608857096E+03 -0.12901600829E+04  0.92610760291E+03  0.18537242749E+04  0.25500000920E-02 0.  1.
       -2    1    3    3    0  502  0.95608857096E+03  0.12901600829E+04 -0.53701060752E+03  0.16932214231E+04  0.25500000920E-02 0. -1.
</event>
<event>
 5   0  0.8950809E-07  0.3498028E+04  0.7818609E-02  0.8114258E-01
       -2   -1    0    0    0  501  0.00000000000E+00  0.00000000000E+00  0.11553333620E+04  0.11553333620E+04  0.25500000920E-02 0.  1.
        2   -1    0    0  501    0  0.00000000000E+00  0.00000000000E+00 -0.26477631835E+04  0.26477631835E+04  0.25500000920E-02 0. -1.
    10030    2    1    2    0    0  0.00000000000E+00  0.00000000000E+00 -0.14924298215E+04  0.38030965454E+04  0.34980275245E+04 0.  0.
        2    1    3    3  502    0  0.13935861702E+04 -0.37230494934E+03 -0.18215963325E+04  0.23235547309E+04  0.25500000920E-02 0. -1.
       -2    1    3    3    0  502 -0.13935861702E+04  0.37230494934E+03  0.32916651102E+03  0.14795418145E+04  0.25500000920E-02 0.  1.
</event>
<event>
 5   0  0.2933506E-07  0.3502752E+04  0.7818609E-02  0.8113138E-01
       -1   -1    0    0    0  501  0.00000000000E+00  0.00000000000E+00  0.13886072987E+04  0.13886072987E+04  0.50400001928E-02 0. -1.
        1   -1    0    0  501    0  0.00000000000E+00  0.00000000000E+00 -0.22089168278E+04  0.22089168278E+04  0.50400001928E-02 0.  1.
    10030    2    1    2    0    0  0.00000000000E+00  0.00000000000E+00 -0.82030952910E+03  0.35975241265E+04  0.35027520776E+04 0.  0.
        4    1    3    3  502    0 -0.90609163008E+03 -0.10865039192E+04 -0.14704748387E+04  0.20405368589E+04  0.12699999809E+01 0.  1.
       -4    1    3    3    0  502  0.90609163008E+03  0.10865039192E+04  0.65016530963E+03  0.15569872675E+04  0.12699999809E+01 0. -1.
</event>
<event>
 5   0  0.6188930E-07  0.3507694E+04  0.7818609E-02  0.8111969E-01
        2   -1    0    0  501    0  0.00000000000E+00  0.00000000000E+00  0.27667177877E+04  0.27667177877E+04  0.25500000920E-02 0. -1.
       -2   -1    0    0    0  501  0.00000000000E+00  0.00000000000E+00 -0.11117791023E+04  0.11117791023E+04  0.25500000920E-02 0.  1.
    10030    2    1    2    0    0  0.00000000000E+00  0.00000000000E+00  0.16549386854E+04  0.38784968899E+04  0.35076938396E+04 0.  0.
        3    1    3    3  502    0  0.12340715885E+03  0.11465834829E+04 -0.63361681393E+03  0.13158089858E+04  0.10100000352E+00 0.  1.
       -3    1    3    3    0  502 -0.12340715885E+03 -0.11465834829E+04  0.22885554993E+04  0.25626879041E+04  0.10100000352E+00 0. -1.
</event>
<event>
 5   0  0.3026332E-07  0.3532864E+04  0.7818609E-02  0.8106045E-01
        1   -1    0    0  501    0  0.00000000000E+00  0.00000000000E+00  0.12241349278E+04  0.12241349279E+04  0.50400001928E-02 0.  1.
       -1   -1    0    0    0  501  0.00000000000E+00  0.00000000000E+00 -0.25489692709E+04  0.25489692709E+04  0.50400001928E-02 0. -1.
    10030    2    1    2    0    0  0.00000000000E+00  0.00000000000E+00 -0.13248343431E+04  0.37731041988E+04  0.35328641721E+04 0.  0.
        1    1    3    3  502    0  0.84940316274E+03  0.23998540557E+03  0.97173106220E+03  0.13127604447E+04  0.50400001928E-02 0.  1.
       -1    1    3    3    0  502 -0.84940316274E+03 -0.23998540557E+03 -0.22965654053E+04  0.24603437541E+04  0.50400001928E-02 0. -1.
</event>
<event>
 5   0  0.9311672E-07  0.3573112E+04  0.7818609E-02  0.8096679E-01
       -2   -1    0    0    0  501  0.00000000000E+00  0.00000000000E+00  0.12249339066E+04  0.12249339066E+04  0.25500000920E-02 0. -1.
        2   -1    0    0  501    0  0.00000000000E+00  0.00000000000E+00 -0.26056772552E+04  0.26056772552E+04  0.25500000920E-02 0.  1.
    10030    2    1    2    0    0  0.00000000000E+00  0.00000000000E+00 -0.13807433486E+04  0.38306111618E+04  0.35731120439E+04 0.  0.
        4    1    3    3  502    0  0.30281919655E+03 -0.68495490014E+03 -0.24292736523E+04  0.25420925970E+04  0.12699999809E+01 0.  1.
       -4    1    3    3    0  502 -0.30281919655E+03  0.68495490014E+03  0.10485303037E+04  0.12885185648E+04  0.12699999809E+01 0. -1.
</event>
<event>
 5   0  0.3061330E-07  0.3529971E+04  0.7818609E-02  0.8106724E-01
       -1   -1    0    0    0  501  0.00000000000E+00  0.00000000000E+00  0.12074271726E+04  0.12074271726E+04  0.50400001928E-02 0.  1.
        1   -1    0    0  501    0  0.00000000000E+00  0.00000000000E+00 -0.25800099158E+04  0.25800099158E+04  0.50400001928E-02 0. -1.
    10030    2    1    2    0    0  0.00000000000E+00  0.00000000000E+00 -0.13725827433E+04  0.37874370884E+04  0.35299711488E+04 0.  0.
        5    1    3    3  502    0 -0.22411751455E+03  0.14595584769E+04 -0.17235571185E+04  0.22696279075E+04  0.46999998093E+01 0. -1.
       -5    1    3    3    0  502  0.22411751455E+03 -0.14595584769E+04  0.35097437520E+03  0.15178091810E+04  0.46999998093E+01 0.  1.
</event>
<event>
 5   0  0.8845195E-07  0.3492629E+04  0.7818609E-02  0.8115539E-01
       -2   -1    0    0    0  501  0.00000000000E+00  0.00000000000E+00  0.13610577547E+04  0.13610577547E+04  0.25500000920E-02 0.  1.
        2   -1    0    0  501    0  0.00000000000E+00  0.00000000000E+00 -0.22406214437E+04  0.22406214437E+04  0.25500000920E-02 0. -1.
    10030    2    1    2    0    0  0.00000000000E+00  0.00000000000E+00 -0.87956368898E+03  0.36016791983E+04  0.34926294915E+04 0.  0.
        5    1    3    3  502    0 -0.26985361430E+03 -0.11950729377E+04  0.84348899121E+03  0.14874528792E+04  0.46999998093E+01 0.  1.
       -5    1    3    3    0  502  0.26985361430E+03  0.11950729377E+04 -0.17230526802E+04  0.21142263191E+04  0.46999998093E+01 0. -1.
</event>
<event>
 5   0  0.3026332E-07  0.3463608E+04  0.7818609E-02  0.8122469E-01
       -1   -1    0    0    0  501  0.00000000000E+00  0.00000000000E+00  0.14888691395E+04  0.14888691395E+04  0.50400001928E-02 0. -1.
        1   -1    0    0  501    0  0.00000000000E+00  0.00000000000E+00 -0.20143781429E+04  0.20143781429E+04  0.50400001928E-02 0.  1.
    10030    2    1    2    0    0  0.00000000000E+00  0.00000000000E+00 -0.52550900338E+03  0.35032472825E+04  0.34636082067E+04 0.  0.
        1    1    3    3  502    0 -0.11011026535E+04  0.93384223688E+03  0.70456776068E+03  0.16065192518E+04  0.50400001928E-02 0. -1.
       -1    1    3    3    0  502  0.11011026535E+04 -0.93384223688E+03 -0.12300767641E+04  0.18967280307E+04  0.50400001928E-02 0.  1.
</event>
<event>
 5   0  0.2933506E-07  0.3474384E+04  0.7818609E-02  0.8119887E-01
        1   -1    0    0  501    0  0.00000000000E+00  0.00000000000E+00  0.10217086087E+04  0.10217086087E+04  0.50400001928E-02 0.  1.
       -1   -1    0    0    0  501  0.00000000000E+00  0.00000000000E+00 -0.29537157363E+04  0.29537157363E+04  0.50400001928E-02 0. -1.
    10030    2    1    2    0    0  0.00000000000E+00  0.00000000000E+00 -0.19320071276E+04  0.39754243450E+04  0.34743844321E+04 0.  0.
        4    1    3    3  502    0 -0.10289273189E+04  0.94756159999E+03  0.21273834286E+03  0.14148581656E+04  0.12699999809E+01 0.  1.
       -4    1    3    3    0  502  0.10289273189E+04 -0.94756159999E+03 -0.21447454705E+04  0.25605661795E+04  0.12699999809E+01 0. -1.
</event>
<event>
 5   0  0.2972541E-07  0.3479945E+04  0.7818609E-02  0.8118559E-01
       -1   -1    0    0    0  501  0.00000000000E+00  0.00000000000E+00  0.10590964517E+04  0.10590964517E+04  0.50400001928E-02 0.  1.
        1   -1    0    0  501    0  0.00000000000E+00  0.00000000000E+00 -0.28585724022E+04  0.28585724022E+04  0.50400001928E-02 0. -1.
    10030    2    1    2    0    0  0.00000000000E+00  0.00000000000E+00 -0.17994759505E+04  0.39176688539E+04  0.34799447629E+04 0.  0.
        3    1    3    3  502    0 -0.86998581494E+02  0.25507735997E+03  0.10354564832E+04  0.10699548362E+04  0.10100000352E+00 0.  1.
       -3    1    3    3    0  502  0.86998581494E+02 -0.25507735997E+03 -0.28349324337E+04  0.28477140177E+04  0.10100000352E+00 0. -1.
</event>
<event>
 5   0  0.9311672E-07  0.3514934E+04  0.7818609E-02  0.8110260E-01
        2   -1    0    0  501    0  0.00000000000E+00  0.00000000000E+00  0.15098236923E+04  0.15098236923E+04  0.25500000920E-02 0. -1.
       -2   -1    0    0    0  501  0.00000000000E+00  0.00000000000E+00 -0.20457294677E+04  0.20457294677E+04  0.25500000920E-02 0.  1.
    10030    2    1    2    0    0  0.00000000000E+00  0.00000000000E+00 -0.53590577537E+03  0.35555531600E+04  0.35149343199E+04 0.  0.
        4    1    3    3  502    0 -0.13236992862E+04 -0.64292539391E+03 -0.12398663352E+04  0.19242668745E+04  0.12699999809E+01 0.  1.
       -4    1    3    3    0  502  0.13236992862E+04  0.64292539391E+03  0.70396055983E+03  0.16312862854E+04  0.12699999809E+01 0. -1.
</event>
<event>
 5   0  0.9128871E-07  0.3474429E+04  0.7818609E-02  0.8119877E-01
        2   -1    0    0  501    0  0.00000000000E+00  0.00000000000E+00  0.14897695990E+04  0.14897695990E+04  0.25500000920E-02 0. -1.
       -2   -1    0    0    0  501  0.00000000000E+00  0.00000000000E+00 -0.20257589795E+04  0.20257589795E+04  0.25500000920E-02 0.  1.
    10030    2    1    2    0    0  0.00000000000E+00  0.00000000000E+00 -0.53598938054E+03  0.35155285784E+04  0.34744289559E+04 0.  0.
        1    1    3    3  502    0 -0.95018357239E+03  0.11437055913E+04 -0.11769546003E+04  0.18963473922E+04  0.50400001928E-02 0.  1.
       -1    1    3    3    0  502  0.95018357239E+03 -0.11437055913E+04  0.64096521975E+03  0.16191811862E+04  0.50400001928E-02 0. -1.
</event>
<event>
 5   0  0.8845195E-07  0.3404820E+04  0.7818609E-02  0.8136724E-01
       -2   -1    0    0    0  501  0.00000000000E+00  0.00000000000E+00  0.15978760919E+04  0.15978760919E+04  0.25500000920E-02 0. -1.
        2   -1    0    0  501    0  0.00000000000E+00  0.00000000000E+00 -0.18137829884E+04  0.18137829884E+04  0.25500000920E-02 0.  1.
    10030    2    1    2    0    0  0.00000000000E+00  0.00000000000E+00 -0.21590689658E+03  0.34116590803E+04  0.34048203906E+04 0.  0.
        5    1    3    3  502    0 -0.43596017206E+03 -0.15970710758E+04 -0.50558938366E+03  0.17309939363E+04  0.46999998093E+01 0.  1.
       -5    1    3    3    0  502  0.43596017206E+03  0.15970710758E+04  0.28968248708E+03  0.16806651440E+04  0.46999998093E+01 0. -1.
</event>
<event>
 5   0  0.8845195E-07  0.3526327E+04  0.7818609E-02  0.8107579E-01
        2   -1    0    0  501    0  0.00000000000E+00  0.00000000000E+00  0.19068261542E+04  0.19068261542E+04  0.25500000920E-02 0. -1.
       -2   -1    0    0    0  501  0.00000000000E+00  0.00000000000E+00 -0.16303241540E+04  0.16303241540E+04  0.25500000920E-02 0.  1.
    10030    2    1    2    0    0  0.00000000000E+00  0.00000000000E+00  0.27650200018E+03  0.35371503082E+04  0.35263265514E+04 0.  0.
        5    1    3    3  502    0  0.14222516277E+04  0.88167500203E+03 -0.41894674185E+03  0.17250185403E+04  0.46999998093E+01 0.  1.
       -5    1    3    3    0  502 -0.14222516277E+04 -0.88167500203E+03  0.69544874203E+03  0.18121317680E+04  0.46999998093E+01 0. -1.
</event>
<event>
 5   0  0.3061330E-07  0.3489068E+04  0.7818609E-02  0.8116386E-01
       -1   -1    0    0    0  501  0.00000000000E+00  0.00000000000E+00  0.15961909629E+04  0.15961909629E+04  0.50400001928E-02 0.  1.
        1   -1    0    0  501    0  0.00000000000E+00  0.00000000000E+00 -0.19066631051E+04  0.19066631051E+04  0.50400001928E-02 0. -1.
    10030    2    1    2    0    0  0.00000000000E+00  0.00000000000E+00 -0.31047214227E+03  0.35028540680E+04  0.34890677366E+04 0.  0.
        5    1    3    3  502    0  0.25255216882E+03 -0.16326828614E+04 -0.71775384572E+03  0.18012852625E+04  0.46999998093E+01 0. -1.
       -5    1    3    3    0  502 -0.25255216882E+03  0.16326828614E+04  0.40728170345E+03  0.17015688055E+04  0.46999998093E+01 0.  1.
</event>
<event>
 5   0  0.9311672E-07  0.3496339E+04  0.7818609E-02  0.8114658E-01
       -2   -1    0    0    0  501  0.00000000000E+00  0.00000000000E+00  0.11192501549E+04  0.11192501549E+04  0.25500000920E-02 0. -1.
        2   -1    0    0  501    0  0.00000000000E+00  0.00000000000E+00 -0.27304857078E+04  0.27304857078E+04  0.25500000920E-02 0.  1.
    10030    2    1    2    0    0  0.00000000000E+00  0.00000000000E+00 -0.16112355529E+04  0.38497358628E+04  0.34963389719E+04 0.  0.
        4    1    3    3  502    0  0.96963350132E+02 -0.80700951476E+03 -0.25097725098E+04  0.26381102919E+04  0.12699999809E+01 0.  1.
       -4    1    3    3    0  502 -0.96963350132E+02  0.80700951476E+03  0.89853695692E+03  0.12116255709E+04  0.12699999809E+01 0. -1.
</event>
<event>
 5   0  0.2972541E-07  0.3449483E+04  0.7818609E-02  0.8125867E-01
       -1   -1    0    0    0  501  0.00000000000E+00  0.00000000000E+00  0.15588407495E+04  0.15588407495E+04  0.50400001928E-02 0. -1.
        1   -1    0    0  501    0  0.00000000000E+00  0.00000000000E+00 -0.19082986674E+04  0.19082986674E+04  0.50400001928E-02 0.  1.
    10030    2    1    2    0    0  0.00000000000E+00  0.00000000000E+00 -0.34945791791E+03  0.34671394170E+04  0.34494832802E+04 0.  0.
        3    1    3    3  502    0  0.16502265164E+04 -0.17888812682E+03  0.29616148726E+03  0.16861079900E+04  0.10100000352E+00 0. -1.
       -3    1    3    3    0  502 -0.16502265164E+04  0.17888812682E+03 -0.64561940517E+03  0.17810314270E+04  0.10100000352E+00 0.  1.
</event>
<event>
 5   0  0.9311672E-07  0.3493174E+04  0.7818609E-02  0.8115409E-01
        2   -1    0    0  501    0  0.00000000000E+00  0.00000000000E+00  0.15965684463E+04  0.15965684463E+04  0.25500000920E-02 0.  1.
       -2   -1    0    0    0  501  0.00000000000E+00  0.00000000000E+00 -0.19107020104E+04  0.19107020104E+04  0.25500000920E-02 0. -1.
    10030    2    1    2    0    0  0.00000000000E+00  0.00000000000E+00 -0.31413356409E+03  0.35072704566E+04  0.34931742241E+04 0.  0.
        4    1    3    3  502    0 -0.16913812669E+04 -0.23323654734E+03 -0.52651230103E+03  0.17867251309E+04  0.12699999809E+01 0. -1.
       -4    1    3    3    0  502  0.16913812669E+04  0.23323654734E+03  0.21237873694E+03  0.17205453258E+04  0.12699999809E+01 0.  1.
</event>
<event>
 5   0  0.3026332E-07  0.3432105E+04  0.7818609E-02  0.8130071E-01
        1   -1    0    0  501    0  0.00000000000E+00  0.00000000000E+00  0.15930134571E+04  0.15930134571E+04  0.50400001928E-02 0.  1.
       -1   -1    0    0    0  501  0.00000000000E+00  0.00000000000E+00 -0.18485950110E+04  0.18485950110E+04  0.50400001928E-02 0. -1.
    10030    2    1    2    0    0  0.00000000000E+00  0.00000000000E+00 -0.25558155392E+03  0.34416084681E+04  0.34321053184E+04 0.  0.
        1    1    3    3  502    0  0.37900873135E+03  0.15463164704E+04  0.51436858622E+03  0.16731160413E+04  0.50400001928E-02 0.  1.
       -1    1    3    3    0  502 -0.37900873135E+03 -0.15463164704E+04 -0.76995014014E+03  0.17684924268E+04  0.50400001928E-02 0. -1.
</event>
<event>
 5   0  0.3026332E-07  0.3482122E+04  0.7818609E-02  0.8118040E-01
       -1   -1    0    0    0  501  0.00000000000E+00  0.00000000000E+00  0.26393588075E+04  0.26393588075E+04  0.50400001928E-02 0. -1.
        1   -1    0    0  501    0  0.00000000000E+00  0.00000000000E+00 -0.11484962080E+04  0.11484962080E+04  0.50400001928E-02 0.  1.
    10030    2    1    2    0    0  0.00000000000E+00  0.00000000000E+00  0.14908625995E+04  0.37878550156E+04  0.34821221013E+04 0.  0.
        1    1    3    3  502    0  0.58280212335E+03  0.88203205924E+03 -0.75937687422E+03  0.13016497630E+04  0.50400001928E-02 0.  1.
       -1    1    3    3    0  502 -0.58280212335E+03 -0.88203205924E+03  0.22502394737E+04  0.24862052525E+04  0.50400001928E-02 0. -1.
</event>
<event>
 5   0  0.9311672E-07  0.3492504E+04  0.7818609E-02  0.8115569E-01
        2   -1    0    0  501    0  0.00000000000E+00  0.00000000000E+00  0.13348982707E+04  0.13348982707E+04  0.25500000920E-02 0.  1.
       -2   -1    0    0    0  501  0.00000000000E+00  0.00000000000E+00 -0.22843658919E+04  0.22843658919E+04  0.25500000920E-02 0. -1.
    10030    2    1    2    0    0  0.00000000000E+00  0.00000000000E+00 -0.94946762118E+03  0.36192641626E+04  0.34925040179E+04 0.  0.
        4    1    3    3  502    0 -0.85714190766E+02  0.16552486350E+04  0.94945226471E+02  0.16601840786E+04  0.12699999809E+01 0. -1.
       -4    1    3    3    0  502  0.85714190766E+02 -0.16552486350E+04 -0.10444128476E+04  0.19590800839E+04  0.12699999809E+01 0.  1.
</event>
<event>
 5   0  0.9128871E-07  0.3453667E+04  0.7818609E-02  0.8124859E-01
       -2   -1    0    0    0  501  0.00000000000E+00  0.00000000000E+00  0.13152029492E+04  0.13152029492E+04  0.25500000920E-02 0. -1.
        2   -1    0    0  501    0  0.00000000000E+00  0.00000000000E+00 -0.22672953827E+04  0.22672953827E+04  0.25500000920E-02 0.  1.
    10030    2    1    2    0    0  0.00000000000E+00  0.00000000000E+00 -0.95209243347E+03  0.35824983318E+04  0.34536667899E+04 0.  0.
        1    1    3    3  502    0  0.13929396384E+04 -0.25150103755E+03  0.55000305285E+03  0.15185641134E+04  0.50400001928E-02 0. -1.
       -1    1    3    3    0  502 -0.13929396384E+04  0.25150103755E+03 -0.15020954863E+04  0.20639342185E+04  0.50400001928E-02 0.  1.
</event>
<event>
 5   0  0.8950809E-07  0.3508239E+04  0.7818609E-02  0.8111840E-01
        2   -1    0    0  501    0  0.00000000000E+00  0.00000000000E+00  0.20077951802E+04  0.20077951802E+04  0.25500000920E-02 0.  1.
       -2   -1    0    0    0  501  0.00000000000E+00  0.00000000000E+00 -0.15324949228E+04  0.15324949228E+04  0.25500000920E-02 0. -1.
    10030    2    1    2    0    0  0.00000000000E+00  0.00000000000E+00  0.47530025737E+03  0.35402901030E+04  0.35082393987E+04 0.  0.
        2    1    3    3  502    0  0.89984178396E+03  0.52682269847E+03  0.16610964227E+04  0.19612492746E+04  0.25500000920E-02 0.  1.
       -2    1    3    3    0  502 -0.89984178396E+03 -0.52682269847E+03 -0.11857961653E+04  0.15790408283E+04  0.25500000920E-02 0. -1.
</event>
<event>
 5   0  0.9311672E-07  0.3482467E+04  0.7818609E-02  0.8117958E-01
        2   -1    0    0  501    0  0.00000000000E+00  0.00000000000E+00  0.13508541200E+04  0.13508541200E+04  0.25500000920E-02 0.  1.
       -2   -1    0    0    0  501  0.00000000000E+00  0.00000000000E+00 -0.22444274469E+04  0.22444274469E+04  0.25500000920E-02 0. -1.
    10030    2    1    2    0    0  0.00000000000E+00  0.00000000000E+00 -0.89357332699E+03  0.35952815669E+04  0.34824669782E+04 0.  0.
        4    1    3    3  502    0  0.67470964536E+03  0.60520438381E+03  0.10881132438E+04  0.14161558869E+04  0.12699999809E+01 0.  1.
       -4    1    3    3    0  502 -0.67470964536E+03 -0.60520438381E+03 -0.19816865708E+04  0.21791256800E+04  0.12699999809E+01 0. -1.
</event>
<event>
 5   0  0.3026332E-07  0.3477213E+04  0.7818609E-02  0.8119211E-01
        1   -1    0    0  501    0  0.00000000000E+00  0.00000000000E+00  0.28008794603E+04  0.28008794603E+04  0.50400001928E-02 0. -1.
       -1   -1    0    0    0  501  0.00000000000E+00  0.00000000000E+00 -0.10792154935E+04  0.10792154936E+04  0.50400001928E-02 0.  1.
    10030    2    1    2    0    0  0.00000000000E+00  0.00000000000E+00  0.17216639668E+04  0.38800949539E+04  0.34772129697E+04 0.  0.
        1    1    3    3  502    0  0.12444010099E+04  0.72569682967E+03 -0.22539261961E+03  0.14580711900E+04  0.50400001928E-02 0.  1.
       -1    1    3    3    0  502 -0.12444010099E+04 -0.72569682967E+03  0.19470565864E+04  0.24220237639E+04  0.50400001928E-02 0. -1.
</event>
<event>
 5   0  0.2972541E-07  0.3493910E+04  0.7818609E-02  0.8115235E-01
        1   -1    0    0  501    0  0.00000000000E+00  0.00000000000E+00  0.20793934222E+04  0.20793934222E+04  0.50400001928E-02 0.  1.
       -1   -1    0    0    0  501  0.00000000000E+00  0.00000000000E+00 -0.14676642085E+04  0.14676642085E+04  0.50400001928E-02 0. -1.
    10030    2    1    2    0    0  0.00000000000E+00  0.00000000000E+00  0.61172921368E+03  0.35470576307E+04  0.34939097305E+04 0.  0.
        3    1    3    3  502    0  0.40860329125E+03  0.14629322284E+04  0.11819656973E+04  0.19246221121E+04  0.10100000352E+00 0.  1.
       -3    1    3    3    0  502 -0.40860329125E+03 -0.14629322284E+04 -0.57023648365E+03  0.16224355186E+04  0.10100000352E+00 0. -1.
</event>
<event>
 5   0  0.8950809E-07  0.3541445E+04  0.7818609E-02  0.8104038E-01
        2   -1    0    0  501    0  0.00000000000E+00  0.00000000000E+00  0.16397332253E+04  0.16397332253E+04  0.25500000920E-02 0.  1.
       -2   -1    0    0    0  501  0.00000000000E+00  0.00000000000E+00 -0.19121755219E+04  0.19121755219E+04  0.25500000920E-02 0. -1.
    10030    2    1    2    0    0  0.00000000000E+00  0.00000000000E+00 -0.27244229661E+03  0.35519087472E+04  0.35414447537E+04 0.  0.
        2    1    3    3  502    0  0.13637928192E+04 -0.46668823698E+02 -0.12679829652E+04  0.18627639767E+04  0.25500000920E-02 0. -1.
       -2    1    3    3    0  502 -0.13637928192E+04  0.46668823698E+02  0.99554066859E+03  0.16891447705E+04  0.25500000920E-02 0.  1.
</event>
<event>
 5   0  0.2907000E-07  0.3494760E+04  0.7818609E-02  0.8115033E-01
       -3   -1    0    0    0  501  0.00000000000E+00  0.00000000000E+00  0.15928850872E+04  0.15928850904E+04  0.10100000352E+00 0. -1.
        3   -1    0    0  501    0  0.00000000000E+00  0.00000000000E+00 -0.19168598521E+04  0.19168598548E+04  0.10100000352E+00 0.  1.
    10030    2    1    2    0    0  0.00000000000E+00  0.00000000000E+00 -0.32397476490E+03  0.35097449451E+04  0.34947603540E+04 0.  0.
        1    1    3    3  502    0 -0.12634028968E+04  0.11091131789E+04 -0.64049498140E+03  0.17990421742E+04  0.50400001928E-02 0.  1.
       -1    1    3    3    0  502  0.12634028968E+04 -0.11091131789E+04  0.31652021650E+03  0.17107027710E+04  0.50400001928E-02 0. -1.
</event>
<event>
 5   0  0.2936607E-07  0.3516755E+04  0.7818609E-02  0.8109831E-01
       -1   -1    0    0    0  501  0.00000000000E+00  0.00000000000E+00  0.30061142017E+04  0.30061142017E+04  0.50400001928E-02 0. -1.
        1   -1    0    0  501    0  0.00000000000E+00  0.00000000000E+00 -0.10285344658E+04  0.10285344658E+04  0.50400001928E-02 0.  1.
    10030    2    1    2    0    0  0.00000000000E+00  0.00000000000E+00  0.19775797359E+04  0.40346486675E+04  0.35167553595E+04 0.  0.
        2    1    3    3  502    0  0.13951083670E+03 -0.13943743985E+04  0.22073494333E+04  0.26146003055E+04  0.25500000920E-02 0. -1.
       -2    1    3    3    0  502 -0.13951083670E+03  0.13943743985E+04 -0.22976969741E+03  0.14200483620E+04  0.25500000920E-02 0.  1.
</event>
<event>
 5   0  0.2936607E-07  0.3434673E+04  0.7818609E-02  0.8129448E-01
       -1   -1    0    0    0  501  0.00000000000E+00  0.00000000000E+00  0.16303476391E+04  0.16303476391E+04  0.50400001928E-02 0.  1.
        1   -1    0    0  501    0  0.00000000000E+00  0.00000000000E+00 -0.18089668260E+04  0.18089668260E+04  0.50400001928E-02 0. -1.
    10030    2    1    2    0    0  0.00000000000E+00  0.00000000000E+00 -0.17861918692E+03  0.34393144651E+04  0.34346730814E+04 0.  0.
        2    1    3    3  502    0 -0.25284747371E+03  0.71016947884E+03 -0.16344346940E+04  0.17999025814E+04  0.25500000920E-02 0. -1.
       -2    1    3    3    0  502  0.25284747371E+03 -0.71016947884E+03  0.14558155071E+04  0.16394118837E+04  0.25500000920E-02 0.  1.
</event>
<event>
 5   0  0.2933506E-07  0.3520653E+04  0.7818609E-02  0.8108913E-01
        1   -1    0    0  501    0  0.00000000000E+00  0.00000000000E+00  0.21124309547E+04  0.21124309547E+04  0.50400001928E-02 0.  1.
       -1   -1    0    0    0  501  0.00000000000E+00  0.00000000000E+00 -0.14669119106E+04  0.14669119106E+04  0.50400001928E-02 0. -1.
    10030    2    1    2    0    0  0.00000000000E+00  0.00000000000E+00  0.64551904409E+03  0.35793428653E+04  0.35206534210E+04 0.  0.
        4    1    3    3  502    0 -0.78358397673E+03  0.74883449330E+03 -0.10874433964E+04  0.15353474201E+04  0.12699999809E+01 0. -1.
       -4    1    3    3    0  502  0.78358397673E+03 -0.74883449330E+03  0.17329624405E+04  0.20439954452E+04  0.12699999809E+01 0.  1.
</event>
<event>
 5   0  0.8950809E-07  0.3531732E+04  0.7818609E-02  0.8106311E-01
       -2   -1    0    0    0  501  0.00000000000E+00  0.00000000000E+00  0.18235078236E+04  0.18235078236E+04  0.25500000920E-02 0. -1.
        2   -1    0    0  501    0  0.00000000000E+00  0.00000000000E+00 -0.17100459438E+04  0.17100459438E+04  0.25500000920E-02 0.  1.
    10030    2    1    2    0    0  0.00000000000E+00  0.00000000000E+00  0.11346187979E+03  0.35335537674E+04  0.35317316757E+04 0.  0.
        2    1    3    3  502    0  0.58155235257E+03 -0.69695741469E+02 -0.16100281448E+04  0.17132575003E+04  0.25500000920E-02 0.  1.
       -2    1    3    3    0  502 -0.58155235257E+03  0.69695741469E+02  0.17234900246E+04  0.18202962671E+04  0.25500000920E-02 0. -1.
</event>
<event>
 5   0  0.3026332E-07  0.3480573E+04  0.7818609E-02  0.8118409E-01
        1   -1    0    0  501    0  0.00000000000E+00  0.00000000000E+00  0.20732341170E+04  0.20732341170E+04  0.50400001928E-02 0.  1.
       -1   -1    0    0    0  501  0.00000000000E+00  0.00000000000E+00 -0.14608078281E+04  0.14608078281E+04  0.50400001928E-02 0. -1.
    10030    2    1    2    0    0  0.00000000000E+00  0.00000000000E+00  0.61242628889E+03  0.35340419451E+04  0.34805727273E+04 0.  0.
        1    1    3    3  502    0  0.13029010411E+04 -0.10923130412E+04 -0.70837369692E+02  0.17016805916E+04  0.50400001928E-02 0. -1.
       -1    1    3    3    0  502 -0.13029010411E+04  0.10923130412E+04  0.68326365858E+03  0.18323613535E+04  0.50400001928E-02 0.  1.
</event>
<event>
 5   0  0.8950809E-07  0.3480596E+04  0.7818609E-02  0.8118404E-01
       -2   -1    0    0    0  501  0.00000000000E+00  0.00000000000E+00  0.15757723273E+04  0.15757723273E+04  0.25500000920E-02 0.  1.
        2   -1    0    0  501    0  0.00000000000E+00  0.00000000000E+00 -0.19220017573E+04  0.19220017573E+04  0.25500000920E-02 0. -1.
    10030    2    1    2    0    0  0.00000000000E+00  0.00000000000E+00 -0.34622942994E+03  0.34977740846E+04  0.34805960306E+04 0.  0.
        2    1    3    3  502    0  0.15000576061E+04 -0.33432136618E+03 -0.99365757944E+03  0.18301090084E+04  0.25500000920E-02 0. -1.
       -2    1    3    3    0  502 -0.15000576061E+04  0.33432136618E+03  0.64742814950E+03  0.16676650762E+04  0.25500000920E-02 0.  1.
</event>
<event>
 5   0  0.8950809E-07  0.3477290E+04  0.7818609E-02  0.8119193E-01
        2   -1    0    0  501    0  0.00000000000E+00  0.00000000000E+00  0.20606817553E+04  0.20606817553E+04  0.25500000920E-02 0. -1.
       -2   -1    0    0    0  501  0.00000000000E+00  0.00000000000E+00 -0.14669352263E+04  0.14669352263E+04  0.25500000920E-02 0.  1.
    10030    2    1    2    0    0  0.00000000000E+00  0.00000000000E+00  0.59374652895E+03  0.35276169816E+04  0.34772901271E+04 0.  0.
        2    1    3    3  502    0 -0.40289075465E+03  0.13416704277E+04  0.13415766442E+04  0.19396464598E+04  0.25500000920E-02 0. -1.
       -2    1    3    3    0  502  0.40289075465E+03 -0.13416704277E+04 -0.74783011523E+03  0.15879705218E+04  0.25500000920E-02 0.  1.
</event>
<event>
 5   0  0.8950809E-07  0.3453806E+04  0.7818609E-02  0.8124825E-01
        2   -1    0    0  501    0  0.00000000000E+00  0.00000000000E+00  0.16889704436E+04  0.16889704436E+04  0.25500000920E-02 0.  1.
       -2   -1    0    0    0  501  0.00000000000E+00  0.00000000000E+00 -0.17656874298E+04  0.17656874298E+04  0.25500000920E-02 0. -1.
    10030    2    1    2    0    0  0.00000000000E+00  0.00000000000E+00 -0.76716986268E+02  0.34546578734E+04  0.34538059480E+04 0.  0.
        2    1    3    3  502    0  0.12354575672E+04  0.10470905883E+04  0.56132235865E+03  0.17140119284E+04  0.25500000920E-02 0.  1.
       -2    1    3    3    0  502 -0.12354575672E+04 -0.10470905883E+04 -0.63803934492E+03  0.17406459450E+04  0.25500000920E-02 0. -1.
</event>
<event>
 5   0  0.9128871E-07  0.3504101E+04  0.7818609E-02  0.8112819E-01
       -2   -1    0    0    0  501  0.00000000000E+00  0.00000000000E+00  0.17564111638E+04  0.17564111638E+04  0.25500000920E-02 0. -1.
        2   -1    0    0  501    0  0.00000000000E+00  0.00000000000E+00 -0.17477011174E+04  0.17477011174E+04  0.25500000920E-02 0.  1.
    10030    2    1    2    0    0  0.00000000000E+00  0.00000000000E+00  0.87100464391E+01  0.35041122812E+04  0.35041014561E+04 0.  0.
        1    1    3    3  502    0 -0.89083135987E+03  0.19226252819E+03 -0.14920240052E+04  0.17483366448E+04  0.50400001928E-02 0.  1.
       -1    1    3    3    0  502  0.89083135987E+03 -0.19226252819E+03  0.15007340517E+04  0.17557756364E+04  0.50400001928E-02 0. -1.
</event>
<event>
 5   0  0.2936607E-07  0.3532440E+04  0.7818609E-02  0.8106145E-01
       -1   -1    0    0    0  501  0.00000000000E+00  0.00000000000E+00  0.12251115582E+04  0.12251115583E+04  0.50400001928E-02 0. -1.
        1   -1    0    0  501    0  0.00000000000E+00  0.00000000000E+00 -0.25463261225E+04  0.25463261225E+04  0.50400001928E-02 0.  1.
    10030    2    1    2    0    0  0.00000000000E+00  0.00000000000E+00 -0.13212145642E+04  0.37714376807E+04  0.35324402691E+04 0.  0.
        2    1    3    3  502    0 -0.13976959092E+04 -0.10012115660E+04 -0.22882564723E+03  0.17344565810E+04  0.25500000920E-02 0. -1.
       -2    1    3    3    0  502  0.13976959092E+04  0.10012115660E+04 -0.10923889170E+04  0.20369810997E+04  0.25500000920E-02 0.  1.
</event>
<event>
 5   0  0.9311672E-07  0.3518803E+04  0.7818609E-02  0.8109348E-01
        2   -1    0    0  501    0  0.00000000000E+00  0.00000000000E+00  0.16122688424E+04  0.16122688424E+04  0.25500000920E-02 0.  1.
       -2   -1    0    0    0  501  0.00000000000E+00  0.00000000000E+00 -0.19199617032E+04  0.19199617032E+04  0.25500000920E-02 0. -1.
    10030    2    1    2    0    0  0.00000000000E+00  0.00000000000E+00 -0.30769286078E+03  0.35322305456E+04  0.35188034515E+04 0.  0.
        4    1    3    3  502    0 -0.80870723843E+03  0.69128469659E+03  0.12527896360E+04  0.16435831023E+04  0.12699999809E+01 0. -1.
       -4    1    3    3    0  502  0.80870723843E+03 -0.69128469659E+03 -0.15604824968E+04  0.18886474433E+04  0.12699999809E+01 0.  1.
</event>
<event>
 5   0  0.8845195E-07  0.3505785E+04  0.7818609E-02  0.8112420E-01
       -2   -1    0    0    0  501  0.00000000000E+00  0.00000000000E+00  0.14653733371E+04  0.14653733371E+04  0.25500000920E-02 0.  1.
        2   -1    0    0  501    0  0.00000000000E+00  0.00000000000E+00 -0.20968258405E+04  0.20968258405E+04  0.25500000920E-02 0. -1.
    10030    2    1    2    0    0  0.00000000000E+00  0.00000000000E+00 -0.63145250337E+03  0.35621991776E+04  0.35057853210E+04 0.  0.
        5    1    3    3  502    0  0.88872532616E+03 -0.14797939444E+04 -0.58803276433E+01  0.17261748149E+04  0.46999998093E+01 0. -1.
       -5    1    3    3    0  502 -0.88872532616E+03  0.14797939444E+04 -0.62557217572E+03  0.18360243627E+04  0.46999998093E+01 0.  1.
</event>
<event>
 5   0  0.2972541E-07  0.3462565E+04  0.7818609E-02  0.8122719E-01
        1   -1    0    0  501    0  0.00000000000E+00  0.00000000000E+00  0.21065705025E+04  0.21065705025E+04  0.50400001928E-02 0. -1.
       -1   -1    0    0    0  501  0.00000000000E+00  0.00000000000E+00 -0.14228524386E+04  0.14228524387E+04  0.50400001928E-02 0.  1.
    10030    2    1    2    0    0  0.00000000000E+00  0.00000000000E+00  0.68371806390E+03  0.35294229412E+04  0.34625649318E+04 0.  0.
        3    1    3    3  502    0  0.54574252879E+03  0.12104763004E+04 -0.79056102925E+03  0.15453396173E+04  0.10100000352E+00 0.  1.
       -3    1    3    3    0  502 -0.54574252879E+03 -0.12104763004E+04  0.14742790931E+04  0.19840833239E+04  0.10100000352E+00 0. -1.
</event>
<event>
 5   0  0.6188930E-07  0.3473451E+04  0.7818609E-02  0.8120111E-01
       -2   -1    0    0    0  501  0.00000000000E+00  0.00000000000E+00  0.11422195006E+04  0.11422195006E+04  0.25500000920E-02 0.  1.
        2   -1    0    0  501    0  0.00000000000E+00  0.00000000000E+00 -0.26406612954E+04  0.26406612954E+04  0.25500000920E-02 0. -1.
    10030    2    1    2    0    0  0.00000000000E+00  0.00000000000E+00 -0.14984417948E+04  0.37828807961E+04  0.34734506337E+04 0.  0.
        3    1    3    3  502    0 -0.15634685168E+04  0.42363574365E+03 -0.14313684121E+04  0.21616467306E+04  0.10100000352E+00 0. -1.
       -3    1    3    3    0  502  0.15634685168E+04 -0.42363574365E+03 -0.67073382702E+02  0.16212340655E+04  0.10100000352E+00 0.  1.
</event>
<event>
 5   0  0.2972541E-07  0.3485296E+04  0.7818609E-02  0.8117283E-01
       -1   -1    0    0    0  501  0.00000000000E+00  0.00000000000E+00  0.18412181301E+04  0.18412181301E+04  0.50400001928E-02 0. -1.
        1   -1    0    0  501    0  0.00000000000E+00  0.00000000000E+00 -0.16493550506E+04  0.16493550506E+04  0.50400001928E-02 0.  1.
    10030    2    1    2    0    0  0.00000000000E+00  0.00000000000E+00  0.19186307951E+03  0.34905731808E+04  0.34852962125E+04 0.  0.
        3    1    3    3  502    0  0.12811267158E+04 -0.74897293834E+03  0.10108661866E+04  0.17955769495E+04  0.10100000352E+00 0. -1.
       -3    1    3    3    0  502 -0.12811267158E+04  0.74897293834E+03 -0.81900310709E+03  0.16949962312E+04  0.10100000352E+00 0.  1.
</event>
<event>
 5   0  0.6188930E-07  0.3472290E+04  0.7818609E-02  0.8120388E-01
       -2   -1    0    0    0  501  0.00000000000E+00  0.00000000000E+00  0.10276254113E+04  0.10276254113E+04  0.25500000920E-02 0. -1.
        2   -1    0    0  501    0  0.00000000000E+00  0.00000000000E+00 -0.29331696724E+04  0.29331696724E+04  0.25500000920E-02 0.  1.
    10030    2    1    2    0    0  0.00000000000E+00  0.00000000000E+00 -0.19055442611E+04  0.39607950837E+04  0.34722901324E+04 0.  0.
        3    1    3    3  502    0 -0.58763316352E+03 -0.84673178851E+03 -0.25464433697E+04  0.27471150871E+04  0.10100000352E+00 0.  1.
       -3    1    3    3    0  502  0.58763316352E+03  0.84673178851E+03  0.64089910858E+03  0.12136799966E+04  0.10100000352E+00 0. -1.
</event>
<event>
 5   0  0.8950809E-07  0.3471997E+04  0.7818609E-02  0.8120458E-01
        2   -1    0    0  501    0  0.00000000000E+00  0.00000000000E+00  0.26915135506E+04  0.26915135506E+04  0.25500000920E-02 0. -1.
       -2   -1    0    0    0  501  0.00000000000E+00  0.00000000000E+00 -0.11197012921E+04  0.11197012921E+04  0.25500000920E-02 0.  1.
    10030    2    1    2    0    0  0.00000000000E+00  0.00000000000E+00  0.15718122585E+04  0.38112148427E+04  0.34719972352E+04 0.  0.
        2    1    3    3  502    0 -0.88869406276E+03  0.14849171484E+04  0.63485702539E+03  0.18433121053E+04  0.25500000920E-02 0. -1.
       -2    1    3    3    0  502  0.88869406276E+03 -0.14849171484E+04  0.93695523311E+03  0.19679027374E+04  0.25500000920E-02 0.  1.
</event>
<event>
 5   0  0.2933506E-07  0.3483577E+04  0.7818609E-02  0.8117693E-01
       -1   -1    0    0    0  501  0.00000000000E+00  0.00000000000E+00  0.15946447756E+04  0.15946447756E+04  0.50400001928E-02 0.  1.
        1   -1    0    0  501    0  0.00000000000E+00  0.00000000000E+00 -0.19025100386E+04  0.19025100386E+04  0.50400001928E-02 0. -1.
    10030    2    1    2    0    0  0.00000000000E+00  0.00000000000E+00 -0.30786526299E+03  0.34971548141E+04  0.34835772955E+04 0.  0.
        4    1    3    3  502    0 -0.10771178124E+04  0.46959489588E+03 -0.14446825718E+04  0.18622060826E+04  0.12699999809E+01 0. -1.
       -4    1    3    3    0  502  0.10771178124E+04 -0.46959489588E+03  0.11368173088E+04  0.16349487315E+04  0.12699999809E+01 0.  1.
</event>
<event>
 5   0  0.3026332E-07  0.3479183E+04  0.7818609E-02  0.8118741E-01
        1   -1    0    0  501    0  0.00000000000E+00  0.00000000000E+00  0.12055443831E+04  0.12055443831E+04  0.50400001928E-02 0. -1.
       -1   -1    0    0    0  501  0.00000000000E+00  0.00000000000E+00 -0.25102176313E+04  0.25102176313E+04  0.50400001928E-02 0.  1.
    10030    2    1    2    0    0  0.00000000000E+00  0.00000000000E+00 -0.13046732482E+04  0.37157620144E+04  0.34791831029E+04 0.  0.
        1    1    3    3  502    0  0.92789132462E+03  0.12957027874E+04 -0.13971464488E+04  0.21193976085E+04  0.50400001928E-02 0.  1.
       -1    1    3    3    0  502 -0.92789132462E+03 -0.12957027874E+04  0.92473200628E+02  0.15963644059E+04  0.50400001928E-02 0. -1.
</event>
<event>
 5   0  0.9311672E-07  0.3502278E+04  0.7818609E-02  0.8113250E-01
        2   -1    0    0  501    0  0.00000000000E+00  0.00000000000E+00  0.19614824175E+04  0.19614824175E+04  0.25500000920E-02 0. -1.
       -2   -1    0    0    0  501  0.00000000000E+00  0.00000000000E+00 -0.15633523345E+04  0.15633523345E+04  0.25500000920E-02 0.  1.
    10030    2    1    2    0    0  0.00000000000E+00  0.00000000000E+00  0.39813008295E+03  0.35248347520E+04  0.35022781823E+04 0.  0.
        4    1    3    3  502    0 -0.62195403137E+02 -0.56368248613E+03  0.18665035510E+04  0.19507545546E+04  0.12699999809E+01 0. -1.
       -4    1    3    3    0  502  0.62195403137E+02  0.56368248613E+03 -0.14683734681E+04  0.15740801974E+04  0.12699999809E+01 0.  1.
</event>
<event>
 5   0  0.9311672E-07  0.3508096E+04  0.7818609E-02  0.8111874E-01
       -2   -1    0    0    0  501  0.00000000000E+00  0.00000000000E+00  0.18457441803E+04  0.18457441803E+04  0.25500000920E-02 0. -1.
        2   -1    0    0  501    0  0.00000000000E+00  0.00000000000E+00 -0.16669071825E+04  0.16669071825E+04  0.25500000920E-02 0.  1.
    10030    2    1    2    0    0  0.00000000000E+00  0.00000000000E+00  0.17883699774E+03  0.35126513628E+04  0.35080959116E+04 0.  0.
        4    1    3    3  502    0 -0.13835800047E+04 -0.10095598669E+04  0.46829836596E+03  0.17756153093E+04  0.12699999809E+01 0.  1.
       -4    1    3    3    0  502  0.13835800047E+04  0.10095598669E+04 -0.28946136821E+03  0.17370360534E+04  0.12699999809E+01 0. -1.
</event>
<event>
 5   0  0.9128871E-07  0.3483565E+04  0.7818609E-02  0.8117696E-01
       -2   -1    0    0    0  501  0.00000000000E+00  0.00000000000E+00  0.16033439460E+04  0.16033439460E+04  0.25500000920E-02 0.  1.
        2   -1    0    0  501    0  0.00000000000E+00  0.00000000000E+00 -0.18921746997E+04  0.18921746997E+04  0.25500000920E-02 0. -1.
    10030    2    1    2    0    0  0.00000000000E+00  0.00000000000E+00 -0.28883075369E+03  0.34955186457E+04  0.34835653285E+04 0.  0.
        1    1    3    3  502    0 -0.11899861280E+04  0.94502709448E+03  0.70977741794E+03  0.16771783379E+04  0.50400001928E-02 0.  1.
       -1    1    3    3    0  502  0.11899861280E+04 -0.94502709448E+03 -0.99860817163E+03  0.18183403077E+04  0.50400001928E-02 0. -1.
</event>
<event>
 5   0  0.8845195E-07  0.3575080E+04  0.7818609E-02  0.8096224E-01
       -2   -1    0    0    0  501  0.00000000000E+00  0.00000000000E+00  0.21740971065E+04  0.21740971065E+04  0.25500000920E-02 0. -1.
        2   -1    0    0  501    0  0.00000000000E+00  0.00000000000E+00 -0.14697130491E+04  0.14697130491E+04  0.25500000920E-02 0.  1.
    10030    2    1    2    0    0  0.00000000000E+00  0.00000000000E+00  0.70438405741E+03  0.36438101556E+04  0.35750797963E+04 0.  0.
        5    1    3    3  502    0  0.12734425046E+04 -0.24926220995E+03  0.16052539882E+04  0.20641341813E+04  0.46999998093E+01 0. -1.
       -5    1    3    3    0  502 -0.12734425046E+04  0.24926220995E+03 -0.90086993074E+03  0.15796759744E+04  0.46999998093E+01 0.  1.
</event>
<event>
 5   0  0.2972541E-07  0.2896629E+04  0.7818609E-02  0.8273881E-01
       -1   -1    0    0    0  501  0.00000000000E+00  0.00000000000E+00  0.11909578715E+04  0.11909578716E+04  0.50400001928E-02 0. -1.
        1   -1    0    0  501    0  0.00000000000E+00  0.00000000000E+00 -0.17612833897E+04  0.17612833897E+04  0.50400001928E-02 0.  1.
    10030    2    1    2    0    0  0.00000000000E+00  0.00000000000E+00 -0.57032551818E+03  0.29522412613E+04  0.28966286038E+04 0.  0.
        3    1    3    3  502    0  0.81089599046E+03  0.11179462906E+04  0.15939746020E+03  0.13902387480E+04  0.10100000352E+00 0.  1.
       -3    1    3    3    0  502 -0.81089599046E+03 -0.11179462906E+04 -0.72972297838E+03  0.15620025132E+04  0.10100000352E+00 0. -1.
</event>
<event>
 5   0  0.3026332E-07  0.3450883E+04  0.7818609E-02  0.8125530E-01
        1   -1    0    0  501    0  0.00000000000E+00  0.00000000000E+00  0.26103522440E+04  0.26103522440E+04  0.50400001928E-02 0. -1.
       -1   -1    0    0    0  501  0.00000000000E+00  0.00000000000E+00 -0.11405156825E+04  0.11405156825E+04  0.50400001928E-02 0.  1.
    10030    2    1    2    0    0  0.00000000000E+00  0.00000000000E+00  0.14698365615E+04  0.37508679265E+04  0.34508825950E+04 0.  0.
        1    1    3    3  502    0  0.13858574565E+04 -0.62071262054E+03  0.16254467775E+04  0.22244015540E+04  0.50400001928E-02 0. -1.
       -1    1    3    3    0  502 -0.13858574565E+04  0.62071262054E+03 -0.15561021595E+03  0.15264663725E+04  0.50400001928E-02 0.  1.
</event>
<event>
 5   0  0.8950809E-07  0.3488898E+04  0.7818609E-02  0.8116426E-01
        2   -1    0    0  501    0  0.00000000000E+00  0.00000000000E+00  0.24201259289E+04  0.24201259289E+04  0.25500000920E-02 0. -1.
       -2   -1    0    0    0  501  0.00000000000E+00  0.00000000000E+00 -0.12574147957E+04  0.12574147958E+04  0.25500000920E-02 0.  1.
    10030    2    1    2    0    0  0.00000000000E+00  0.00000000000E+00  0.11627111332E+04  0.36775407247E+04  0.34888979066E+04 0.  0.
        2    1    3    3  502    0  0.45733986822E+01  0.42221283409E+03  0.23654494917E+04  0.24028391313E+04  0.25500000920E-02 0. -1.
       -2    1    3    3    0  502 -0.45733986822E+01 -0.42221283409E+03 -0.12027383585E+04  0.12747015934E+04  0.25500000920E-02 0.  1.
</event>
<event>
 5   0  0.3061330E-07  0.3512167E+04  0.7818609E-02  0.8110912E-01
        1   -1    0    0  501    0  0.00000000000E+00  0.00000000000E+00  0.24573166596E+04  0.24573166596E+04  0.50400001928E-02 0. -1.
       -1   -1    0    0    0  501  0.00000000000E+00  0.00000000000E+00 -0.12549583550E+04  0.12549583550E+04  0.50400001928E-02 0.  1.
    10030    2    1    2    0    0  0.00000000000E+00  0.00000000000E+00  0.12023583046E+04  0.37122750146E+04  0.35121674634E+04 0.  0.
        5    1    3    3  502    0 -0.35217469821E+03  0.23990813295E+03  0.24018339828E+04  0.24393465316E+04  0.46999998093E+01 0. -1.
       -5    1    3    3    0  502  0.35217469821E+03 -0.23990813295E+03 -0.11994756782E+04  0.12729284830E+04  0.46999998093E+01 0.  1.
</event>
<event>
 5   0  0.3026332E-07  0.3481949E+04  0.7818609E-02  0.8118081E-01
       -1   -1    0    0    0  501  0.00000000000E+00  0.00000000000E+00  0.20980803255E+04  0.20980803255E+04  0.50400001928E-02 0. -1.
        1   -1    0    0  501    0  0.00000000000E+00  0.00000000000E+00 -0.14446498864E+04  0.14446498864E+04  0.50400001928E-02 0.  1.
    10030    2    1    2    0    0  0.00000000000E+00  0.00000000000E+00  0.65343043908E+03  0.35427302119E+04  0.34819485946E+04 0.  0.
        1    1    3    3  502    0 -0.14813516330E+04  0.16838497976E+03  0.12414277833E+04  0.19400770869E+04  0.50400001928E-02 0. -1.
       -1    1    3    3    0  502  0.14813516330E+04 -0.16838497976E+03 -0.58799734421E+03  0.16026531249E+04  0.50400001928E-02 0.  1.
</event>
<event>
 5   0  0.2936607E-07  0.3477951E+04  0.7818609E-02  0.8119035E-01
       -1   -1    0    0    0  501  0.00000000000E+00  0.00000000000E+00  0.12935052483E+04  0.12935052483E+04  0.50400001928E-02 0.  1.
        1   -1    0    0  501    0  0.00000000000E+00  0.00000000000E+00 -0.23378606977E+04  0.23378606977E+04  0.50400001928E-02 0. -1.
    10030    2    1    2    0    0  0.00000000000E+00  0.00000000000E+00 -0.10443554494E+04  0.36313659460E+04  0.34779505933E+04 0.  0.
        2    1    3    3  502    0  0.27468147417E+03 -0.80374170948E+02 -0.23131018239E+04  0.23307402188E+04  0.25500000920E-02 0. -1.
       -2    1    3    3    0  502 -0.27468147417E+03  0.80374170948E+02  0.12687463745E+04  0.13006257273E+04  0.25500000920E-02 0.  1.
</event>
<event>
 5   0  0.8950809E-07  0.3495033E+04  0.7818609E-02  0.8114968E-01
       -2   -1    0    0    0  501  0.00000000000E+00  0.00000000000E+00  0.23396175808E+04  0.23396175808E+04  0.25500000920E-02 0. -1.
        2   -1    0    0  501    0  0.00000000000E+00  0.00000000000E+00 -0.13052619819E+04  0.13052619819E+04  0.25500000920E-02 0.  1.
    10030    2    1    2    0    0  0.00000000000E+00  0.00000000000E+00  0.10343555989E+04  0.36448795627E+04  0.34950329786E+04 0.  0.
        2    1    3    3  502    0  0.11773094676E+04 -0.10257587824E+04 -0.30104667975E+03  0.15902414174E+04  0.25500000920E-02 0.  1.
       -2    1    3    3    0  502 -0.11773094676E+04  0.10257587824E+04  0.13354022786E+04  0.20546381453E+04  0.25500000920E-02 0. -1.
</event>
<event>
 5   0  0.6188930E-07  0.3466443E+04  0.7818609E-02  0.8121789E-01
        2   -1    0    0  501    0  0.00000000000E+00  0.00000000000E+00  0.19957216485E+04  0.19957216485E+04  0.25500000920E-02 0.  1.
       -2   -1    0    0    0  501  0.00000000000E+00  0.00000000000E+00 -0.15052484706E+04  0.15052484706E+04  0.25500000920E-02 0. -1.
    10030    2    1    2    0    0  0.00000000000E+00  0.00000000000E+00  0.49047317788E+03  0.35009701191E+04  0.34664431103E+04 0.  0.
        3    1    3    3  502    0  0.56386352059E+03 -0.15543560492E+04  0.77011693253E+03  0.18240188863E+04  0.10100000352E+00 0. -1.
       -3    1    3    3    0  502 -0.56386352059E+03  0.15543560492E+04 -0.27964375465E+03  0.16769512328E+04  0.10100000352E+00 0.  1.
</event>
<event>
 5   0  0.3061330E-07  0.3504081E+04  0.7818609E-02  0.8112823E-01
       -1   -1    0    0    0  501  0.00000000000E+00  0.00000000000E+00  0.10911124811E+04  0.10911124811E+04  0.50400001928E-02 0.  1.
        1   -1    0    0  501    0  0.00000000000E+00  0.00000000000E+00 -0.28133181524E+04  0.28133181524E+04  0.50400001928E-02 0. -1.
    10030    2    1    2    0    0  0.00000000000E+00  0.00000000000E+00 -0.17222056713E+04  0.39044306335E+04  0.35040813628E+04 0.  0.
        5    1    3    3  502    0 -0.90162168544E+03  0.46658251571E+03  0.72997901190E+03  0.12504048766E+04  0.46999998093E+01 0.  1.
       -5    1    3    3    0  502  0.90162168544E+03 -0.46658251571E+03 -0.24521846832E+04  0.26540257568E+04  0.46999998093E+01 0. -1.
</event>
<event>
 5   0  0.3026332E-07  0.3499530E+04  0.7818609E-02  0.8113901E-01
       -1   -1    0    0    0  501  0.00000000000E+00  0.00000000000E+00  0.13453667557E+04  0.13453667557E+04  0.50400001928E-02 0.  1.
        1   -1    0    0  501    0  0.00000000000E+00  0.00000000000E+00 -0.22757195716E+04  0.22757195716E+04  0.50400001928E-02 0. -1.
    10030    2    1    2    0    0  0.00000000000E+00  0.00000000000E+00 -0.93035281588E+03  0.36210863273E+04  0.34995299438E+04 0.  0.
        1    1    3    3  502    0 -0.43090246341E+03 -0.11964868519E+04  0.77840972815E+03  0.14910330059E+04  0.50400001928E-02 0.  1.
       -1    1    3    3    0  502  0.43090246341E+03  0.11964868519E+04 -0.17087625440E+04  0.21300533213E+04  0.50400001928E-02 0. -1.
</event>
<event>
 5   0  0.2972541E-07  0.3490919E+04  0.7818609E-02  0.8115945E-01
        1   -1    0    0  501    0  0.00000000000E+00  0.00000000000E+00  0.19541283697E+04  0.19541283697E+04  0.50400001928E-02 0.  1.
       -1   -1    0    0    0  501  0.00000000000E+00  0.00000000000E+00 -0.15590733410E+04  0.15590733410E+04  0.50400001928E-02 0. -1.
    10030    2    1    2    0    0  0.00000000000E+00  0.00000000000E+00  0.39505502876E+03  0.35132017107E+04  0.34909193323E+04 0.  0.
        3    1    3    3  502    0  0.29359148635E+03 -0.11956648607E+04 -0.10476325879E+04  0.16165841980E+04  0.10100000352E+00 0. -1.
       -3    1    3    3    0  502 -0.29359148635E+03  0.11956648607E+04  0.14426876167E+04  0.18966175127E+04  0.10100000352E+00 0.  1.
</event>
<event>
 5   0  0.6188930E-07  0.3510022E+04  0.7818609E-02  0.8111419E-01
       -2   -1    0    0    0  501  0.00000000000E+00  0.00000000000E+00  0.24800175292E+04  0.24800175292E+04  0.25500000920E-02 0. -1.
        2   -1    0    0  501    0  0.00000000000E+00  0.00000000000E+00 -0.12419522905E+04  0.12419522905E+04  0.25500000920E-02 0.  1.
    10030    2    1    2    0    0  0.00000000000E+00  0.00000000000E+00  0.12380652387E+04  0.37219698197E+04  0.35100219093E+04 0.  0.
        3    1    3    3  502    0 -0.26913927288E+03  0.10783925061E+04 -0.82117648465E+03  0.13819179334E+04  0.10100000352E+00 0.  1.
       -3    1    3    3    0  502  0.26913927288E+03 -0.10783925061E+04  0.20592417234E+04  0.23400518864E+04  0.10100000352E+00 0. -1.
</event>
<event>
 5   0  0.3061330E-07  0.3505691E+04  0.7818609E-02  0.8112443E-01
       -1   -1    0    0    0  501  0.00000000000E+00  0.00000000000E+00  0.13738283540E+04  0.13738283540E+04  0.50400001928E-02 0. -1.
        1   -1    0    0  501    0  0.00000000000E+00  0.00000000000E+00 -0.22364271899E+04  0.22364271900E+04  0.50400001928E-02 0.  1.
    10030    2    1    2    0    0  0.00000000000E+00  0.00000000000E+00 -0.86259883592E+03  0.36102555440E+04  0.35056908508E+04 0.  0.
        5    1    3    3  502    0 -0.92450242826E+03  0.97171023434E+03 -0.15934626301E+04  0.20828035824E+04  0.46999998093E+01 0.  1.
       -5    1    3    3    0  502  0.92450242826E+03 -0.97171023434E+03  0.73086379416E+03  0.15274519616E+04  0.46999998093E+01 0. -1.
</event>
<event>
 5   0  0.8950809E-07  0.3504727E+04  0.7818609E-02  0.8112671E-01
       -2   -1    0    0    0  501  0.00000000000E+00  0.00000000000E+00  0.12895276715E+04  0.12895276715E+04  0.25500000920E-02 0. -1.
        2   -1    0    0  501    0  0.00000000000E+00  0.00000000000E+00 -0.23813197708E+04  0.23813197708E+04  0.25500000920E-02 0.  1.
    10030    2    1    2    0    0  0.00000000000E+00  0.00000000000E+00 -0.10917920993E+04  0.36708474422E+04  0.35047269446E+04 0.  0.
        2    1    3    3  502    0 -0.64598748581E+03  0.54793065853E+03 -0.21526381485E+04  0.23133047436E+04  0.25500000920E-02 0.  1.
       -2    1    3    3    0  502  0.64598748581E+03 -0.54793065853E+03  0.10608460492E+04  0.13575426986E+04  0.25500000920E-02 0. -1.
</event>
<event>
 5   0  0.8950809E-07  0.3476988E+04  0.7818609E-02  0.8119265E-01
       -2   -1    0    0    0  501  0.00000000000E+00  0.00000000000E+00  0.15137683848E+04  0.15137683848E+04  0.25500000920E-02 0.  1.
        2   -1    0    0  501    0  0.00000000000E+00  0.00000000000E+00 -0.19965810491E+04  0.19965810491E+04  0.25500000920E-02 0. -1.
    10030    2    1    2    0    0  0.00000000000E+00  0.00000000000E+00 -0.48281266426E+03  0.35103494339E+04  0.34769879320E+04 0.  0.
        2    1    3    3  502    0  0.10168429075E+04 -0.11707972758E+04  0.55202579099E+03  0.16460462428E+04  0.25500000920E-02 0.  1.
       -2    1    3    3    0  502 -0.10168429075E+04  0.11707972758E+04 -0.10348384552E+04  0.18643031910E+04  0.25500000920E-02 0. -1.
</event>
<event>
 5   0  0.8845195E-07  0.3463839E+04  0.7818609E-02  0.8122413E-01
       -2   -1    0    0    0  501  0.00000000000E+00  0.00000000000E+00  0.16598310221E+04  0.16598310221E+04  0.25500000920E-02 0. -1.
        2   -1    0    0  501    0  0.00000000000E+00  0.00000000000E+00 -0.18071388599E+04  0.18071388599E+04  0.25500000920E-02 0.  1.
    10030    2    1    2    0    0  0.00000000000E+00  0.00000000000E+00 -0.14730783773E+03  0.34669698820E+04  0.34638389922E+04 0.  0.
        5    1    3    3  502    0 -0.11620847176E+04  0.26858701721E+03  0.11832451196E+04  0.16800806468E+04  0.46999998093E+01 0. -1.
       -5    1    3    3    0  502  0.11620847176E+04 -0.26858701721E+03 -0.13305529573E+04  0.17868892352E+04  0.46999998093E+01 0.  1.
</event>
<event>
 5   0  0.9128871E-07  0.3501313E+04  0.7818609E-02  0.8113479E-01
       -2   -1    0    0    0  501  0.00000000000E+00  0.00000000000E+00  0.11657150443E+04  0.11657150443E+04  0.25500000920E-02 0. -1.
        2   -1    0    0  501    0  0.00000000000E+00  0.00000000000E+00 -0.26291141867E+04  0.26291141867E+04  0.25500000920E-02 0.  1.
    10030    2    1    2    0    0  0.00000000000E+00  0.00000000000E+00 -0.14633991424E+04  0.37948292310E+04  0.35013128741E+04 0.  0.
        1    1    3    3  502    0  0.12429206099E+04  0.34502538438E+03  0.55111969431E+03  0.14027213108E+04  0.50400001928E-02 0. -1.
       -1    1    3    3    0  502 -0.12429206099E+04 -0.34502538438E+03 -0.20145188367E+04  0.23921079202E+04  0.50400001928E-02 0.  1.
</event>
<event>
 5   0  0.8950809E-07  0.3496582E+04  0.7818609E-02  0.8114601E-01
       -2   -1    0    0    0  501  0.00000000000E+00  0.00000000000E+00  0.13755994139E+04  0.13755994139E+04  0.25500000920E-02 0. -1.
        2   -1    0    0  501    0  0.00000000000E+00  0.00000000000E+00 -0.22219554504E+04  0.22219554504E+04  0.25500000920E-02 0.  1.
    10030    2    1    2    0    0  0.00000000000E+00  0.00000000000E+00 -0.84635603645E+03  0.35975548643E+04  0.34965815394E+04 0.  0.
        2    1    3    3  502    0  0.11228675217E+04 -0.36869647538E+03 -0.17486952343E+04  0.21106168730E+04  0.25500000920E-02 0.  1.
       -2    1    3    3    0  502 -0.11228675217E+04  0.36869647538E+03  0.90233919782E+03  0.14869379914E+04  0.25500000920E-02 0. -1.
</event>
<event>
 5   0  0.9128871E-07  0.3506142E+04  0.7818609E-02  0.8112336E-01
       -2   -1    0    0    0  501  0.00000000000E+00  0.00000000000E+00  0.13699188522E+04  0.13699188522E+04  0.25500000920E-02 0. -1.
        2   -1    0    0  501    0  0.00000000000E+00  0.00000000000E+00 -0.22433869864E+04  0.22433869864E+04  0.25500000920E-02 0.  1.
    10030    2    1    2    0    0  0.00000000000E+00  0.00000000000E+00 -0.87346813419E+03  0.36133058387E+04  0.35061421110E+04 0.  0.
        1    1    3    3  502    0  0.15687035489E+04  0.74118252888E+03 -0.17790892903E+03  0.17440854201E+04  0.50400001928E-02 0. -1.
       -1    1    3    3    0  502 -0.15687035489E+04 -0.74118252888E+03 -0.69555920516E+03  0.18692204186E+04  0.50400001928E-02 0.  1.
</event>
<event>
 5   0  0.2936607E-07  0.3431045E+04  0.7818609E-02  0.8130329E-01
       -1   -1    0    0    0  501  0.00000000000E+00  0.00000000000E+00  0.11713491476E+04  0.11713491477E+04  0.50400001928E-02 0. -1.
        1   -1    0    0  501    0  0.00000000000E+00  0.00000000000E+00 -0.25125025677E+04  0.25125025677E+04  0.50400001928E-02 0.  1.
    10030    2    1    2    0    0  0.00000000000E+00  0.00000000000E+00 -0.13411534200E+04  0.36838517153E+04  0.34310451709E+04 0.  0.
        2    1    3    3  502    0 -0.99900008980E+03 -0.24502003715E+03  0.80353120735E+03  0.13052579819E+04  0.25500000920E-02 0. -1.
       -2    1    3    3    0  502  0.99900008980E+03  0.24502003715E+03 -0.21446846274E+04  0.23785937335E+04  0.25500000920E-02 0.  1.
</event>
<event>
 5   0  0.2933506E-07  0.3309838E+04  0.7818609E-02  0.8160397E-01
        1   -1    0    0  501    0  0.00000000000E+00  0.00000000000E+00  0.16527851281E+04  0.16527851281E+04  0.50400001928E-02 0.  1.
       -1   -1    0    0    0  501  0.00000000000E+00  0.00000000000E+00 -0.16570558481E+04  0.16570558481E+04  0.50400001928E-02 0. -1.
    10030    2    1    2    0    0  0.00000000000E+00  0.00000000000E+00 -0.42707200561E+01  0.33098409762E+04  0.33098382209E+04 0.  0.
        4    1    3    3  502    0 -0.42872713548E+02  0.68658823151E+03  0.15030284025E+04  0.16529783606E+04  0.12699999809E+01 0.  1.
       -4    1    3    3    0  502  0.42872713548E+02 -0.68658823151E+03 -0.15072991225E+04  0.16568626156E+04  0.12699999809E+01 0. -1.
</event>
<event>
 5   0  0.2933506E-07  0.3462045E+04  0.7818609E-02  0.8122844E-01
        1   -1    0    0  501    0  0.00000000000E+00  0.00000000000E+00  0.14791406022E+04  0.14791406022E+04  0.50400001928E-02 0.  1.
       -1   -1    0    0    0  501  0.00000000000E+00  0.00000000000E+00 -0.20257974957E+04  0.20257974957E+04  0.50400001928E-02 0. -1.
    10030    2    1    2    0    0  0.00000000000E+00  0.00000000000E+00 -0.54665689352E+03  0.35049380979E+04  0.34620452497E+04 0.  0.
        4    1    3    3  502    0  0.93983221421E+03  0.31351234141E+03 -0.17103735122E+04  0.19766015641E+04  0.12699999809E+01 0. -1.
       -4    1    3    3    0  502 -0.93983221421E+03 -0.31351234141E+03  0.11637166187E+04  0.15283365338E+04  0.12699999809E+01 0.  1.
</event>
<event>
 5   0  0.9311672E-07  0.3494271E+04  0.7818609E-02  0.8115149E-01
       -2   -1    0    0    0  501  0.00000000000E+00  0.00000000000E+00  0.29197843253E+04  0.29197843253E+04  0.25500000920E-02 0.  1.
        2   -1    0    0  501    0  0.00000000000E+00  0.00000000000E+00 -0.10454476852E+04  0.10454476852E+04  0.25500000920E-02 0. -1.
    10030    2    1    2    0    0  0.00000000000E+00  0.00000000000E+00  0.18743366401E+04  0.39652320105E+04  0.34942706044E+04 0.  0.
        4    1    3    3  502    0  0.24738373960E+03  0.12218609206E+04  0.23262150879E+04  0.26392084177E+04  0.12699999809E+01 0.  1.
       -4    1    3    3    0  502 -0.24738373960E+03 -0.12218609206E+04 -0.45187844788E+03  0.13260235928E+04  0.12699999809E+01 0. -1.
</event>
<event>
 5   0  0.3061330E-07  0.3504081E+04  0.7818609E-02  0.8112823E-01
        1   -1    0    0  501    0  0.00000000000E+00  0.00000000000E+00  0.14323914503E+04  0.14323914503E+04  0.50400001928E-02 0.  1.
       -1   -1    0    0    0  501  0.00000000000E+00  0.00000000000E+00 -0.21430220306E+04  0.21430220306E+04  0.50400001928E-02 0. -1.
    10030    2    1    2    0    0  0.00000000000E+00  0.00000000000E+00 -0.71063058034E+03  0.35754134809E+04  0.35040812972E+04 0.  0.
        5    1    3    3  502    0  0.10189524164E+04  0.10094208004E+03  0.10953046080E+04  0.14993890772E+04  0.46999998093E+01 0.  1.
       -5    1    3    3    0  502 -0.10189524164E+04 -0.10094208004E+03 -0.18059351883E+04  0.20760244037E+04  0.46999998093E+01 0. -1.
</event>
<event>
 5   0  0.8845195E-07  0.3507506E+04  0.7818609E-02  0.8112013E-01
        2   -1    0    0  501    0  0.00000000000E+00  0.00000000000E+00  0.12864317501E+04  0.12864317501E+04  0.25500000920E-02 0. -1.
       -2   -1    0    0    0  501  0.00000000000E+00  0.00000000000E+00 -0.23908376959E+04  0.23908376959E+04  0.25500000920E-02 0.  1.
    10030    2    1    2    0    0  0.00000000000E+00  0.00000000000E+00 -0.11044059458E+04  0.36772694460E+04  0.35075059637E+04 0.  0.
        5    1    3    3  502    0 -0.13699829312E+04  0.55584168323E+03 -0.15411583742E+04  0.21356508219E+04  0.46999998093E+01 0.  1.
       -5    1    3    3    0  502  0.13699829312E+04 -0.55584168323E+03  0.43675242839E+03  0.15416186242E+04  0.46999998093E+01 0. -1.
</event>
<event>
 5   0  0.2933506E-07  0.3503329E+04  0.7818609E-02  0.8113001E-01
       -1   -1    0    0    0  501  0.00000000000E+00  0.00000000000E+00  0.17824154695E+04  0.17824154695E+04  0.50400001928E-02 0. -1.
        1   -1    0    0  501    0  0.00000000000E+00  0.00000000000E+00 -0.17214440456E+04  0.17214440456E+04  0.50400001928E-02 0.  1.
    10030    2    1    2    0    0  0.00000000000E+00  0.00000000000E+00  0.60971423871E+02  0.35038595151E+04  0.35033289864E+04 0.  0.
        4    1    3    3  502    0  0.12985008447E+04 -0.31681179154E+03 -0.11018750939E+04  0.17322253001E+04  0.12699999809E+01 0.  1.
       -4    1    3    3    0  502 -0.12985008447E+04  0.31681179154E+03  0.11628465178E+04  0.17716342150E+04  0.12699999809E+01 0. -1.
</event>
<event>
 5   0  0.2933506E-07  0.3523506E+04  0.7818609E-02  0.8108242E-01
       -1   -1    0    0    0  501  0.00000000000E+00  0.00000000000E+00  0.24297231517E+04  0.24297231517E+04  0.50400001928E-02 0.  1.
        1   -1    0    0  501    0  0.00000000000E+00  0.00000000000E+00 -0.12774189239E+04  0.12774189239E+04  0.50400001928E-02 0. -1.
    10030    2    1    2    0    0  0.00000000000E+00  0.00000000000E+00  0.11523042279E+04  0.37071420756E+04  0.35235063978E+04 0.  0.
        4    1    3    3  502    0 -0.16046102162E+02  0.15220983616E+04 -0.35705389062E+03  0.15634992783E+04  0.12699999809E+01 0.  1.
       -4    1    3    3    0  502  0.16046102162E+02 -0.15220983616E+04  0.15093581185E+04  0.21436427973E+04  0.12699999809E+01 0. -1.
</event>
<event>
 5   0  0.6188930E-07  0.3432034E+04  0.7818609E-02  0.8130089E-01
        2   -1    0    0  501    0  0.00000000000E+00  0.00000000000E+00  0.13839291004E+04  0.13839291004E+04  0.25500000920E-02 0. -1.
       -2   -1    0    0    0  501  0.00000000000E+00  0.00000000000E+00 -0.21277929001E+04  0.21277929001E+04  0.25500000920E-02 0.  1.
    10030    2    1    2    0    0  0.00000000000E+00  0.00000000000E+00 -0.74386379971E+03  0.35117220005E+04  0.34320340989E+04 0.  0.
        3    1    3    3  502    0  0.10363965320E+04  0.11663627401E+04 -0.11027957843E+04  0.19106748454E+04  0.10100000352E+00 0.  1.
       -3    1    3    3    0  502 -0.10363965320E+04 -0.11663627401E+04  0.35893198458E+03  0.16010471551E+04  0.10100000352E+00 0. -1.
</event>
<event>
 5   0  0.2936607E-07  0.3454290E+04  0.7818609E-02  0.8124709E-01
        1   -1    0    0  501    0  0.00000000000E+00  0.00000000000E+00  0.32403881674E+04  0.32403881674E+04  0.50400001928E-02 0.  1.
       -1   -1    0    0    0  501  0.00000000000E+00  0.00000000000E+00 -0.92057772083E+03  0.92057772084E+03  0.50400001928E-02 0. -1.
    10030    2    1    2    0    0  0.00000000000E+00  0.00000000000E+00  0.23198104466E+04  0.41609658883E+04  0.34542895963E+04 0.  0.
        2    1    3    3  502    0  0.16266934733E+04 -0.49104148970E+03  0.15326943176E+04  0.22883193116E+04  0.25500000920E-02 0.  1.
       -2    1    3    3    0  502 -0.16266934733E+04  0.49104148970E+03  0.78711612897E+03  0.18726465767E+04  0.25500000920E-02 0. -1.
</event>
<event>
 5   0  0.6188930E-07  0.3505688E+04  0.7818609E-02  0.8112443E-01
       -2   -1    0    0    0  501  0.00000000000E+00  0.00000000000E+00  0.11353265538E+04  0.11353265538E+04  0.25500000920E-02 0. -1.
        2   -1    0    0  501    0  0.00000000000E+00  0.00000000000E+00 -0.27062357956E+04  0.27062357956E+04  0.25500000920E-02 0.  1.
    10030    2    1    2    0    0  0.00000000000E+00  0.00000000000E+00 -0.15709092417E+04  0.38415623494E+04  0.35056875843E+04 0.  0.
        3    1    3    3  502    0 -0.13588319004E+04  0.85419263164E+03 -0.13401586299E+02  0.16050697175E+04  0.10100000352E+00 0. -1.
       -3    1    3    3    0  502  0.13588319004E+04 -0.85419263164E+03 -0.15575076554E+04  0.22364926319E+04  0.10100000352E+00 0.  1.
</event>
<event>
 5   0  0.3061330E-07  0.3470772E+04  0.7818609E-02  0.8120752E-01
       -1   -1    0    0    0  501  0.00000000000E+00  0.00000000000E+00  0.20654045798E+04  0.20654045798E+04  0.50400001928E-02 0. -1.
        1   -1    0    0  501    0  0.00000000000E+00  0.00000000000E+00 -0.14580991607E+04  0.14580991607E+04  0.50400001928E-02 0.  1.
    10030    2    1    2    0    0  0.00000000000E+00  0.00000000000E+00  0.60730541908E+03  0.35235037406E+04  0.34707720665E+04 0.  0.
        5    1    3    3  502    0 -0.14674076579E+04  0.45964339025E+03 -0.51292186746E+03  0.16210083938E+04  0.46999998093E+01 0.  1.
       -5    1    3    3    0  502  0.14674076579E+04 -0.45964339025E+03  0.11202272865E+04  0.19024953467E+04  0.46999998093E+01 0. -1.
</event>
<event>
 5   0  0.6188930E-07  0.3508550E+04  0.7818609E-02  0.8111767E-01
        2   -1    0    0  501    0  0.00000000000E+00  0.00000000000E+00  0.11435559191E+04  0.11435559191E+04  0.25500000920E-02 0.  1.
       -2   -1    0    0    0  501  0.00000000000E+00  0.00000000000E+00 -0.26911505549E+04  0.26911505549E+04  0.25500000920E-02 0. -1.
    10030    2    1    2    0    0  0.00000000000E+00  0.00000000000E+00 -0.15475946358E+04  0.38347064741E+04  0.35085502113E+04 0.  0.
        3    1    3    3  502    0 -0.14817446915E+04 -0.60164026561E+03 -0.15618989252E+04  0.22354119537E+04  0.10100000352E+00 0. -1.
       -3    1    3    3    0  502  0.14817446915E+04  0.60164026561E+03  0.14304289424E+02  0.15992945204E+04  0.10100000352E+00 0.  1.
</event>
<event>
 5   0  0.3026332E-07  0.3076576E+04  0.7818609E-02  0.8222196E-01
       -1   -1    0    0    0  501  0.00000000000E+00  0.00000000000E+00  0.10052791799E+04  0.10052791799E+04  0.50400001928E-02 0.  1.
        1   -1    0    0  501    0  0.00000000000E+00  0.00000000000E+00 -0.23539031858E+04  0.23539031858E+04  0.50400001928E-02 0. -1.
    10030    2    1    2    0    0  0.00000000000E+00  0.00000000000E+00 -0.13486240059E+04  0.33591823657E+04  0.30765759306E+04 0.  0.
        1    1    3    3  502    0  0.34570412053E+03  0.92901711233E+03 -0.19586936484E+04  0.21952368761E+04  0.50400001928E-02 0. -1.
       -1    1    3    3    0  502 -0.34570412053E+03 -0.92901711233E+03  0.61006964249E+03  0.11639454896E+04  0.50400001928E-02 0.  1.
</event>
<event>
 5   0  0.2972541E-07  0.3484699E+04  0.7818609E-02  0.8117426E-01
        1   -1    0    0  501    0  0.00000000000E+00  0.00000000000E+00  0.19135183146E+04  0.19135183146E+04  0.50400001928E-02 0. -1.
       -1   -1    0    0    0  501  0.00000000000E+00  0.00000000000E+00 -0.15864925779E+04  0.15864925779E+04  0.50400001928E-02 0.  1.
    10030    2    1    2    0    0  0.00000000000E+00  0.00000000000E+00  0.32702573673E+03  0.35000108925E+04  0.34846994727E+04 0.  0.
        3    1    3    3  502    0  0.14977958602E+04  0.21065955848E+03  0.10321903299E+04  0.18311708756E+04  0.10100000352E+00 0. -1.
       -3    1    3    3    0  502 -0.14977958602E+04 -0.21065955848E+03 -0.70516459314E+03  0.16688400169E+04  0.10100000352E+00 0.  1.
</event>
<event>
 5   0  0.6188930E-07  0.3435352E+04  0.7818609E-02  0.8129284E-01
        2   -1    0    0  501    0  0.00000000000E+00  0.00000000000E+00  0.22919370932E+04  0.22919370932E+04  0.25500000920E-02 0.  1.
       -2   -1    0    0    0  501  0.00000000000E+00  0.00000000000E+00 -0.12873000511E+04  0.12873000511E+04  0.25500000920E-02 0. -1.
    10030    2    1    2    0    0  0.00000000000E+00  0.00000000000E+00  0.10046370421E+04  0.35792371443E+04  0.34353519396E+04 0.  0.
        3    1    3    3  502    0 -0.13532710766E+04  0.94562446515E+03  0.82607358187E+01  0.16509441195E+04  0.10100000352E+00 0. -1.
       -3    1    3    3    0  502  0.13532710766E+04 -0.94562446515E+03  0.99637630629E+03  0.19282930248E+04  0.10100000352E+00 0.  1.
</event>
<event>
 5   0  0.3026332E-07  0.3507725E+04  0.7818609E-02  0.8111962E-01
       -1   -1    0    0    0  501  0.00000000000E+00  0.00000000000E+00  0.13801836155E+04  0.13801836155E+04  0.50400001928E-02 0.  1.
        1   -1    0    0  501    0  0.00000000000E+00  0.00000000000E+00 -0.22287133478E+04  0.22287133478E+04  0.50400001928E-02 0. -1.
    10030    2    1    2    0    0  0.00000000000E+00  0.00000000000E+00 -0.84852973226E+03  0.36088969634E+04  0.35077249872E+04 0.  0.
        1    1    3    3  502    0 -0.15872800590E+04  0.56279630850E+03 -0.92812049026E+03  0.19229158367E+04  0.50400001928E-02 0. -1.
       -1    1    3    3    0  502  0.15872800590E+04 -0.56279630850E+03  0.79590757997E+02  0.16859811266E+04  0.50400001928E-02 0.  1.
</event>
<event>
 5   0  0.2936607E-07  0.3511122E+04  0.7818609E-02  0.8111159E-01
        1   -1    0    0  501    0  0.00000000000E+00  0.00000000000E+00  0.21752796140E+04  0.21752796140E+04  0.50400001928E-02 0.  1.
       -1   -1    0    0    0  501  0.00000000000E+00  0.00000000000E+00 -0.14168267763E+04  0.14168267763E+04  0.50400001928E-02 0. -1.
    10030    2    1    2    0    0  0.00000000000E+00  0.00000000000E+00  0.75845283769E+03  0.35921063902E+04  0.35111219876E+04 0.  0.
        2    1    3    3  502    0  0.50948061539E+03 -0.13739051416E+04  0.13683820198E+04  0.20049077754E+04  0.25500000920E-02 0.  1.
       -2    1    3    3    0  502 -0.50948061539E+03  0.13739051416E+04 -0.60992918215E+03  0.15871986148E+04  0.25500000920E-02 0. -1.
</event>
<event>
 5   0  0.8950809E-07  0.3486615E+04  0.7818609E-02  0.8116969E-01
       -2   -1    0    0    0  501  0.00000000000E+00  0.00000000000E+00  0.19082852790E+04  0.19082852790E+04  0.25500000920E-02 0.  1.
        2   -1    0    0  501    0  0.00000000000E+00  0.00000000000E+00 -0.15925930138E+04  0.15925930138E+04  0.25500000920E-02 0. -1.
    10030    2    1    2    0    0  0.00000000000E+00  0.00000000000E+00  0.31569226525E+03  0.35008782928E+04  0.34866154383E+04 0.  0.
        2    1    3    3  502    0  0.15910286075E+04 -0.34187904965E+03  0.78559840593E+03  0.18070468090E+04  0.25500000920E-02 0.  1.
       -2    1    3    3    0  502 -0.15910286075E+04  0.34187904965E+03 -0.46990614068E+03  0.16938314838E+04  0.25500000920E-02 0. -1.
</event>
<event>
 5   0  0.8950809E-07  0.3498732E+04  0.7818609E-02  0.8114091E-01
       -2   -1    0    0    0  501  0.00000000000E+00  0.00000000000E+00  0.16561848078E+04  0.16561848078E+04  0.25500000920E-02 0. -1.
        2   -1    0    0  501    0  0.00000000000E+00  0.00000000000E+00 -0.18477894919E+04  0.18477894919E+04  0.25500000920E-02 0.  1.
    10030    2    1    2    0    0  0.00000000000E+00  0.00000000000E+00 -0.19160468404E+03  0.35039742997E+04  0.34987317042E+04 0.  0.
        2    1    3    3  502    0 -0.13667597015E+03  0.68949035565E+03 -0.17001401851E+04  0.18397157172E+04  0.25500000920E-02 0.  1.
       -2    1    3    3    0  502  0.13667597015E+03 -0.68949035565E+03  0.15085355010E+04  0.16642585825E+04  0.25500000920E-02 0. -1.
</event>
<event>
 5   0  0.9311672E-07  0.3452095E+04  0.7818609E-02  0.8125238E-01
       -2   -1    0    0    0  501  0.00000000000E+00  0.00000000000E+00  0.16044343682E+04  0.16044343682E+04  0.25500000920E-02 0.  1.
        2   -1    0    0  501    0  0.00000000000E+00  0.00000000000E+00 -0.18568786317E+04  0.18568786317E+04  0.25500000920E-02 0. -1.
    10030    2    1    2    0    0  0.00000000000E+00  0.00000000000E+00 -0.25244426345E+03  0.34613129999E+04  0.34520949549E+04 0.  0.
        4    1    3    3  502    0 -0.60795358817E+03  0.10439770170E+04  0.11098481755E+04  0.16405060691E+04  0.12699999809E+01 0.  1.
       -4    1    3    3    0  502  0.60795358817E+03 -0.10439770170E+04 -0.13622924389E+04  0.18208069308E+04  0.12699999809E+01 0. -1.
</event>
<event>
 5   0  0.9128871E-07  0.3527442E+04  0.7818609E-02  0.8107317E-01
       -2   -1    0    0    0  501  0.00000000000E+00  0.00000000000E+00  0.12618879280E+04  0.12618879280E+04  0.25500000920E-02 0.  1.
        2   -1    0    0  501    0  0.00000000000E+00  0.00000000000E+00 -0.24651250559E+04  0.24651250559E+04  0.25500000920E-02 0. -1.
    10030    2    1    2    0    0  0.00000000000E+00  0.00000000000E+00 -0.12032371279E+04  0.37270129839E+04  0.35274418770E+04 0.  0.
        1    1    3    3  502    0  0.51377821086E+03  0.97475727614E+03  0.85346511011E+03  0.13937440552E+04  0.50400001928E-02 0.  1.
       -1    1    3    3    0  502 -0.51377821086E+03 -0.97475727614E+03 -0.20567022380E+04  0.23332689286E+04  0.50400001928E-02 0. -1.
</event>
<event>
 5   0  0.8845195E-07  0.3478963E+04  0.7818609E-02  0.8118794E-01
        2   -1    0    0  501    0  0.00000000000E+00  0.00000000000E+00  0.22006919546E+04  0.22006919546E+04  0.25500000920E-02 0. -1.
       -2   -1    0    0    0  501  0.00000000000E+00  0.00000000000E+00 -0.13749292240E+04  0.13749292240E+04  0.25500000920E-02 0.  1.
    10030    2    1    2    0    0  0.00000000000E+00  0.00000000000E+00  0.82576273059E+03  0.35756211786E+04  0.34789628807E+04 0.  0.
        5    1    3    3  502    0  0.79466915478E+03 -0.45150243232E+02  0.20025394206E+04  0.21549301221E+04  0.46999998093E+01 0. -1.
       -5    1    3    3    0  502 -0.79466915478E+03  0.45150243232E+02 -0.11767766900E+04  0.14206910565E+04  0.46999998093E+01 0.  1.
</event>
<event>
 5   0  0.8950809E-07  0.3483580E+04  0.7818609E-02  0.8117692E-01
        2   -1    0    0  501    0  0.00000000000E+00  0.00000000000E+00  0.21945845476E+04  0.21945845476E+04  0.25500000920E-02 0.  1.
       -2   -1    0    0    0  501  0.00000000000E+00  0.00000000000E+00 -0.13824174891E+04  0.13824174891E+04  0.25500000920E-02 0. -1.
    10030    2    1    2    0    0  0.00000000000E+00  0.00000000000E+00  0.81216705848E+03  0.35770020366E+04  0.34835798023E+04 0.  0.
        2    1    3    3  502    0  0.94683223295E+03 -0.94991607081E+03  0.15471920406E+04  0.20475924959E+04  0.25500000920E-02 0.  1.
       -2    1    3    3    0  502 -0.94683223295E+03  0.94991607081E+03 -0.73502498209E+03  0.15294095407E+04  0.25500000920E-02 0. -1.
</event>
<event>
 5   0  0.6188930E-07  0.3514268E+04  0.7818609E-02  0.8110417E-01
        2   -1    0    0  501    0  0.00000000000E+00  0.00000000000E+00  0.22690804752E+04  0.22690804752E+04  0.25500000920E-02 0.  1.
       -2   -1    0    0    0  501  0.00000000000E+00  0.00000000000E+00 -0.13606919963E+04  0.13606919963E+04  0.25500000920E-02 0. -1.
    10030    2    1    2    0    0  0.00000000000E+00  0.00000000000E+00  0.90838847890E+03  0.36297724715E+04  0.35142678564E+04 0.  0.
        3    1    3    3  502    0 -0.46267180831E+02 -0.12759639744E+04 -0.79266740977E+03  0.15028460829E+04  0.10100000352E+00 0. -1.
       -3    1    3    3    0  502  0.46267180831E+02  0.12759639744E+04  0.17010558887E+04  0.21269263886E+04  0.10100000352E+00 0.  1.
</event>
<event>
 5   0  0.3061330E-07  0.3426457E+04  0.7818609E-02  0.8131443E-01
        1   -1    0    0  501    0  0.00000000000E+00  0.00000000000E+00  0.22092031352E+04  0.22092031352E+04  0.50400001928E-02 0. -1.
       -1   -1    0    0    0  501  0.00000000000E+00  0.00000000000E+00 -0.13286018644E+04  0.13286018644E+04  0.50400001928E-02 0.  1.
    10030    2    1    2    0    0  0.00000000000E+00  0.00000000000E+00  0.88060127081E+03  0.35378049996E+04  0.34264567146E+04 0.  0.
        5    1    3    3  502    0  0.49602984502E+03 -0.53224005865E+03  0.20417705460E+04  0.21675271946E+04  0.46999998093E+01 0. -1.
       -5    1    3    3    0  502 -0.49602984502E+03  0.53224005865E+03 -0.11611692751E+04  0.13702778049E+04  0.46999998093E+01 0.  1.
</event>
<event>
 5   0  0.3061330E-07  0.3085667E+04  0.7818609E-02  0.8219683E-01
        1   -1    0    0  501    0  0.00000000000E+00  0.00000000000E+00  0.16187347375E+04  0.16187347375E+04  0.50400001928E-02 0. -1.
       -1   -1    0    0    0  501  0.00000000000E+00  0.00000000000E+00 -0.14704908651E+04  0.14704908651E+04  0.50400001928E-02 0.  1.
    10030    2    1    2    0    0  0.00000000000E+00  0.00000000000E+00  0.14824387244E+03  0.30892256026E+04  0.30856666343E+04 0.  0.
        5    1    3    3  502    0  0.62333574958E+03  0.11556884957E+04  0.88508658377E+03  0.15835288777E+04  0.46999998093E+01 0. -1.
       -5    1    3    3    0  502 -0.62333574958E+03 -0.11556884957E+04 -0.73684271133E+03  0.15056967248E+04  0.46999998093E+01 0.  1.
</event>
<event>
 5   0  0.3026332E-07  0.3467052E+04  0.7818609E-02  0.8121643E-01
        1   -1    0    0  501    0  0.00000000000E+00  0.00000000000E+00  0.23681343461E+04  0.23681343461E+04  0.50400001928E-02 0.  1.
       -1   -1    0    0    0  501  0.00000000000E+00  0.00000000000E+00 -0.12689789621E+04  0.12689789622E+04  0.50400001928E-02 0. -1.
    10030    2    1    2    0    0  0.00000000000E+00  0.00000000000E+00  0.10991553840E+04  0.36371133083E+04  0.34670521570E+04 0.  0.
        1    1    3    3  502    0 -0.75279464572E+03  0.71960380048E+03  0.20034056794E+04  0.22579113633E+04  0.50400001928E-02 0.  1.
       -1    1    3    3    0  502  0.75279464572E+03 -0.71960380048E+03 -0.90425029541E+03  0.13792019450E+04  0.50400001928E-02 0. -1.
</event>
<event>
 5   0  0.8845195E-07  0.3482395E+04  0.7818609E-02  0.8117975E-01
        2   -1    0    0  501    0  0.00000000000E+00  0.00000000000E+00  0.22607729751E+04  0.22607729751E+04  0.25500000920E-02 0.  1.
       -2   -1    0    0    0  501  0.00000000000E+00  0.00000000000E+00 -0.13410321704E+04  0.13410321704E+04  0.25500000920E-02 0. -1.
    10030    2    1    2    0    0  0.00000000000E+00  0.00000000000E+00  0.91974080462E+03  0.36018051455E+04  0.34823953191E+04 0.  0.
        5    1    3    3  502    0 -0.48205645047E+03 -0.45006220952E+03  0.21265897014E+04  0.22265085362E+04  0.46999998093E+01 0.  1.
       -5    1    3    3    0  502  0.48205645047E+03  0.45006220952E+03 -0.12068488968E+04  0.13752966093E+04  0.46999998093E+01 0. -1.
</event>
<event>
 5   0  0.2933506E-07  0.3450425E+04  0.7818609E-02  0.8125640E-01
        1   -1    0    0  501    0  0.00000000000E+00  0.00000000000E+00  0.18367141439E+04  0.18367141439E+04  0.50400001928E-02 0.  1.
       -1   -1    0    0    0  501  0.00000000000E+00  0.00000000000E+00 -0.16204799070E+04  0.16204799070E+04  0.50400001928E-02 0. -1.
    10030    2    1    2    0    0  0.00000000000E+00  0.00000000000E+00  0.21623423687E+03  0.34571940509E+04  0.34504251130E+04 0.  0.
        4    1    3    3  502    0  0.88408776643E+03 -0.12846721833E+04 -0.63113985911E+03  0.16823593350E+04  0.12699999809E+01 0. -1.
       -4    1    3    3    0  502 -0.88408776643E+03  0.12846721833E+04  0.84737409598E+03  0.17748347159E+04  0.12699999809E+01 0.  1.
</event>
<event>
 5   0  0.9128871E-07  0.3475587E+04  0.7818609E-02  0.8119600E-01
       -2   -1    0    0    0  501  0.00000000000E+00  0.00000000000E+00  0.14686065808E+04  0.14686065808E+04  0.25500000920E-02 0. -1.
        2   -1    0    0  501    0  0.00000000000E+00  0.00000000000E+00 -0.20563206192E+04  0.20563206192E+04  0.25500000920E-02 0.  1.
    10030    2    1    2    0    0  0.00000000000E+00  0.00000000000E+00 -0.58771403846E+03  0.35249272000E+04  0.34755868532E+04 0.  0.
        1    1    3    3  502    0  0.90945415834E+03  0.10464897625E+04  0.76871786503E+03  0.15852996074E+04  0.50400001928E-02 0. -1.
       -1    1    3    3    0  502 -0.90945415834E+03 -0.10464897625E+04 -0.13564319035E+04  0.19396275926E+04  0.50400001928E-02 0.  1.
</event>
<event>
 5   0  0.3061330E-07  0.3485962E+04  0.7818609E-02  0.8117125E-01
        1   -1    0    0  501    0  0.00000000000E+00  0.00000000000E+00  0.10136773492E+04  0.10136773492E+04  0.50400001928E-02 0.  1.
       -1   -1    0    0    0  501  0.00000000000E+00  0.00000000000E+00 -0.29969910502E+04  0.29969910502E+04  0.50400001928E-02 0. -1.
    10030    2    1    2    0    0  0.00000000000E+00  0.00000000000E+00 -0.19833137010E+04  0.40106683994E+04  0.34859615279E+04 0.  0.
        5    1    3    3  502    0  0.88635145573E+03 -0.15074373370E+03 -0.27096021318E+04  0.28548744944E+04  0.46999998093E+01 0. -1.
       -5    1    3    3    0  502 -0.88635145573E+03  0.15074373370E+03  0.72628843075E+03  0.11557939051E+04  0.46999998093E+01 0.  1.
</event>
<event>
 5   0  0.8950809E-07  0.3521742E+04  0.7818609E-02  0.8108657E-01
        2   -1    0    0  501    0  0.00000000000E+00  0.00000000000E+00  0.15434882172E+04  0.15434882172E+04  0.25500000920E-02 0. -1.
       -2   -1    0    0    0  501  0.00000000000E+00  0.00000000000E+00 -0.20088699517E+04  0.20088699517E+04  0.25500000920E-02 0.  1.
    10030    2    1    2    0    0  0.00000000000E+00  0.00000000000E+00 -0.46538173445E+03  0.35523581689E+04  0.35217422395E+04 0.  0.
        2    1    3    3  502    0 -0.79716159717E+03  0.52128823856E+03 -0.17265991928E+04  0.19718906694E+04  0.25500000920E-02 0.  1.
       -2    1    3    3    0  502  0.79716159717E+03 -0.52128823856E+03  0.12612174584E+04  0.15804674995E+04  0.25500000920E-02 0. -1.
</event>
<event>
 5   0  0.3061330E-07  0.3515202E+04  0.7818609E-02  0.8110197E-01
       -1   -1    0    0    0  501  0.00000000000E+00  0.00000000000E+00  0.19864761650E+04  0.19864761650E+04  0.50400001928E-02 0.  1.
        1   -1    0    0  501    0  0.00000000000E+00  0.00000000000E+00 -0.15550957761E+04  0.15550957761E+04  0.50400001928E-02 0. -1.
    10030    2    1    2    0    0  0.00000000000E+00  0.00000000000E+00  0.43138038892E+03  0.35415719412E+04  0.35152016691E+04 0.  0.
        5    1    3    3  502    0  0.16447648272E+04 -0.22910905694E+03 -0.36429866874E+03  0.17001405551E+04  0.46999998093E+01 0. -1.
       -5    1    3    3    0  502 -0.16447648272E+04  0.22910905694E+03  0.79567905766E+03  0.18414313861E+04  0.46999998093E+01 0.  1.
</event>
<event>
 5   0  0.9311672E-07  0.3527637E+04  0.7818609E-02  0.8107271E-01
        2   -1    0    0  501    0  0.00000000000E+00  0.00000000000E+00  0.19323031011E+04  0.19323031011E+04  0.25500000920E-02 0. -1.
       -2   -1    0    0    0  501  0.00000000000E+00  0.00000000000E+00 -0.16100247016E+04  0.16100247016E+04  0.25500000920E-02 0.  1.
    10030    2    1    2    0    0  0.00000000000E+00  0.00000000000E+00  0.32227839955E+03  0.35423278027E+04  0.35276370129E+04 0.  0.
        4    1    3    3  502    0 -0.16554884942E+04  0.35185840835E+03  0.65980329617E+03  0.18165319971E+04  0.12699999809E+01 0. -1.
       -4    1    3    3    0  502  0.16554884942E+04 -0.35185840835E+03 -0.33752489661E+03  0.17257958056E+04  0.12699999809E+01 0.  1.
</event>
<event>
 5   0  0.6188930E-07  0.3478911E+04  0.7818609E-02  0.8118806E-01
        2   -1    0    0  501    0  0.00000000000E+00  0.00000000000E+00  0.30492420924E+04  0.30492420924E+04  0.25500000920E-02 0.  1.
       -2   -1    0    0    0  501  0.00000000000E+00  0.00000000000E+00 -0.99228105331E+03  0.99228105332E+03  0.25500000920E-02 0. -1.
    10030    2    1    2    0    0  0.00000000000E+00  0.00000000000E+00  0.20569610391E+04  0.40415231457E+04  0.34789108383E+04 0.  0.
        3    1    3    3  502    0 -0.67903192070E+03 -0.43388823569E+03  0.28193257426E+04  0.29322245827E+04  0.10100000352E+00 0.  1.
       -3    1    3    3    0  502  0.67903192070E+03  0.43388823569E+03 -0.76236470354E+03  0.11092985630E+04  0.10100000352E+00 0. -1.
</event>
<event>
 5   0  0.2933506E-07  0.3530355E+04  0.7818609E-02  0.8106634E-01
       -1   -1    0    0    0  501  0.00000000000E+00  0.00000000000E+00  0.20352333037E+04  0.20352333037E+04  0.50400001928E-02 0.  1.
        1   -1    0    0  501    0  0.00000000000E+00  0.00000000000E+00 -0.15309558140E+04  0.15309558140E+04  0.50400001928E-02 0. -1.
    10030    2    1    2    0    0  0.00000000000E+00  0.00000000000E+00  0.50427748971E+03  0.35661891178E+04  0.35303553698E+04 0.  0.
        4    1    3    3  502    0  0.13858644374E+04  0.50240947320E+03 -0.72870362422E+03  0.16443984013E+04  0.12699999809E+01 0. -1.
       -4    1    3    3    0  502 -0.13858644374E+04 -0.50240947320E+03  0.12329811139E+04  0.19217907164E+04  0.12699999809E+01 0.  1.
</event>
<event>
 5   0  0.6188930E-07  0.3526229E+04  0.7818609E-02  0.8107602E-01
        2   -1    0    0  501    0  0.00000000000E+00  0.00000000000E+00  0.31760674770E+04  0.31760674770E+04  0.25500000920E-02 0. -1.
       -2   -1    0    0    0  501  0.00000000000E+00  0.00000000000E+00 -0.97874911271E+03  0.97874911271E+03  0.25500000920E-02 0.  1.
    10030    2    1    2    0    0  0.00000000000E+00  0.00000000000E+00  0.21973183642E+04  0.41548165897E+04  0.35262292750E+04 0.  0.
        3    1    3    3  502    0  0.79765741159E+03 -0.98865436265E+03  0.25392619557E+04  0.28392861928E+04  0.10100000352E+00 0. -1.
       -3    1    3    3    0  502 -0.79765741159E+03  0.98865436265E+03 -0.34194359144E+03  0.13155303968E+04  0.10100000352E+00 0.  1.
</event>
<event>
 5   0  0.3061330E-07  0.3490447E+04  0.7818609E-02  0.8116058E-01
        1   -1    0    0  501    0  0.00000000000E+00  0.00000000000E+00  0.93664760214E+03  0.93664760215E+03  0.50400001928E-02 0. -1.
       -1   -1    0    0    0  501  0.00000000000E+00  0.00000000000E+00 -0.32518161460E+04  0.32518161460E+04  0.50400001928E-02 0.  1.
    10030    2    1    2    0    0  0.00000000000E+00  0.00000000000E+00 -0.23151685438E+04  0.41884637481E+04  0.34904474187E+04 0.  0.
        5    1    3    3  502    0 -0.13664354588E+02  0.13611157626E+04 -0.24682343587E+04  0.28186922097E+04  0.46999998093E+01 0.  1.
       -5    1    3    3    0  502  0.13664354588E+02 -0.13611157626E+04  0.15306581488E+03  0.13697715384E+04  0.46999998093E+01 0. -1.
</event>
<event>
 5   0  0.3026332E-07  0.3512892E+04  0.7818609E-02  0.8110741E-01
        1   -1    0    0  501    0  0.00000000000E+00  0.00000000000E+00  0.19910589494E+04  0.19910589494E+04  0.50400001928E-02 0. -1.
       -1   -1    0    0    0  501  0.00000000000E+00  0.00000000000E+00 -0.15494783649E+04  0.15494783650E+04  0.50400001928E-02 0.  1.
    10030    2    1    2    0    0  0.00000000000E+00  0.00000000000E+00  0.44158058448E+03  0.35405373144E+04  0.35128921222E+04 0.  0.
        1    1    3    3  502    0  0.23429467752E+03  0.15081842670E+04  0.10968771633E+04  0.18795353922E+04  0.50400001928E-02 0. -1.
       -1    1    3    3    0  502 -0.23429467752E+03 -0.15081842670E+04 -0.65529657885E+03  0.16610019222E+04  0.50400001928E-02 0.  1.
</event>
<event>
 5   0  0.2972541E-07  0.3477088E+04  0.7818609E-02  0.8119241E-01
       -1   -1    0    0    0  501  0.00000000000E+00  0.00000000000E+00  0.25356076172E+04  0.25356076172E+04  0.50400001928E-02 0. -1.
        1   -1    0    0  501    0  0.00000000000E+00  0.00000000000E+00 -0.11920360365E+04  0.11920360365E+04  0.50400001928E-02 0.  1.
    10030    2    1    2    0    0  0.00000000000E+00  0.00000000000E+00  0.13435715807E+04  0.37276436536E+04  0.34770882382E+04 0.  0.
        3    1    3    3  502    0  0.31289064762E+03 -0.48466790777E+03  0.24300056877E+04  0.24975450327E+04  0.10100000352E+00 0. -1.
       -3    1    3    3    0  502 -0.31289064762E+03  0.48466790777E+03 -0.10864341070E+04  0.12300986209E+04  0.10100000352E+00 0.  1.
</event>
<event>
 5   0  0.2933506E-07  0.3499664E+04  0.7818609E-02  0.8113870E-01
       -1   -1    0    0    0  501  0.00000000000E+00  0.00000000000E+00  0.16024907309E+04  0.16024907309E+04  0.50400001928E-02 0. -1.
        1   -1    0    0  501    0  0.00000000000E+00  0.00000000000E+00 -0.19107209203E+04  0.19107209203E+04  0.50400001928E-02 0.  1.
    10030    2    1    2    0    0  0.00000000000E+00  0.00000000000E+00 -0.30823018937E+03  0.35132116512E+04  0.34996643062E+04 0.  0.
        4    1    3    3  502    0 -0.12027106073E+04  0.46172609668E+03 -0.13428472653E+04  0.18608987571E+04  0.12699999809E+01 0.  1.
       -4    1    3    3    0  502  0.12027106073E+04 -0.46172609668E+03  0.10346170759E+04  0.16523128941E+04  0.12699999809E+01 0. -1.
</event>
<event>
 5   0  0.6188930E-07  0.3502587E+04  0.7818609E-02  0.8113177E-01
       -2   -1    0    0    0  501  0.00000000000E+00  0.00000000000E+00  0.15468004858E+04  0.15468004858E+04  0.25500000920E-02 0. -1.
        2   -1    0    0  501    0  0.00000000000E+00  0.00000000000E+00 -0.19828210393E+04  0.19828210393E+04  0.25500000920E-02 0.  1.
    10030    2    1    2    0    0  0.00000000000E+00  0.00000000000E+00 -0.43602055350E+03  0.35296215251E+04  0.35025867852E+04 0.  0.
        3    1    3    3  502    0  0.12283158309E+04 -0.60700370297E+03 -0.13172160531E+04  0.19005976472E+04  0.10100000352E+00 0.  1.
       -3    1    3    3    0  502 -0.12283158309E+04  0.60700370297E+03  0.88119549960E+03  0.16290238779E+04  0.10100000352E+00 0. -1.
</event>
<event>
 5   0  0.3061330E-07  0.3413978E+04  0.7818609E-02  0.8134484E-01
        1   -1    0    0  501    0  0.00000000000E+00  0.00000000000E+00  0.15683411993E+04  0.15683411993E+04  0.50400001928E-02 0.  1.
       -1   -1    0    0    0  501  0.00000000000E+00  0.00000000000E+00 -0.18578934030E+04  0.18578934030E+04  0.50400001928E-02 0. -1.
    10030    2    1    2    0    0  0.00000000000E+00  0.00000000000E+00 -0.28955220374E+03  0.34262346023E+04  0.34139776027E+04 0.  0.
        5    1    3    3  502    0  0.76827296749E+03  0.32295392743E+03  0.13502857513E+04  0.15867691363E+04  0.46999998093E+01 0.  1.
       -5    1    3    3    0  502 -0.76827296749E+03 -0.32295392743E+03 -0.16398379550E+04  0.18394654660E+04  0.46999998093E+01 0. -1.
</event>
<event>
 5   0  0.6188930E-07  0.3586381E+04  0.7818609E-02  0.8093618E-01
       -2   -1    0    0    0  501  0.00000000000E+00  0.00000000000E+00  0.13217640961E+04  0.13217640961E+04  0.25500000920E-02 0. -1.
        2   -1    0    0  501    0  0.00000000000E+00  0.00000000000E+00 -0.24327578460E+04  0.24327578460E+04  0.25500000920E-02 0.  1.
    10030    2    1    2    0    0  0.00000000000E+00  0.00000000000E+00 -0.11109937499E+04  0.37545219421E+04  0.35863808919E+04 0.  0.
        3    1    3    3  502    0  0.11589829151E+04  0.65564961176E+03 -0.18128093439E+04  0.22493100138E+04  0.10100000352E+00 0.  1.
       -3    1    3    3    0  502 -0.11589829151E+04 -0.65564961176E+03  0.70181559398E+03  0.15052119283E+04  0.10100000352E+00 0. -1.
</event>
<event>
 5   0  0.8845195E-07  0.3446782E+04  0.7818609E-02  0.8126519E-01
        2   -1    0    0  501    0  0.00000000000E+00  0.00000000000E+00  0.19310989276E+04  0.19310989276E+04  0.25500000920E-02 0.  1.
       -2   -1    0    0    0  501  0.00000000000E+00  0.00000000000E+00 -0.15380243049E+04  0.15380243049E+04  0.25500000920E-02 0. -1.
    10030    2    1    2    0    0  0.00000000000E+00  0.00000000000E+00  0.39307462274E+03  0.34691232325E+04  0.34467823174E+04 0.  0.
        5    1    3    3  502    0 -0.10115795781E+04 -0.65175370595E+03 -0.10451441047E+04  0.15938708937E+04  0.46999998093E+01 0. -1.
       -5    1    3    3    0  502  0.10115795781E+04  0.65175370595E+03  0.14382187275E+04  0.18752523388E+04  0.46999998093E+01 0.  1.
</event>
<event>
 5   0  0.2936607E-07  0.3486082E+04  0.7818609E-02  0.8117096E-01
       -1   -1    0    0    0  501  0.00000000000E+00  0.00000000000E+00  0.15964312141E+04  0.15964312141E+04  0.50400001928E-02 0.  1.
        1   -1    0    0  501    0  0.00000000000E+00  0.00000000000E+00 -0.19031152856E+04  0.19031152856E+04  0.50400001928E-02 0. -1.
    10030    2    1    2    0    0  0.00000000000E+00  0.00000000000E+00 -0.30668407147E+03  0.34995464997E+04  0.34860824121E+04 0.  0.
        2    1    3    3  502    0  0.14622450796E+04 -0.80519600183E+02 -0.11022699015E+04  0.18329328996E+04  0.25500000920E-02 0. -1.
       -2    1    3    3    0  502 -0.14622450796E+04  0.80519600183E+02  0.79558582998E+03  0.16666136000E+04  0.25500000920E-02 0.  1.
</event>
<event>
 5   0  0.2933506E-07  0.3478790E+04  0.7818609E-02  0.8118835E-01
       -1   -1    0    0    0  501  0.00000000000E+00  0.00000000000E+00  0.18293274388E+04  0.18293274388E+04  0.50400001928E-02 0. -1.
        1   -1    0    0  501    0  0.00000000000E+00  0.00000000000E+00 -0.16538838158E+04  0.16538838158E+04  0.50400001928E-02 0.  1.
    10030    2    1    2    0    0  0.00000000000E+00  0.00000000000E+00  0.17544362306E+03  0.34832112546E+04  0.34787900453E+04 0.  0.
        4    1    3    3  502    0  0.18089475346E+03  0.23745682510E+03 -0.16280442702E+04  0.16551853112E+04  0.12699999809E+01 0.  1.
       -4    1    3    3    0  502 -0.18089475346E+03 -0.23745682510E+03  0.18034878933E+04  0.18280259434E+04  0.12699999809E+01 0. -1.
</event>
<event>
 5   0  0.8950809E-07  0.3559874E+04  0.7818609E-02  0.8099745E-01
       -2   -1    0    0    0  501  0.00000000000E+00  0.00000000000E+00  0.32795166358E+04  0.32795166358E+04  0.25500000920E-02 0.  1.
        2   -1    0    0  501    0  0.00000000000E+00  0.00000000000E+00 -0.96604980753E+03  0.96604980753E+03  0.25500000920E-02 0. -1.
    10030    2    1    2    0    0  0.00000000000E+00  0.00000000000E+00  0.23134668283E+04  0.42455664434E+04  0.35598743881E+04 0.  0.
        2    1    3    3  502    0 -0.68017356974E+03 -0.78524245672E+03  0.28804401994E+04  0.30620544644E+04  0.25500000920E-02 0.  1.
       -2    1    3    3    0  502  0.68017356974E+03  0.78524245672E+03 -0.56697337108E+03  0.11835119790E+04  0.25500000920E-02 0. -1.
</event>
<event>
 5   0  0.6188930E-07  0.3508261E+04  0.7818609E-02  0.8111835E-01
        2   -1    0    0  501    0  0.00000000000E+00  0.00000000000E+00  0.11115824286E+04  0.11115824286E+04  0.25500000920E-02 0. -1.
       -2   -1    0    0    0  501  0.00000000000E+00  0.00000000000E+00 -0.27681026057E+04  0.27681026057E+04  0.25500000920E-02 0.  1.
    10030    2    1    2    0    0  0.00000000000E+00  0.00000000000E+00 -0.16565201771E+04  0.38796850343E+04  0.35082612314E+04 0.  0.
        3    1    3    3  502    0 -0.52497085736E+03  0.76944897322E+03  0.81548569504E+03  0.12380076948E+04  0.10100000352E+00 0. -1.
       -3    1    3    3    0  502  0.52497085736E+03 -0.76944897322E+03 -0.24720058722E+04  0.26416773394E+04  0.10100000352E+00 0.  1.
</event>
<event>
 5   0  0.3026332E-07  0.3480862E+04  0.7818609E-02  0.8118340E-01
       -1   -1    0    0    0  501  0.00000000000E+00  0.00000000000E+00  0.24588891046E+04  0.24588891046E+04  0.50400001928E-02 0.  1.
        1   -1    0    0  501    0  0.00000000000E+00  0.00000000000E+00 -0.12318980185E+04  0.12318980186E+04  0.50400001928E-02 0. -1.
    10030    2    1    2    0    0  0.00000000000E+00  0.00000000000E+00  0.12269910861E+04  0.36907871232E+04  0.34808623160E+04 0.  0.
        1    1    3    3  502    0  0.32449395383E+03  0.10478012926E+04 -0.81926177928E+03  0.13690776961E+04  0.50400001928E-02 0. -1.
       -1    1    3    3    0  502 -0.32449395383E+03 -0.10478012926E+04  0.20462528654E+04  0.23217094271E+04  0.50400001928E-02 0.  1.
</event>
<event>
 5   0  0.6188930E-07  0.3492201E+04  0.7818609E-02  0.8115641E-01
       -2   -1    0    0    0  501  0.00000000000E+00  0.00000000000E+00  0.28947344808E+04  0.28947344808E+04  0.25500000920E-02 0.  1.
        2   -1    0    0  501    0  0.00000000000E+00  0.00000000000E+00 -0.10532455605E+04  0.10532455605E+04  0.25500000920E-02 0. -1.
    10030    2    1    2    0    0  0.00000000000E+00  0.00000000000E+00  0.18414889203E+04  0.39479800413E+04  0.34922005903E+04 0.  0.
        3    1    3    3  502    0 -0.29023504266E+03 -0.34836538363E+03  0.28270167114E+04  0.28631483226E+04  0.10100000352E+00 0.  1.
       -3    1    3    3    0  502  0.29023504266E+03  0.34836538363E+03 -0.98552779114E+03  0.10848317187E+04  0.10100000352E+00 0. -1.
</event>
<event>
 5   0  0.2933506E-07  0.3477348E+04  0.7818609E-02  0.8119179E-01
        1   -1    0    0  501    0  0.00000000000E+00  0.00000000000E+00  0.19873645530E+04  0.19873645530E+04  0.50400001928E-02 0. -1.
       -1   -1    0    0    0  501  0.00000000000E+00  0.00000000000E+00 -0.15211037315E+04  0.15211037315E+04  0.50400001928E-02 0.  1.
    10030    2    1    2    0    0  0.00000000000E+00  0.00000000000E+00  0.46626082151E+03  0.35084682845E+04  0.34773482066E+04 0.  0.
        4    1    3    3  502    0 -0.36729210288E+03 -0.22100142840E+03  0.19332148619E+04  0.19801682846E+04  0.12699999809E+01 0. -1.
       -4    1    3    3    0  502  0.36729210288E+03  0.22100142840E+03 -0.14669540404E+04  0.15282999999E+04  0.12699999809E+01 0.  1.
</event>
<event>
 5   0  0.2972541E-07  0.3489868E+04  0.7818609E-02  0.8116195E-01
       -1   -1    0    0    0  501  0.00000000000E+00  0.00000000000E+00  0.14220793844E+04  0.14220793844E+04  0.50400001928E-02 0. -1.
        1   -1    0    0  501    0  0.00000000000E+00  0.00000000000E+00 -0.21410859796E+04  0.21410859796E+04  0.50400001928E-02 0.  1.
    10030    2    1    2    0    0  0.00000000000E+00  0.00000000000E+00 -0.71900659515E+03  0.35631653640E+04  0.34898677522E+04 0.  0.
        3    1    3    3  502    0  0.29498531297E+03  0.10328161893E+04  0.10445404853E+04  0.14982624775E+04  0.10100000352E+00 0. -1.
       -3    1    3    3    0  502 -0.29498531297E+03 -0.10328161893E+04 -0.17635470805E+04  0.20649028866E+04  0.10100000352E+00 0.  1.
</event>
<event>
 5   0  0.8950809E-07  0.3568069E+04  0.7818609E-02  0.8097845E-01
       -2   -1    0    0    0  501  0.00000000000E+00  0.00000000000E+00  0.24850604485E+04  0.24850604485E+04  0.25500000920E-02 0.  1.
        2   -1    0    0  501    0  0.00000000000E+00  0.00000000000E+00 -0.12807649294E+04  0.12807649294E+04  0.25500000920E-02 0. -1.
    10030    2    1    2    0    0  0.00000000000E+00  0.00000000000E+00  0.12042955191E+04  0.37658253779E+04  0.35680685363E+04 0.  0.
        2    1    3    3  502    0  0.92732104126E+02 -0.10203700872E+03 -0.12751331708E+04  0.12825659427E+04  0.25500000920E-02 0. -1.
       -2    1    3    3    0  502 -0.92732104126E+02  0.10203700872E+03  0.24794286899E+04  0.24832594352E+04  0.25500000920E-02 0.  1.
</event>
<event>
 5   0  0.2933506E-07  0.3426466E+04  0.7818609E-02  0.8131441E-01
       -1   -1    0    0    0  501  0.00000000000E+00  0.00000000000E+00  0.15447203165E+04  0.15447203165E+04  0.50400001928E-02 0.  1.
        1   -1    0    0  501    0  0.00000000000E+00  0.00000000000E+00 -0.19001282110E+04  0.19001282110E+04  0.50400001928E-02 0. -1.
    10030    2    1    2    0    0  0.00000000000E+00  0.00000000000E+00 -0.35540789452E+03  0.34448485275E+04  0.34264656143E+04 0.  0.
        4    1    3    3  502    0 -0.73057166526E+03  0.42320345612E+03 -0.16764495470E+04  0.18770510968E+04  0.12699999809E+01 0. -1.
       -4    1    3    3    0  502  0.73057166526E+03 -0.42320345612E+03  0.13210416525E+04  0.15677974308E+04  0.12699999809E+01 0.  1.
</event>
<event>
 5   0  0.2907000E-07  0.3474099E+04  0.7818609E-02  0.8119956E-01
       -4   -1    0    0    0  501  0.00000000000E+00  0.00000000000E+00  0.17067151978E+04  0.17067156703E+04  0.12699999809E+01 0.  1.
        4   -1    0    0  501    0  0.00000000000E+00  0.00000000000E+00 -0.17679217671E+04  0.17679222233E+04  0.12699999809E+01 0. -1.
    10030    2    1    2    0    0  0.00000000000E+00  0.00000000000E+00 -0.61206569324E+02  0.34746378935E+04  0.34740987676E+04 0.  0.
        4    1    3    3  502    0 -0.33035110564E+03  0.11450619215E+03 -0.17323653259E+04  0.17672958881E+04  0.12699999809E+01 0. -1.
       -4    1    3    3    0  502  0.33035110564E+03 -0.11450619215E+03  0.16711587565E+04  0.17073420054E+04  0.12699999809E+01 0.  1.
</event>
<event>
 5   0  0.8845195E-07  0.3416382E+04  0.7818609E-02  0.8133897E-01
        2   -1    0    0  501    0  0.00000000000E+00  0.00000000000E+00  0.32236232404E+04  0.32236232404E+04  0.25500000920E-02 0. -1.
       -2   -1    0    0    0  501  0.00000000000E+00  0.00000000000E+00 -0.90516655492E+03  0.90516655492E+03  0.25500000920E-02 0.  1.
    10030    2    1    2    0    0  0.00000000000E+00  0.00000000000E+00  0.23184566855E+04  0.41287897953E+04  0.34163816783E+04 0.  0.
        5    1    3    3  502    0  0.30877232179E+03  0.11027487467E+04 -0.37255230649E+03  0.12042476722E+04  0.46999998093E+01 0. -1.
       -5    1    3    3    0  502 -0.30877232179E+03 -0.11027487467E+04  0.26910089920E+04  0.29245421231E+04  0.46999998093E+01 0.  1.
</event>
<event>
 5   0  0.9311672E-07  0.3484619E+04  0.7818609E-02  0.8117445E-01
        2   -1    0    0  501    0  0.00000000000E+00  0.00000000000E+00  0.22537717234E+04  0.22537717234E+04  0.25500000920E-02 0. -1.
       -2   -1    0    0    0  501  0.00000000000E+00  0.00000000000E+00 -0.13469164078E+04  0.13469164078E+04  0.25500000920E-02 0.  1.
    10030    2    1    2    0    0  0.00000000000E+00  0.00000000000E+00  0.90685531560E+03  0.36006881312E+04  0.34846188393E+04 0.  0.
        4    1    3    3  502    0 -0.12546671952E+04  0.46726987150E+03 -0.69865844147E+03  0.15101841392E+04  0.12699999809E+01 0.  1.
       -4    1    3    3    0  502  0.12546671952E+04 -0.46726987150E+03  0.16055137571E+04  0.20905039920E+04  0.12699999809E+01 0. -1.
</event>
<event>
 5   0  0.2907000E-07  0.3544622E+04  0.7818609E-02  0.8103296E-01
       -4   -1    0    0    0  501  0.00000000000E+00  0.00000000000E+00  0.16800708699E+04  0.16800713499E+04  0.12699999809E+01 0.  1.
        4   -1    0    0  501    0  0.00000000000E+00  0.00000000000E+00 -0.18696148190E+04  0.18696152503E+04  0.12699999809E+01 0. -1.
    10030    2    1    2    0    0  0.00000000000E+00  0.00000000000E+00 -0.18954394909E+03  0.35496866002E+04  0.35446224130E+04 0.  0.
        4    1    3    3  502    0  0.73425987993E+03  0.84928859276E+03 -0.14681016241E+04  0.18481754994E+04  0.12699999809E+01 0. -1.
       -4    1    3    3    0  502 -0.73425987993E+03 -0.84928859276E+03  0.12785576750E+04  0.17015111008E+04  0.12699999809E+01 0.  1.
</event>
<event>
 5   0  0.2972541E-07  0.3546236E+04  0.7818609E-02  0.8102919E-01
       -1   -1    0    0    0  501  0.00000000000E+00  0.00000000000E+00  0.14376039918E+04  0.14376039918E+04  0.50400001928E-02 0. -1.
        1   -1    0    0  501    0  0.00000000000E+00  0.00000000000E+00 -0.21869352930E+04  0.21869352930E+04  0.50400001928E-02 0.  1.
    10030    2    1    2    0    0  0.00000000000E+00  0.00000000000E+00 -0.74933130115E+03  0.36245392848E+04  0.35462356984E+04 0.  0.
        3    1    3    3  502    0  0.75522495712E+03 -0.95167777354E+03 -0.16946510322E+04  0.20851612531E+04  0.10100000352E+00 0.  1.
       -3    1    3    3    0  502 -0.75522495712E+03  0.95167777354E+03  0.94531973101E+03  0.15393780317E+04  0.10100000352E+00 0. -1.
</event>
<event>
 5   0  0.2936607E-07  0.3507720E+04  0.7818609E-02  0.8111963E-01
       -1   -1    0    0    0  501  0.00000000000E+00  0.00000000000E+00  0.17034956995E+04  0.17034956995E+04  0.50400001928E-02 0.  1.
        1   -1    0    0  501    0  0.00000000000E+00  0.00000000000E+00 -0.18057136208E+04  0.18057136208E+04  0.50400001928E-02 0. -1.
    10030    2    1    2    0    0  0.00000000000E+00  0.00000000000E+00 -0.10221792129E+03  0.35092093203E+04  0.35077202783E+04 0.  0.
        2    1    3    3  502    0  0.10809237247E+03 -0.15915237107E+03 -0.17951252002E+04  0.18054051963E+04  0.25500000920E-02 0. -1.
       -2    1    3    3    0  502 -0.10809237247E+03  0.15915237107E+03  0.16929072789E+04  0.17038041241E+04  0.25500000920E-02 0.  1.
</event>
<event>
 5   0  0.6188930E-07  0.3424391E+04  0.7818609E-02  0.8131946E-01
        2   -1    0    0  501    0  0.00000000000E+00  0.00000000000E+00  0.17020807365E+04  0.17020807365E+04  0.25500000920E-02 0.  1.
       -2   -1    0    0    0  501  0.00000000000E+00  0.00000000000E+00 -0.17223701613E+04  0.17223701613E+04  0.25500000920E-02 0. -1.
    10030    2    1    2    0    0  0.00000000000E+00  0.00000000000E+00 -0.20289424799E+02  0.34244508979E+04  0.34243907912E+04 0.  0.
        3    1    3    3  502    0  0.63706737411E+03 -0.27409423883E+03 -0.15756211900E+04  0.17215006928E+04  0.10100000352E+00 0. -1.
       -3    1    3    3    0  502 -0.63706737411E+03  0.27409423883E+03  0.15553317652E+04  0.17029502050E+04  0.10100000352E+00 0.  1.
</event>
<event>
 5   0  0.3061330E-07  0.3483833E+04  0.7818609E-02  0.8117632E-01
        1   -1    0    0  501    0  0.00000000000E+00  0.00000000000E+00  0.23722319003E+04  0.23722319003E+04  0.50400001928E-02 0. -1.
       -1   -1    0    0    0  501  0.00000000000E+00  0.00000000000E+00 -0.12790796694E+04  0.12790796695E+04  0.50400001928E-02 0.  1.
    10030    2    1    2    0    0  0.00000000000E+00  0.00000000000E+00  0.10931522308E+04  0.36513115697E+04  0.34838332881E+04 0.  0.
        5    1    3    3  502    0  0.28791650183E+03 -0.92483517749E+03  0.20639438479E+04  0.22799347173E+04  0.46999998093E+01 0. -1.
       -5    1    3    3    0  502 -0.28791650183E+03  0.92483517749E+03 -0.97079161713E+03  0.13713768524E+04  0.46999998093E+01 0.  1.
</event>
<event>
 5   0  0.2933506E-07  0.3425693E+04  0.7818609E-02  0.8131629E-01
       -1   -1    0    0    0  501  0.00000000000E+00  0.00000000000E+00  0.33097426456E+04  0.33097426456E+04  0.50400001928E-02 0. -1.
        1   -1    0    0  501    0  0.00000000000E+00  0.00000000000E+00 -0.88642624457E+03  0.88642624459E+03  0.50400001928E-02 0.  1.
    10030    2    1    2    0    0  0.00000000000E+00  0.00000000000E+00  0.24233164011E+04  0.41961688902E+04  0.34256927731E+04 0.  0.
        4    1    3    3  502    0 -0.98533569999E+03 -0.13387892185E+04  0.70572676388E+03  0.18059055600E+04  0.12699999809E+01 0.  1.
       -4    1    3    3    0  502  0.98533569999E+03  0.13387892185E+04  0.17175896372E+04  0.23902633303E+04  0.12699999809E+01 0. -1.
</event>
<event>
 5   0  0.3026332E-07  0.3421503E+04  0.7818609E-02  0.8132649E-01
       -1   -1    0    0    0  501  0.00000000000E+00  0.00000000000E+00  0.12474301817E+04  0.12474301817E+04  0.50400001928E-02 0. -1.
        1   -1    0    0  501    0  0.00000000000E+00  0.00000000000E+00 -0.23461593639E+04  0.23461593639E+04  0.50400001928E-02 0.  1.
    10030    2    1    2    0    0  0.00000000000E+00  0.00000000000E+00 -0.10987291822E+04  0.35935895457E+04  0.34215025949E+04 0.  0.
        1    1    3    3  502    0  0.14040839361E+03 -0.79236391397E+03  0.10362393216E+04  0.13120011512E+04  0.50400001928E-02 0. -1.
       -1    1    3    3    0  502 -0.14040839361E+03  0.79236391397E+03 -0.21349685038E+04  0.22815883944E+04  0.50400001928E-02 0.  1.
</event>
<event>
 5   0  0.9128871E-07  0.3510362E+04  0.7818609E-02  0.8111339E-01
        2   -1    0    0  501    0  0.00000000000E+00  0.00000000000E+00  0.19442044010E+04  0.19442044010E+04  0.25500000920E-02 0. -1.
       -2   -1    0    0    0  501  0.00000000000E+00  0.00000000000E+00 -0.15845353190E+04  0.15845353191E+04  0.25500000920E-02 0.  1.
    10030    2    1    2    0    0  0.00000000000E+00  0.00000000000E+00  0.35966908194E+03  0.35287397200E+04  0.35103621128E+04 0.  0.
        1    1    3    3  502    0  0.86100043771E+03  0.48776312982E+03 -0.12773842046E+04  0.16158418954E+04  0.50400001928E-02 0.  1.
       -1    1    3    3    0  502 -0.86100043771E+03 -0.48776312982E+03  0.16370532866E+04  0.19128978247E+04  0.50400001928E-02 0. -1.
</event>
<event>
 5   0  0.3026332E-07  0.3506218E+04  0.7818609E-02  0.8112318E-01
       -1   -1    0    0    0  501  0.00000000000E+00  0.00000000000E+00  0.16360626944E+04  0.16360626944E+04  0.50400001928E-02 0.  1.
        1   -1    0    0  501    0  0.00000000000E+00  0.00000000000E+00 -0.18785290675E+04  0.18785290675E+04  0.50400001928E-02 0. -1.
    10030    2    1    2    0    0  0.00000000000E+00  0.00000000000E+00 -0.24246637305E+03  0.35145917619E+04  0.35062180923E+04 0.  0.
        1    1    3    3  502    0 -0.94314350058E+03  0.95522923074E+03  0.10090273485E+04  0.16793209151E+04  0.50400001928E-02 0.  1.
       -1    1    3    3    0  502  0.94314350058E+03 -0.95522923074E+03 -0.12514937215E+04  0.18352708468E+04  0.50400001928E-02 0. -1.
</event>
<event>
 5   0  0.6188930E-07  0.3491101E+04  0.7818609E-02  0.8115902E-01
        2   -1    0    0  501    0  0.00000000000E+00  0.00000000000E+00  0.15026418271E+04  0.15026418271E+04  0.25500000920E-02 0. -1.
       -2   -1    0    0    0  501  0.00000000000E+00  0.00000000000E+00 -0.20277260944E+04  0.20277260944E+04  0.25500000920E-02 0.  1.
    10030    2    1    2    0    0  0.00000000000E+00  0.00000000000E+00 -0.52508426734E+03  0.35303679215E+04  0.34911007108E+04 0.  0.
        3    1    3    3  502    0  0.61942924102E+03  0.43430029851E+03  0.13282495629E+04  0.15285798132E+04  0.10100000352E+00 0. -1.
       -3    1    3    3    0  502 -0.61942924102E+03 -0.43430029851E+03 -0.18533338302E+04  0.20017881083E+04  0.10100000352E+00 0.  1.
</event>
<event>
 5   0  0.6188930E-07  0.3505004E+04  0.7818609E-02  0.8112605E-01
       -2   -1    0    0    0  501  0.00000000000E+00  0.00000000000E+00  0.17027889782E+04  0.17027889782E+04  0.25500000920E-02 0. -1.
        2   -1    0    0  501    0  0.00000000000E+00  0.00000000000E+00 -0.18036665836E+04  0.18036665836E+04  0.25500000920E-02 0.  1.
    10030    2    1    2    0    0  0.00000000000E+00  0.00000000000E+00 -0.10087760532E+03  0.35064555618E+04  0.35050041820E+04 0.  0.
        3    1    3    3  502    0 -0.15379710154E+04  0.53552055775E+03 -0.69810664887E+03  0.17718606083E+04  0.10100000352E+00 0.  1.
       -3    1    3    3    0  502  0.15379710154E+04 -0.53552055775E+03  0.59722904355E+03  0.17345949535E+04  0.10100000352E+00 0. -1.
</event>
<event>
 5   0  0.9311672E-07  0.3521875E+04  0.7818609E-02  0.8108625E-01
       -2   -1    0    0    0  501  0.00000000000E+00  0.00000000000E+00  0.14496403156E+04  0.14496403156E+04  0.25500000920E-02 0.  1.
        2   -1    0    0  501    0  0.00000000000E+00  0.00000000000E+00 -0.21390835476E+04  0.21390835476E+04  0.25500000920E-02 0. -1.
    10030    2    1    2    0    0  0.00000000000E+00  0.00000000000E+00 -0.68944323199E+03  0.35887238633E+04  0.35218754942E+04 0.  0.
        4    1    3    3  502    0  0.65817825733E+03 -0.15293876424E+04  0.23946197144E+03  0.16821322266E+04  0.12699999809E+01 0. -1.
       -4    1    3    3    0  502 -0.65817825733E+03  0.15293876424E+04 -0.92890520343E+03  0.19065916367E+04  0.12699999809E+01 0.  1.
</event>
<event>
 5   0  0.2972541E-07  0.3493419E+04  0.7818609E-02  0.8115351E-01
        1   -1    0    0  501    0  0.00000000000E+00  0.00000000000E+00  0.22560617404E+04  0.22560617404E+04  0.50400001928E-02 0. -1.
       -1   -1    0    0    0  501  0.00000000000E+00  0.00000000000E+00 -0.13523540692E+04  0.13523540692E+04  0.50400001928E-02 0.  1.
    10030    2    1    2    0    0  0.00000000000E+00  0.00000000000E+00  0.90370767123E+03  0.36084158096E+04  0.34934191131E+04 0.  0.
        3    1    3    3  502    0 -0.10690302551E+04 -0.56023464232E+03  0.17560763337E+04  0.21308431760E+04  0.10100000352E+00 0. -1.
       -3    1    3    3    0  502  0.10690302551E+04  0.56023464232E+03 -0.85236866243E+03  0.14775726336E+04  0.10100000352E+00 0.  1.
</event>
<event>
 5   0  0.9311672E-07  0.3380151E+04  0.7818609E-02  0.8142795E-01
        2   -1    0    0  501    0  0.00000000000E+00  0.00000000000E+00  0.22091187584E+04  0.22091187584E+04  0.25500000920E-02 0.  1.
       -2   -1    0    0    0  501  0.00000000000E+00  0.00000000000E+00 -0.12929840949E+04  0.12929840950E+04  0.25500000920E-02 0. -1.
    10030    2    1    2    0    0  0.00000000000E+00  0.00000000000E+00  0.91613466347E+03  0.35021028534E+04  0.33801511318E+04 0.  0.
        4    1    3    3  502    0 -0.14303102945E+04 -0.82432078990E+03  0.82981768423E+02  0.16529306973E+04  0.12699999809E+01 0.  1.
       -4    1    3    3    0  502  0.14303102945E+04  0.82432078990E+03  0.83315289505E+03  0.18491721561E+04  0.12699999809E+01 0. -1.
</event>
<event>
 5   0  0.3061330E-07  0.3503925E+04  0.7818609E-02  0.8112860E-01
        1   -1    0    0  501    0  0.00000000000E+00  0.00000000000E+00  0.20659354222E+04  0.20659354222E+04  0.50400001928E-02 0.  1.
       -1   -1    0    0    0  501  0.00000000000E+00  0.00000000000E+00 -0.14857056730E+04  0.14857056730E+04  0.50400001928E-02 0. -1.
    10030    2    1    2    0    0  0.00000000000E+00  0.00000000000E+00  0.58022974912E+03  0.35516410952E+04  0.35039246435E+04 0.  0.
        5    1    3    3  502    0  0.33421932568E+03 -0.55113657447E+03 -0.13611481225E+04  0.15060545750E+04  0.46999998093E+01 0. -1.
       -5    1    3    3    0  502 -0.33421932568E+03  0.55113657447E+03  0.19413778716E+04  0.20455865202E+04  0.46999998093E+01 0.  1.
</event>
<event>
 5   0  0.9128871E-07  0.3440985E+04  0.7818609E-02  0.8127920E-01
       -2   -1    0    0    0  501  0.00000000000E+00  0.00000000000E+00  0.15375749006E+04  0.15375749006E+04  0.25500000920E-02 0.  1.
        2   -1    0    0  501    0  0.00000000000E+00  0.00000000000E+00 -0.19251713987E+04  0.19251713987E+04  0.25500000920E-02 0. -1.
    10030    2    1    2    0    0  0.00000000000E+00  0.00000000000E+00 -0.38759649813E+03  0.34627462992E+04  0.34409854530E+04 0.  0.
        1    1    3    3  502    0  0.70793255617E+03 -0.14690480947E+04  0.35814493704E+03  0.16695923469E+04  0.50400001928E-02 0.  1.
       -1    1    3    3    0  502 -0.70793255617E+03  0.14690480947E+04 -0.74574143516E+03  0.17931539524E+04  0.50400001928E-02 0. -1.
</event>
<event>
 5   0  0.8845195E-07  0.2921318E+04  0.7818609E-02  0.8266563E-01
       -2   -1    0    0    0  501  0.00000000000E+00  0.00000000000E+00  0.11868916702E+04  0.11868916702E+04  0.25500000920E-02 0. -1.
        2   -1    0    0  501    0  0.00000000000E+00  0.00000000000E+00 -0.17975734788E+04  0.17975734788E+04  0.25500000920E-02 0.  1.
    10030    2    1    2    0    0  0.00000000000E+00  0.00000000000E+00 -0.61068180857E+03  0.29844651490E+04  0.29213181878E+04 0.  0.
        5    1    3    3  502    0  0.76545148185E+03 -0.92698806667E+03  0.54221868249E+03  0.13188047757E+04  0.46999998093E+01 0. -1.
       -5    1    3    3    0  502 -0.76545148185E+03  0.92698806667E+03 -0.11529004911E+04  0.16656603733E+04  0.46999998093E+01 0.  1.
</event>
<event>
 5   0  0.8845195E-07  0.3558724E+04  0.7818609E-02  0.8100012E-01
       -2   -1    0    0    0  501  0.00000000000E+00  0.00000000000E+00  0.11373305652E+04  0.11373305652E+04  0.25500000920E-02 0.  1.
        2   -1    0    0  501    0  0.00000000000E+00  0.00000000000E+00 -0.27838255376E+04  0.27838255376E+04  0.25500000920E-02 0. -1.
    10030    2    1    2    0    0  0.00000000000E+00  0.00000000000E+00 -0.16464949724E+04  0.39211561028E+04  0.35587244187E+04 0.  0.
        5    1    3    3  502    0  0.11716540560E+04 -0.52075624019E+03  0.53615525768E+03  0.13897643106E+04  0.46999998093E+01 0.  1.
       -5    1    3    3    0  502 -0.11716540560E+04  0.52075624019E+03 -0.21826502301E+04  0.25313917922E+04  0.46999998093E+01 0. -1.
</event>
<event>
 5   0  0.2972541E-07  0.3477965E+04  0.7818609E-02  0.8119032E-01
       -1   -1    0    0    0  501  0.00000000000E+00  0.00000000000E+00  0.19369716069E+04  0.19369716069E+04  0.50400001928E-02 0.  1.
        1   -1    0    0  501    0  0.00000000000E+00  0.00000000000E+00 -0.15612314026E+04  0.15612314026E+04  0.50400001928E-02 0. -1.
    10030    2    1    2    0    0  0.00000000000E+00  0.00000000000E+00  0.37574020432E+03  0.34982030095E+04  0.34779654390E+04 0.  0.
        3    1    3    3  502    0 -0.17341337091E+04 -0.78109765758E+02  0.29210725345E+03  0.17602975641E+04  0.10100000352E+00 0.  1.
       -3    1    3    3    0  502  0.17341337091E+04  0.78109765758E+02  0.83632950874E+02  0.17379054454E+04  0.10100000352E+00 0. -1.
</event>
<event>
 5   0  0.3026332E-07  0.3472929E+04  0.7818609E-02  0.8120236E-01
       -1   -1    0    0    0  501  0.00000000000E+00  0.00000000000E+00  0.16696327313E+04  0.16696327313E+04  0.50400001928E-02 0. -1.
        1   -1    0    0  501    0  0.00000000000E+00  0.00000000000E+00 -0.18059712637E+04  0.18059712637E+04  0.50400001928E-02 0.  1.
    10030    2    1    2    0    0  0.00000000000E+00  0.00000000000E+00 -0.13633853243E+03  0.34756039950E+04  0.34729288698E+04 0.  0.
        1    1    3    3  502    0 -0.16122281399E+04  0.52962068488E+02 -0.71148957454E+03  0.17630377110E+04  0.50400001928E-02 0.  1.
       -1    1    3    3    0  502  0.16122281399E+04 -0.52962068488E+02  0.57515104211E+03  0.17125662840E+04  0.50400001928E-02 0. -1.
</event>
<event>
 5   0  0.3061330E-07  0.3524241E+04  0.7818609E-02  0.8108069E-01
        1   -1    0    0  501    0  0.00000000000E+00  0.00000000000E+00  0.12550753284E+04  0.12550753285E+04  0.50400001928E-02 0. -1.
       -1   -1    0    0    0  501  0.00000000000E+00  0.00000000000E+00 -0.24740103228E+04  0.24740103228E+04  0.50400001928E-02 0.  1.
    10030    2    1    2    0    0  0.00000000000E+00  0.00000000000E+00 -0.12189349944E+04  0.37290856513E+04  0.35242413757E+04 0.  0.
        5    1    3    3  502    0  0.17024646371E+04 -0.25663585633E+03 -0.10065101409E+04  0.19943250881E+04  0.46999998093E+01 0.  1.
       -5    1    3    3    0  502 -0.17024646371E+04  0.25663585633E+03 -0.21242485344E+03  0.17347605632E+04  0.46999998093E+01 0. -1.
</event>
<event>
 5   0  0.3026332E-07  0.3470039E+04  0.7818609E-02  0.8120927E-01
       -1   -1    0    0    0  501  0.00000000000E+00  0.00000000000E+00  0.19764113930E+04  0.19764113930E+04  0.50400001928E-02 0. -1.
        1   -1    0    0  501    0  0.00000000000E+00  0.00000000000E+00 -0.15231104782E+04  0.15231104782E+04  0.50400001928E-02 0.  1.
    10030    2    1    2    0    0  0.00000000000E+00  0.00000000000E+00  0.45330091474E+03  0.34995218712E+04  0.34700391364E+04 0.  0.
        1    1    3    3  502    0  0.10559275900E+04 -0.20307749415E+03 -0.11465607125E+04  0.15718858137E+04  0.50400001928E-02 0.  1.
       -1    1    3    3    0  502 -0.10559275900E+04  0.20307749415E+03  0.15998616272E+04  0.19276360575E+04  0.50400001928E-02 0. -1.
</event>
<event>
 5   0  0.2936607E-07  0.2829481E+04  0.7818609E-02  0.8294174E-01
       -1   -1    0    0    0  501  0.00000000000E+00  0.00000000000E+00  0.10367573650E+04  0.10367573650E+04  0.50400001928E-02 0. -1.
        1   -1    0    0  501    0  0.00000000000E+00  0.00000000000E+00 -0.19305299914E+04  0.19305299915E+04  0.50400001928E-02 0.  1.
    10030    2    1    2    0    0  0.00000000000E+00  0.00000000000E+00 -0.89377262644E+03  0.29672873565E+04  0.28294813567E+04 0.  0.
        2    1    3    3  502    0 -0.99063058243E+03 -0.10099984326E+04 -0.45395260649E+03  0.14857721069E+04  0.25500000920E-02 0. -1.
       -2    1    3    3    0  502  0.99063058243E+03  0.10099984326E+04 -0.43982001996E+03  0.14815152496E+04  0.25500000920E-02 0.  1.
</event>
<event>
 5   0  0.2972541E-07  0.3478431E+04  0.7818609E-02  0.8118921E-01
        1   -1    0    0  501    0  0.00000000000E+00  0.00000000000E+00  0.14657474412E+04  0.14657474412E+04  0.50400001928E-02 0. -1.
       -1   -1    0    0    0  501  0.00000000000E+00  0.00000000000E+00 -0.20637050229E+04  0.20637050229E+04  0.50400001928E-02 0.  1.
    10030    2    1    2    0    0  0.00000000000E+00  0.00000000000E+00 -0.59795758167E+03  0.35294524641E+04  0.34784308857E+04 0.  0.
        3    1    3    3  502    0 -0.98242574367E+03  0.11064918184E+04 -0.12263797026E+04  0.19218459020E+04  0.10100000352E+00 0.  1.
       -3    1    3    3    0  502  0.98242574367E+03 -0.11064918184E+04  0.62842212091E+03  0.16076065620E+04  0.10100000352E+00 0. -1.
</event>
<event>
 5   0  0.8845195E-07  0.3507183E+04  0.7818609E-02  0.8112090E-01
       -2   -1    0    0    0  501  0.00000000000E+00  0.00000000000E+00  0.14086977393E+04  0.14086977393E+04  0.25500000920E-02 0. -1.
        2   -1    0    0  501    0  0.00000000000E+00  0.00000000000E+00 -0.21829256005E+04  0.21829256005E+04  0.25500000920E-02 0.  1.
    10030    2    1    2    0    0  0.00000000000E+00  0.00000000000E+00 -0.77422786121E+03  0.35916233398E+04  0.35071825493E+04 0.  0.
        5    1    3    3  502    0 -0.46439237407E+02  0.71578894320E+03  0.12515844767E+04  0.14425658412E+04  0.46999998093E+01 0. -1.
       -5    1    3    3    0  502  0.46439237407E+02 -0.71578894320E+03 -0.20258123379E+04  0.21490574986E+04  0.46999998093E+01 0.  1.
</event>
<event>
 5   0  0.3061330E-07  0.3487038E+04  0.7818609E-02  0.8116869E-01
        1   -1    0    0  501    0  0.00000000000E+00  0.00000000000E+00  0.12200606395E+04  0.12200606395E+04  0.50400001928E-02 0. -1.
       -1   -1    0    0    0  501  0.00000000000E+00  0.00000000000E+00 -0.24915631046E+04  0.24915631046E+04  0.50400001928E-02 0.  1.
    10030    2    1    2    0    0  0.00000000000E+00  0.00000000000E+00 -0.12715024651E+04  0.37116237441E+04  0.34870377541E+04 0.  0.
        5    1    3    3  502    0  0.12757389420E+04  0.10165016417E+04 -0.12910749101E+04  0.20803081381E+04  0.46999998093E+01 0.  1.
       -5    1    3    3    0  502 -0.12757389420E+04 -0.10165016417E+04  0.19572445049E+02  0.16313156060E+04  0.46999998093E+01 0. -1.
</event>
<event>
 5   0  0.9128871E-07  0.3306730E+04  0.7818609E-02  0.8161185E-01
        2   -1    0    0  501    0  0.00000000000E+00  0.00000000000E+00  0.16481843772E+04  0.16481843772E+04  0.25500000920E-02 0. -1.
       -2   -1    0    0    0  501  0.00000000000E+00  0.00000000000E+00 -0.16585618824E+04  0.16585618824E+04  0.25500000920E-02 0.  1.
    10030    2    1    2    0    0  0.00000000000E+00  0.00000000000E+00 -0.10377505194E+02  0.33067462597E+04  0.33067299759E+04 0.  0.
        1    1    3    3  502    0  0.13398706712E+04 -0.89599647205E+03  0.36298786929E+03  0.16522176874E+04  0.50400001928E-02 0. -1.
       -1    1    3    3    0  502 -0.13398706712E+04  0.89599647205E+03 -0.37336537448E+03  0.16545285722E+04  0.50400001928E-02 0.  1.
</event>
<event>
 5   0  0.3026332E-07  0.3461627E+04  0.7818609E-02  0.8122944E-01
       -1   -1    0    0    0  501  0.00000000000E+00  0.00000000000E+00  0.13893267684E+04  0.13893267684E+04  0.50400001928E-02 0.  1.
        1   -1    0    0  501    0  0.00000000000E+00  0.00000000000E+00 -0.21562355691E+04  0.21562355691E+04  0.50400001928E-02 0. -1.
    10030    2    1    2    0    0  0.00000000000E+00  0.00000000000E+00 -0.76690880070E+03  0.35455623375E+04  0.34616272446E+04 0.  0.
        1    1    3    3  502    0 -0.88303596055E+03 -0.14290311480E+04  0.43588267319E+02  0.16804113980E+04  0.50400001928E-02 0.  1.
       -1    1    3    3    0  502  0.88303596055E+03  0.14290311480E+04 -0.81049706802E+03  0.18651509394E+04  0.50400001928E-02 0. -1.
</event>
<event>
 5   0  0.9311672E-07  0.3488996E+04  0.7818609E-02  0.8116403E-01
        2   -1    0    0  501    0  0.00000000000E+00  0.00000000000E+00  0.17722768257E+04  0.17722768257E+04  0.25500000920E-02 0.  1.
       -2   -1    0    0    0  501  0.00000000000E+00  0.00000000000E+00 -0.17171548303E+04  0.17171548303E+04  0.25500000920E-02 0. -1.
    10030    2    1    2    0    0  0.00000000000E+00  0.00000000000E+00  0.55121995427E+02  0.34894316560E+04  0.34889962521E+04 0.  0.
        4    1    3    3  502    0 -0.57561829463E+03 -0.14947838352E+04 -0.66358020581E+03  0.17337979806E+04  0.12699999809E+01 0. -1.
       -4    1    3    3    0  502  0.57561829463E+03  0.14947838352E+04  0.71870220124E+03  0.17556336754E+04  0.12699999809E+01 0.  1.
</event>
<event>
 5   0  0.6188930E-07  0.3490477E+04  0.7818609E-02  0.8116050E-01
       -2   -1    0    0    0  501  0.00000000000E+00  0.00000000000E+00  0.13554759232E+04  0.13554759232E+04  0.25500000920E-02 0.  1.
        2   -1    0    0  501    0  0.00000000000E+00  0.00000000000E+00 -0.22470763973E+04  0.22470763973E+04  0.25500000920E-02 0. -1.
    10030    2    1    2    0    0  0.00000000000E+00  0.00000000000E+00 -0.89160047407E+03  0.36025523205E+04  0.34904773050E+04 0.  0.
        3    1    3    3  502    0  0.11163941095E+04  0.82088800241E+03  0.64923996674E+03  0.15302632011E+04  0.10100000352E+00 0.  1.
       -3    1    3    3    0  502 -0.11163941095E+04 -0.82088800241E+03 -0.15408404408E+04  0.20722891194E+04  0.10100000352E+00 0. -1.
</event>
<event>
 5   0  0.3026332E-07  0.3472620E+04  0.7818609E-02  0.8120309E-01
        1   -1    0    0  501    0  0.00000000000E+00  0.00000000000E+00  0.15132480492E+04  0.15132480492E+04  0.50400001928E-02 0. -1.
       -1   -1    0    0    0  501  0.00000000000E+00  0.00000000000E+00 -0.19922526798E+04  0.19922526798E+04  0.50400001928E-02 0.  1.
    10030    2    1    2    0    0  0.00000000000E+00  0.00000000000E+00 -0.47900463055E+03  0.35055007290E+04  0.34726200375E+04 0.  0.
        1    1    3    3  502    0  0.12131552399E+04  0.11615317062E+04  0.20497454224E+03  0.16920153970E+04  0.50400001928E-02 0.  1.
       -1    1    3    3    0  502 -0.12131552399E+04 -0.11615317062E+04 -0.68397917279E+03  0.18134853320E+04  0.50400001928E-02 0. -1.
</event>
<event>
 5   0  0.3061330E-07  0.3523865E+04  0.7818609E-02  0.8108157E-01
       -1   -1    0    0    0  501  0.00000000000E+00  0.00000000000E+00  0.10747637820E+04  0.10747637820E+04  0.50400001928E-02 0.  1.
        1   -1    0    0  501    0  0.00000000000E+00  0.00000000000E+00 -0.28884543948E+04  0.28884543948E+04  0.50400001928E-02 0. -1.
    10030    2    1    2    0    0  0.00000000000E+00  0.00000000000E+00 -0.18136906128E+04  0.39632181768E+04  0.35238650199E+04 0.  0.
        5    1    3    3  502    0  0.79310857665E+03  0.11777997287E+03  0.85767971010E+03  0.11741081345E+04  0.46999998093E+01 0.  1.
       -5    1    3    3    0  502 -0.79310857665E+03 -0.11777997287E+03 -0.26713703229E+04  0.27891100423E+04  0.46999998093E+01 0. -1.
</event>
<event>
 5   0  0.3061330E-07  0.3522936E+04  0.7818609E-02  0.8108376E-01
       -1   -1    0    0    0  501  0.00000000000E+00  0.00000000000E+00  0.15519621049E+04  0.15519621050E+04  0.50400001928E-02 0.  1.
        1   -1    0    0  501    0  0.00000000000E+00  0.00000000000E+00 -0.19992555108E+04  0.19992555108E+04  0.50400001928E-02 0. -1.
    10030    2    1    2    0    0  0.00000000000E+00  0.00000000000E+00 -0.44729340583E+03  0.35512176157E+04  0.35229355889E+04 0.  0.
        5    1    3    3  502    0  0.89932673813E+02 -0.15416289155E+04  0.63052785391E+03  0.16680213018E+04  0.46999998093E+01 0.  1.
       -5    1    3    3    0  502 -0.89932673813E+02  0.15416289155E+04 -0.10778212597E+04  0.18831963139E+04  0.46999998093E+01 0. -1.
</event>
<event>
 5   0  0.2936607E-07  0.3556963E+04  0.7818609E-02  0.8100422E-01
        1   -1    0    0  501    0  0.00000000000E+00  0.00000000000E+00  0.21903101126E+04  0.21903101126E+04  0.50400001928E-02 0.  1.
       -1   -1    0    0    0  501  0.00000000000E+00  0.00000000000E+00 -0.14440858686E+04  0.14440858686E+04  0.50400001928E-02 0. -1.
    10030    2    1    2    0    0  0.00000000000E+00  0.00000000000E+00  0.74622424394E+03  0.36343959812E+04  0.35569626827E+04 0.  0.
        2    1    3    3  502    0  0.33033130707E+03 -0.15849774126E+04  0.11251537086E+04  0.19716092510E+04  0.25500000920E-02 0.  1.
       -2    1    3    3    0  502 -0.33033130707E+03  0.15849774126E+04 -0.37892946465E+03  0.16627867302E+04  0.25500000920E-02 0. -1.
</event>
<event>
 5   0  0.6188930E-07  0.3494133E+04  0.7818609E-02  0.8115182E-01
       -2   -1    0    0    0  501  0.00000000000E+00  0.00000000000E+00  0.18243679372E+04  0.18243679372E+04  0.25500000920E-02 0. -1.
        2   -1    0    0  501    0  0.00000000000E+00  0.00000000000E+00 -0.16730403136E+04  0.16730403136E+04  0.25500000920E-02 0.  1.
    10030    2    1    2    0    0  0.00000000000E+00  0.00000000000E+00  0.15132762366E+03  0.34974082508E+04  0.34941328571E+04 0.  0.
        3    1    3    3  502    0 -0.25240883070E+03 -0.76278863716E+03  0.16284672542E+04  0.18158916077E+04  0.10100000352E+00 0. -1.
       -3    1    3    3    0  502  0.25240883070E+03  0.76278863716E+03 -0.14771396305E+04  0.16815166431E+04  0.10100000352E+00 0.  1.
</event>
<event>
 5   0  0.8950809E-07  0.3544492E+04  0.7818609E-02  0.8103326E-01
       -2   -1    0    0    0  501  0.00000000000E+00  0.00000000000E+00  0.11123171904E+04  0.11123171904E+04  0.25500000920E-02 0.  1.
        2   -1    0    0  501    0  0.00000000000E+00  0.00000000000E+00 -0.28237051800E+04  0.28237051800E+04  0.25500000920E-02 0. -1.
    10030    2    1    2    0    0  0.00000000000E+00  0.00000000000E+00 -0.17113879896E+04  0.39360223704E+04  0.35444919593E+04 0.  0.
        2    1    3    3  502    0 -0.80400496774E+03  0.76217120310E+03  0.68041080581E+03  0.13001106859E+04  0.25500000920E-02 0.  1.
       -2    1    3    3    0  502  0.80400496774E+03 -0.76217120310E+03 -0.23917987954E+04  0.26359116845E+04  0.25500000920E-02 0. -1.
</event>
<event>
 5   0  0.6188930E-07  0.3547819E+04  0.7818609E-02  0.8102550E-01
        2   -1    0    0  501    0  0.00000000000E+00  0.00000000000E+00  0.22913289277E+04  0.22913289277E+04  0.25500000920E-02 0.  1.
       -2   -1    0    0    0  501  0.00000000000E+00  0.00000000000E+00 -0.13733319738E+04  0.13733319738E+04  0.25500000920E-02 0. -1.
    10030    2    1    2    0    0  0.00000000000E+00  0.00000000000E+00  0.91799695390E+03  0.36646609014E+04  0.35478192055E+04 0.  0.
        3    1    3    3  502    0 -0.15956531246E+04  0.67228731907E+03  0.85728255578E+03  0.19321005471E+04  0.10100000352E+00 0. -1.
       -3    1    3    3    0  502  0.15956531246E+04 -0.67228731907E+03  0.60714398127E+02  0.17325603544E+04  0.10100000352E+00 0.  1.
</event>
<event>
 5   0  0.8950809E-07  0.3325449E+04  0.7818609E-02  0.8156450E-01
       -2   -1    0    0    0  501  0.00000000000E+00  0.00000000000E+00  0.12019742048E+04  0.12019742048E+04  0.25500000920E-02 0. -1.
        2   -1    0    0  501    0  0.00000000000E+00  0.00000000000E+00 -0.23000932640E+04  0.23000932640E+04  0.25500000920E-02 0.  1.
    10030    2    1    2    0    0  0.00000000000E+00  0.00000000000E+00 -0.10981190592E+04  0.35020674687E+04  0.33254490054E+04 0.  0.
        2    1    3    3  502    0 -0.68648152267E+03  0.13835586190E+04 -0.11975241665E+04  0.19543683027E+04  0.25500000920E-02 0. -1.
       -2    1    3    3    0  502  0.68648152267E+03 -0.13835586190E+04  0.99405107294E+02  0.15476991661E+04  0.25500000920E-02 0.  1.
</event>
<event>
 5   0  0.6188930E-07  0.3542923E+04  0.7818609E-02  0.8103693E-01
        2   -1    0    0  501    0  0.00000000000E+00  0.00000000000E+00  0.21960593772E+04  0.21960593772E+04  0.25500000920E-02 0. -1.
       -2   -1    0    0    0  501  0.00000000000E+00  0.00000000000E+00 -0.14289573191E+04  0.14289573191E+04  0.25500000920E-02 0.  1.
    10030    2    1    2    0    0  0.00000000000E+00  0.00000000000E+00  0.76710205804E+03  0.36250166963E+04  0.35429225903E+04 0.  0.
        3    1    3    3  502    0  0.12358073629E+04  0.23008942178E+03  0.16606369168E+04  0.20827568173E+04  0.10100000352E+00 0. -1.
       -3    1    3    3    0  502 -0.12358073629E+04 -0.23008942178E+03 -0.89353485879E+03  0.15422598790E+04  0.10100000352E+00 0.  1.
</event>
<event>
 5   0  0.6188930E-07  0.3515326E+04  0.7818609E-02  0.8110167E-01
        2   -1    0    0  501    0  0.00000000000E+00  0.00000000000E+00  0.23764805078E+04  0.23764805078E+04  0.25500000920E-02 0.  1.
       -2   -1    0    0    0  501  0.00000000000E+00  0.00000000000E+00 -0.12999808042E+04  0.12999808042E+04  0.25500000920E-02 0. -1.
    10030    2    1    2    0    0  0.00000000000E+00  0.00000000000E+00  0.10764997036E+04  0.36764613120E+04  0.35153258976E+04 0.  0.
        3    1    3    3  502    0  0.11358800070E+04 -0.54420983387E+03  0.18204110790E+04  0.22136585645E+04  0.10100000352E+00 0.  1.
       -3    1    3    3    0  502 -0.11358800070E+04  0.54420983387E+03 -0.74391137534E+03  0.14628027475E+04  0.10100000352E+00 0. -1.
</event>
<event>
 5   0  0.9311672E-07  0.3440610E+04  0.7818609E-02  0.8128011E-01
        2   -1    0    0  501    0  0.00000000000E+00  0.00000000000E+00  0.15684735892E+04  0.15684735892E+04  0.25500000920E-02 0. -1.
       -2   -1    0    0    0  501  0.00000000000E+00  0.00000000000E+00 -0.18868344029E+04  0.18868344029E+04  0.25500000920E-02 0.  1.
    10030    2    1    2    0    0  0.00000000000E+00  0.00000000000E+00 -0.31836081368E+03  0.34553079921E+04  0.34406103692E+04 0.  0.
        4    1    3    3  502    0  0.72935388316E+03  0.39871128975E+03 -0.16717752950E+04  0.18670195578E+04  0.12699999809E+01 0.  1.
       -4    1    3    3    0  502 -0.72935388316E+03 -0.39871128975E+03  0.13534144813E+04  0.15882884343E+04  0.12699999809E+01 0. -1.
</event>
<event>
 5   0  0.9311672E-07  0.3512043E+04  0.7818609E-02  0.8110942E-01
        2   -1    0    0  501    0  0.00000000000E+00  0.00000000000E+00  0.25717052886E+04  0.25717052886E+04  0.25500000920E-02 0.  1.
       -2   -1    0    0    0  501  0.00000000000E+00  0.00000000000E+00 -0.11990530442E+04  0.11990530442E+04  0.25500000920E-02 0. -1.
    10030    2    1    2    0    0  0.00000000000E+00  0.00000000000E+00  0.13726522444E+04  0.37707583328E+04  0.35120427418E+04 0.  0.
        4    1    3    3  502    0 -0.41469209817E+03 -0.18599714845E+03 -0.11348092576E+04  0.12224394217E+04  0.12699999809E+01 0. -1.
       -4    1    3    3    0  502  0.41469209817E+03  0.18599714845E+03  0.25074615021E+04  0.25483189111E+04  0.12699999809E+01 0.  1.
</event>
<event>
 5   0  0.3026332E-07  0.2805347E+04  0.7818609E-02  0.8301610E-01
        1   -1    0    0  501    0  0.00000000000E+00  0.00000000000E+00  0.18321250239E+04  0.18321250239E+04  0.50400001928E-02 0. -1.
       -1   -1    0    0    0  501  0.00000000000E+00  0.00000000000E+00 -0.10738859696E+04  0.10738859696E+04  0.50400001928E-02 0.  1.
    10030    2    1    2    0    0  0.00000000000E+00  0.00000000000E+00  0.75823905430E+03  0.29060109935E+04  0.28053472924E+04 0.  0.
        1    1    3    3  502    0 -0.20947694412E+03  0.24170565555E+03  0.17938453872E+04  0.18221370660E+04  0.50400001928E-02 0. -1.
       -1    1    3    3    0  502  0.20947694412E+03 -0.24170565555E+03 -0.10356063329E+04  0.10838739275E+04  0.50400001928E-02 0.  1.
</event>
<event>
 5   0  0.8950809E-07  0.3536051E+04  0.7818609E-02  0.8105299E-01
        2   -1    0    0  501    0  0.00000000000E+00  0.00000000000E+00  0.21513407070E+04  0.21513407070E+04  0.25500000920E-02 0.  1.
       -2   -1    0    0    0  501  0.00000000000E+00  0.00000000000E+00 -0.14530076313E+04  0.14530076313E+04  0.25500000920E-02 0. -1.
    10030    2    1    2    0    0  0.00000000000E+00  0.00000000000E+00  0.69833307569E+03  0.36043483383E+04  0.35360511675E+04 0.  0.
        2    1    3    3  502    0 -0.14711892720E+04  0.97307959429E+03  0.22586447005E+03  0.17782847156E+04  0.25500000920E-02 0. -1.
       -2    1    3    3    0  502  0.14711892720E+04 -0.97307959429E+03  0.47246860564E+03  0.18260636227E+04  0.25500000920E-02 0.  1.
</event>
<event>
 5   0  0.3061330E-07  0.3487270E+04  0.7818609E-02  0.8116813E-01
        1   -1    0    0  501    0  0.00000000000E+00  0.00000000000E+00  0.24612627061E+04  0.24612627061E+04  0.50400001928E-02 0. -1.
       -1   -1    0    0    0  501  0.00000000000E+00  0.00000000000E+00 -0.12352454413E+04  0.12352454413E+04  0.50400001928E-02 0.  1.
    10030    2    1    2    0    0  0.00000000000E+00  0.00000000000E+00  0.12260172648E+04  0.36965081474E+04  0.34872703007E+04 0.  0.
        5    1    3    3  502    0 -0.10157644995E+04 -0.87694576418E+03 -0.56708663399E+03  0.14568530236E+04  0.46999998093E+01 0.  1.
       -5    1    3    3    0  502  0.10157644995E+04  0.87694576418E+03  0.17931038987E+04  0.22396551238E+04  0.46999998093E+01 0. -1.
</event>
<event>
 5   0  0.2933506E-07  0.3524233E+04  0.7818609E-02  0.8108071E-01
       -1   -1    0    0    0  501  0.00000000000E+00  0.00000000000E+00  0.26694083320E+04  0.26694083320E+04  0.50400001928E-02 0.  1.
        1   -1    0    0  501    0  0.00000000000E+00  0.00000000000E+00 -0.11631998633E+04  0.11631998633E+04  0.50400001928E-02 0. -1.
    10030    2    1    2    0    0  0.00000000000E+00  0.00000000000E+00  0.15062084687E+04  0.38326081953E+04  0.35242334808E+04 0.  0.
        4    1    3    3  502    0  0.14080111974E+04 -0.74121602931E+03 -0.70211801372E+02  0.15927423031E+04  0.12699999809E+01 0.  1.
       -4    1    3    3    0  502 -0.14080111974E+04  0.74121602931E+03  0.15764202700E+04  0.22398658922E+04  0.12699999809E+01 0. -1.
</event>
<event>
 5   0  0.2972541E-07  0.3129747E+04  0.7818609E-02  0.8207621E-01
        1   -1    0    0  501    0  0.00000000000E+00  0.00000000000E+00  0.21851337098E+04  0.21851337098E+04  0.50400001928E-02 0. -1.
       -1   -1    0    0    0  501  0.00000000000E+00  0.00000000000E+00 -0.11206769563E+04  0.11206769563E+04  0.50400001928E-02 0.  1.
    10030    2    1    2    0    0  0.00000000000E+00  0.00000000000E+00  0.10644567536E+04  0.33058106661E+04  0.31297469514E+04 0.  0.
        3    1    3    3  502    0  0.17374058946E+03  0.32014722330E+03 -0.10752753700E+04  0.11352960709E+04  0.10100000352E+00 0.  1.
       -3    1    3    3    0  502 -0.17374058946E+03 -0.32014722330E+03  0.21397321236E+04  0.21705145952E+04  0.10100000352E+00 0. -1.
</event>
<event>
 5   0  0.9128871E-07  0.3505678E+04  0.7818609E-02  0.8112446E-01
       -2   -1    0    0    0  501  0.00000000000E+00  0.00000000000E+00  0.15160532264E+04  0.15160532264E+04  0.25500000920E-02 0. -1.
        2   -1    0    0  501    0  0.00000000000E+00  0.00000000000E+00 -0.20266074195E+04  0.20266074195E+04  0.25500000920E-02 0.  1.
    10030    2    1    2    0    0  0.00000000000E+00  0.00000000000E+00 -0.51055419313E+03  0.35426606458E+04  0.35056780895E+04 0.  0.
        1    1    3    3  502    0 -0.12725158279E+04  0.73580124883E+03 -0.12202033972E+04  0.19103916720E+04  0.50400001928E-02 0.  1.
       -1    1    3    3    0  502  0.12725158279E+04 -0.73580124883E+03  0.70964920403E+03  0.16322689738E+04  0.50400001928E-02 0. -1.
</event>
<event>
 5   0  0.6188930E-07  0.3681399E+04  0.7818609E-02  0.8072096E-01
        2   -1    0    0  501    0  0.00000000000E+00  0.00000000000E+00  0.28499610000E+04  0.28499610000E+04  0.25500000920E-02 0. -1.
       -2   -1    0    0    0  501  0.00000000000E+00  0.00000000000E+00 -0.11888497836E+04  0.11888497836E+04  0.25500000920E-02 0.  1.
    10030    2    1    2    0    0  0.00000000000E+00  0.00000000000E+00  0.16611112164E+04  0.40388107836E+04  0.36813994720E+04 0.  0.
        3    1    3    3  502    0 -0.27819114577E+03  0.46452593024E+03 -0.10995050047E+04  0.12255961484E+04  0.10100000352E+00 0.  1.
       -3    1    3    3    0  502  0.27819114577E+03 -0.46452593024E+03  0.27606162210E+04  0.28132146352E+04  0.10100000352E+00 0. -1.
</event>
<event>
 5   0  0.8845195E-07  0.3481676E+04  0.7818609E-02  0.8118146E-01
        2   -1    0    0  501    0  0.00000000000E+00  0.00000000000E+00  0.13677085069E+04  0.13677085069E+04  0.25500000920E-02 0. -1.
       -2   -1    0    0    0  501  0.00000000000E+00  0.00000000000E+00 -0.22157621061E+04  0.22157621061E+04  0.25500000920E-02 0.  1.
    10030    2    1    2    0    0  0.00000000000E+00  0.00000000000E+00 -0.84805359922E+03  0.35834706130E+04  0.34816758503E+04 0.  0.
        5    1    3    3  502    0  0.12958910722E+04  0.59723934157E+03 -0.14504122842E+04  0.20346366718E+04  0.46999998093E+01 0.  1.
       -5    1    3    3    0  502 -0.12958910722E+04 -0.59723934157E+03  0.60235868496E+03  0.15488339412E+04  0.46999998093E+01 0. -1.
</event>
<event>
 5   0  0.3061330E-07  0.3496860E+04  0.7818609E-02  0.8114534E-01
       -1   -1    0    0    0  501  0.00000000000E+00  0.00000000000E+00  0.16472050342E+04  0.16472050342E+04  0.50400001928E-02 0. -1.
        1   -1    0    0  501    0  0.00000000000E+00  0.00000000000E+00 -0.18558757971E+04  0.18558757972E+04  0.50400001928E-02 0.  1.
    10030    2    1    2    0    0  0.00000000000E+00  0.00000000000E+00 -0.20867076296E+03  0.35030808313E+04  0.34968602808E+04 0.  0.
        5    1    3    3  502    0 -0.83052124842E+03  0.15338464905E+04  0.16441374880E+02  0.17443460119E+04  0.46999998093E+01 0. -1.
       -5    1    3    3    0  502  0.83052124842E+03 -0.15338464905E+04 -0.22511213784E+03  0.17587348194E+04  0.46999998093E+01 0.  1.
</event>
<event>
 5   0  0.6188930E-07  0.3500450E+04  0.7818609E-02  0.8113683E-01
        2   -1    0    0  501    0  0.00000000000E+00  0.00000000000E+00  0.20471654260E+04  0.20471654260E+04  0.25500000920E-02 0. -1.
       -2   -1    0    0    0  501  0.00000000000E+00  0.00000000000E+00 -0.14963557495E+04  0.14963557495E+04  0.25500000920E-02 0.  1.
    10030    2    1    2    0    0  0.00000000000E+00  0.00000000000E+00  0.55080967648E+03  0.35435211756E+04  0.35004501170E+04 0.  0.
        3    1    3    3  502    0 -0.14572779007E+04 -0.96870122220E+03  0.31114946998E+03  0.17773167812E+04  0.10100000352E+00 0.  1.
       -3    1    3    3    0  502  0.14572779007E+04  0.96870122220E+03  0.23966020651E+03  0.17662043944E+04  0.10100000352E+00 0. -1.
</event>
<event>
 5   0  0.9311672E-07  0.3513304E+04  0.7818609E-02  0.8110644E-01
       -2   -1    0    0    0  501  0.00000000000E+00  0.00000000000E+00  0.20673900236E+04  0.20673900236E+04  0.25500000920E-02 0.  1.
        2   -1    0    0  501    0  0.00000000000E+00  0.00000000000E+00 -0.14926195152E+04  0.14926195152E+04  0.25500000920E-02 0. -1.
    10030    2    1    2    0    0  0.00000000000E+00  0.00000000000E+00  0.57477050844E+03  0.35600095389E+04  0.35133042537E+04 0.  0.
        4    1    3    3  502    0  0.17291228647E+04  0.30947281249E+03  0.27357398011E+03  0.17777749122E+04  0.12699999809E+01 0. -1.
       -4    1    3    3    0  502 -0.17291228647E+04 -0.30947281249E+03  0.30119652834E+03  0.17822346267E+04  0.12699999809E+01 0.  1.
</event>
<event>
 5   0  0.8845195E-07  0.3028630E+04  0.7818609E-02  0.8235602E-01
       -2   -1    0    0    0  501  0.00000000000E+00  0.00000000000E+00  0.96172150816E+03  0.96172150817E+03  0.25500000920E-02 0.  1.
        2   -1    0    0  501    0  0.00000000000E+00  0.00000000000E+00 -0.23844214732E+04  0.23844214732E+04  0.25500000920E-02 0. -1.
    10030    2    1    2    0    0  0.00000000000E+00  0.00000000000E+00 -0.14226999650E+04  0.33461429814E+04  0.30286296672E+04 0.  0.
        5    1    3    3  502    0  0.39431859223E+03 -0.93107158680E+03 -0.19568039382E+04  0.22026087247E+04  0.46999998093E+01 0. -1.
       -5    1    3    3    0  502 -0.39431859223E+03  0.93107158680E+03  0.53410397313E+03  0.11435342566E+04  0.46999998093E+01 0.  1.
</event>
<event>
 5   0  0.2972541E-07  0.3488361E+04  0.7818609E-02  0.8116554E-01
       -1   -1    0    0    0  501  0.00000000000E+00  0.00000000000E+00  0.14223909916E+04  0.14223909916E+04  0.50400001928E-02 0.  1.
        1   -1    0    0  501    0  0.00000000000E+00  0.00000000000E+00 -0.21387684816E+04  0.21387684816E+04  0.50400001928E-02 0. -1.
    10030    2    1    2    0    0  0.00000000000E+00  0.00000000000E+00 -0.71637749006E+03  0.35611594732E+04  0.34883606587E+04 0.  0.
        3    1    3    3  502    0 -0.30725422678E+03 -0.10594072754E+04 -0.17374641052E+04  0.20580404423E+04  0.10100000352E+00 0. -1.
       -3    1    3    3    0  502  0.30725422678E+03  0.10594072754E+04  0.10210866152E+04  0.15031190309E+04  0.10100000352E+00 0.  1.
</event>
<event>
 5   0  0.6188930E-07  0.3523740E+04  0.7818609E-02  0.8108187E-01
        2   -1    0    0  501    0  0.00000000000E+00  0.00000000000E+00  0.24851016127E+04  0.24851016127E+04  0.25500000920E-02 0.  1.
       -2   -1    0    0    0  501  0.00000000000E+00  0.00000000000E+00 -0.12491182149E+04  0.12491182149E+04  0.25500000920E-02 0. -1.
    10030    2    1    2    0    0  0.00000000000E+00  0.00000000000E+00  0.12359833978E+04  0.37342198276E+04  0.35237398828E+04 0.  0.
        3    1    3    3  502    0 -0.11364480477E+04  0.46611618292E+03  0.19565331204E+04  0.23101515800E+04  0.10100000352E+00 0.  1.
       -3    1    3    3    0  502  0.11364480477E+04 -0.46611618292E+03 -0.72054972263E+03  0.14240682477E+04  0.10100000352E+00 0. -1.
</event>
<event>
 5   0  0.9128871E-07  0.3499429E+04  0.7818609E-02  0.8113925E-01
       -2   -1    0    0    0  501  0.00000000000E+00  0.00000000000E+00  0.20622418782E+04  0.20622418782E+04  0.25500000920E-02 0.  1.
        2   -1    0    0  501    0  0.00000000000E+00  0.00000000000E+00 -0.14845495730E+04  0.14845495730E+04  0.25500000920E-02 0. -1.
    10030    2    1    2    0    0  0.00000000000E+00  0.00000000000E+00  0.57769230517E+03  0.35467914512E+04  0.34994286961E+04 0.  0.
        1    1    3    3  502    0  0.78480363306E+03 -0.91032507325E+03  0.15776267404E+04  0.19833090061E+04  0.50400001928E-02 0.  1.
       -1    1    3    3    0  502 -0.78480363306E+03  0.91032507325E+03 -0.99993443527E+03  0.15634824452E+04  0.50400001928E-02 0. -1.
</event>
<event>
 5   0  0.9311672E-07  0.3506184E+04  0.7818609E-02  0.8112326E-01
        2   -1    0    0  501    0  0.00000000000E+00  0.00000000000E+00  0.25439537362E+04  0.25439537362E+04  0.25500000920E-02 0. -1.
       -2   -1    0    0    0  501  0.00000000000E+00  0.00000000000E+00 -0.12080926031E+04  0.12080926031E+04  0.25500000920E-02 0.  1.
    10030    2    1    2    0    0  0.00000000000E+00  0.00000000000E+00  0.13358611332E+04  0.37520463393E+04  0.35061840746E+04 0.  0.
        4    1    3    3  502    0  0.14454720747E+04 -0.33105687819E+03 -0.33270083318E+03  0.15197630186E+04  0.12699999809E+01 0.  1.
       -4    1    3    3    0  502 -0.14454720747E+04  0.33105687819E+03  0.16685619664E+04  0.22322833207E+04  0.12699999809E+01 0. -1.
</event>
<event>
 5   0  0.9128871E-07  0.3507269E+04  0.7818609E-02  0.8112070E-01
       -2   -1    0    0    0  501  0.00000000000E+00  0.00000000000E+00  0.19568370547E+04  0.19568370547E+04  0.25500000920E-02 0.  1.
        2   -1    0    0  501    0  0.00000000000E+00  0.00000000000E+00 -0.15715327215E+04  0.15715327215E+04  0.25500000920E-02 0. -1.
    10030    2    1    2    0    0  0.00000000000E+00  0.00000000000E+00  0.38530433319E+03  0.35283697762E+04  0.35072687163E+04 0.  0.
        1    1    3    3  502    0  0.14220633818E+04  0.49016118258E+03 -0.71427660186E+03  0.16651466334E+04  0.50400001928E-02 0. -1.
       -1    1    3    3    0  502 -0.14220633818E+04 -0.49016118258E+03  0.10995809351E+04  0.18632231427E+04  0.50400001928E-02 0.  1.
</event>
<event>
 5   0  0.6188930E-07  0.3461762E+04  0.7818609E-02  0.8122912E-01
        2   -1    0    0  501    0  0.00000000000E+00  0.00000000000E+00  0.12220452976E+04  0.12220452976E+04  0.25500000920E-02 0.  1.
       -2   -1    0    0    0  501  0.00000000000E+00  0.00000000000E+00 -0.24515862404E+04  0.24515862404E+04  0.25500000920E-02 0. -1.
    10030    2    1    2    0    0  0.00000000000E+00  0.00000000000E+00 -0.12295409428E+04  0.36736315380E+04  0.34617622314E+04 0.  0.
        3    1    3    3  502    0  0.30404135514E+03  0.22015860420E+03 -0.24078697741E+04  0.24369546191E+04  0.10100000352E+00 0. -1.
       -3    1    3    3    0  502 -0.30404135514E+03 -0.22015860420E+03  0.11783288313E+04  0.12366769188E+04  0.10100000352E+00 0.  1.
</event>
<event>
 5   0  0.8950809E-07  0.3491622E+04  0.7818609E-02  0.8115778E-01
       -2   -1    0    0    0  501  0.00000000000E+00  0.00000000000E+00  0.16443802803E+04  0.16443802803E+04  0.25500000920E-02 0.  1.
        2   -1    0    0  501    0  0.00000000000E+00  0.00000000000E+00 -0.18534984081E+04  0.18534984081E+04  0.25500000920E-02 0. -1.
    10030    2    1    2    0    0  0.00000000000E+00  0.00000000000E+00 -0.20911812774E+03  0.34978786884E+04  0.34916221055E+04 0.  0.
        2    1    3    3  502    0  0.42958247075E+03  0.14500140379E+04  0.76922769780E+03  0.16967006396E+04  0.25500000920E-02 0.  1.
       -2    1    3    3    0  502 -0.42958247075E+03 -0.14500140379E+04 -0.97834582555E+03  0.18011780488E+04  0.25500000920E-02 0. -1.
</event>
<event>
 5   0  0.9128871E-07  0.3490504E+04  0.7818609E-02  0.8116044E-01
       -2   -1    0    0    0  501  0.00000000000E+00  0.00000000000E+00  0.91045521686E+03  0.91045521686E+03  0.25500000920E-02 0. -1.
        2   -1    0    0  501    0  0.00000000000E+00  0.00000000000E+00 -0.33454736469E+04  0.33454736469E+04  0.25500000920E-02 0.  1.
    10030    2    1    2    0    0  0.00000000000E+00  0.00000000000E+00 -0.24350184301E+04  0.42559288638E+04  0.34905036512E+04 0.  0.
        1    1    3    3  502    0 -0.12568744672E+04 -0.10376286933E+04 -0.19784632695E+04  0.25633422792E+04  0.50400001928E-02 0.  1.
       -1    1    3    3    0  502  0.12568744672E+04  0.10376286933E+04 -0.45655516055E+03  0.16925865846E+04  0.50400001928E-02 0. -1.
</event>
<event>
 5   0  0.8950809E-07  0.3491910E+04  0.7818609E-02  0.8115710E-01
        2   -1    0    0  501    0  0.00000000000E+00  0.00000000000E+00  0.17959688109E+04  0.17959688109E+04  0.25500000920E-02 0. -1.
       -2   -1    0    0    0  501  0.00000000000E+00  0.00000000000E+00 -0.16973337862E+04  0.16973337862E+04  0.25500000920E-02 0.  1.
    10030    2    1    2    0    0  0.00000000000E+00  0.00000000000E+00  0.98635024679E+02  0.34933025970E+04  0.34919098165E+04 0.  0.
        2    1    3    3  502    0 -0.10418931077E+04  0.13010226325E+04 -0.47065648317E+03  0.17319695908E+04  0.25500000920E-02 0.  1.
       -2    1    3    3    0  502  0.10418931077E+04 -0.13010226325E+04  0.56929150785E+03  0.17613330063E+04  0.25500000920E-02 0. -1.
</event>
<event>
 5   0  0.2933506E-07  0.3475308E+04  0.7818609E-02  0.8119667E-01
       -1   -1    0    0    0  501  0.00000000000E+00  0.00000000000E+00  0.17714503540E+04  0.17714503540E+04  0.50400001928E-02 0.  1.
        1   -1    0    0  501    0  0.00000000000E+00  0.00000000000E+00 -0.17045021320E+04  0.17045021320E+04  0.50400001928E-02 0. -1.
    10030    2    1    2    0    0  0.00000000000E+00  0.00000000000E+00  0.66948222043E+02  0.34759524860E+04  0.34753077016E+04 0.  0.
        4    1    3    3  502    0  0.58116642769E+03  0.13192033756E+04 -0.93695707089E+03  0.17192853540E+04  0.12699999809E+01 0. -1.
       -4    1    3    3    0  502 -0.58116642769E+03 -0.13192033756E+04  0.10039052929E+04  0.17566671321E+04  0.12699999809E+01 0.  1.
</event>
<event>
 5   0  0.2936607E-07  0.3439772E+04  0.7818609E-02  0.8128213E-01
       -1   -1    0    0    0  501  0.00000000000E+00  0.00000000000E+00  0.12273844188E+04  0.12273844188E+04  0.50400001928E-02 0.  1.
        1   -1    0    0  501    0  0.00000000000E+00  0.00000000000E+00 -0.24100099253E+04  0.24100099253E+04  0.50400001928E-02 0. -1.
    10030    2    1    2    0    0  0.00000000000E+00  0.00000000000E+00 -0.11826255065E+04  0.36373943442E+04  0.34397724527E+04 0.  0.
        2    1    3    3  502    0 -0.15554814181E+04  0.72941302904E+03 -0.67619146146E+03  0.18462937744E+04  0.25500000920E-02 0. -1.
       -2    1    3    3    0  502  0.15554814181E+04 -0.72941302904E+03 -0.50643404503E+03  0.17911005697E+04  0.25500000920E-02 0.  1.
</event>
<event>
 5   0  0.2936607E-07  0.3477894E+04  0.7818609E-02  0.8119049E-01
       -1   -1    0    0    0  501  0.00000000000E+00  0.00000000000E+00  0.13040929498E+04  0.13040929498E+04  0.50400001928E-02 0. -1.
        1   -1    0    0  501    0  0.00000000000E+00  0.00000000000E+00 -0.23188040651E+04  0.23188040651E+04  0.50400001928E-02 0.  1.
    10030    2    1    2    0    0  0.00000000000E+00  0.00000000000E+00 -0.10147111153E+04  0.36228970149E+04  0.34778936345E+04 0.  0.
        2    1    3    3  502    0  0.55718239537E+03 -0.32554355307E+03  0.11747462801E+04  0.13403207263E+04  0.25500000920E-02 0. -1.
       -2    1    3    3    0  502 -0.55718239537E+03  0.32554355307E+03 -0.21894573955E+04  0.22825762886E+04  0.25500000920E-02 0.  1.
</event>
<event>
 5   0  0.3061330E-07  0.3484640E+04  0.7818609E-02  0.8117440E-01
        1   -1    0    0  501    0  0.00000000000E+00  0.00000000000E+00  0.18317620162E+04  0.18317620162E+04  0.50400001928E-02 0.  1.
       -1   -1    0    0    0  501  0.00000000000E+00  0.00000000000E+00 -0.16572455300E+04  0.16572455300E+04  0.50400001928E-02 0. -1.
    10030    2    1    2    0    0  0.00000000000E+00  0.00000000000E+00  0.17451648621E+03  0.34890075462E+04  0.34846402474E+04 0.  0.
        5    1    3    3  502    0  0.17076925066E+04 -0.33394751582E+03 -0.18627662964E+01  0.17400460340E+04  0.46999998093E+01 0. -1.
       -5    1    3    3    0  502 -0.17076925066E+04  0.33394751582E+03  0.17637925250E+03  0.17489615122E+04  0.46999998093E+01 0.  1.
</event>
<event>
 5   0  0.6188930E-07  0.3534327E+04  0.7818609E-02  0.8105703E-01
        2   -1    0    0  501    0  0.00000000000E+00  0.00000000000E+00  0.21537075952E+04  0.21537075952E+04  0.25500000920E-02 0. -1.
       -2   -1    0    0    0  501  0.00000000000E+00  0.00000000000E+00 -0.14499953347E+04  0.14499953348E+04  0.25500000920E-02 0.  1.
    10030    2    1    2    0    0  0.00000000000E+00  0.00000000000E+00  0.70371226048E+03  0.36037029300E+04  0.35343265076E+04 0.  0.
        3    1    3    3  502    0  0.78992263576E+03  0.15374381015E+04 -0.23018556998E+02  0.17286478967E+04  0.10100000352E+00 0.  1.
       -3    1    3    3    0  502 -0.78992263576E+03 -0.15374381015E+04  0.72673081747E+03  0.18750550333E+04  0.10100000352E+00 0. -1.
</event>
<event>
 5   0  0.3061330E-07  0.3594906E+04  0.7818609E-02  0.8091660E-01
       -1   -1    0    0    0  501  0.00000000000E+00  0.00000000000E+00  0.11788479468E+04  0.11788479468E+04  0.50400001928E-02 0.  1.
        1   -1    0    0  501    0  0.00000000000E+00  0.00000000000E+00 -0.27406732083E+04  0.27406732083E+04  0.50400001928E-02 0. -1.
    10030    2    1    2    0    0  0.00000000000E+00  0.00000000000E+00 -0.15618252615E+04  0.39195211551E+04  0.35949058316E+04 0.  0.
        5    1    3    3  502    0 -0.31620051897E+03 -0.16177200031E+03  0.11401992312E+04  0.11942484353E+04  0.46999998093E+01 0.  1.
       -5    1    3    3    0  502  0.31620051897E+03  0.16177200031E+03 -0.27020244927E+04  0.27252727199E+04  0.46999998093E+01 0. -1.
</event>
<event>
 5   0  0.6188930E-07  0.3364369E+04  0.7818609E-02  0.8146707E-01
       -2   -1    0    0    0  501  0.00000000000E+00  0.00000000000E+00  0.98496713714E+03  0.98496713714E+03  0.25500000920E-02 0.  1.
        2   -1    0    0  501    0  0.00000000000E+00  0.00000000000E+00 -0.28729338373E+04  0.28729338373E+04  0.25500000920E-02 0. -1.
    10030    2    1    2    0    0  0.00000000000E+00  0.00000000000E+00 -0.18879667002E+04  0.38579009745E+04  0.33643694309E+04 0.  0.
        3    1    3    3  502    0  0.11717771207E+04  0.54873702625E+03 -0.21766504411E+04  0.25321889933E+04  0.10100000352E+00 0. -1.
       -3    1    3    3    0  502 -0.11717771207E+04 -0.54873702625E+03  0.28868374089E+03  0.13257119812E+04  0.10100000352E+00 0.  1.
</event>
<event>
 5   0  0.3026332E-07  0.3476965E+04  0.7818609E-02  0.8119271E-01
       -1   -1    0    0    0  501  0.00000000000E+00  0.00000000000E+00  0.24947116339E+04  0.24947116339E+04  0.50400001928E-02 0.  1.
        1   -1    0    0  501    0  0.00000000000E+00  0.00000000000E+00 -0.12114912765E+04  0.12114912765E+04  0.50400001928E-02 0. -1.
    10030    2    1    2    0    0  0.00000000000E+00  0.00000000000E+00  0.12832203574E+04  0.37062029105E+04  0.34769649880E+04 0.  0.
        1    1    3    3  502    0  0.68813932769E+03 -0.56237989352E+03  0.22342809857E+04  0.24045412041E+04  0.50400001928E-02 0.  1.
       -1    1    3    3    0  502 -0.68813932769E+03  0.56237989352E+03 -0.95106062836E+03  0.13016617064E+04  0.50400001928E-02 0. -1.
</event>
<event>
 5   0  0.2936607E-07  0.3503049E+04  0.7818609E-02  0.8113068E-01
       -1   -1    0    0    0  501  0.00000000000E+00  0.00000000000E+00  0.17334696813E+04  0.17334696813E+04  0.50400001928E-02 0.  1.
        1   -1    0    0  501    0  0.00000000000E+00  0.00000000000E+00 -0.17697678653E+04  0.17697678653E+04  0.50400001928E-02 0. -1.
    10030    2    1    2    0    0  0.00000000000E+00  0.00000000000E+00 -0.36298184010E+02  0.35032375466E+04  0.35030494929E+04 0.  0.
        2    1    3    3  502    0  0.28295931361E+02  0.14021512061E+04 -0.10674957873E+04  0.17624913958E+04  0.25500000920E-02 0. -1.
       -2    1    3    3    0  502 -0.28295931361E+02 -0.14021512061E+04  0.10311976033E+04  0.17407461508E+04  0.25500000920E-02 0.  1.
</event>
<event>
 5   0  0.3061330E-07  0.3399732E+04  0.7818609E-02  0.8137972E-01
       -1   -1    0    0    0  501  0.00000000000E+00  0.00000000000E+00  0.11237686071E+04  0.11237686071E+04  0.50400001928E-02 0.  1.
        1   -1    0    0  501    0  0.00000000000E+00  0.00000000000E+00 -0.25712981974E+04  0.25712981974E+04  0.50400001928E-02 0. -1.
    10030    2    1    2    0    0  0.00000000000E+00  0.00000000000E+00 -0.14475295904E+04  0.36950668045E+04  0.33997318681E+04 0.  0.
        5    1    3    3  502    0  0.69998418136E+03 -0.69714230577E+03  0.77970962664E+03  0.12585525180E+04  0.46999998093E+01 0.  1.
       -5    1    3    3    0  502 -0.69998418136E+03  0.69714230577E+03 -0.22272392170E+04  0.24365142865E+04  0.46999998093E+01 0. -1.
</event>
<event>
 5   0  0.9311672E-07  0.3520527E+04  0.7818609E-02  0.8108943E-01
        2   -1    0    0  501    0  0.00000000000E+00  0.00000000000E+00  0.17421240468E+04  0.17421240468E+04  0.25500000920E-02 0. -1.
       -2   -1    0    0    0  501  0.00000000000E+00  0.00000000000E+00 -0.17785916152E+04  0.17785916152E+04  0.25500000920E-02 0.  1.
    10030    2    1    2    0    0  0.00000000000E+00  0.00000000000E+00 -0.36467568416E+02  0.35207156621E+04  0.35205267915E+04 0.  0.
        4    1    3    3  502    0  0.13821336951E+04 -0.49574797391E+03  0.95262518139E+03  0.17503016751E+04  0.12699999809E+01 0. -1.
       -4    1    3    3    0  502 -0.13821336951E+04  0.49574797391E+03 -0.98909274981E+03  0.17704139870E+04  0.12699999809E+01 0.  1.
</event>
<event>
 5   0  0.9311672E-07  0.3437682E+04  0.7818609E-02  0.8128719E-01
        2   -1    0    0  501    0  0.00000000000E+00  0.00000000000E+00  0.99871620035E+03  0.99871620036E+03  0.25500000920E-02 0. -1.
       -2   -1    0    0    0  501  0.00000000000E+00  0.00000000000E+00 -0.29582123812E+04  0.29582123812E+04  0.25500000920E-02 0.  1.
    10030    2    1    2    0    0  0.00000000000E+00  0.00000000000E+00 -0.19594961808E+04  0.39569285815E+04  0.34376821430E+04 0.  0.
        4    1    3    3  502    0 -0.31692052209E+02 -0.75386611979E+03  0.79789794803E+03  0.10981626752E+04  0.12699999809E+01 0. -1.
       -4    1    3    3    0  502  0.31692052209E+02  0.75386611979E+03 -0.27573941288E+04  0.28587659064E+04  0.12699999809E+01 0.  1.
</event>
<event>
 5   0  0.6188930E-07  0.3359819E+04  0.7818609E-02  0.8147839E-01
        2   -1    0    0  501    0  0.00000000000E+00  0.00000000000E+00  0.29293675538E+04  0.29293675538E+04  0.25500000920E-02 0.  1.
       -2   -1    0    0    0  501  0.00000000000E+00  0.00000000000E+00 -0.96338073191E+03  0.96338073191E+03  0.25500000920E-02 0. -1.
    10030    2    1    2    0    0  0.00000000000E+00  0.00000000000E+00  0.19659868219E+04  0.38927482857E+04  0.33598191963E+04 0.  0.
        3    1    3    3  502    0 -0.81260885727E+03  0.13060477696E+04  0.20060224273E+03  0.15512366684E+04  0.10100000352E+00 0. -1.
       -3    1    3    3    0  502  0.81260885727E+03 -0.13060477696E+04  0.17653845792E+04  0.23415116173E+04  0.10100000352E+00 0.  1.
</event>
<event>
 5   0  0.2933506E-07  0.3380676E+04  0.7818609E-02  0.8142665E-01
        1   -1    0    0  501    0  0.00000000000E+00  0.00000000000E+00  0.12120918939E+04  0.12120918939E+04  0.50400001928E-02 0. -1.
       -1   -1    0    0    0  501  0.00000000000E+00  0.00000000000E+00 -0.23572820224E+04  0.23572820224E+04  0.50400001928E-02 0.  1.
    10030    2    1    2    0    0  0.00000000000E+00  0.00000000000E+00 -0.11451901285E+04  0.35693739164E+04  0.33806759271E+04 0.  0.
        4    1    3    3  502    0  0.97891428127E+03 -0.13589059000E+04 -0.33104045271E+03  0.17071871044E+04  0.12699999809E+01 0.  1.
       -4    1    3    3    0  502 -0.97891428127E+03  0.13589059000E+04 -0.81414967583E+03  0.18621868120E+04  0.12699999809E+01 0. -1.
</event>
<event>
 5   0  0.9311672E-07  0.3442452E+04  0.7818609E-02  0.8127565E-01
       -2   -1    0    0    0  501  0.00000000000E+00  0.00000000000E+00  0.16156156145E+04  0.16156156145E+04  0.25500000920E-02 0.  1.
        2   -1    0    0  501    0  0.00000000000E+00  0.00000000000E+00 -0.18337403427E+04  0.18337403427E+04  0.25500000920E-02 0. -1.
    10030    2    1    2    0    0  0.00000000000E+00  0.00000000000E+00 -0.21812472822E+03  0.34493559572E+04  0.34424523414E+04 0.  0.
        4    1    3    3  502    0  0.16084537991E+04 -0.23691546562E+03  0.45719515132E+03  0.16888699124E+04  0.12699999809E+01 0.  1.
       -4    1    3    3    0  502 -0.16084537991E+04  0.23691546562E+03 -0.67531987953E+03  0.17604860449E+04  0.12699999809E+01 0. -1.
</event>
<event>
 5   0  0.2936607E-07  0.3495140E+04  0.7818609E-02  0.8114943E-01
       -1   -1    0    0    0  501  0.00000000000E+00  0.00000000000E+00  0.15009808666E+04  0.15009808666E+04  0.50400001928E-02 0. -1.
        1   -1    0    0  501    0  0.00000000000E+00  0.00000000000E+00 -0.20346696048E+04  0.20346696048E+04  0.50400001928E-02 0.  1.
    10030    2    1    2    0    0  0.00000000000E+00  0.00000000000E+00 -0.53368873817E+03  0.35356504714E+04  0.34951395661E+04 0.  0.
        2    1    3    3  502    0  0.51827735783E+03  0.11880449689E+04 -0.14525813117E+04  0.19468062910E+04  0.25500000920E-02 0.  1.
       -2    1    3    3    0  502 -0.51827735783E+03 -0.11880449689E+04  0.91889257351E+03  0.15888441803E+04  0.25500000920E-02 0. -1.
</event>
<event>
 5   0  0.9128871E-07  0.3500064E+04  0.7818609E-02  0.8113775E-01
       -2   -1    0    0    0  501  0.00000000000E+00  0.00000000000E+00  0.12919359592E+04  0.12919359592E+04  0.25500000920E-02 0. -1.
        2   -1    0    0  501    0  0.00000000000E+00  0.00000000000E+00 -0.23705606084E+04  0.23705606084E+04  0.25500000920E-02 0.  1.
    10030    2    1    2    0    0  0.00000000000E+00  0.00000000000E+00 -0.10786246491E+04  0.36624965676E+04  0.35000642814E+04 0.  0.
        1    1    3    3  502    0  0.48551983099E+03  0.12381610549E+04  0.65094681329E+03  0.14807106597E+04  0.50400001928E-02 0. -1.
       -1    1    3    3    0  502 -0.48551983099E+03 -0.12381610549E+04 -0.17295714624E+04  0.21817859079E+04  0.50400001928E-02 0.  1.
</event>
<event>
 5   0  0.6188930E-07  0.3497626E+04  0.7818609E-02  0.8114353E-01
       -2   -1    0    0    0  501  0.00000000000E+00  0.00000000000E+00  0.25581377115E+04  0.25581377115E+04  0.25500000920E-02 0. -1.
        2   -1    0    0  501    0  0.00000000000E+00  0.00000000000E+00 -0.11955366762E+04  0.11955366762E+04  0.25500000920E-02 0.  1.
    10030    2    1    2    0    0  0.00000000000E+00  0.00000000000E+00  0.13626010354E+04  0.37536743877E+04  0.34976263133E+04 0.  0.
        3    1    3    3  502    0  0.13173448199E+04 -0.11420121078E+04  0.53431271652E+03  0.18234799472E+04  0.10100000352E+00 0.  1.
       -3    1    3    3    0  502 -0.13173448199E+04  0.11420121078E+04  0.82828831884E+03  0.19301944405E+04  0.10100000352E+00 0. -1.
</event>
<event>
 5   0  0.2933506E-07  0.2805590E+04  0.7818609E-02  0.8301535E-01
        1   -1    0    0  501    0  0.00000000000E+00  0.00000000000E+00  0.24730657550E+04  0.24730657550E+04  0.50400001928E-02 0. -1.
       -1   -1    0    0    0  501  0.00000000000E+00  0.00000000000E+00 -0.79570649345E+03  0.79570649347E+03  0.50400001928E-02 0.  1.
    10030    2    1    2    0    0  0.00000000000E+00  0.00000000000E+00  0.16773592615E+04  0.32687722485E+04  0.28055904762E+04 0.  0.
        4    1    3    3  502    0 -0.81009342566E+03  0.11340964317E+04  0.10243896364E+04  0.17296825763E+04  0.12699999809E+01 0. -1.
       -4    1    3    3    0  502  0.81009342566E+03 -0.11340964317E+04  0.65296962518E+03  0.15390896722E+04  0.12699999809E+01 0.  1.
</event>
<event>
 5   0  0.2933506E-07  0.3500130E+04  0.7818609E-02  0.8113759E-01
        1   -1    0    0  501    0  0.00000000000E+00  0.00000000000E+00  0.20404117972E+04  0.20404117973E+04  0.50400001928E-02 0. -1.
       -1   -1    0    0    0  501  0.00000000000E+00  0.00000000000E+00 -0.15010340851E+04  0.15010340851E+04  0.50400001928E-02 0.  1.
    10030    2    1    2    0    0  0.00000000000E+00  0.00000000000E+00  0.53937771218E+03  0.35414458823E+04  0.35001300863E+04 0.  0.
        4    1    3    3  502    0 -0.52487113359E+03 -0.10995888078E+04  0.15407583522E+04  0.19643123901E+04  0.12699999809E+01 0. -1.
       -4    1    3    3    0  502  0.52487113359E+03  0.10995888078E+04 -0.10013806400E+04  0.15771334922E+04  0.12699999809E+01 0.  1.
</event>
<event>
 5   0  0.2933506E-07  0.3505059E+04  0.7818609E-02  0.8112592E-01
       -1   -1    0    0    0  501  0.00000000000E+00  0.00000000000E+00  0.15603980652E+04  0.15603980653E+04  0.50400001928E-02 0. -1.
        1   -1    0    0  501    0  0.00000000000E+00  0.00000000000E+00 -0.19683180293E+04  0.19683180293E+04  0.50400001928E-02 0.  1.
    10030    2    1    2    0    0  0.00000000000E+00  0.00000000000E+00 -0.40791996409E+03  0.35287160946E+04  0.35050589980E+04 0.  0.
        4    1    3    3  502    0  0.13969231415E+04 -0.10356094242E+04 -0.42332254562E+03  0.17897163835E+04  0.12699999809E+01 0.  1.
       -4    1    3    3    0  502 -0.13969231415E+04  0.10356094242E+04  0.15402581533E+02  0.17389997111E+04  0.12699999809E+01 0. -1.
</event>
<event>
 5   0  0.9311672E-07  0.3369417E+04  0.7818609E-02  0.8145454E-01
       -2   -1    0    0    0  501  0.00000000000E+00  0.00000000000E+00  0.13448454651E+04  0.13448454651E+04  0.25500000920E-02 0. -1.
        2   -1    0    0  501    0  0.00000000000E+00  0.00000000000E+00 -0.21104595110E+04  0.21104595110E+04  0.25500000920E-02 0.  1.
    10030    2    1    2    0    0  0.00000000000E+00  0.00000000000E+00 -0.76561404588E+03  0.34553049760E+04  0.33694165089E+04 0.  0.
        4    1    3    3  502    0  0.25509711512E+03 -0.16476190213E+04 -0.13473723777E+03  0.16726860775E+04  0.12699999809E+01 0. -1.
       -4    1    3    3    0  502 -0.25509711512E+03  0.16476190213E+04 -0.63087680811E+03  0.17826188986E+04  0.12699999809E+01 0.  1.
</event>
<event>
 5   0  0.2933506E-07  0.3487661E+04  0.7818609E-02  0.8116720E-01
        1   -1    0    0  501    0  0.00000000000E+00  0.00000000000E+00  0.11586686554E+04  0.11586686554E+04  0.50400001928E-02 0. -1.
       -1   -1    0    0    0  501  0.00000000000E+00  0.00000000000E+00 -0.26245164101E+04  0.26245164101E+04  0.50400001928E-02 0.  1.
    10030    2    1    2    0    0  0.00000000000E+00  0.00000000000E+00 -0.14658477547E+04  0.37831850654E+04  0.34876610500E+04 0.  0.
        4    1    3    3  502    0  0.13171522247E+04 -0.93517180726E+02  0.50258206017E+03  0.14128785462E+04  0.12699999809E+01 0. -1.
       -4    1    3    3    0  502 -0.13171522247E+04  0.93517180726E+02 -0.19684298149E+04  0.23703065192E+04  0.12699999809E+01 0.  1.
</event>
<event>
 5   0  0.9128871E-07  0.3460546E+04  0.7818609E-02  0.8123204E-01
        2   -1    0    0  501    0  0.00000000000E+00  0.00000000000E+00  0.20000536275E+04  0.20000536275E+04  0.25500000920E-02 0.  1.
       -2   -1    0    0    0  501  0.00000000000E+00  0.00000000000E+00 -0.14968824171E+04  0.14968824172E+04  0.25500000920E-02 0. -1.
    10030    2    1    2    0    0  0.00000000000E+00  0.00000000000E+00  0.50317121036E+03  0.34969360447E+04  0.34605462623E+04 0.  0.
        1    1    3    3  502    0 -0.14167576436E+04 -0.96530486457E+03  0.48820470668E+03  0.17825149475E+04  0.50400001928E-02 0. -1.
       -1    1    3    3    0  502  0.14167576436E+04  0.96530486457E+03  0.14966503676E+02  0.17144210972E+04  0.50400001928E-02 0.  1.
</event>
<event>
 5   0  0.3061330E-07  0.3416380E+04  0.7818609E-02  0.8133898E-01
        1   -1    0    0  501    0  0.00000000000E+00  0.00000000000E+00  0.23120462995E+04  0.23120462995E+04  0.50400001928E-02 0.  1.
       -1   -1    0    0    0  501  0.00000000000E+00  0.00000000000E+00 -0.12620482165E+04  0.12620482165E+04  0.50400001928E-02 0. -1.
    10030    2    1    2    0    0  0.00000000000E+00  0.00000000000E+00  0.10499980830E+04  0.35740945160E+04  0.34163804874E+04 0.  0.
        5    1    3    3  502    0  0.99049480038E+03  0.31564913020E+02 -0.93056656360E+03  0.13594309518E+04  0.46999998093E+01 0. -1.
       -5    1    3    3    0  502 -0.99049480038E+03 -0.31564913020E+02  0.19805646466E+04  0.22146635642E+04  0.46999998093E+01 0.  1.
</event>
<event>
 5   0  0.3061330E-07  0.3585158E+04  0.7818609E-02  0.8093900E-01
       -1   -1    0    0    0  501  0.00000000000E+00  0.00000000000E+00  0.15290358013E+04  0.15290358014E+04  0.50400001928E-02 0.  1.
        1   -1    0    0  501    0  0.00000000000E+00  0.00000000000E+00 -0.21015457932E+04  0.21015457933E+04  0.50400001928E-02 0. -1.
    10030    2    1    2    0    0  0.00000000000E+00  0.00000000000E+00 -0.57250999190E+03  0.36305815946E+04  0.35851576010E+04 0.  0.
        5    1    3    3  502    0 -0.13573482627E+03  0.14178446557E+04 -0.13884425704E+04  0.19890958428E+04  0.46999998093E+01 0. -1.
       -5    1    3    3    0  502  0.13573482627E+03 -0.14178446557E+04  0.81593257851E+03  0.16414857518E+04  0.46999998093E+01 0.  1.
</event>
<event>
 5   0  0.6188930E-07  0.3515763E+04  0.7818609E-02  0.8110064E-01
        2   -1    0    0  501    0  0.00000000000E+00  0.00000000000E+00  0.14224298332E+04  0.14224298332E+04  0.25500000920E-02 0. -1.
       -2   -1    0    0    0  501  0.00000000000E+00  0.00000000000E+00 -0.21724430157E+04  0.21724430157E+04  0.25500000920E-02 0.  1.
    10030    2    1    2    0    0  0.00000000000E+00  0.00000000000E+00 -0.75001318246E+03  0.35948728489E+04  0.35157632209E+04 0.  0.
        3    1    3    3  502    0 -0.79984908860E+03 -0.13669313653E+04  0.40497355870E+03  0.16347059416E+04  0.10100000352E+00 0. -1.
       -3    1    3    3    0  502  0.79984908860E+03  0.13669313653E+04 -0.11549867412E+04  0.19601669073E+04  0.10100000352E+00 0.  1.
</event>
<event>
 5   0  0.2933506E-07  0.3490248E+04  0.7818609E-02  0.8116105E-01
       -1   -1    0    0    0  501  0.00000000000E+00  0.00000000000E+00  0.21551548828E+04  0.21551548828E+04  0.50400001928E-02 0.  1.
        1   -1    0    0  501    0  0.00000000000E+00  0.00000000000E+00 -0.14131040631E+04  0.14131040631E+04  0.50400001928E-02 0. -1.
    10030    2    1    2    0    0  0.00000000000E+00  0.00000000000E+00  0.74205081969E+03  0.35682589459E+04  0.34902481984E+04 0.  0.
        4    1    3    3  502    0  0.64989730113E+03 -0.94612778093E+03  0.17149144254E+04  0.20636030091E+04  0.12699999809E+01 0.  1.
       -4    1    3    3    0  502 -0.64989730113E+03  0.94612778093E+03 -0.97286360573E+03  0.15046559368E+04  0.12699999809E+01 0. -1.
</event>
<event>
 5   0  0.3061330E-07  0.3483550E+04  0.7818609E-02  0.8117699E-01
       -1   -1    0    0    0  501  0.00000000000E+00  0.00000000000E+00  0.18831379104E+04  0.18831379104E+04  0.50400001928E-02 0.  1.
        1   -1    0    0  501    0  0.00000000000E+00  0.00000000000E+00 -0.16110242732E+04  0.16110242732E+04  0.50400001928E-02 0. -1.
    10030    2    1    2    0    0  0.00000000000E+00  0.00000000000E+00  0.27211363720E+03  0.34941621837E+04  0.34835504208E+04 0.  0.
        5    1    3    3  502    0  0.88072018131E+03  0.51945761866E+03 -0.12782933595E+04  0.16369362414E+04  0.46999998093E+01 0. -1.
       -5    1    3    3    0  502 -0.88072018131E+03 -0.51945761866E+03  0.15504069967E+04  0.18572259423E+04  0.46999998093E+01 0.  1.
</event>
<event>
 5   0  0.3061330E-07  0.3542916E+04  0.7818609E-02  0.8103694E-01
        1   -1    0    0  501    0  0.00000000000E+00  0.00000000000E+00  0.18568378972E+04  0.18568378972E+04  0.50400001928E-02 0. -1.
       -1   -1    0    0    0  501  0.00000000000E+00  0.00000000000E+00 -0.16900038329E+04  0.16900038329E+04  0.50400001928E-02 0.  1.
    10030    2    1    2    0    0  0.00000000000E+00  0.00000000000E+00  0.16683406430E+03  0.35468417301E+04  0.35429158405E+04 0.  0.
        5    1    3    3  502    0  0.89206681192E+03  0.14956019603E+04  0.40848078157E+03  0.17887110050E+04  0.46999998093E+01 0. -1.
       -5    1    3    3    0  502 -0.89206681192E+03 -0.14956019603E+04 -0.24164671727E+03  0.17581307251E+04  0.46999998093E+01 0.  1.
</event>
<event>
 5   0  0.6188930E-07  0.3544393E+04  0.7818609E-02  0.8103349E-01
        2   -1    0    0  501    0  0.00000000000E+00  0.00000000000E+00  0.21412666568E+04  0.21412666569E+04  0.25500000920E-02 0.  1.
       -2   -1    0    0    0  501  0.00000000000E+00  0.00000000000E+00 -0.14667393069E+04  0.14667393069E+04  0.25500000920E-02 0. -1.
    10030    2    1    2    0    0  0.00000000000E+00  0.00000000000E+00  0.67452734993E+03  0.36080059638E+04  0.35443927391E+04 0.  0.
        3    1    3    3  502    0  0.37009841607E+03 -0.53414126805E+03 -0.13410846817E+04  0.14902308095E+04  0.10100000352E+00 0. -1.
       -3    1    3    3    0  502 -0.37009841607E+03  0.53414126805E+03  0.20156120316E+04  0.21177751543E+04  0.10100000352E+00 0.  1.
</event>
<event>
 5   0  0.3026332E-07  0.3540226E+04  0.7818609E-02  0.8104322E-01
        1   -1    0    0  501    0  0.00000000000E+00  0.00000000000E+00  0.14341552090E+04  0.14341552090E+04  0.50400001928E-02 0.  1.
       -1   -1    0    0    0  501  0.00000000000E+00  0.00000000000E+00 -0.21847707560E+04  0.21847707560E+04  0.50400001928E-02 0. -1.
    10030    2    1    2    0    0  0.00000000000E+00  0.00000000000E+00 -0.75061554695E+03  0.36189259650E+04  0.35402261850E+04 0.  0.
        1    1    3    3  502    0  0.69485467267E+03 -0.12178771069E+04  0.72910426381E+03  0.15803925750E+04  0.50400001928E-02 0.  1.
       -1    1    3    3    0  502 -0.69485467267E+03  0.12178771069E+04 -0.14797198108E+04  0.20385333900E+04  0.50400001928E-02 0. -1.
</event>
<event>
 5   0  0.3061330E-07  0.3434940E+04  0.7818609E-02  0.8129384E-01
        1   -1    0    0  501    0  0.00000000000E+00  0.00000000000E+00  0.25675341720E+04  0.25675341720E+04  0.50400001928E-02 0. -1.
       -1   -1    0    0    0  501  0.00000000000E+00  0.00000000000E+00 -0.11488470333E+04  0.11488470333E+04  0.50400001928E-02 0.  1.
    10030    2    1    2    0    0  0.00000000000E+00  0.00000000000E+00  0.14186871387E+04  0.37163812053E+04  0.34349404749E+04 0.  0.
        5    1    3    3  502    0 -0.71210394241E+02 -0.14505531800E+04  0.17012519786E+04  0.22368405918E+04  0.46999998093E+01 0.  1.
       -5    1    3    3    0  502  0.71210394241E+02  0.14505531800E+04 -0.28256483994E+03  0.14795406135E+04  0.46999998093E+01 0. -1.
</event>
<event>
 5   0  0.3026332E-07  0.3478444E+04  0.7818609E-02  0.8118917E-01
        1   -1    0    0  501    0  0.00000000000E+00  0.00000000000E+00  0.22594837099E+04  0.22594837099E+04  0.50400001928E-02 0. -1.
       -1   -1    0    0    0  501  0.00000000000E+00  0.00000000000E+00 -0.13387544549E+04  0.13387544550E+04  0.50400001928E-02 0.  1.
    10030    2    1    2    0    0  0.00000000000E+00  0.00000000000E+00  0.92072925494E+03  0.35982381649E+04  0.34784444124E+04 0.  0.
        1    1    3    3  502    0 -0.13267829255E+04 -0.59159403144E+02  0.16219990198E+04  0.20963619884E+04  0.50400001928E-02 0. -1.
       -1    1    3    3    0  502  0.13267829255E+04  0.59159403144E+02 -0.70126976483E+03  0.15018761764E+04  0.50400001928E-02 0.  1.
</event>
<event>
 5   0  0.9311672E-07  0.3532661E+04  0.7818609E-02  0.8106093E-01
       -2   -1    0    0    0  501  0.00000000000E+00  0.00000000000E+00  0.14638802772E+04  0.14638802772E+04  0.25500000920E-02 0. -1.
        2   -1    0    0  501    0  0.00000000000E+00  0.00000000000E+00 -0.21312700912E+04  0.21312700912E+04  0.25500000920E-02 0.  1.
    10030    2    1    2    0    0  0.00000000000E+00  0.00000000000E+00 -0.66738981399E+03  0.35951503683E+04  0.35326614623E+04 0.  0.
        4    1    3    3  502    0  0.92398388881E+03  0.16754704045E+03 -0.18561875742E+04  0.20802048363E+04  0.12699999809E+01 0.  1.
       -4    1    3    3    0  502 -0.92398388881E+03 -0.16754704045E+03  0.11887977602E+04  0.15149455320E+04  0.12699999809E+01 0. -1.
</event>
<event>
 5   0  0.8845195E-07  0.3556981E+04  0.7818609E-02  0.8100417E-01
       -2   -1    0    0    0  501  0.00000000000E+00  0.00000000000E+00  0.22280820131E+04  0.22280820131E+04  0.25500000920E-02 0. -1.
        2   -1    0    0  501    0  0.00000000000E+00  0.00000000000E+00 -0.14196191298E+04  0.14196191299E+04  0.25500000920E-02 0.  1.
    10030    2    1    2    0    0  0.00000000000E+00  0.00000000000E+00  0.80846288322E+03  0.36477011429E+04  0.35569806570E+04 0.  0.
        5    1    3    3  502    0 -0.13971428080E+04 -0.10971760422E+04  0.31719956785E+03  0.18045611514E+04  0.46999998093E+01 0.  1.
       -5    1    3    3    0  502  0.13971428080E+04  0.10971760422E+04  0.49126331537E+03  0.18431399915E+04  0.46999998093E+01 0. -1.
</event>
<event>
 5   0  0.3061330E-07  0.3475176E+04  0.7818609E-02  0.8119698E-01
       -1   -1    0    0    0  501  0.00000000000E+00  0.00000000000E+00  0.21003696815E+04  0.21003696815E+04  0.50400001928E-02 0. -1.
        1   -1    0    0  501    0  0.00000000000E+00  0.00000000000E+00 -0.14374668945E+04  0.14374668945E+04  0.50400001928E-02 0.  1.
    10030    2    1    2    0    0  0.00000000000E+00  0.00000000000E+00  0.66290278701E+03  0.35378365760E+04  0.34751758996E+04 0.  0.
        5    1    3    3  502    0 -0.76719935864E+03  0.15060787236E+04  0.74160772664E+03  0.18457714073E+04  0.46999998093E+01 0.  1.
       -5    1    3    3    0  502  0.76719935864E+03 -0.15060787236E+04 -0.78704939628E+02  0.16920651687E+04  0.46999998093E+01 0. -1.
</event>
<event>
 5   0  0.9128871E-07  0.3621092E+04  0.7818609E-02  0.8085677E-01
       -2   -1    0    0    0  501  0.00000000000E+00  0.00000000000E+00  0.26029815676E+04  0.26029815676E+04  0.25500000920E-02 0. -1.
        2   -1    0    0  501    0  0.00000000000E+00  0.00000000000E+00 -0.12593545686E+04  0.12593545686E+04  0.25500000920E-02 0.  1.
    10030    2    1    2    0    0  0.00000000000E+00  0.00000000000E+00  0.13436269990E+04  0.38623361362E+04  0.36210919509E+04 0.  0.
        1    1    3    3  502    0 -0.25123534191E+03 -0.14178039907E+04 -0.49894165613E+03  0.15238865212E+04  0.50400001928E-02 0.  1.
       -1    1    3    3    0  502  0.25123534191E+03  0.14178039907E+04  0.18425686551E+04  0.23384496150E+04  0.50400001928E-02 0. -1.
</event>
<event>
 5   0  0.9311672E-07  0.3529965E+04  0.7818609E-02  0.8106725E-01
       -2   -1    0    0    0  501  0.00000000000E+00  0.00000000000E+00  0.12376981771E+04  0.12376981771E+04  0.25500000920E-02 0. -1.
        2   -1    0    0  501    0  0.00000000000E+00  0.00000000000E+00 -0.25169005027E+04  0.25169005027E+04  0.25500000920E-02 0.  1.
    10030    2    1    2    0    0  0.00000000000E+00  0.00000000000E+00 -0.12792023256E+04  0.37545986798E+04  0.35299649653E+04 0.  0.
        4    1    3    3  502    0  0.14459840243E+04 -0.93973616275E+03 -0.10392619644E+04  0.20134648986E+04  0.12699999809E+01 0.  1.
       -4    1    3    3    0  502 -0.14459840243E+04  0.93973616275E+03 -0.23994036116E+03  0.17411337812E+04  0.12699999809E+01 0. -1.
</event>
<event>
 5   0  0.9311672E-07  0.3468943E+04  0.7818609E-02  0.8121190E-01
       -2   -1    0    0    0  501  0.00000000000E+00  0.00000000000E+00  0.11109573809E+04  0.11109573809E+04  0.25500000920E-02 0.  1.
        2   -1    0    0  501    0  0.00000000000E+00  0.00000000000E+00 -0.27079262375E+04  0.27079262375E+04  0.25500000920E-02 0. -1.
    10030    2    1    2    0    0  0.00000000000E+00  0.00000000000E+00 -0.15969688566E+04  0.38188836183E+04  0.34689425711E+04 0.  0.
        4    1    3    3  502    0  0.12135817257E+03  0.80198607040E+02  0.11042299544E+04  0.11137706351E+04  0.12699999809E+01 0.  1.
       -4    1    3    3    0  502 -0.12135817257E+03 -0.80198607040E+02 -0.27011988110E+04  0.27051129832E+04  0.12699999809E+01 0. -1.
</event>
<event>
 5   0  0.8950809E-07  0.3510382E+04  0.7818609E-02  0.8111334E-01
       -2   -1    0    0    0  501  0.00000000000E+00  0.00000000000E+00  0.13423294851E+04  0.13423294851E+04  0.25500000920E-02 0.  1.
        2   -1    0    0  501    0  0.00000000000E+00  0.00000000000E+00 -0.22950362420E+04  0.22950362420E+04  0.25500000920E-02 0. -1.
    10030    2    1    2    0    0  0.00000000000E+00  0.00000000000E+00 -0.95270675692E+03  0.36373657271E+04  0.35103816413E+04 0.  0.
        2    1    3    3  502    0 -0.15647561664E+04  0.71882337464E+03 -0.12416717419E+03  0.17264374855E+04  0.25500000920E-02 0.  1.
       -2    1    3    3    0  502  0.15647561664E+04 -0.71882337464E+03 -0.82853958273E+03  0.19109282416E+04  0.25500000920E-02 0. -1.
</event>
<event>
 5   0  0.6188930E-07  0.3179223E+04  0.7818609E-02  0.8194326E-01
        2   -1    0    0  501    0  0.00000000000E+00  0.00000000000E+00  0.17890422142E+04  0.17890422142E+04  0.25500000920E-02 0.  1.
       -2   -1    0    0    0  501  0.00000000000E+00  0.00000000000E+00 -0.14124116818E+04  0.14124116818E+04  0.25500000920E-02 0. -1.
    10030    2    1    2    0    0  0.00000000000E+00  0.00000000000E+00  0.37663053240E+03  0.32014538960E+04  0.31792226236E+04 0.  0.
        3    1    3    3  502    0  0.14734091952E+04 -0.46519707867E+03 -0.18782195382E+03  0.15564768148E+04  0.10100000352E+00 0.  1.
       -3    1    3    3    0  502 -0.14734091952E+04  0.46519707867E+03  0.56445248621E+03  0.16449770813E+04  0.10100000352E+00 0. -1.
</event>
<event>
 5   0  0.3026332E-07  0.3489701E+04  0.7818609E-02  0.8116235E-01
       -1   -1    0    0    0  501  0.00000000000E+00  0.00000000000E+00  0.36710261265E+04  0.36710261265E+04  0.50400001928E-02 0. -1.
        1   -1    0    0  501    0  0.00000000000E+00  0.00000000000E+00 -0.82933324444E+03  0.82933324445E+03  0.50400001928E-02 0.  1.
    10030    2    1    2    0    0  0.00000000000E+00  0.00000000000E+00  0.28416928821E+04  0.45003593710E+04  0.34897014245E+04 0.  0.
        1    1    3    3  502    0  0.33893739417E+03 -0.16085181696E+04  0.21753460914E+04  0.27265985910E+04  0.50400001928E-02 0. -1.
       -1    1    3    3    0  502 -0.33893739417E+03  0.16085181696E+04  0.66634679068E+03  0.17737607800E+04  0.50400001928E-02 0.  1.
</event>
<event>
 5   0  0.2933506E-07  0.3450871E+04  0.7818609E-02  0.8125533E-01
       -1   -1    0    0    0  501  0.00000000000E+00  0.00000000000E+00  0.21305476444E+04  0.21305476444E+04  0.50400001928E-02 0. -1.
        1   -1    0    0  501    0  0.00000000000E+00  0.00000000000E+00 -0.13973530310E+04  0.13973530310E+04  0.50400001928E-02 0.  1.
    10030    2    1    2    0    0  0.00000000000E+00  0.00000000000E+00  0.73319461342E+03  0.35279006755E+04  0.34508707357E+04 0.  0.
        4    1    3    3  502    0 -0.14189728873E+04  0.11416209178E+03 -0.63015791092E+03  0.15567972391E+04  0.12699999809E+01 0.  1.
       -4    1    3    3    0  502  0.14189728873E+04 -0.11416209178E+03  0.13633525243E+04  0.19711034363E+04  0.12699999809E+01 0. -1.
</event>
<event>
 5   0  0.6188930E-07  0.3493352E+04  0.7818609E-02  0.8115367E-01
       -2   -1    0    0    0  501  0.00000000000E+00  0.00000000000E+00  0.25274491726E+04  0.25274491726E+04  0.25500000920E-02 0. -1.
        2   -1    0    0  501    0  0.00000000000E+00  0.00000000000E+00 -0.12070970507E+04  0.12070970507E+04  0.25500000920E-02 0.  1.
    10030    2    1    2    0    0  0.00000000000E+00  0.00000000000E+00  0.13203521219E+04  0.37345462233E+04  0.34933516525E+04 0.  0.
        3    1    3    3  502    0 -0.10998513252E+04  0.10782396141E+04 -0.22047399434E+03  0.15559185053E+04  0.10100000352E+00 0.  1.
       -3    1    3    3    0  502  0.10998513252E+04 -0.10782396141E+04  0.15408261162E+04  0.21786277180E+04  0.10100000352E+00 0. -1.
</event>
<event>
 5   0  0.8950809E-07  0.3517449E+04  0.7818609E-02  0.8109667E-01
       -2   -1    0    0    0  501  0.00000000000E+00  0.00000000000E+00  0.26055101375E+04  0.26055101375E+04  0.25500000920E-02 0. -1.
        2   -1    0    0  501    0  0.00000000000E+00  0.00000000000E+00 -0.11871424617E+04  0.11871424617E+04  0.25500000920E-02 0.  1.
    10030    2    1    2    0    0  0.00000000000E+00  0.00000000000E+00  0.14183676758E+04  0.37926525992E+04  0.35174489157E+04 0.  0.
        2    1    3    3  502    0 -0.64407451353E+03  0.13708051809E+04 -0.25472428045E+03  0.15358461128E+04  0.25500000920E-02 0. -1.
       -2    1    3    3    0  502  0.64407451353E+03 -0.13708051809E+04  0.16730919563E+04  0.22568064864E+04  0.25500000920E-02 0.  1.
</event>
<event>
 5   0  0.3026332E-07  0.3226489E+04  0.7818609E-02  0.8181856E-01
        1   -1    0    0  501    0  0.00000000000E+00  0.00000000000E+00  0.29510145199E+04  0.29510145199E+04  0.50400001928E-02 0.  1.
       -1   -1    0    0    0  501  0.00000000000E+00  0.00000000000E+00 -0.88191987293E+03  0.88191987295E+03  0.50400001928E-02 0. -1.
    10030    2    1    2    0    0  0.00000000000E+00  0.00000000000E+00  0.20690946470E+04  0.38329343929E+04  0.32264893308E+04 0.  0.
        1    1    3    3  502    0  0.74826552798E+03 -0.16579759088E+03 -0.65183796103E+03  0.10061226908E+04  0.50400001928E-02 0. -1.
       -1    1    3    3    0  502 -0.74826552798E+03  0.16579759088E+03  0.27209326080E+04  0.28268117021E+04  0.50400001928E-02 0.  1.
</event>
<event>
 5   0  0.9128871E-07  0.3489526E+04  0.7818609E-02  0.8116277E-01
        2   -1    0    0  501    0  0.00000000000E+00  0.00000000000E+00  0.18743973763E+04  0.18743973763E+04  0.25500000920E-02 0. -1.
       -2   -1    0    0    0  501  0.00000000000E+00  0.00000000000E+00 -0.16240942052E+04  0.16240942052E+04  0.25500000920E-02 0.  1.
    10030    2    1    2    0    0  0.00000000000E+00  0.00000000000E+00  0.25030317103E+03  0.34984915815E+04  0.34895259948E+04 0.  0.
        1    1    3    3  502    0  0.12800994410E+04 -0.68587248634E+03  0.10946533312E+04  0.18186097882E+04  0.50400001928E-02 0. -1.
       -1    1    3    3    0  502 -0.12800994410E+04  0.68587248634E+03 -0.84435016019E+03  0.16798817933E+04  0.50400001928E-02 0.  1.
</event>
<event>
 5   0  0.2936607E-07  0.3515165E+04  0.7818609E-02  0.8110205E-01
       -1   -1    0    0    0  501  0.00000000000E+00  0.00000000000E+00  0.11158295824E+04  0.11158295824E+04  0.50400001928E-02 0. -1.
        1   -1    0    0  501    0  0.00000000000E+00  0.00000000000E+00 -0.27684303174E+04  0.27684303174E+04  0.50400001928E-02 0.  1.
    10030    2    1    2    0    0  0.00000000000E+00  0.00000000000E+00 -0.16526007350E+04  0.38842598998E+04  0.35151651142E+04 0.  0.
        2    1    3    3  502    0  0.39239833809E+03  0.37846690191E+03 -0.26726380901E+04  0.27276744696E+04  0.25500000920E-02 0.  1.
       -2    1    3    3    0  502 -0.39239833809E+03 -0.37846690191E+03  0.10200373551E+04  0.11565854302E+04  0.25500000920E-02 0. -1.
</event>
<event>
 5   0  0.6188930E-07  0.3475083E+04  0.7818609E-02  0.8119720E-01
        2   -1    0    0  501    0  0.00000000000E+00  0.00000000000E+00  0.24767507987E+04  0.24767507987E+04  0.25500000920E-02 0.  1.
       -2   -1    0    0    0  501  0.00000000000E+00  0.00000000000E+00 -0.12189563735E+04  0.12189563735E+04  0.25500000920E-02 0. -1.
    10030    2    1    2    0    0  0.00000000000E+00  0.00000000000E+00  0.12577944253E+04  0.36957071722E+04  0.34750834071E+04 0.  0.
        3    1    3    3  502    0 -0.11923409798E+04  0.40422258877E+03 -0.64461643020E+03  0.14144268329E+04  0.10100000352E+00 0. -1.
       -3    1    3    3    0  502  0.11923409798E+04 -0.40422258877E+03  0.19024108555E+04  0.22812803393E+04  0.10100000352E+00 0.  1.
</event>
<event>
 5   0  0.8845195E-07  0.3522156E+04  0.7818609E-02  0.8108559E-01
       -2   -1    0    0    0  501  0.00000000000E+00  0.00000000000E+00  0.11502763210E+04  0.11502763210E+04  0.25500000920E-02 0.  1.
        2   -1    0    0  501    0  0.00000000000E+00  0.00000000000E+00 -0.26962183782E+04  0.26962183782E+04  0.25500000920E-02 0. -1.
    10030    2    1    2    0    0  0.00000000000E+00  0.00000000000E+00 -0.15459420571E+04  0.38464946992E+04  0.35221562468E+04 0.  0.
        5    1    3    3  502    0 -0.80674922285E+03  0.14256506024E+04 -0.14790783191E+04  0.22070384484E+04  0.46999998093E+01 0. -1.
       -5    1    3    3    0  502  0.80674922285E+03 -0.14256506024E+04 -0.66863738020E+02  0.16394562508E+04  0.46999998093E+01 0.  1.
</event>
<event>
 5   0  0.3026332E-07  0.3544556E+04  0.7818609E-02  0.8103311E-01
        1   -1    0    0  501    0  0.00000000000E+00  0.00000000000E+00  0.14936861767E+04  0.14936861767E+04  0.50400001928E-02 0.  1.
       -1   -1    0    0    0  501  0.00000000000E+00  0.00000000000E+00 -0.21028308168E+04  0.21028308168E+04  0.50400001928E-02 0. -1.
    10030    2    1    2    0    0  0.00000000000E+00  0.00000000000E+00 -0.60914464009E+03  0.35965169935E+04  0.35445560078E+04 0.  0.
        1    1    3    3  502    0  0.53667015514E+03 -0.14995444919E+04 -0.10933489581E+04  0.19318541567E+04  0.50400001928E-02 0. -1.
       -1    1    3    3    0  502 -0.53667015514E+03  0.14995444919E+04  0.48420431805E+03  0.16646628368E+04  0.50400001928E-02 0.  1.
</event>
<event>
 5   0  0.3061330E-07  0.3347909E+04  0.7818609E-02  0.8150811E-01
        1   -1    0    0  501    0  0.00000000000E+00  0.00000000000E+00  0.22591264640E+04  0.22591264640E+04  0.50400001928E-02 0.  1.
       -1   -1    0    0    0  501  0.00000000000E+00  0.00000000000E+00 -0.12403569431E+04  0.12403569431E+04  0.50400001928E-02 0. -1.
    10030    2    1    2    0    0  0.00000000000E+00  0.00000000000E+00  0.10187695209E+04  0.34994834070E+04  0.33479087173E+04 0.  0.
        5    1    3    3  502    0 -0.42726980530E+03  0.95264955648E+03  0.18770577389E+04  0.21478986264E+04  0.46999998093E+01 0.  1.
       -5    1    3    3    0  502  0.42726980530E+03 -0.95264955648E+03 -0.85828821804E+03  0.13515847806E+04  0.46999998093E+01 0. -1.
</event>
<event>
 5   0  0.9128871E-07  0.3503143E+04  0.7818609E-02  0.8113045E-01
        2   -1    0    0  501    0  0.00000000000E+00  0.00000000000E+00  0.17661588370E+04  0.17661588370E+04  0.25500000920E-02 0. -1.
       -2   -1    0    0    0  501  0.00000000000E+00  0.00000000000E+00 -0.17371049520E+04  0.17371049520E+04  0.25500000920E-02 0.  1.
    10030    2    1    2    0    0  0.00000000000E+00  0.00000000000E+00  0.29053884985E+02  0.35032637889E+04  0.35031433095E+04 0.  0.
        1    1    3    3  502    0 -0.88384351678E+03  0.63895914630E+03 -0.13561241163E+04  0.17402645694E+04  0.50400001928E-02 0.  1.
       -1    1    3    3    0  502  0.88384351678E+03 -0.63895914630E+03  0.13851780013E+04  0.17629992195E+04  0.50400001928E-02 0. -1.
</event>
<event>
 5   0  0.2972541E-07  0.3380431E+04  0.7818609E-02  0.8142726E-01
        1   -1    0    0  501    0  0.00000000000E+00  0.00000000000E+00  0.12586614115E+04  0.12586614115E+04  0.50400001928E-02 0.  1.
       -1   -1    0    0    0  501  0.00000000000E+00  0.00000000000E+00 -0.22697349781E+04  0.22697349781E+04  0.50400001928E-02 0. -1.
    10030    2    1    2    0    0  0.00000000000E+00  0.00000000000E+00 -0.10110735667E+04  0.35283963896E+04  0.33804306420E+04 0.  0.
        3    1    3    3  502    0  0.32617922098E+03  0.10273759665E+04 -0.18644185732E+04  0.21535902320E+04  0.10100000352E+00 0. -1.
       -3    1    3    3    0  502 -0.32617922098E+03 -0.10273759665E+04  0.85334500659E+03  0.13748061577E+04  0.10100000352E+00 0.  1.
</event>
<event>
 5   0  0.8950809E-07  0.3288336E+04  0.7818609E-02  0.8165870E-01
       -2   -1    0    0    0  501  0.00000000000E+00  0.00000000000E+00  0.10644035817E+04  0.10644035817E+04  0.25500000920E-02 0.  1.
        2   -1    0    0  501    0  0.00000000000E+00  0.00000000000E+00 -0.25397215959E+04  0.25397215959E+04  0.25500000920E-02 0. -1.
    10030    2    1    2    0    0  0.00000000000E+00  0.00000000000E+00 -0.14753180141E+04  0.36041251776E+04  0.32883362135E+04 0.  0.
        2    1    3    3  502    0 -0.14589405960E+04  0.60133129004E+03 -0.12437151410E+04  0.20092123668E+04  0.25500000920E-02 0.  1.
       -2    1    3    3    0  502  0.14589405960E+04 -0.60133129004E+03 -0.23160287310E+03  0.15949128108E+04  0.25500000920E-02 0. -1.
</event>
<event>
 5   0  0.2933506E-07  0.3519471E+04  0.7818609E-02  0.8109191E-01
        1   -1    0    0  501    0  0.00000000000E+00  0.00000000000E+00  0.16487354964E+04  0.16487354964E+04  0.50400001928E-02 0.  1.
       -1   -1    0    0    0  501  0.00000000000E+00  0.00000000000E+00 -0.18782085544E+04  0.18782085544E+04  0.50400001928E-02 0. -1.
    10030    2    1    2    0    0  0.00000000000E+00  0.00000000000E+00 -0.22947305806E+03  0.35269440508E+04  0.35194710474E+04 0.  0.
        4    1    3    3  502    0 -0.48260725083E+03  0.20522471834E+03 -0.17980772059E+04  0.18729949799E+04  0.12699999809E+01 0. -1.
       -4    1    3    3    0  502  0.48260725083E+03 -0.20522471834E+03  0.15686041478E+04  0.16539490709E+04  0.12699999809E+01 0.  1.
</event>
<event>
 5   0  0.2972541E-07  0.3500091E+04  0.7818609E-02  0.8113768E-01
        1   -1    0    0  501    0  0.00000000000E+00  0.00000000000E+00  0.17159346809E+04  0.17159346809E+04  0.50400001928E-02 0. -1.
       -1   -1    0    0    0  501  0.00000000000E+00  0.00000000000E+00 -0.17848339367E+04  0.17848339367E+04  0.50400001928E-02 0.  1.
    10030    2    1    2    0    0  0.00000000000E+00  0.00000000000E+00 -0.68899255811E+02  0.35007686175E+04  0.35000905426E+04 0.  0.
        3    1    3    3  502    0 -0.13399421056E+04  0.10812012111E+04 -0.34790711336E+03  0.17565535218E+04  0.10100000352E+00 0.  1.
       -3    1    3    3    0  502  0.13399421056E+04 -0.10812012111E+04  0.27900785755E+03  0.17442150957E+04  0.10100000352E+00 0. -1.
</event>
<event>
 5   0  0.8845195E-07  0.3450573E+04  0.7818609E-02  0.8125605E-01
       -2   -1    0    0    0  501  0.00000000000E+00  0.00000000000E+00  0.15301210529E+04  0.15301210529E+04  0.25500000920E-02 0. -1.
        2   -1    0    0  501    0  0.00000000000E+00  0.00000000000E+00 -0.19453446547E+04  0.19453446547E+04  0.25500000920E-02 0.  1.
    10030    2    1    2    0    0  0.00000000000E+00  0.00000000000E+00 -0.41522360182E+03  0.34754657076E+04  0.34505725968E+04 0.  0.
        5    1    3    3  502    0  0.37057604124E+03 -0.15772849384E+04 -0.80470919225E+03  0.18090697480E+04  0.46999998093E+01 0.  1.
       -5    1    3    3    0  502 -0.37057604124E+03  0.15772849384E+04  0.38948559043E+03  0.16663959596E+04  0.46999998093E+01 0. -1.
</event>
<event>
 5   0  0.3061330E-07  0.3498136E+04  0.7818609E-02  0.8114232E-01
       -1   -1    0    0    0  501  0.00000000000E+00  0.00000000000E+00  0.19028699440E+04  0.19028699440E+04  0.50400001928E-02 0. -1.
        1   -1    0    0  501    0  0.00000000000E+00  0.00000000000E+00 -0.16076969015E+04  0.16076969015E+04  0.50400001928E-02 0.  1.
    10030    2    1    2    0    0  0.00000000000E+00  0.00000000000E+00  0.29517304252E+03  0.35105668455E+04  0.34981355680E+04 0.  0.
        5    1    3    3  502    0 -0.59788147714E+03  0.60149506918E+03  0.16827145112E+04  0.18843589879E+04  0.46999998093E+01 0. -1.
       -5    1    3    3    0  502  0.59788147714E+03 -0.60149506918E+03 -0.13875414687E+04  0.16262078576E+04  0.46999998093E+01 0.  1.
</event>
<event>
 5   0  0.8845195E-07  0.3510447E+04  0.7818609E-02  0.8111319E-01
       -2   -1    0    0    0  501  0.00000000000E+00  0.00000000000E+00  0.15393188065E+04  0.15393188065E+04  0.25500000920E-02 0.  1.
        2   -1    0    0  501    0  0.00000000000E+00  0.00000000000E+00 -0.20014109471E+04  0.20014109471E+04  0.25500000920E-02 0. -1.
    10030    2    1    2    0    0  0.00000000000E+00  0.00000000000E+00 -0.46209214063E+03  0.35407297536E+04  0.35104469860E+04 0.  0.
        5    1    3    3  502    0  0.25745762958E+03 -0.17287937542E+04 -0.39297741361E+03  0.17914981477E+04  0.46999998093E+01 0.  1.
       -5    1    3    3    0  502 -0.25745762958E+03  0.17287937542E+04 -0.69114727019E+02  0.17492316059E+04  0.46999998093E+01 0. -1.
</event>
<event>
 5   0  0.9128871E-07  0.2987468E+04  0.7818609E-02  0.8247319E-01
        2   -1    0    0  501    0  0.00000000000E+00  0.00000000000E+00  0.14345436583E+04  0.14345436583E+04  0.25500000920E-02 0. -1.
       -2   -1    0    0    0  501  0.00000000000E+00  0.00000000000E+00 -0.15553666075E+04  0.15553666075E+04  0.25500000920E-02 0.  1.
    10030    2    1    2    0    0  0.00000000000E+00  0.00000000000E+00 -0.12082294924E+03  0.29899102658E+04  0.29874680270E+04 0.  0.
        1    1    3    3  502    0  0.11266099942E+04  0.20017121110E+03 -0.10213644703E+04  0.15337874605E+04  0.50400001928E-02 0.  1.
       -1    1    3    3    0  502 -0.11266099942E+04 -0.20017121110E+03  0.90054152110E+03  0.14561228052E+04  0.50400001928E-02 0. -1.
</event>
<event>
 5   0  0.2933506E-07  0.3495444E+04  0.7818609E-02  0.8114871E-01
        1   -1    0    0  501    0  0.00000000000E+00  0.00000000000E+00  0.23312997365E+04  0.23312997366E+04  0.50400001928E-02 0.  1.
       -1   -1    0    0    0  501  0.00000000000E+00  0.00000000000E+00 -0.13102270440E+04  0.13102270440E+04  0.50400001928E-02 0. -1.
    10030    2    1    2    0    0  0.00000000000E+00  0.00000000000E+00  0.10210726925E+04  0.36415267806E+04  0.34954438703E+04 0.  0.
        4    1    3    3  502    0 -0.45537499598E+03  0.12182919018E+04  0.17267720843E+04  0.21617920782E+04  0.12699999809E+01 0.  1.
       -4    1    3    3    0  502  0.45537499598E+03 -0.12182919018E+04 -0.70569939178E+03  0.14797347024E+04  0.12699999809E+01 0. -1.
</event>
<event>
 5   0  0.9128871E-07  0.3528729E+04  0.7818609E-02  0.8107015E-01
       -2   -1    0    0    0  501  0.00000000000E+00  0.00000000000E+00  0.17922000409E+04  0.17922000409E+04  0.25500000920E-02 0.  1.
        2   -1    0    0  501    0  0.00000000000E+00  0.00000000000E+00 -0.17369614995E+04  0.17369614995E+04  0.25500000920E-02 0. -1.
    10030    2    1    2    0    0  0.00000000000E+00  0.00000000000E+00  0.55238541458E+02  0.35291615404E+04  0.35287292163E+04 0.  0.
        1    1    3    3  502    0  0.19577956714E+03  0.89588505164E+03 -0.14798950943E+04  0.17409851105E+04  0.50400001928E-02 0. -1.
       -1    1    3    3    0  502 -0.19577956714E+03 -0.89588505164E+03  0.15351336358E+04  0.17881764299E+04  0.50400001928E-02 0.  1.
</event>
<event>
 5   0  0.9128871E-07  0.3267847E+04  0.7818609E-02  0.8171125E-01
        2   -1    0    0  501    0  0.00000000000E+00  0.00000000000E+00  0.12113449809E+04  0.12113449809E+04  0.25500000920E-02 0. -1.
       -2   -1    0    0    0  501  0.00000000000E+00  0.00000000000E+00 -0.22039182686E+04  0.22039182686E+04  0.25500000920E-02 0.  1.
    10030    2    1    2    0    0  0.00000000000E+00  0.00000000000E+00 -0.99257328777E+03  0.34152632495E+04  0.32678465894E+04 0.  0.
        1    1    3    3  502    0 -0.12688156198E+03  0.75564747972E+03  0.10119371903E+04  0.12692985943E+04  0.50400001928E-02 0. -1.
       -1    1    3    3    0  502  0.12688156198E+03 -0.75564747972E+03 -0.20045104781E+04  0.21459646552E+04  0.50400001928E-02 0.  1.
</event>
<event>
 5   0  0.2933506E-07  0.3478974E+04  0.7818609E-02  0.8118791E-01
       -1   -1    0    0    0  501  0.00000000000E+00  0.00000000000E+00  0.16073147406E+04  0.16073147406E+04  0.50400001928E-02 0.  1.
        1   -1    0    0  501    0  0.00000000000E+00  0.00000000000E+00 -0.18825279793E+04  0.18825279793E+04  0.50400001928E-02 0. -1.
    10030    2    1    2    0    0  0.00000000000E+00  0.00000000000E+00 -0.27521323870E+03  0.34898427199E+04  0.34789739698E+04 0.  0.
        4    1    3    3  502    0 -0.47783938111E+02 -0.17311530319E+04 -0.30133182155E+03  0.17578329284E+04  0.12699999809E+01 0. -1.
       -4    1    3    3    0  502  0.47783938111E+02  0.17311530319E+04  0.26118582851E+02  0.17320097915E+04  0.12699999809E+01 0.  1.
</event>
<event>
 5   0  0.2972541E-07  0.3522629E+04  0.7818609E-02  0.8108448E-01
        1   -1    0    0  501    0  0.00000000000E+00  0.00000000000E+00  0.12711645509E+04  0.12711645510E+04  0.50400001928E-02 0.  1.
       -1   -1    0    0    0  501  0.00000000000E+00  0.00000000000E+00 -0.24404619211E+04  0.24404619211E+04  0.50400001928E-02 0. -1.
    10030    2    1    2    0    0  0.00000000000E+00  0.00000000000E+00 -0.11692973702E+04  0.37116264721E+04  0.35226289513E+04 0.  0.
        3    1    3    3  502    0  0.10864487823E+04 -0.10081506688E+03 -0.20414709031E+04  0.23147652349E+04  0.10100000352E+00 0. -1.
       -3    1    3    3    0  502 -0.10864487823E+04  0.10081506688E+03  0.87217353294E+03  0.13968612372E+04  0.10100000352E+00 0.  1.
</event>
<event>
 5   0  0.2907000E-07  0.3503150E+04  0.7818609E-02  0.8113044E-01
       -3   -1    0    0    0  501  0.00000000000E+00  0.00000000000E+00  0.24496438995E+04  0.24496439016E+04  0.10100000352E+00 0. -1.
        3   -1    0    0  501    0  0.00000000000E+00  0.00000000000E+00 -0.12524330588E+04  0.12524330628E+04  0.10100000352E+00 0.  1.
    10030    2    1    2    0    0  0.00000000000E+00  0.00000000000E+00  0.11972108407E+04  0.37020769644E+04  0.35031500186E+04 0.  0.
        1    1    3    3  502    0  0.14139094104E+03 -0.13464290466E+04 -0.57587826190E+03  0.14712234189E+04  0.50400001928E-02 0.  1.
       -1    1    3    3    0  502 -0.14139094104E+03  0.13464290466E+04  0.17730891026E+04  0.22308535455E+04  0.50400001928E-02 0. -1.
</event>
<event>
 5   0  0.9311672E-07  0.3465168E+04  0.7818609E-02  0.8122095E-01
       -2   -1    0    0    0  501  0.00000000000E+00  0.00000000000E+00  0.10504820791E+04  0.10504820791E+04  0.25500000920E-02 0. -1.
        2   -1    0    0  501    0  0.00000000000E+00  0.00000000000E+00 -0.28575904886E+04  0.28575904886E+04  0.25500000920E-02 0.  1.
    10030    2    1    2    0    0  0.00000000000E+00  0.00000000000E+00 -0.18071084096E+04  0.39080725677E+04  0.34651681619E+04 0.  0.
        4    1    3    3  502    0 -0.10585626985E+04  0.13017206429E+04 -0.41608920452E+03  0.17286305151E+04  0.12699999809E+01 0. -1.
       -4    1    3    3    0  502  0.10585626985E+04 -0.13017206429E+04 -0.13910192050E+04  0.21794420526E+04  0.12699999809E+01 0.  1.
</event>
<event>
 5   0  0.2933506E-07  0.3487311E+04  0.7818609E-02  0.8116804E-01
        1   -1    0    0  501    0  0.00000000000E+00  0.00000000000E+00  0.18227743153E+04  0.18227743153E+04  0.50400001928E-02 0. -1.
       -1   -1    0    0    0  501  0.00000000000E+00  0.00000000000E+00 -0.16679711927E+04  0.16679711928E+04  0.50400001928E-02 0.  1.
    10030    2    1    2    0    0  0.00000000000E+00  0.00000000000E+00  0.15480312252E+03  0.34907455080E+04  0.34873113132E+04 0.  0.
        4    1    3    3  502    0 -0.96379171851E+03  0.55885370735E+03  0.14200357909E+04  0.18049141817E+04  0.12699999809E+01 0. -1.
       -4    1    3    3    0  502  0.96379171851E+03 -0.55885370735E+03 -0.12652326684E+04  0.16858313264E+04  0.12699999809E+01 0.  1.
</event>
<event>
 5   0  0.3026332E-07  0.3507412E+04  0.7818609E-02  0.8112036E-01
        1   -1    0    0  501    0  0.00000000000E+00  0.00000000000E+00  0.16843624111E+04  0.16843624111E+04  0.50400001928E-02 0.  1.
       -1   -1    0    0    0  501  0.00000000000E+00  0.00000000000E+00 -0.18259047542E+04  0.18259047542E+04  0.50400001928E-02 0. -1.
    10030    2    1    2    0    0  0.00000000000E+00  0.00000000000E+00 -0.14154234314E+03  0.35102671653E+04  0.35074123420E+04 0.  0.
        1    1    3    3  502    0  0.40640832221E+03  0.13106035635E+04 -0.11637387683E+04  0.17992046426E+04  0.50400001928E-02 0. -1.
       -1    1    3    3    0  502 -0.40640832221E+03 -0.13106035635E+04  0.10221964252E+04  0.17110625227E+04  0.50400001928E-02 0.  1.
</event>
<event>
 5   0  0.3061330E-07  0.3463973E+04  0.7818609E-02  0.8122381E-01
        1   -1    0    0  501    0  0.00000000000E+00  0.00000000000E+00  0.17911891461E+04  0.17911891461E+04  0.50400001928E-02 0.  1.
       -1   -1    0    0    0  501  0.00000000000E+00  0.00000000000E+00 -0.16747406630E+04  0.16747406630E+04  0.50400001928E-02 0. -1.
    10030    2    1    2    0    0  0.00000000000E+00  0.00000000000E+00  0.11644848315E+03  0.34659298092E+04  0.34639730358E+04 0.  0.
        5    1    3    3  502    0  0.89807618490E+03 -0.13475776927E+04 -0.55632849579E+03  0.17123171310E+04  0.46999998093E+01 0. -1.
       -5    1    3    3    0  502 -0.89807618490E+03  0.13475776927E+04  0.67277697893E+03  0.17536126782E+04  0.46999998093E+01 0.  1.
</event>
<event>
 5   0  0.9311672E-07  0.3487573E+04  0.7818609E-02  0.8116741E-01
        2   -1    0    0  501    0  0.00000000000E+00  0.00000000000E+00  0.28483969316E+04  0.28483969316E+04  0.25500000920E-02 0. -1.
       -2   -1    0    0    0  501  0.00000000000E+00  0.00000000000E+00 -0.10675450487E+04  0.10675450488E+04  0.25500000920E-02 0.  1.
    10030    2    1    2    0    0  0.00000000000E+00  0.00000000000E+00  0.17808518828E+04  0.39159419803E+04  0.34875733920E+04 0.  0.
        4    1    3    3  502    0  0.48016914996E+03  0.16762685417E+04  0.86936606474E+03  0.19483935957E+04  0.12699999809E+01 0.  1.
       -4    1    3    3    0  502 -0.48016914996E+03 -0.16762685417E+04  0.91148581810E+03  0.19675483846E+04  0.12699999809E+01 0. -1.
</event>
<event>
 5   0  0.8950809E-07  0.3606188E+04  0.7818609E-02  0.8089076E-01
        2   -1    0    0  501    0  0.00000000000E+00  0.00000000000E+00  0.18630091960E+04  0.18630091960E+04  0.25500000920E-02 0.  1.
       -2   -1    0    0    0  501  0.00000000000E+00  0.00000000000E+00 -0.17451055674E+04  0.17451055674E+04  0.25500000920E-02 0. -1.
    10030    2    1    2    0    0  0.00000000000E+00  0.00000000000E+00  0.11790362861E+03  0.36081147633E+04  0.36061878597E+04 0.  0.
        2    1    3    3  502    0  0.16571564580E+04 -0.70810639719E+03  0.11869572782E+03  0.18060096544E+04  0.25500000920E-02 0.  1.
       -2    1    3    3    0  502 -0.16571564580E+04  0.70810639719E+03 -0.79209920691E+00  0.18021051089E+04  0.25500000920E-02 0. -1.
</event>
<event>
 5   0  0.3061330E-07  0.3425183E+04  0.7818609E-02  0.8131753E-01
        1   -1    0    0  501    0  0.00000000000E+00  0.00000000000E+00  0.14064599155E+04  0.14064599155E+04  0.50400001928E-02 0. -1.
       -1   -1    0    0    0  501  0.00000000000E+00  0.00000000000E+00 -0.20853554343E+04  0.20853554343E+04  0.50400001928E-02 0.  1.
    10030    2    1    2    0    0  0.00000000000E+00  0.00000000000E+00 -0.67889551885E+03  0.34918153498E+04  0.34251825223E+04 0.  0.
        5    1    3    3  502    0  0.50689915362E+03  0.14134743095E+04  0.50003413986E+03  0.15826915702E+04  0.46999998093E+01 0. -1.
       -5    1    3    3    0  502 -0.50689915362E+03 -0.14134743095E+04 -0.11789296587E+04  0.19091237795E+04  0.46999998093E+01 0.  1.
</event>
<event>
 5   0  0.3026332E-07  0.3474459E+04  0.7818609E-02  0.8119870E-01
       -1   -1    0    0    0  501  0.00000000000E+00  0.00000000000E+00  0.12734378657E+04  0.12734378657E+04  0.50400001928E-02 0. -1.
        1   -1    0    0  501    0  0.00000000000E+00  0.00000000000E+00 -0.23699361770E+04  0.23699361770E+04  0.50400001928E-02 0.  1.
    10030    2    1    2    0    0  0.00000000000E+00  0.00000000000E+00 -0.10964983114E+04  0.36433740427E+04  0.34744590757E+04 0.  0.
        1    1    3    3  502    0  0.17162317427E+04  0.23883760685E+03 -0.41781685424E+03  0.17824325291E+04  0.50400001928E-02 0.  1.
       -1    1    3    3    0  502 -0.17162317427E+04 -0.23883760685E+03 -0.67868145712E+03  0.18609415137E+04  0.50400001928E-02 0. -1.
</event>
<event>
 5   0  0.6188930E-07  0.3504736E+04  0.7818609E-02  0.8112668E-01
       -2   -1    0    0    0  501  0.00000000000E+00  0.00000000000E+00  0.13718536616E+04  0.13718536616E+04  0.25500000920E-02 0. -1.
        2   -1    0    0  501    0  0.00000000000E+00  0.00000000000E+00 -0.22384267901E+04  0.22384267901E+04  0.25500000920E-02 0.  1.
    10030    2    1    2    0    0  0.00000000000E+00  0.00000000000E+00 -0.86657312848E+03  0.36102804518E+04  0.35047362174E+04 0.  0.
        3    1    3    3  502    0 -0.10037011121E+04 -0.13987607514E+04 -0.77000398240E+03  0.18859622757E+04  0.10100000352E+00 0.  1.
       -3    1    3    3    0  502  0.10037011121E+04  0.13987607514E+04 -0.96569146084E+02  0.17243181761E+04  0.10100000352E+00 0. -1.
</event>
<event>
 5   0  0.9311672E-07  0.3472058E+04  0.7818609E-02  0.8120444E-01
       -2   -1    0    0    0  501  0.00000000000E+00  0.00000000000E+00  0.13481019880E+04  0.13481019880E+04  0.25500000920E-02 0.  1.
        2   -1    0    0  501    0  0.00000000000E+00  0.00000000000E+00 -0.22355845559E+04  0.22355845559E+04  0.25500000920E-02 0. -1.
    10030    2    1    2    0    0  0.00000000000E+00  0.00000000000E+00 -0.88748256798E+03  0.35836865439E+04  0.34720575941E+04 0.  0.
        4    1    3    3  502    0  0.15716482792E+04 -0.55678007405E+03 -0.94272182287E+03  0.19154133791E+04  0.12699999809E+01 0. -1.
       -4    1    3    3    0  502 -0.15716482792E+04  0.55678007405E+03  0.55239254893E+02  0.16682731649E+04  0.12699999809E+01 0.  1.
</event>
<event>
 5   0  0.9311672E-07  0.3583115E+04  0.7818609E-02  0.8094370E-01
        2   -1    0    0  501    0  0.00000000000E+00  0.00000000000E+00  0.13708645860E+04  0.13708645860E+04  0.25500000920E-02 0. -1.
       -2   -1    0    0    0  501  0.00000000000E+00  0.00000000000E+00 -0.23413538852E+04  0.23413538852E+04  0.25500000920E-02 0.  1.
    10030    2    1    2    0    0  0.00000000000E+00  0.00000000000E+00 -0.97048929917E+03  0.37122184713E+04  0.35831154738E+04 0.  0.
        4    1    3    3  502    0 -0.22999576805E+02 -0.41774331655E+03  0.13195435557E+04  0.13842814986E+04  0.12699999809E+01 0. -1.
       -4    1    3    3    0  502  0.22999576805E+02  0.41774331655E+03 -0.22900328549E+04  0.23279369726E+04  0.12699999809E+01 0.  1.
</event>
<event>
 5   0  0.3026332E-07  0.3563894E+04  0.7818609E-02  0.8098813E-01
       -1   -1    0    0    0  501  0.00000000000E+00  0.00000000000E+00  0.15297744157E+04  0.15297744157E+04  0.50400001928E-02 0.  1.
        1   -1    0    0  501    0  0.00000000000E+00  0.00000000000E+00 -0.20756886696E+04  0.20756886696E+04  0.50400001928E-02 0. -1.
    10030    2    1    2    0    0  0.00000000000E+00  0.00000000000E+00 -0.54591425391E+03  0.36054630854E+04  0.35638941746E+04 0.  0.
        1    1    3    3  502    0  0.49188341143E+03 -0.88170979946E+03  0.12124927746E+04  0.15778150048E+04  0.50400001928E-02 0.  1.
       -1    1    3    3    0  502 -0.49188341143E+03  0.88170979946E+03 -0.17584070285E+04  0.20276480806E+04  0.50400001928E-02 0. -1.
</event>
<event>
 5   0  0.2972541E-07  0.3470198E+04  0.7818609E-02  0.8120889E-01
        1   -1    0    0  501    0  0.00000000000E+00  0.00000000000E+00  0.10356363035E+04  0.10356363035E+04  0.50400001928E-02 0.  1.
       -1   -1    0    0    0  501  0.00000000000E+00  0.00000000000E+00 -0.29069753076E+04  0.29069753076E+04  0.50400001928E-02 0. -1.
    10030    2    1    2    0    0  0.00000000000E+00  0.00000000000E+00 -0.18713390041E+04  0.39426116111E+04  0.34701983585E+04 0.  0.
        3    1    3    3  502    0  0.35887530875E+03 -0.93227923561E+03 -0.25474726552E+04  0.27363393430E+04  0.10100000352E+00 0. -1.
       -3    1    3    3    0  502 -0.35887530875E+03  0.93227923561E+03  0.67613365115E+03  0.12062722681E+04  0.10100000352E+00 0.  1.
</event>
<event>
 5   0  0.3026332E-07  0.3499026E+04  0.7818609E-02  0.8114021E-01
       -1   -1    0    0    0  501  0.00000000000E+00  0.00000000000E+00  0.18393895751E+04  0.18393895751E+04  0.50400001928E-02 0. -1.
        1   -1    0    0  501    0  0.00000000000E+00  0.00000000000E+00 -0.16640280592E+04  0.16640280592E+04  0.50400001928E-02 0.  1.
    10030    2    1    2    0    0  0.00000000000E+00  0.00000000000E+00  0.17536151590E+03  0.35034176342E+04  0.34990260729E+04 0.  0.
        1    1    3    3  502    0 -0.48877890550E+03  0.45604218881E+01 -0.15942699089E+04  0.16675197625E+04  0.50400001928E-02 0.  1.
       -1    1    3    3    0  502  0.48877890550E+03 -0.45604218881E+01  0.17696314248E+04  0.18358978717E+04  0.50400001928E-02 0. -1.
</event>
<event>
 5   0  0.8845195E-07  0.3136087E+04  0.7818609E-02  0.8205903E-01
        2   -1    0    0  501    0  0.00000000000E+00  0.00000000000E+00  0.26800211810E+04  0.26800211810E+04  0.25500000920E-02 0. -1.
       -2   -1    0    0    0  501  0.00000000000E+00  0.00000000000E+00 -0.91744092400E+03  0.91744092400E+03  0.25500000920E-02 0.  1.
    10030    2    1    2    0    0  0.00000000000E+00  0.00000000000E+00  0.17625802570E+04  0.35974621050E+04  0.31360874405E+04 0.  0.
        5    1    3    3  502    0  0.13412625418E+04  0.23218647673E+03 -0.11579812503E+02  0.13612685069E+04  0.46999998093E+01 0. -1.
       -5    1    3    3    0  502 -0.13412625418E+04 -0.23218647673E+03  0.17741600695E+04  0.22361935981E+04  0.46999998093E+01 0.  1.
</event>
<event>
 5   0  0.6188930E-07  0.3605750E+04  0.7818609E-02  0.8089176E-01
       -2   -1    0    0    0  501  0.00000000000E+00  0.00000000000E+00  0.27624154247E+04  0.27624154247E+04  0.25500000920E-02 0.  1.
        2   -1    0    0  501    0  0.00000000000E+00  0.00000000000E+00 -0.11766362918E+04  0.11766362918E+04  0.25500000920E-02 0. -1.
    10030    2    1    2    0    0  0.00000000000E+00  0.00000000000E+00  0.15857791329E+04  0.39390517165E+04  0.36057499867E+04 0.  0.
        3    1    3    3  502    0 -0.27408780460E+03  0.16555077436E+03 -0.11453234399E+04  0.11892421855E+04  0.10100000352E+00 0. -1.
       -3    1    3    3    0  502  0.27408780460E+03 -0.16555077436E+03  0.27311025728E+04  0.27498095310E+04  0.10100000352E+00 0.  1.
</event>
<event>
 5   0  0.6188930E-07  0.3507841E+04  0.7818609E-02  0.8111934E-01
       -2   -1    0    0    0  501  0.00000000000E+00  0.00000000000E+00  0.17553900785E+04  0.17553900785E+04  0.25500000920E-02 0. -1.
        2   -1    0    0  501    0  0.00000000000E+00  0.00000000000E+00 -0.17524522080E+04  0.17524522080E+04  0.25500000920E-02 0.  1.
    10030    2    1    2    0    0  0.00000000000E+00  0.00000000000E+00  0.29378705035E+01  0.35078422864E+04  0.35078410562E+04 0.  0.
        3    1    3    3  502    0 -0.21281788722E+03  0.76752152359E+03 -0.15611756754E+04  0.17526124049E+04  0.10100000352E+00 0.  1.
       -3    1    3    3    0  502  0.21281788722E+03 -0.76752152359E+03  0.15641135459E+04  0.17552298815E+04  0.10100000352E+00 0. -1.
</event>
<event>
 5   0  0.2907000E-07  0.3816484E+04  0.7818609E-02  0.8042627E-01
       -3   -1    0    0    0  501  0.00000000000E+00  0.00000000000E+00  0.15488346695E+04  0.15488346728E+04  0.10100000352E+00 0. -1.
        3   -1    0    0  501    0  0.00000000000E+00  0.00000000000E+00 -0.23510503284E+04  0.23510503305E+04  0.10100000352E+00 0.  1.
    10030    2    1    2    0    0  0.00000000000E+00  0.00000000000E+00 -0.80221565884E+03  0.38998850033E+04  0.38164843870E+04 0.  0.
        5    1    3    3  502    0 -0.92941889673E+02  0.18617861097E+04 -0.81804436386E+03  0.20357073425E+04  0.46999998093E+01 0.  1.
       -5    1    3    3    0  502  0.92941889673E+02 -0.18617861097E+04  0.15828705025E+02  0.18641776608E+04  0.46999998093E+01 0. -1.
</event>
<event>
 5   0  0.2972541E-07  0.3482478E+04  0.7818609E-02  0.8117955E-01
        1   -1    0    0  501    0  0.00000000000E+00  0.00000000000E+00  0.28807416749E+04  0.28807416749E+04  0.50400001928E-02 0. -1.
       -1   -1    0    0    0  501  0.00000000000E+00  0.00000000000E+00 -0.10524766188E+04  0.10524766188E+04  0.50400001928E-02 0.  1.
    10030    2    1    2    0    0  0.00000000000E+00  0.00000000000E+00  0.18282650560E+04  0.39332182937E+04  0.34824780015E+04 0.  0.
        3    1    3    3  502    0 -0.22582402200E+03 -0.13411911643E+04  0.21421117148E+04  0.25374067149E+04  0.10100000352E+00 0. -1.
       -3    1    3    3    0  502  0.22582402200E+03  0.13411911643E+04 -0.31384665877E+03  0.13958115788E+04  0.10100000352E+00 0.  1.
</event>
<event>
 5   0  0.8950809E-07  0.3493781E+04  0.7818609E-02  0.8115265E-01
        2   -1    0    0  501    0  0.00000000000E+00  0.00000000000E+00  0.14227967611E+04  0.14227967611E+04  0.25500000920E-02 0.  1.
       -2   -1    0    0    0  501  0.00000000000E+00  0.00000000000E+00 -0.21448079347E+04  0.21448079347E+04  0.25500000920E-02 0. -1.
    10030    2    1    2    0    0  0.00000000000E+00  0.00000000000E+00 -0.72201117361E+03  0.35676046958E+04  0.34937806357E+04 0.  0.
        2    1    3    3  502    0 -0.13533370831E+03 -0.32962219716E+03 -0.21073052475E+04  0.21372181478E+04  0.25500000920E-02 0. -1.
       -2    1    3    3    0  502  0.13533370831E+03  0.32962219716E+03  0.13852940739E+04  0.14303865479E+04  0.25500000920E-02 0.  1.
</event>
<event>
 5   0  0.9128871E-07  0.3508354E+04  0.7818609E-02  0.8111813E-01
       -2   -1    0    0    0  501  0.00000000000E+00  0.00000000000E+00  0.13291093077E+04  0.13291093077E+04  0.25500000920E-02 0. -1.
        2   -1    0    0  501    0  0.00000000000E+00  0.00000000000E+00 -0.23151877114E+04  0.23151877114E+04  0.25500000920E-02 0.  1.
    10030    2    1    2    0    0  0.00000000000E+00  0.00000000000E+00 -0.98607840370E+03  0.36442970190E+04  0.35083543357E+04 0.  0.
        1    1    3    3  502    0 -0.14264783798E+04  0.98262769435E+03 -0.20528571286E+03  0.17442878139E+04  0.50400001928E-02 0. -1.
       -1    1    3    3    0  502  0.14264783798E+04 -0.98262769435E+03 -0.78079269084E+03  0.19000092052E+04  0.50400001928E-02 0.  1.
</event>
<event>
 5   0  0.9311672E-07  0.3639621E+04  0.7818609E-02  0.8081476E-01
       -2   -1    0    0    0  501  0.00000000000E+00  0.00000000000E+00  0.17111329044E+04  0.17111329044E+04  0.25500000920E-02 0. -1.
        2   -1    0    0  501    0  0.00000000000E+00  0.00000000000E+00 -0.19353908267E+04  0.19353908267E+04  0.25500000920E-02 0.  1.
    10030    2    1    2    0    0  0.00000000000E+00  0.00000000000E+00 -0.22425792225E+03  0.36465237311E+04  0.36396213685E+04 0.  0.
        4    1    3    3  502    0  0.73091553431E+03  0.22597091082E+03 -0.17664444537E+04  0.19250007770E+04  0.12699999809E+01 0.  1.
       -4    1    3    3    0  502 -0.73091553431E+03 -0.22597091082E+03  0.15421865314E+04  0.17215229541E+04  0.12699999809E+01 0. -1.
</event>
<event>
 5   0  0.2907000E-07  0.3524317E+04  0.7818609E-02  0.8108051E-01
        3   -1    0    0  501    0  0.00000000000E+00  0.00000000000E+00  0.11959000698E+04  0.11959000740E+04  0.10100000352E+00 0.  1.
       -3   -1    0    0    0  501  0.00000000000E+00  0.00000000000E+00 -0.25965396137E+04  0.25965396157E+04  0.10100000352E+00 0. -1.
    10030    2    1    2    0    0  0.00000000000E+00  0.00000000000E+00 -0.14006395439E+04  0.37924396897E+04  0.35243166243E+04 0.  0.
        5    1    3    3  502    0 -0.14404299355E+03 -0.17272580843E+04 -0.35831828113E+03  0.17699104368E+04  0.46999998093E+01 0.  1.
       -5    1    3    3    0  502  0.14404299355E+03  0.17272580843E+04 -0.10423212628E+04  0.20225292529E+04  0.46999998093E+01 0. -1.
</event>
<event>
 5   0  0.3061330E-07  0.3451913E+04  0.7818609E-02  0.8125281E-01
        1   -1    0    0  501    0  0.00000000000E+00  0.00000000000E+00  0.15184830550E+04  0.15184830550E+04  0.50400001928E-02 0.  1.
       -1   -1    0    0    0  501  0.00000000000E+00  0.00000000000E+00 -0.19617774267E+04  0.19617774267E+04  0.50400001928E-02 0. -1.
    10030    2    1    2    0    0  0.00000000000E+00  0.00000000000E+00 -0.44329437168E+03  0.34802604816E+04  0.34519129653E+04 0.  0.
        5    1    3    3  502    0  0.49192989176E+03  0.12411000206E+04  0.88121863047E+03  0.15996539139E+04  0.46999998093E+01 0.  1.
       -5    1    3    3    0  502 -0.49192989176E+03 -0.12411000206E+04 -0.13245130022E+04  0.18806065677E+04  0.46999998093E+01 0. -1.
</event>
<event>
 5   0  0.9128871E-07  0.3523994E+04  0.7818609E-02  0.8108127E-01
       -2   -1    0    0    0  501  0.00000000000E+00  0.00000000000E+00  0.28608980809E+04  0.28608980809E+04  0.25500000920E-02 0.  1.
        2   -1    0    0  501    0  0.00000000000E+00  0.00000000000E+00 -0.10851953844E+04  0.10851953844E+04  0.25500000920E-02 0. -1.
    10030    2    1    2    0    0  0.00000000000E+00  0.00000000000E+00  0.17757026965E+04  0.39460934652E+04  0.35239939799E+04 0.  0.
        1    1    3    3  502    0 -0.13329000527E+04 -0.10917748001E+04  0.13008639765E+04  0.21588982955E+04  0.50400001928E-02 0.  1.
       -1    1    3    3    0  502  0.13329000527E+04  0.10917748001E+04  0.47483872002E+03  0.17871951698E+04  0.50400001928E-02 0. -1.
</event>
<event>
 5   0  0.6188930E-07  0.3396630E+04  0.7818609E-02  0.8138734E-01
       -2   -1    0    0    0  501  0.00000000000E+00  0.00000000000E+00  0.11443068238E+04  0.11443068238E+04  0.25500000920E-02 0.  1.
        2   -1    0    0  501    0  0.00000000000E+00  0.00000000000E+00 -0.25205420174E+04  0.25205420175E+04  0.25500000920E-02 0. -1.
    10030    2    1    2    0    0  0.00000000000E+00  0.00000000000E+00 -0.13762351937E+04  0.36648488412E+04  0.33966297592E+04 0.  0.
        3    1    3    3  502    0  0.12179416893E+04 -0.32919980376E+03  0.53854836954E+03  0.13717830826E+04  0.10100000352E+00 0.  1.
       -3    1    3    3    0  502 -0.12179416893E+04  0.32919980376E+03 -0.19147835632E+04  0.22930657586E+04  0.10100000352E+00 0. -1.
</event>
<event>
 5   0  0.2933506E-07  0.3477602E+04  0.7818609E-02  0.8119119E-01
       -1   -1    0    0    0  501  0.00000000000E+00  0.00000000000E+00  0.27123477024E+04  0.27123477024E+04  0.50400001928E-02 0. -1.
        1   -1    0    0  501    0  0.00000000000E+00  0.00000000000E+00 -0.11146906839E+04  0.11146906840E+04  0.50400001928E-02 0.  1.
    10030    2    1    2    0    0  0.00000000000E+00  0.00000000000E+00  0.15976570184E+04  0.38270383863E+04  0.34776018838E+04 0.  0.
        4    1    3    3  502    0  0.89448246761E+03  0.78705297133E+03 -0.59486837259E+03  0.13316986364E+04  0.12699999809E+01 0.  1.
       -4    1    3    3    0  502 -0.89448246761E+03 -0.78705297133E+03  0.21925253910E+04  0.24953397500E+04  0.12699999809E+01 0. -1.
</event>
<event>
 5   0  0.8845195E-07  0.3156106E+04  0.7818609E-02  0.8200507E-01
        2   -1    0    0  501    0  0.00000000000E+00  0.00000000000E+00  0.17486479675E+04  0.17486479675E+04  0.25500000920E-02 0. -1.
       -2   -1    0    0    0  501  0.00000000000E+00  0.00000000000E+00 -0.14241011123E+04  0.14241011123E+04  0.25500000920E-02 0.  1.
    10030    2    1    2    0    0  0.00000000000E+00  0.00000000000E+00  0.32454685513E+03  0.31727490798E+04  0.31561061551E+04 0.  0.
        5    1    3    3  502    0  0.56319025182E+02  0.19218056959E+03 -0.14112679824E+04  0.14254138389E+04  0.46999998093E+01 0.  1.
       -5    1    3    3    0  502 -0.56319025182E+02 -0.19218056959E+03  0.17358148375E+04  0.17473352409E+04  0.46999998093E+01 0. -1.
</event>
<event>
 5   0  0.8950809E-07  0.3517968E+04  0.7818609E-02  0.8109545E-01
       -2   -1    0    0    0  501  0.00000000000E+00  0.00000000000E+00  0.21101368245E+04  0.21101368245E+04  0.25500000920E-02 0.  1.
        2   -1    0    0  501    0  0.00000000000E+00  0.00000000000E+00 -0.14662670489E+04  0.14662670489E+04  0.25500000920E-02 0. -1.
    10030    2    1    2    0    0  0.00000000000E+00  0.00000000000E+00  0.64386977555E+03  0.35764038734E+04  0.35179676488E+04 0.  0.
        2    1    3    3  502    0 -0.15112200603E+04 -0.89927256218E+03  0.36191862778E+03  0.17954003188E+04  0.25500000920E-02 0.  1.
       -2    1    3    3    0  502  0.15112200603E+04  0.89927256218E+03  0.28195114777E+03  0.17810035546E+04  0.25500000920E-02 0. -1.
</event>
<event>
 5   0  0.8950809E-07  0.3507962E+04  0.7818609E-02  0.8111906E-01
        2   -1    0    0  501    0  0.00000000000E+00  0.00000000000E+00  0.21527386681E+04  0.21527386681E+04  0.25500000920E-02 0. -1.
       -2   -1    0    0    0  501  0.00000000000E+00  0.00000000000E+00 -0.14290861704E+04  0.14290861704E+04  0.25500000920E-02 0.  1.
    10030    2    1    2    0    0  0.00000000000E+00  0.00000000000E+00  0.72365249775E+03  0.35818248385E+04  0.35079618351E+04 0.  0.
        2    1    3    3  502    0  0.87224170464E+03 -0.43809815951E+02  0.19149471901E+04  0.21046965654E+04  0.25500000920E-02 0. -1.
       -2    1    3    3    0  502 -0.87224170464E+03  0.43809815951E+02 -0.11912946924E+04  0.14771282732E+04  0.25500000920E-02 0.  1.
</event>
<event>
 5   0  0.2972541E-07  0.3116634E+04  0.7818609E-02  0.8211188E-01
       -1   -1    0    0    0  501  0.00000000000E+00  0.00000000000E+00  0.11478316224E+04  0.11478316224E+04  0.50400001928E-02 0.  1.
        1   -1    0    0  501    0  0.00000000000E+00  0.00000000000E+00 -0.21155994980E+04  0.21155994980E+04  0.50400001928E-02 0. -1.
    10030    2    1    2    0    0  0.00000000000E+00  0.00000000000E+00 -0.96776787563E+03  0.32634311204E+04  0.31166340844E+04 0.  0.
        3    1    3    3  502    0  0.15210211627E+04 -0.28613391712E+03 -0.29374352256E+03  0.15753295729E+04  0.10100000352E+00 0.  1.
       -3    1    3    3    0  502 -0.15210211627E+04  0.28613391712E+03 -0.67402435307E+03  0.16881015475E+04  0.10100000352E+00 0. -1.
</event>
<event>
 5   0  0.2936607E-07  0.3473451E+04  0.7818609E-02  0.8120111E-01
       -1   -1    0    0    0  501  0.00000000000E+00  0.00000000000E+00  0.19623297795E+04  0.19623297795E+04  0.50400001928E-02 0.  1.
        1   -1    0    0  501    0  0.00000000000E+00  0.00000000000E+00 -0.15370579871E+04  0.15370579871E+04  0.50400001928E-02 0. -1.
    10030    2    1    2    0    0  0.00000000000E+00  0.00000000000E+00  0.42527179243E+03  0.34993877667E+04  0.34734505386E+04 0.  0.
        2    1    3    3  502    0  0.36465017218E+03 -0.32666117035E+03 -0.14661013012E+04  0.15456811747E+04  0.25500000920E-02 0. -1.
       -2    1    3    3    0  502 -0.36465017218E+03  0.32666117035E+03  0.18913730936E+04  0.19537065920E+04  0.25500000920E-02 0.  1.
</event>
<event>
 5   0  0.9128871E-07  0.3545128E+04  0.7818609E-02  0.8103178E-01
       -2   -1    0    0    0  501  0.00000000000E+00  0.00000000000E+00  0.16721392428E+04  0.16721392428E+04  0.25500000920E-02 0.  1.
        2   -1    0    0  501    0  0.00000000000E+00  0.00000000000E+00 -0.18790201004E+04  0.18790201004E+04  0.25500000920E-02 0. -1.
    10030    2    1    2    0    0  0.00000000000E+00  0.00000000000E+00 -0.20688085760E+03  0.35511593432E+04  0.35451280642E+04 0.  0.
        1    1    3    3  502    0  0.12867692827E+04 -0.88400946487E+03 -0.94435378960E+03  0.18245689904E+04  0.50400001928E-02 0. -1.
       -1    1    3    3    0  502 -0.12867692827E+04  0.88400946487E+03  0.73747293200E+03  0.17265903528E+04  0.50400001928E-02 0.  1.
</event>
<event>
 5   0  0.8845195E-07  0.3615010E+04  0.7818609E-02  0.8087062E-01
       -2   -1    0    0    0  501  0.00000000000E+00  0.00000000000E+00  0.18198218346E+04  0.18198218347E+04  0.25500000920E-02 0. -1.
        2   -1    0    0  501    0  0.00000000000E+00  0.00000000000E+00 -0.17952719082E+04  0.17952719082E+04  0.25500000920E-02 0.  1.
    10030    2    1    2    0    0  0.00000000000E+00  0.00000000000E+00  0.24549926489E+02  0.36150937428E+04  0.36150103832E+04 0.  0.
        5    1    3    3  502    0  0.62046384224E+03 -0.22334273789E+03 -0.16706766665E+04  0.17961180284E+04  0.46999998093E+01 0.  1.
       -5    1    3    3    0  502 -0.62046384224E+03  0.22334273789E+03  0.16952265930E+04  0.18189757144E+04  0.46999998093E+01 0. -1.
</event>
<event>
 5   0  0.2972541E-07  0.3525900E+04  0.7818609E-02  0.8107679E-01
        1   -1    0    0  501    0  0.00000000000E+00  0.00000000000E+00  0.13174837451E+04  0.13174837451E+04  0.50400001928E-02 0. -1.
       -1   -1    0    0    0  501  0.00000000000E+00  0.00000000000E+00 -0.23590366184E+04  0.23590366184E+04  0.50400001928E-02 0.  1.
    10030    2    1    2    0    0  0.00000000000E+00  0.00000000000E+00 -0.10415528733E+04  0.36765203635E+04  0.35258998277E+04 0.  0.
        3    1    3    3  502    0  0.20165525287E+03  0.14425546970E+04  0.51480796725E+03  0.15448806259E+04  0.10100000352E+00 0. -1.
       -3    1    3    3    0  502 -0.20165525287E+03 -0.14425546970E+04 -0.15563608405E+04  0.21316397376E+04  0.10100000352E+00 0.  1.
</event>
<event>
 5   0  0.6188930E-07  0.3503421E+04  0.7818609E-02  0.8112980E-01
        2   -1    0    0  501    0  0.00000000000E+00  0.00000000000E+00  0.20058093902E+04  0.20058093902E+04  0.25500000920E-02 0.  1.
       -2   -1    0    0    0  501  0.00000000000E+00  0.00000000000E+00 -0.15298015692E+04  0.15298015692E+04  0.25500000920E-02 0. -1.
    10030    2    1    2    0    0  0.00000000000E+00  0.00000000000E+00  0.47600782101E+03  0.35356109594E+04  0.35034213864E+04 0.  0.
        3    1    3    3  502    0  0.57123003077E+02 -0.61044997848E+03 -0.14179805288E+04  0.15448563053E+04  0.10100000352E+00 0. -1.
       -3    1    3    3    0  502 -0.57123003077E+02  0.61044997848E+03  0.18939883498E+04  0.19907546542E+04  0.10100000352E+00 0.  1.
</event>
<event>
 5   0  0.8845195E-07  0.3541539E+04  0.7818609E-02  0.8104016E-01
        2   -1    0    0  501    0  0.00000000000E+00  0.00000000000E+00  0.23320619904E+04  0.23320619904E+04  0.25500000920E-02 0.  1.
       -2   -1    0    0    0  501  0.00000000000E+00  0.00000000000E+00 -0.13445715050E+04  0.13445715050E+04  0.25500000920E-02 0. -1.
    10030    2    1    2    0    0  0.00000000000E+00  0.00000000000E+00  0.98749048544E+03  0.36766334954E+04  0.35415387053E+04 0.  0.
        5    1    3    3  502    0 -0.13238828528E+04 -0.77537087596E+03  0.14116306398E+04  0.20848474659E+04  0.46999998093E+01 0. -1.
       -5    1    3    3    0  502  0.13238828528E+04  0.77537087596E+03 -0.42414015432E+03  0.15917860295E+04  0.46999998093E+01 0.  1.
</event>
<event>
 5   0  0.3026332E-07  0.3489562E+04  0.7818609E-02  0.8116268E-01
       -1   -1    0    0    0  501  0.00000000000E+00  0.00000000000E+00  0.12854949904E+04  0.12854949904E+04  0.50400001928E-02 0. -1.
        1   -1    0    0  501    0  0.00000000000E+00  0.00000000000E+00 -0.23681618772E+04  0.23681618772E+04  0.50400001928E-02 0.  1.
    10030    2    1    2    0    0  0.00000000000E+00  0.00000000000E+00 -0.10826668868E+04  0.36536568676E+04  0.34895617086E+04 0.  0.
        1    1    3    3  502    0 -0.89152381514E+03 -0.99072704999E+03 -0.17202967981E+04  0.21761837868E+04  0.50400001928E-02 0.  1.
       -1    1    3    3    0  502  0.89152381514E+03  0.99072704999E+03  0.63762991130E+03  0.14774730808E+04  0.50400001928E-02 0. -1.
</event>
<event>
 5   0  0.2972541E-07  0.3366707E+04  0.7818609E-02  0.8146126E-01
       -1   -1    0    0    0  501  0.00000000000E+00  0.00000000000E+00  0.10918061254E+04  0.10918061254E+04  0.50400001928E-02 0. -1.
        1   -1    0    0  501    0  0.00000000000E+00  0.00000000000E+00 -0.25954046192E+04  0.25954046192E+04  0.50400001928E-02 0.  1.
    10030    2    1    2    0    0  0.00000000000E+00  0.00000000000E+00 -0.15035984938E+04  0.36872107445E+04  0.33667067951E+04 0.  0.
        3    1    3    3  502    0  0.14224786673E+04 -0.44314693022E+03 -0.16098740935E+04  0.21935175786E+04  0.10100000352E+00 0.  1.
       -3    1    3    3    0  502 -0.14224786673E+04  0.44314693022E+03  0.10627559967E+03  0.14936931659E+04  0.10100000352E+00 0. -1.
</event>
<event>
 5   0  0.8950809E-07  0.3482257E+04  0.7818609E-02  0.8118008E-01
        2   -1    0    0  501    0  0.00000000000E+00  0.00000000000E+00  0.13676813551E+04  0.13676813552E+04  0.25500000920E-02 0. -1.
       -2   -1    0    0    0  501  0.00000000000E+00  0.00000000000E+00 -0.22165452442E+04  0.22165452442E+04  0.25500000920E-02 0.  1.
    10030    2    1    2    0    0  0.00000000000E+00  0.00000000000E+00 -0.84886388903E+03  0.35842265993E+04  0.34822565117E+04 0.  0.
        2    1    3    3  502    0 -0.13333595646E+04 -0.48236697483E+03  0.61560314167E+03  0.15457984522E+04  0.25500000920E-02 0. -1.
       -2    1    3    3    0  502  0.13333595646E+04  0.48236697483E+03 -0.14644670307E+04  0.20384281471E+04  0.25500000920E-02 0.  1.
</event>
<event>
 5   0  0.9128871E-07  0.3501688E+04  0.7818609E-02  0.8113390E-01
        2   -1    0    0  501    0  0.00000000000E+00  0.00000000000E+00  0.10271454597E+04  0.10271454597E+04  0.25500000920E-02 0. -1.
       -2   -1    0    0    0  501  0.00000000000E+00  0.00000000000E+00 -0.29844399642E+04  0.29844399642E+04  0.25500000920E-02 0.  1.
    10030    2    1    2    0    0  0.00000000000E+00  0.00000000000E+00 -0.19572945046E+04  0.40115854239E+04  0.35016875697E+04 0.  0.
        1    1    3    3  502    0 -0.58288473349E+03 -0.58786231696E+03 -0.27460593584E+04  0.28681315723E+04  0.50400001928E-02 0.  1.
       -1    1    3    3    0  502  0.58288473349E+03  0.58786231696E+03  0.78876485379E+03  0.11434538516E+04  0.50400001928E-02 0. -1.
</event>
<event>
 5   0  0.3026332E-07  0.3466236E+04  0.7818609E-02  0.8121839E-01
       -1   -1    0    0    0  501  0.00000000000E+00  0.00000000000E+00  0.13724669020E+04  0.13724669020E+04  0.50400001928E-02 0.  1.
        1   -1    0    0  501    0  0.00000000000E+00  0.00000000000E+00 -0.21885393852E+04  0.21885393852E+04  0.50400001928E-02 0. -1.
    10030    2    1    2    0    0  0.00000000000E+00  0.00000000000E+00 -0.81607248320E+03  0.35610062872E+04  0.34662359238E+04 0.  0.
        1    1    3    3  502    0 -0.16492764667E+04  0.28847517784E+02  0.13824727861E+03  0.16553118598E+04  0.50400001928E-02 0. -1.
       -1    1    3    3    0  502  0.16492764667E+04 -0.28847517784E+02 -0.95431976182E+03  0.19056944274E+04  0.50400001928E-02 0.  1.
</event>
<event>
 5   0  0.9128871E-07  0.3535390E+04  0.7818609E-02  0.8105454E-01
       -2   -1    0    0    0  501  0.00000000000E+00  0.00000000000E+00  0.24056468109E+04  0.24056468109E+04  0.25500000920E-02 0. -1.
        2   -1    0    0  501    0  0.00000000000E+00  0.00000000000E+00 -0.12989210330E+04  0.12989210330E+04  0.25500000920E-02 0.  1.
    10030    2    1    2    0    0  0.00000000000E+00  0.00000000000E+00  0.11067257779E+04  0.37045678438E+04  0.35353897893E+04 0.  0.
        1    1    3    3  502    0  0.15824045428E+04 -0.16367717735E+03  0.13609242221E+04  0.20935398477E+04  0.50400001928E-02 0.  1.
       -1    1    3    3    0  502 -0.15824045428E+04  0.16367717735E+03 -0.25419844417E+03  0.16110279962E+04  0.50400001928E-02 0. -1.
</event>
<event>
 5   0  0.9128871E-07  0.3469152E+04  0.7818609E-02  0.8121140E-01
        2   -1    0    0  501    0  0.00000000000E+00  0.00000000000E+00  0.20213440111E+04  0.20213440111E+04  0.25500000920E-02 0. -1.
       -2   -1    0    0    0  501  0.00000000000E+00  0.00000000000E+00 -0.14884916394E+04  0.14884916394E+04  0.25500000920E-02 0.  1.
    10030    2    1    2    0    0  0.00000000000E+00  0.00000000000E+00  0.53285237173E+03  0.35098356504E+04  0.34691518622E+04 0.  0.
        1    1    3    3  502    0 -0.73342801240E+03  0.11423511928E+04  0.13588437527E+04  0.19207652749E+04  0.50400001928E-02 0. -1.
       -1    1    3    3    0  502  0.73342801240E+03 -0.11423511928E+04 -0.82599138095E+03  0.15890703755E+04  0.50400001928E-02 0.  1.
</event>
<event>
 5   0  0.8845195E-07  0.3490406E+04  0.7818609E-02  0.8116067E-01
        2   -1    0    0  501    0  0.00000000000E+00  0.00000000000E+00  0.16394724082E+04  0.16394724082E+04  0.25500000920E-02 0. -1.
       -2   -1    0    0    0  501  0.00000000000E+00  0.00000000000E+00 -0.18577517500E+04  0.18577517500E+04  0.25500000920E-02 0.  1.
    10030    2    1    2    0    0  0.00000000000E+00  0.00000000000E+00 -0.21827934185E+03  0.34972241582E+04  0.34904055555E+04 0.  0.
        5    1    3    3  502    0  0.78272804523E+01  0.15925567469E+04 -0.82426527741E+03  0.17932466635E+04  0.46999998093E+01 0. -1.
       -5    1    3    3    0  502 -0.78272804523E+01 -0.15925567469E+04  0.60598593556E+03  0.17039774948E+04  0.46999998093E+01 0.  1.
</event>
<event>
 5   0  0.6188930E-07  0.3406623E+04  0.7818609E-02  0.8136283E-01
       -2   -1    0    0    0  501  0.00000000000E+00  0.00000000000E+00  0.15846272749E+04  0.15846272749E+04  0.25500000920E-02 0. -1.
        2   -1    0    0  501    0  0.00000000000E+00  0.00000000000E+00 -0.18308843565E+04  0.18308843565E+04  0.25500000920E-02 0.  1.
    10030    2    1    2    0    0  0.00000000000E+00  0.00000000000E+00 -0.24625708159E+03  0.34155116315E+04  0.34066225436E+04 0.  0.
        3    1    3    3  502    0  0.90400026250E+03 -0.62178829827E+03  0.11831264418E+04  0.16135753314E+04  0.10100000352E+00 0. -1.
       -3    1    3    3    0  502 -0.90400026250E+03  0.62178829827E+03 -0.14293835234E+04  0.18019363001E+04  0.10100000352E+00 0.  1.
</event>
<event>
 5   0  0.2933506E-07  0.3519970E+04  0.7818609E-02  0.8109074E-01
        1   -1    0    0  501    0  0.00000000000E+00  0.00000000000E+00  0.18999549869E+04  0.18999549869E+04  0.50400001928E-02 0.  1.
       -1   -1    0    0    0  501  0.00000000000E+00  0.00000000000E+00 -0.16303266745E+04  0.16303266745E+04  0.50400001928E-02 0. -1.
    10030    2    1    2    0    0  0.00000000000E+00  0.00000000000E+00  0.26962831234E+03  0.35302816614E+04  0.35199700541E+04 0.  0.
        4    1    3    3  502    0 -0.71350965333E+03 -0.13338815439E+04 -0.76738189861E+03  0.16962348274E+04  0.12699999809E+01 0. -1.
       -4    1    3    3    0  502  0.71350965333E+03  0.13338815439E+04  0.10370102110E+04  0.18340468340E+04  0.12699999809E+01 0.  1.
</event>
<event>
 5   0  0.3026332E-07  0.3461175E+04  0.7818609E-02  0.8123053E-01
       -1   -1    0    0    0  501  0.00000000000E+00  0.00000000000E+00  0.28785169961E+04  0.28785169961E+04  0.50400001928E-02 0. -1.
        1   -1    0    0  501    0  0.00000000000E+00  0.00000000000E+00 -0.10404429198E+04  0.10404429198E+04  0.50400001928E-02 0.  1.
    10030    2    1    2    0    0  0.00000000000E+00  0.00000000000E+00  0.18380740763E+04  0.39189599159E+04  0.34611747302E+04 0.  0.
        1    1    3    3  502    0 -0.57341132358E+03  0.16232125984E+04  0.71867786190E+03  0.18655073184E+04  0.50400001928E-02 0.  1.
       -1    1    3    3    0  502  0.57341132358E+03 -0.16232125984E+04  0.11193962144E+04  0.20534525975E+04  0.50400001928E-02 0. -1.
</event>
<event>
 5   0  0.3026332E-07  0.3473606E+04  0.7818609E-02  0.8120074E-01
       -1   -1    0    0    0  501  0.00000000000E+00  0.00000000000E+00  0.24364389749E+04  0.24364389749E+04  0.50400001928E-02 0. -1.
        1   -1    0    0  501    0  0.00000000000E+00  0.00000000000E+00 -0.12380710067E+04  0.12380710068E+04  0.50400001928E-02 0.  1.
    10030    2    1    2    0    0  0.00000000000E+00  0.00000000000E+00  0.11983679681E+04  0.36745099816E+04  0.34736058812E+04 0.  0.
        1    1    3    3  502    0 -0.91975449321E+03  0.99326116502E+03  0.17502200794E+04  0.22126424013E+04  0.50400001928E-02 0. -1.
       -1    1    3    3    0  502  0.91975449321E+03 -0.99326116502E+03 -0.55185211126E+03  0.14618675803E+04  0.50400001928E-02 0.  1.
</event>
<event>
 5   0  0.6188930E-07  0.3534933E+04  0.7818609E-02  0.8105561E-01
        2   -1    0    0  501    0  0.00000000000E+00  0.00000000000E+00  0.19836793421E+04  0.19836793421E+04  0.25500000920E-02 0.  1.
       -2   -1    0    0    0  501  0.00000000000E+00  0.00000000000E+00 -0.15748200647E+04  0.15748200647E+04  0.25500000920E-02 0. -1.
    10030    2    1    2    0    0  0.00000000000E+00  0.00000000000E+00  0.40885927744E+03  0.35584994068E+04  0.35349331138E+04 0.  0.
        3    1    3    3  502    0 -0.91062954495E+03  0.21935293599E+02 -0.13203333690E+04  0.16040597061E+04  0.10100000352E+00 0. -1.
       -3    1    3    3    0  502  0.91062954495E+03 -0.21935293599E+02  0.17291926464E+04  0.19544397007E+04  0.10100000352E+00 0.  1.
</event>
<event>
 5   0  0.9128871E-07  0.3498670E+04  0.7818609E-02  0.8114105E-01
        2   -1    0    0  501    0  0.00000000000E+00  0.00000000000E+00  0.27469025152E+04  0.27469025152E+04  0.25500000920E-02 0. -1.
       -2   -1    0    0    0  501  0.00000000000E+00  0.00000000000E+00 -0.11140447973E+04  0.11140447973E+04  0.25500000920E-02 0.  1.
    10030    2    1    2    0    0  0.00000000000E+00  0.00000000000E+00  0.16328577178E+04  0.38609473125E+04  0.34986697220E+04 0.  0.
        1    1    3    3  502    0 -0.82803387320E+03 -0.15294397739E+04  0.60895511387E+03  0.18427296187E+04  0.50400001928E-02 0. -1.
       -1    1    3    3    0  502  0.82803387320E+03  0.15294397739E+04  0.10239026039E+04  0.20182176938E+04  0.50400001928E-02 0.  1.
</event>
<event>
 5   0  0.2972541E-07  0.3524457E+04  0.7818609E-02  0.8108018E-01
       -1   -1    0    0    0  501  0.00000000000E+00  0.00000000000E+00  0.16796222264E+04  0.16796222264E+04  0.50400001928E-02 0. -1.
        1   -1    0    0  501    0  0.00000000000E+00  0.00000000000E+00 -0.18488974099E+04  0.18488974099E+04  0.50400001928E-02 0.  1.
    10030    2    1    2    0    0  0.00000000000E+00  0.00000000000E+00 -0.16927518348E+03  0.35285196363E+04  0.35244569420E+04 0.  0.
        3    1    3    3  502    0  0.14716878427E+04 -0.94548110319E+03 -0.29854143327E+03  0.17745215188E+04  0.10100000352E+00 0.  1.
       -3    1    3    3    0  502 -0.14716878427E+04  0.94548110319E+03  0.12926624979E+03  0.17539981176E+04  0.10100000352E+00 0. -1.
</event>
<event>
 5   0  0.2972541E-07  0.3454127E+04  0.7818609E-02  0.8124748E-01
       -1   -1    0    0    0  501  0.00000000000E+00  0.00000000000E+00  0.12623493152E+04  0.12623493152E+04  0.50400001928E-02 0. -1.
        1   -1    0    0  501    0  0.00000000000E+00  0.00000000000E+00 -0.23628542882E+04  0.23628542882E+04  0.50400001928E-02 0.  1.
    10030    2    1    2    0    0  0.00000000000E+00  0.00000000000E+00 -0.11005049730E+04  0.36252036034E+04  0.34541265134E+04 0.  0.
        3    1    3    3  502    0  0.28282251508E+03 -0.13157068066E+04  0.58579805475E+03  0.14677303387E+04  0.10100000352E+00 0. -1.
       -3    1    3    3    0  502 -0.28282251508E+03  0.13157068066E+04 -0.16863030278E+04  0.21574732647E+04  0.10100000352E+00 0.  1.
</event>
<event>
 5   0  0.9128871E-07  0.3510878E+04  0.7818609E-02  0.8111217E-01
        2   -1    0    0  501    0  0.00000000000E+00  0.00000000000E+00  0.26484819224E+04  0.26484819224E+04  0.25500000920E-02 0. -1.
       -2   -1    0    0    0  501  0.00000000000E+00  0.00000000000E+00 -0.11635213773E+04  0.11635213773E+04  0.25500000920E-02 0.  1.
    10030    2    1    2    0    0  0.00000000000E+00  0.00000000000E+00  0.14849605451E+04  0.38120032998E+04  0.35108775736E+04 0.  0.
        1    1    3    3  502    0  0.28145302586E+03 -0.86124154805E+03  0.23749707136E+04  0.25419360142E+04  0.50400001928E-02 0. -1.
       -1    1    3    3    0  502 -0.28145302586E+03  0.86124154805E+03 -0.89001016847E+03  0.12700672856E+04  0.50400001928E-02 0.  1.
</event>
<event>
 5   0  0.3026332E-07  0.3385748E+04  0.7818609E-02  0.8141413E-01
        1   -1    0    0  501    0  0.00000000000E+00  0.00000000000E+00  0.22573717428E+04  0.22573717428E+04  0.50400001928E-02 0.  1.
       -1   -1    0    0    0  501  0.00000000000E+00  0.00000000000E+00 -0.12695396057E+04  0.12695396057E+04  0.50400001928E-02 0. -1.
    10030    2    1    2    0    0  0.00000000000E+00  0.00000000000E+00  0.98783213708E+03  0.35269113486E+04  0.33857482673E+04 0.  0.
        1    1    3    3  502    0  0.14431961479E+04 -0.15679865957E+03  0.14010999156E+04  0.20175435347E+04  0.50400001928E-02 0.  1.
       -1    1    3    3    0  502 -0.14431961479E+04  0.15679865957E+03 -0.41326777849E+03  0.15093678139E+04  0.50400001928E-02 0. -1.
</event>
<event>
 5   0  0.2936607E-07  0.3503242E+04  0.7818609E-02  0.8113022E-01
        1   -1    0    0  501    0  0.00000000000E+00  0.00000000000E+00  0.17727350414E+04  0.17727350414E+04  0.50400001928E-02 0.  1.
       -1   -1    0    0    0  501  0.00000000000E+00  0.00000000000E+00 -0.17307585932E+04  0.17307585932E+04  0.50400001928E-02 0. -1.
    10030    2    1    2    0    0  0.00000000000E+00  0.00000000000E+00  0.41976448205E+02  0.35034936345E+04  0.35032421591E+04 0.  0.
        2    1    3    3  502    0 -0.37801849720E+03  0.16484159598E+04 -0.43511824268E+03  0.17462820637E+04  0.25500000920E-02 0.  1.
       -2    1    3    3    0  502  0.37801849720E+03 -0.16484159598E+04  0.47709469088E+03  0.17572115709E+04  0.25500000920E-02 0. -1.
</event>
<event>
 5   0  0.2933506E-07  0.3495691E+04  0.7818609E-02  0.8114812E-01
       -1   -1    0    0    0  501  0.00000000000E+00  0.00000000000E+00  0.15002913113E+04  0.15002913113E+04  0.50400001928E-02 0.  1.
        1   -1    0    0  501    0  0.00000000000E+00  0.00000000000E+00 -0.20362469880E+04  0.20362469880E+04  0.50400001928E-02 0. -1.
    10030    2    1    2    0    0  0.00000000000E+00  0.00000000000E+00 -0.53595567667E+03  0.35365382993E+04  0.34956908695E+04 0.  0.
        4    1    3    3  502    0  0.11499733400E+04 -0.80819879828E+03  0.78307389661E+03  0.16089842512E+04  0.12699999809E+01 0.  1.
       -4    1    3    3    0  502 -0.11499733400E+04  0.80819879828E+03 -0.13190295733E+04  0.19275540481E+04  0.12699999809E+01 0. -1.
</event>
<event>
 5   0  0.2936607E-07  0.3323884E+04  0.7818609E-02  0.8156845E-01
       -1   -1    0    0    0  501  0.00000000000E+00  0.00000000000E+00  0.13583473553E+04  0.13583473553E+04  0.50400001928E-02 0. -1.
        1   -1    0    0  501    0  0.00000000000E+00  0.00000000000E+00 -0.20333905542E+04  0.20333905542E+04  0.50400001928E-02 0.  1.
    10030    2    1    2    0    0  0.00000000000E+00  0.00000000000E+00 -0.67504319892E+03  0.33917379095E+04  0.33238836812E+04 0.  0.
        2    1    3    3  502    0  0.10637365929E+04 -0.92979375277E+02  0.96200294232E+03  0.14372301014E+04  0.25500000920E-02 0. -1.
       -2    1    3    3    0  502 -0.10637365929E+04  0.92979375277E+02 -0.16370461412E+04  0.19545078081E+04  0.25500000920E-02 0.  1.
</event>
<event>
 5   0  0.2933506E-07  0.3530340E+04  0.7818609E-02  0.8106637E-01
       -1   -1    0    0    0  501  0.00000000000E+00  0.00000000000E+00  0.16762300878E+04  0.16762300878E+04  0.50400001928E-02 0. -1.
        1   -1    0    0  501    0  0.00000000000E+00  0.00000000000E+00 -0.18588284991E+04  0.18588284991E+04  0.50400001928E-02 0.  1.
    10030    2    1    2    0    0  0.00000000000E+00  0.00000000000E+00 -0.18259841129E+03  0.35350585868E+04  0.35303395067E+04 0.  0.
        4    1    3    3  502    0  0.16090682729E+04 -0.50746008589E+03  0.42824519859E+03  0.17406929679E+04  0.12699999809E+01 0. -1.
       -4    1    3    3    0  502 -0.16090682729E+04  0.50746008589E+03 -0.61084360988E+03  0.17943656189E+04  0.12699999809E+01 0.  1.
</event>
<event>
 5   0  0.2972541E-07  0.3423736E+04  0.7818609E-02  0.8132105E-01
        1   -1    0    0  501    0  0.00000000000E+00  0.00000000000E+00  0.11467328605E+04  0.11467328605E+04  0.50400001928E-02 0. -1.
       -1   -1    0    0    0  501  0.00000000000E+00  0.00000000000E+00 -0.25555147127E+04  0.25555147127E+04  0.50400001928E-02 0.  1.
    10030    2    1    2    0    0  0.00000000000E+00  0.00000000000E+00 -0.14087818522E+04  0.37022475732E+04  0.34237363780E+04 0.  0.
        3    1    3    3  502    0 -0.13241905694E+04  0.54145979361E+03  0.31220958438E+03  0.14642862449E+04  0.10100000352E+00 0. -1.
       -3    1    3    3    0  502  0.13241905694E+04 -0.54145979361E+03 -0.17209914366E+04  0.22379613283E+04  0.10100000352E+00 0.  1.
</event>
<event>
 5   0  0.2933506E-07  0.3362410E+04  0.7818609E-02  0.8147194E-01
        1   -1    0    0  501    0  0.00000000000E+00  0.00000000000E+00  0.16105115591E+04  0.16105115591E+04  0.50400001928E-02 0.  1.
       -1   -1    0    0    0  501  0.00000000000E+00  0.00000000000E+00 -0.17550018380E+04  0.17550018380E+04  0.50400001928E-02 0. -1.
    10030    2    1    2    0    0  0.00000000000E+00  0.00000000000E+00 -0.14449027894E+03  0.33655133972E+04  0.33624102941E+04 0.  0.
        4    1    3    3  502    0 -0.51860622635E+03  0.10023928800E+04 -0.13194710512E+04  0.17363033640E+04  0.12699999809E+01 0. -1.
       -4    1    3    3    0  502  0.51860622635E+03 -0.10023928800E+04  0.11749807723E+04  0.16292100331E+04  0.12699999809E+01 0.  1.
</event>
<event>
 5   0  0.6188930E-07  0.3508032E+04  0.7818609E-02  0.8111889E-01
       -2   -1    0    0    0  501  0.00000000000E+00  0.00000000000E+00  0.14656090814E+04  0.14656090814E+04  0.25500000920E-02 0.  1.
        2   -1    0    0  501    0  0.00000000000E+00  0.00000000000E+00 -0.20991766555E+04  0.20991766555E+04  0.25500000920E-02 0. -1.
    10030    2    1    2    0    0  0.00000000000E+00  0.00000000000E+00 -0.63356757402E+03  0.35647857369E+04  0.35080321377E+04 0.  0.
        3    1    3    3  502    0 -0.16005979761E+04  0.53500833470E+03 -0.80245377475E+03  0.18687107508E+04  0.10100000352E+00 0.  1.
       -3    1    3    3    0  502  0.16005979761E+04 -0.53500833470E+03  0.16888620073E+03  0.16960749861E+04  0.10100000352E+00 0. -1.
</event>
<event>
 5   0  0.2936607E-07  0.3199565E+04  0.7818609E-02  0.8188932E-01
        1   -1    0    0  501    0  0.00000000000E+00  0.00000000000E+00  0.21390591306E+04  0.21390591306E+04  0.50400001928E-02 0.  1.
       -1   -1    0    0    0  501  0.00000000000E+00  0.00000000000E+00 -0.11964625272E+04  0.11964625272E+04  0.50400001928E-02 0. -1.
    10030    2    1    2    0    0  0.00000000000E+00  0.00000000000E+00  0.94259660345E+03  0.33355216578E+04  0.31995650287E+04 0.  0.
        2    1    3    3  502    0 -0.14522193722E+04 -0.13335436046E+03  0.11569536095E+04  0.18615225342E+04  0.25500000920E-02 0.  1.
       -2    1    3    3    0  502  0.14522193722E+04  0.13335436046E+03 -0.21435700610E+03  0.14739991237E+04  0.25500000920E-02 0. -1.
</event>
<event>
 5   0  0.3026332E-07  0.3498107E+04  0.7818609E-02  0.8114239E-01
        1   -1    0    0  501    0  0.00000000000E+00  0.00000000000E+00  0.25694970607E+04  0.25694970607E+04  0.50400001928E-02 0.  1.
       -1   -1    0    0    0  501  0.00000000000E+00  0.00000000000E+00 -0.11905782618E+04  0.11905782618E+04  0.50400001928E-02 0. -1.
    10030    2    1    2    0    0  0.00000000000E+00  0.00000000000E+00  0.13789187989E+04  0.37600753226E+04  0.34981065418E+04 0.  0.
        1    1    3    3  502    0  0.12787346683E+04  0.43318449514E+03  0.18846545653E+04  0.23183472538E+04  0.50400001928E-02 0.  1.
       -1    1    3    3    0  502 -0.12787346683E+04 -0.43318449514E+03 -0.50573576639E+03  0.14417280688E+04  0.50400001928E-02 0. -1.
</event>
<event>
 5   0  0.8845195E-07  0.3473252E+04  0.7818609E-02  0.8120158E-01
        2   -1    0    0  501    0  0.00000000000E+00  0.00000000000E+00  0.19297898262E+04  0.19297898262E+04  0.25500000920E-02 0. -1.
       -2   -1    0    0    0  501  0.00000000000E+00  0.00000000000E+00 -0.15627966520E+04  0.15627966520E+04  0.25500000920E-02 0.  1.
    10030    2    1    2    0    0  0.00000000000E+00  0.00000000000E+00  0.36699317424E+03  0.34925864783E+04  0.34732515484E+04 0.  0.
        5    1    3    3  502    0  0.63312129688E+03 -0.41827596445E+03 -0.13872649573E+04  0.15812411298E+04  0.46999998093E+01 0.  1.
       -5    1    3    3    0  502 -0.63312129688E+03  0.41827596445E+03  0.17542581315E+04  0.19113453484E+04  0.46999998093E+01 0. -1.
</event>
<event>
 5   0  0.9128871E-07  0.3467270E+04  0.7818609E-02  0.8121591E-01
       -2   -1    0    0    0  501  0.00000000000E+00  0.00000000000E+00  0.12085445745E+04  0.12085445746E+04  0.25500000920E-02 0. -1.
        2   -1    0    0  501    0  0.00000000000E+00  0.00000000000E+00 -0.24868674395E+04  0.24868674395E+04  0.25500000920E-02 0.  1.
    10030    2    1    2    0    0  0.00000000000E+00  0.00000000000E+00 -0.12783228650E+04  0.36954120141E+04  0.34672699068E+04 0.  0.
        1    1    3    3  502    0 -0.39226202386E+03 -0.58366469333E+03 -0.23280258401E+04  0.24319206981E+04  0.50400001928E-02 0.  1.
       -1    1    3    3    0  502  0.39226202386E+03  0.58366469333E+03  0.10497029751E+04  0.12634913160E+04  0.50400001928E-02 0. -1.
</event>
<event>
 5   0  0.2907000E-07  0.3494282E+04  0.7818609E-02  0.8115146E-01
       -3   -1    0    0    0  501  0.00000000000E+00  0.00000000000E+00  0.15303392522E+04  0.15303392555E+04  0.10100000352E+00 0. -1.
        3   -1    0    0  501    0  0.00000000000E+00  0.00000000000E+00 -0.19946573391E+04  0.19946573417E+04  0.10100000352E+00 0.  1.
    10030    2    1    2    0    0  0.00000000000E+00  0.00000000000E+00 -0.46431808689E+03  0.35249965972E+04  0.34942824334E+04 0.  0.
        1    1    3    3  502    0  0.67477653572E+03  0.13550827377E+04 -0.11121394504E+04  0.18784106996E+04  0.50400001928E-02 0.  1.
       -1    1    3    3    0  502 -0.67477653572E+03 -0.13550827377E+04  0.64782136346E+03  0.16465858976E+04  0.50400001928E-02 0. -1.
</event>
<event>
 5   0  0.3026332E-07  0.3499428E+04  0.7818609E-02  0.8113926E-01
       -1   -1    0    0    0  501  0.00000000000E+00  0.00000000000E+00  0.30544557993E+04  0.30544557994E+04  0.50400001928E-02 0. -1.
        1   -1    0    0  501    0  0.00000000000E+00  0.00000000000E+00 -0.10023056609E+04  0.10023056609E+04  0.50400001928E-02 0.  1.
    10030    2    1    2    0    0  0.00000000000E+00  0.00000000000E+00  0.20521501385E+04  0.40567614602E+04  0.34994275753E+04 0.  0.
        1    1    3    3  502    0 -0.17050884181E+04 -0.92978035699E+02  0.14683110924E+04  0.22520898944E+04  0.50400001928E-02 0.  1.
       -1    1    3    3    0  502  0.17050884181E+04  0.92978035699E+02  0.58383904609E+03  0.18046715658E+04  0.50400001928E-02 0. -1.
</event>
<event>
 5   0  0.8950809E-07  0.3475276E+04  0.7818609E-02  0.8119674E-01
        2   -1    0    0  501    0  0.00000000000E+00  0.00000000000E+00  0.20199482723E+04  0.20199482723E+04  0.25500000920E-02 0. -1.
       -2   -1    0    0    0  501  0.00000000000E+00  0.00000000000E+00 -0.14947833832E+04  0.14947833832E+04  0.25500000920E-02 0.  1.
    10030    2    1    2    0    0  0.00000000000E+00  0.00000000000E+00  0.52516488906E+03  0.35147316555E+04  0.34752755933E+04 0.  0.
        2    1    3    3  502    0  0.71410513952E+03  0.81013515513E+03 -0.11141663133E+04  0.15516545020E+04  0.25500000920E-02 0.  1.
       -2    1    3    3    0  502 -0.71410513952E+03 -0.81013515513E+03  0.16393312023E+04  0.19630771536E+04  0.25500000920E-02 0. -1.
</event>
<event>
 5   0  0.3061330E-07  0.3366758E+04  0.7818609E-02  0.8146113E-01
        1   -1    0    0  501    0  0.00000000000E+00  0.00000000000E+00  0.13788728270E+04  0.13788728270E+04  0.50400001928E-02 0.  1.
       -1   -1    0    0    0  501  0.00000000000E+00  0.00000000000E+00 -0.20551318498E+04  0.20551318498E+04  0.50400001928E-02 0. -1.
    10030    2    1    2    0    0  0.00000000000E+00  0.00000000000E+00 -0.67625902271E+03  0.34340046768E+04  0.33667583600E+04 0.  0.
        5    1    3    3  502    0  0.67658939321E+03 -0.15026228528E+04  0.12383538509E+02  0.16479757543E+04  0.46999998093E+01 0.  1.
       -5    1    3    3    0  502 -0.67658939321E+03  0.15026228528E+04 -0.68864256122E+03  0.17860289225E+04  0.46999998093E+01 0. -1.
</event>
<event>
 5   0  0.2933506E-07  0.3456057E+04  0.7818609E-02  0.8124283E-01
       -1   -1    0    0    0  501  0.00000000000E+00  0.00000000000E+00  0.13841447564E+04  0.13841447564E+04  0.50400001928E-02 0.  1.
        1   -1    0    0  501    0  0.00000000000E+00  0.00000000000E+00 -0.21573490130E+04  0.21573490130E+04  0.50400001928E-02 0. -1.
    10030    2    1    2    0    0  0.00000000000E+00  0.00000000000E+00 -0.77320425667E+03  0.35414937694E+04  0.34560574787E+04 0.  0.
        4    1    3    3  502    0 -0.10662880054E+04 -0.14172010328E+03  0.99924582620E+03  0.14681786445E+04  0.12699999809E+01 0.  1.
       -4    1    3    3    0  502  0.10662880054E+04  0.14172010328E+03 -0.17724500829E+04  0.20733151249E+04  0.12699999809E+01 0. -1.
</event>
<event>
 5   0  0.3026332E-07  0.3434516E+04  0.7818609E-02  0.8129487E-01
       -1   -1    0    0    0  501  0.00000000000E+00  0.00000000000E+00  0.25163702126E+04  0.25163702126E+04  0.50400001928E-02 0. -1.
        1   -1    0    0  501    0  0.00000000000E+00  0.00000000000E+00 -0.11719163326E+04  0.11719163326E+04  0.50400001928E-02 0.  1.
    10030    2    1    2    0    0  0.00000000000E+00  0.00000000000E+00  0.13444538800E+04  0.36882865452E+04  0.34345161819E+04 0.  0.
        1    1    3    3  502    0  0.35151283665E+03 -0.58133858138E+03 -0.10214754456E+04  0.12267550312E+04  0.50400001928E-02 0.  1.
       -1    1    3    3    0  502 -0.35151283665E+03  0.58133858138E+03  0.23659293256E+04  0.24615315140E+04  0.50400001928E-02 0. -1.
</event>
<event>
 5   0  0.3061330E-07  0.3905796E+04  0.7818609E-02  0.8023825E-01
        1   -1    0    0  501    0  0.00000000000E+00  0.00000000000E+00  0.19595682656E+04  0.19595682656E+04  0.50400001928E-02 0. -1.
       -1   -1    0    0    0  501  0.00000000000E+00  0.00000000000E+00 -0.19462504383E+04  0.19462504383E+04  0.50400001928E-02 0.  1.
    10030    2    1    2    0    0  0.00000000000E+00  0.00000000000E+00  0.13317827287E+02  0.39058187039E+04  0.39057959987E+04 0.  0.
        5    1    3    3  502    0 -0.85497141593E+03 -0.10749830456E+04 -0.13815940324E+04  0.19481757700E+04  0.46999998093E+01 0.  1.
       -5    1    3    3    0  502  0.85497141593E+03  0.10749830456E+04  0.13949118597E+04  0.19576429339E+04  0.46999998093E+01 0. -1.
</event>
<event>
 5   0  0.6188930E-07  0.3475945E+04  0.7818609E-02  0.8119514E-01
       -2   -1    0    0    0  501  0.00000000000E+00  0.00000000000E+00  0.19457434516E+04  0.19457434516E+04  0.25500000920E-02 0. -1.
        2   -1    0    0  501    0  0.00000000000E+00  0.00000000000E+00 -0.15523879591E+04  0.15523879591E+04  0.25500000920E-02 0.  1.
    10030    2    1    2    0    0  0.00000000000E+00  0.00000000000E+00  0.39335549250E+03  0.34981314107E+04  0.34759451697E+04 0.  0.
        3    1    3    3  502    0 -0.14275188516E+03 -0.16026384509E+04  0.85792607020E+03  0.18234213054E+04  0.10100000352E+00 0. -1.
       -3    1    3    3    0  502  0.14275188516E+03  0.16026384509E+04 -0.46457057770E+03  0.16747101053E+04  0.10100000352E+00 0.  1.
</event>
<event>
 5   0  0.9311672E-07  0.3543563E+04  0.7818609E-02  0.8103543E-01
       -2   -1    0    0    0  501  0.00000000000E+00  0.00000000000E+00  0.19913991886E+04  0.19913991886E+04  0.25500000920E-02 0.  1.
        2   -1    0    0  501    0  0.00000000000E+00  0.00000000000E+00 -0.15763835286E+04  0.15763835286E+04  0.25500000920E-02 0. -1.
    10030    2    1    2    0    0  0.00000000000E+00  0.00000000000E+00  0.41501566003E+03  0.35677827172E+04  0.35435625462E+04 0.  0.
        4    1    3    3  502    0 -0.97197908115E+03  0.55613325630E+03 -0.11748951961E+04  0.16230859089E+04  0.12699999809E+01 0. -1.
       -4    1    3    3    0  502  0.97197908115E+03 -0.55613325630E+03  0.15899108561E+04  0.19446968083E+04  0.12699999809E+01 0.  1.
</event>
<event>
 5   0  0.2933506E-07  0.3489340E+04  0.7818609E-02  0.8116321E-01
       -1   -1    0    0    0  501  0.00000000000E+00  0.00000000000E+00  0.14942458304E+04  0.14942458304E+04  0.50400001928E-02 0.  1.
        1   -1    0    0  501    0  0.00000000000E+00  0.00000000000E+00 -0.20370630441E+04  0.20370630441E+04  0.50400001928E-02 0. -1.
    10030    2    1    2    0    0  0.00000000000E+00  0.00000000000E+00 -0.54281721365E+03  0.35313088745E+04  0.34893397427E+04 0.  0.
        4    1    3    3  502    0  0.70174290763E+02 -0.57809978197E+03 -0.19358013652E+04  0.20214975458E+04  0.12699999809E+01 0. -1.
       -4    1    3    3    0  502 -0.70174290763E+02  0.57809978197E+03  0.13929841516E+04  0.15098113288E+04  0.12699999809E+01 0.  1.
</event>
<event>
 5   0  0.2972541E-07  0.3481430E+04  0.7818609E-02  0.8118205E-01
       -1   -1    0    0    0  501  0.00000000000E+00  0.00000000000E+00  0.14034961167E+04  0.14034961167E+04  0.50400001928E-02 0. -1.
        1   -1    0    0  501    0  0.00000000000E+00  0.00000000000E+00 -0.21589579564E+04  0.21589579564E+04  0.50400001928E-02 0.  1.
    10030    2    1    2    0    0  0.00000000000E+00  0.00000000000E+00 -0.75546183974E+03  0.35624540731E+04  0.34814302279E+04 0.  0.
        3    1    3    3  502    0 -0.42372156710E+03 -0.11930882440E+04 -0.16001417668E+04  0.20404541672E+04  0.10100000352E+00 0.  1.
       -3    1    3    3    0  502  0.42372156710E+03  0.11930882440E+04  0.84467992702E+03  0.15219999060E+04  0.10100000352E+00 0. -1.
</event>
<event>
 5   0  0.6188930E-07  0.3511792E+04  0.7818609E-02  0.8111001E-01
        2   -1    0    0  501    0  0.00000000000E+00  0.00000000000E+00  0.27831200863E+04  0.27831200863E+04  0.25500000920E-02 0. -1.
       -2   -1    0    0    0  501  0.00000000000E+00  0.00000000000E+00 -0.11078107888E+04  0.11078107888E+04  0.25500000920E-02 0.  1.
    10030    2    1    2    0    0  0.00000000000E+00  0.00000000000E+00  0.16753092976E+04  0.38909308751E+04  0.35117918265E+04 0.  0.
        3    1    3    3  502    0  0.10162984919E+04 -0.60359401872E+03 -0.60098236333E+03  0.13260347564E+04  0.10100000352E+00 0.  1.
       -3    1    3    3    0  502 -0.10162984919E+04  0.60359401872E+03  0.22762916609E+04  0.25648961187E+04  0.10100000352E+00 0. -1.
</event>
<event>
 5   0  0.2936607E-07  0.3468256E+04  0.7818609E-02  0.8121354E-01
        1   -1    0    0  501    0  0.00000000000E+00  0.00000000000E+00  0.16033322947E+04  0.16033322947E+04  0.50400001928E-02 0. -1.
       -1   -1    0    0    0  501  0.00000000000E+00  0.00000000000E+00 -0.18755938427E+04  0.18755938427E+04  0.50400001928E-02 0.  1.
    10030    2    1    2    0    0  0.00000000000E+00  0.00000000000E+00 -0.27226154793E+03  0.34789261374E+04  0.34682561496E+04 0.  0.
        2    1    3    3  502    0  0.80554006339E+03 -0.26171786844E+03 -0.16539976576E+04  0.18582516750E+04  0.25500000920E-02 0.  1.
       -2    1    3    3    0  502 -0.80554006339E+03  0.26171786844E+03  0.13817361097E+04  0.16206744624E+04  0.25500000920E-02 0. -1.
</event>
<event>
 5   0  0.6188930E-07  0.3321594E+04  0.7818609E-02  0.8157422E-01
        2   -1    0    0  501    0  0.00000000000E+00  0.00000000000E+00  0.20729377856E+04  0.20729377856E+04  0.25500000920E-02 0. -1.
       -2   -1    0    0    0  501  0.00000000000E+00  0.00000000000E+00 -0.13305980704E+04  0.13305980704E+04  0.25500000920E-02 0.  1.
    10030    2    1    2    0    0  0.00000000000E+00  0.00000000000E+00  0.74233971523E+03  0.34035358560E+04  0.33215942062E+04 0.  0.
        3    1    3    3  502    0  0.26747402927E+03  0.68268443320E+03 -0.11557754513E+04  0.13687283498E+04  0.10100000352E+00 0.  1.
       -3    1    3    3    0  502 -0.26747402927E+03 -0.68268443320E+03  0.18981151665E+04  0.20348075062E+04  0.10100000352E+00 0. -1.
</event>
<event>
 5   0  0.3061330E-07  0.3496231E+04  0.7818609E-02  0.8114684E-01
        1   -1    0    0  501    0  0.00000000000E+00  0.00000000000E+00  0.20694335550E+04  0.20694335550E+04  0.50400001928E-02 0. -1.
       -1   -1    0    0    0  501  0.00000000000E+00  0.00000000000E+00 -0.14766882813E+04  0.14766882813E+04  0.50400001928E-02 0.  1.
    10030    2    1    2    0    0  0.00000000000E+00  0.00000000000E+00  0.59274527378E+03  0.35461218363E+04  0.34962312736E+04 0.  0.
        5    1    3    3  502    0  0.93589240186E+03 -0.13106943109E+04  0.98583146642E+03  0.18883061019E+04  0.46999998093E+01 0. -1.
       -5    1    3    3    0  502 -0.93589240186E+03  0.13106943109E+04 -0.39308619264E+03  0.16578157344E+04  0.46999998093E+01 0.  1.
</event>
<event>
 5   0  0.2936607E-07  0.3479286E+04  0.7818609E-02  0.8118717E-01
        1   -1    0    0  501    0  0.00000000000E+00  0.00000000000E+00  0.19488205575E+04  0.19488205575E+04  0.50400001928E-02 0. -1.
       -1   -1    0    0    0  501  0.00000000000E+00  0.00000000000E+00 -0.15529174884E+04  0.15529174884E+04  0.50400001928E-02 0.  1.
    10030    2    1    2    0    0  0.00000000000E+00  0.00000000000E+00  0.39590306906E+03  0.35017380459E+04  0.34792858609E+04 0.  0.
        2    1    3    3  502    0  0.27126903079E+03 -0.85222670800E+03 -0.13038168895E+04  0.15810805578E+04  0.25500000920E-02 0.  1.
       -2    1    3    3    0  502 -0.27126903079E+03  0.85222670800E+03  0.16997199586E+04  0.19206574881E+04  0.25500000920E-02 0. -1.
</event>
<event>
 5   0  0.6188930E-07  0.3496563E+04  0.7818609E-02  0.8114605E-01
        2   -1    0    0  501    0  0.00000000000E+00  0.00000000000E+00  0.84265278767E+03  0.84265278767E+03  0.25500000920E-02 0. -1.
       -2   -1    0    0    0  501  0.00000000000E+00  0.00000000000E+00 -0.36272207723E+04  0.36272207723E+04  0.25500000920E-02 0.  1.
    10030    2    1    2    0    0  0.00000000000E+00  0.00000000000E+00 -0.27845679846E+04  0.44698735599E+04  0.34965627094E+04 0.  0.
        3    1    3    3  502    0 -0.12960555778E+04  0.82193529497E+03 -0.24627167339E+04  0.29017772849E+04  0.10100000352E+00 0.  1.
       -3    1    3    3    0  502  0.12960555778E+04 -0.82193529497E+03 -0.32185125070E+03  0.15680962750E+04  0.10100000352E+00 0. -1.
</event>
<event>
 5   0  0.3026332E-07  0.3504053E+04  0.7818609E-02  0.8112830E-01
        1   -1    0    0  501    0  0.00000000000E+00  0.00000000000E+00  0.23102016486E+04  0.23102016486E+04  0.50400001928E-02 0.  1.
       -1   -1    0    0    0  501  0.00000000000E+00  0.00000000000E+00 -0.13287141027E+04  0.13287141027E+04  0.50400001928E-02 0. -1.
    10030    2    1    2    0    0  0.00000000000E+00  0.00000000000E+00  0.98148754589E+03  0.36389157514E+04  0.35040533733E+04 0.  0.
        1    1    3    3  502    0 -0.11686611278E+04  0.76042041853E+03  0.15925146745E+04  0.21166272778E+04  0.50400001928E-02 0.  1.
       -1    1    3    3    0  502  0.11686611278E+04 -0.76042041853E+03 -0.61102712865E+03  0.15222884735E+04  0.50400001928E-02 0. -1.
</event>
<event>
 5   0  0.3026332E-07  0.3451159E+04  0.7818609E-02  0.8125463E-01
        1   -1    0    0  501    0  0.00000000000E+00  0.00000000000E+00  0.15388124207E+04  0.15388124207E+04  0.50400001928E-02 0.  1.
       -1   -1    0    0    0  501  0.00000000000E+00  0.00000000000E+00 -0.19350150109E+04  0.19350150109E+04  0.50400001928E-02 0. -1.
    10030    2    1    2    0    0  0.00000000000E+00  0.00000000000E+00 -0.39620259023E+03  0.34738274315E+04  0.34511593026E+04 0.  0.
        1    1    3    3  502    0 -0.95956370587E+03 -0.14579187265E+03  0.12380170826E+04  0.15731192175E+04  0.50400001928E-02 0.  1.
       -1    1    3    3    0  502  0.95956370587E+03  0.14579187265E+03 -0.16342196728E+04  0.19007082140E+04  0.50400001928E-02 0. -1.
</event>
<event>
 5   0  0.6188930E-07  0.3518127E+04  0.7818609E-02  0.8109507E-01
        2   -1    0    0  501    0  0.00000000000E+00  0.00000000000E+00  0.25859714939E+04  0.25859714939E+04  0.25500000920E-02 0.  1.
       -2   -1    0    0    0  501  0.00000000000E+00  0.00000000000E+00 -0.11965732483E+04  0.11965732483E+04  0.25500000920E-02 0. -1.
    10030    2    1    2    0    0  0.00000000000E+00  0.00000000000E+00  0.13893982456E+04  0.37825447422E+04  0.35181269507E+04 0.  0.
        3    1    3    3  502    0 -0.52130497359E+03 -0.49984921916E+03  0.24192134947E+04  0.25247182141E+04  0.10100000352E+00 0.  1.
       -3    1    3    3    0  502  0.52130497359E+03  0.49984921916E+03 -0.10298152491E+04  0.12578265281E+04  0.10100000352E+00 0. -1.
</event>
<event>
 5   0  0.2936607E-07  0.3504628E+04  0.7818609E-02  0.8112694E-01
        1   -1    0    0  501    0  0.00000000000E+00  0.00000000000E+00  0.23550510552E+04  0.23550510552E+04  0.50400001928E-02 0. -1.
       -1   -1    0    0    0  501  0.00000000000E+00  0.00000000000E+00 -0.13038374203E+04  0.13038374203E+04  0.50400001928E-02 0.  1.
    10030    2    1    2    0    0  0.00000000000E+00  0.00000000000E+00  0.10512136350E+04  0.36588884755E+04  0.35046276222E+04 0.  0.
        2    1    3    3  502    0  0.43275517524E+03 -0.96648409640E+03 -0.93199670414E+03  0.14106687800E+04  0.25500000920E-02 0.  1.
       -2    1    3    3    0  502 -0.43275517524E+03  0.96648409640E+03  0.19832103391E+04  0.22482196955E+04  0.25500000920E-02 0. -1.
</event>
<event>
 5   0  0.2933506E-07  0.3513199E+04  0.7818609E-02  0.8110669E-01
        1   -1    0    0  501    0  0.00000000000E+00  0.00000000000E+00  0.16152213645E+04  0.16152213645E+04  0.50400001928E-02 0.  1.
       -1   -1    0    0    0  501  0.00000000000E+00  0.00000000000E+00 -0.19103517349E+04  0.19103517349E+04  0.50400001928E-02 0. -1.
    10030    2    1    2    0    0  0.00000000000E+00  0.00000000000E+00 -0.29513037047E+03  0.35255730994E+04  0.35131985062E+04 0.  0.
        4    1    3    3  502    0 -0.63806709690E+03  0.15126871065E+04 -0.77449555908E+03  0.18152677175E+04  0.12699999809E+01 0. -1.
       -4    1    3    3    0  502  0.63806709690E+03 -0.15126871065E+04  0.47936518861E+03  0.17103053819E+04  0.12699999809E+01 0.  1.
</event>
<event>
 5   0  0.6188930E-07  0.3523297E+04  0.7818609E-02  0.8108291E-01
       -2   -1    0    0    0  501  0.00000000000E+00  0.00000000000E+00  0.10985147902E+04  0.10985147902E+04  0.25500000920E-02 0. -1.
        2   -1    0    0  501    0  0.00000000000E+00  0.00000000000E+00 -0.28250914140E+04  0.28250914141E+04  0.25500000920E-02 0.  1.
    10030    2    1    2    0    0  0.00000000000E+00  0.00000000000E+00 -0.17265766239E+04  0.39236062042E+04  0.35232965824E+04 0.  0.
        3    1    3    3  502    0  0.13668423207E+04  0.90584049748E+03 -0.14623618101E+03  0.16462654607E+04  0.10100000352E+00 0. -1.
       -3    1    3    3    0  502 -0.13668423207E+04 -0.90584049748E+03 -0.15803404429E+04  0.22773407435E+04  0.10100000352E+00 0.  1.
</event>
<event>
 5   0  0.3061330E-07  0.3502283E+04  0.7818609E-02  0.8113249E-01
       -1   -1    0    0    0  501  0.00000000000E+00  0.00000000000E+00  0.18524637279E+04  0.18524637279E+04  0.50400001928E-02 0.  1.
        1   -1    0    0  501    0  0.00000000000E+00  0.00000000000E+00 -0.16553611708E+04  0.16553611708E+04  0.50400001928E-02 0. -1.
    10030    2    1    2    0    0  0.00000000000E+00  0.00000000000E+00  0.19710255715E+03  0.35078248987E+04  0.35022829843E+04 0.  0.
        5    1    3    3  502    0 -0.11406024900E+04  0.11328331346E+04 -0.59694616788E+03  0.17148328689E+04  0.46999998093E+01 0. -1.
       -5    1    3    3    0  502  0.11406024900E+04 -0.11328331346E+04  0.79404872503E+03  0.17929920298E+04  0.46999998093E+01 0.  1.
</event>
<event>
 5   0  0.6188930E-07  0.3507756E+04  0.7818609E-02  0.8111954E-01
        2   -1    0    0  501    0  0.00000000000E+00  0.00000000000E+00  0.29654080825E+04  0.29654080825E+04  0.25500000920E-02 0.  1.
       -2   -1    0    0    0  501  0.00000000000E+00  0.00000000000E+00 -0.10373234104E+04  0.10373234104E+04  0.25500000920E-02 0. -1.
    10030    2    1    2    0    0  0.00000000000E+00  0.00000000000E+00  0.19280846721E+04  0.40027314930E+04  0.35077555362E+04 0.  0.
        3    1    3    3  502    0 -0.69729320251E+03  0.84708538981E+03 -0.59736668602E+03  0.12492471476E+04  0.10100000352E+00 0. -1.
       -3    1    3    3    0  502  0.69729320251E+03 -0.84708538981E+03  0.25254513581E+04  0.27534843454E+04  0.10100000352E+00 0.  1.
</event>
<event>
 5   0  0.2936607E-07  0.3434054E+04  0.7818609E-02  0.8129599E-01
       -1   -1    0    0    0  501  0.00000000000E+00  0.00000000000E+00  0.14380253990E+04  0.14380253991E+04  0.50400001928E-02 0. -1.
        1   -1    0    0  501    0  0.00000000000E+00  0.00000000000E+00 -0.20501596385E+04  0.20501596385E+04  0.50400001928E-02 0.  1.
    10030    2    1    2    0    0  0.00000000000E+00  0.00000000000E+00 -0.61213423942E+03  0.34881850375E+04  0.34340539496E+04 0.  0.
        2    1    3    3  502    0 -0.10152047348E+04  0.11397463684E+04 -0.11049240218E+04  0.18842822326E+04  0.25500000920E-02 0.  1.
       -2    1    3    3    0  502  0.10152047348E+04 -0.11397463684E+04  0.49278978241E+03  0.16039028049E+04  0.25500000920E-02 0. -1.
</event>
<event>
 5   0  0.2936607E-07  0.3571635E+04  0.7818609E-02  0.8097020E-01
        1   -1    0    0  501    0  0.00000000000E+00  0.00000000000E+00  0.98053909707E+03  0.98053909709E+03  0.50400001928E-02 0. -1.
       -1   -1    0    0    0  501  0.00000000000E+00  0.00000000000E+00 -0.32524390083E+04  0.32524390083E+04  0.50400001928E-02 0.  1.
    10030    2    1    2    0    0  0.00000000000E+00  0.00000000000E+00 -0.22718999112E+04  0.42329781054E+04  0.35716347005E+04 0.  0.
        2    1    3    3  502    0 -0.92484825796E+03 -0.15116299146E+04 -0.13976926409E+04  0.22569700967E+04  0.25500000920E-02 0.  1.
       -2    1    3    3    0  502  0.92484825796E+03  0.15116299146E+04 -0.87420727037E+03  0.19760080087E+04  0.25500000920E-02 0. -1.
</event>
<event>
 5   0  0.2933506E-07  0.3563374E+04  0.7818609E-02  0.8098933E-01
       -1   -1    0    0    0  501  0.00000000000E+00  0.00000000000E+00  0.12394988319E+04  0.12394988319E+04  0.50400001928E-02 0.  1.
        1   -1    0    0  501    0  0.00000000000E+00  0.00000000000E+00 -0.25610421434E+04  0.25610421434E+04  0.50400001928E-02 0. -1.
    10030    2    1    2    0    0  0.00000000000E+00  0.00000000000E+00 -0.13215433115E+04  0.38005409754E+04  0.35633741007E+04 0.  0.
        4    1    3    3  502    0 -0.72962500541E+02 -0.17747853818E+04 -0.51290650672E+03  0.18488540709E+04  0.12699999809E+01 0.  1.
       -4    1    3    3    0  502  0.72962500541E+02  0.17747853818E+04 -0.80863680481E+03  0.19516869045E+04  0.12699999809E+01 0. -1.
</event>
<event>
 5   0  0.2936607E-07  0.3482777E+04  0.7818609E-02  0.8117884E-01
       -1   -1    0    0    0  501  0.00000000000E+00  0.00000000000E+00  0.21767261221E+04  0.21767261221E+04  0.50400001928E-02 0.  1.
        1   -1    0    0  501    0  0.00000000000E+00  0.00000000000E+00 -0.13931165875E+04  0.13931165875E+04  0.50400001928E-02 0. -1.
    10030    2    1    2    0    0  0.00000000000E+00  0.00000000000E+00  0.78360953458E+03  0.35698427096E+04  0.34827766321E+04 0.  0.
        2    1    3    3  502    0 -0.13445876014E+04 -0.10479563754E+04  0.27526273169E+02  0.17049592600E+04  0.25500000920E-02 0.  1.
       -2    1    3    3    0  502  0.13445876014E+04  0.10479563754E+04  0.75608326141E+03  0.18648834496E+04  0.25500000920E-02 0. -1.
</event>
<event>
 5   0  0.8950809E-07  0.3444786E+04  0.7818609E-02  0.8127001E-01
       -2   -1    0    0    0  501  0.00000000000E+00  0.00000000000E+00  0.14651935343E+04  0.14651935343E+04  0.25500000920E-02 0.  1.
        2   -1    0    0  501    0  0.00000000000E+00  0.00000000000E+00 -0.20247408338E+04  0.20247408338E+04  0.25500000920E-02 0. -1.
    10030    2    1    2    0    0  0.00000000000E+00  0.00000000000E+00 -0.55954729947E+03  0.34899343680E+04  0.34447857282E+04 0.  0.
        2    1    3    3  502    0  0.12887325643E+04  0.10618208803E+04  0.14806678922E+03  0.16763707759E+04  0.25500000920E-02 0.  1.
       -2    1    3    3    0  502 -0.12887325643E+04 -0.10618208803E+04 -0.70761408869E+03  0.18135635921E+04  0.25500000920E-02 0. -1.
</event>
<event>
 5   0  0.9128871E-07  0.3454874E+04  0.7818609E-02  0.8124568E-01
       -2   -1    0    0    0  501  0.00000000000E+00  0.00000000000E+00  0.14691784881E+04  0.14691784881E+04  0.25500000920E-02 0.  1.
        2   -1    0    0  501    0  0.00000000000E+00  0.00000000000E+00 -0.20310928739E+04  0.20310928739E+04  0.25500000920E-02 0. -1.
    10030    2    1    2    0    0  0.00000000000E+00  0.00000000000E+00 -0.56191438583E+03  0.35002713620E+04  0.34548736345E+04 0.  0.
        1    1    3    3  502    0 -0.11744228064E+04  0.14513169861E+03  0.99403288133E+03  0.15454557604E+04  0.50400001928E-02 0.  1.
       -1    1    3    3    0  502  0.11744228064E+04 -0.14513169861E+03 -0.15559472672E+04  0.19548156016E+04  0.50400001928E-02 0. -1.
</event>
<event>
 5   0  0.6188930E-07  0.3574308E+04  0.7818609E-02  0.8096402E-01
        2   -1    0    0  501    0  0.00000000000E+00  0.00000000000E+00  0.18361975782E+04  0.18361975782E+04  0.25500000920E-02 0.  1.
       -2   -1    0    0    0  501  0.00000000000E+00  0.00000000000E+00 -0.17394204715E+04  0.17394204715E+04  0.25500000920E-02 0. -1.
    10030    2    1    2    0    0  0.00000000000E+00  0.00000000000E+00  0.96777106750E+02  0.35756180497E+04  0.35743081329E+04 0.  0.
        3    1    3    3  502    0  0.69982547867E+03  0.70454996176E+02 -0.15951377819E+04  0.17433256037E+04  0.10100000352E+00 0. -1.
       -3    1    3    3    0  502 -0.69982547867E+03 -0.70454996176E+02  0.16919148886E+04  0.18322924460E+04  0.10100000352E+00 0.  1.
</event>
<event>
 5   0  0.9128871E-07  0.3450948E+04  0.7818609E-02  0.8125514E-01
        2   -1    0    0  501    0  0.00000000000E+00  0.00000000000E+00  0.27971540103E+04  0.27971540103E+04  0.25500000920E-02 0. -1.
       -2   -1    0    0    0  501  0.00000000000E+00  0.00000000000E+00 -0.10643892942E+04  0.10643892942E+04  0.25500000920E-02 0.  1.
    10030    2    1    2    0    0  0.00000000000E+00  0.00000000000E+00  0.17327647161E+04  0.38615433044E+04  0.34509481495E+04 0.  0.
        1    1    3    3  502    0 -0.40622788266E+03  0.13211524584E+04 -0.28936561022E+03  0.14121605317E+04  0.50400001928E-02 0.  1.
       -1    1    3    3    0  502  0.40622788266E+03 -0.13211524584E+04  0.20221303263E+04  0.24493827727E+04  0.50400001928E-02 0. -1.
</event>
<event>
 5   0  0.9311672E-07  0.3503736E+04  0.7818609E-02  0.8112905E-01
        2   -1    0    0  501    0  0.00000000000E+00  0.00000000000E+00  0.23873061946E+04  0.23873061946E+04  0.25500000920E-02 0.  1.
       -2   -1    0    0    0  501  0.00000000000E+00  0.00000000000E+00 -0.12855670552E+04  0.12855670552E+04  0.25500000920E-02 0. -1.
    10030    2    1    2    0    0  0.00000000000E+00  0.00000000000E+00  0.11017391394E+04  0.36728732498E+04  0.35037364025E+04 0.  0.
        4    1    3    3  502    0 -0.16081354471E+04 -0.62345381670E+03  0.87268486358E+03  0.19329704503E+04  0.12699999809E+01 0.  1.
       -4    1    3    3    0  502  0.16081354471E+04  0.62345381670E+03  0.22905427580E+03  0.17399027995E+04  0.12699999809E+01 0. -1.
</event>
<event>
 5   0  0.3026332E-07  0.3078282E+04  0.7818609E-02  0.8221724E-01
        1   -1    0    0  501    0  0.00000000000E+00  0.00000000000E+00  0.14594594323E+04  0.14594594323E+04  0.50400001928E-02 0.  1.
       -1   -1    0    0    0  501  0.00000000000E+00  0.00000000000E+00 -0.16231729147E+04  0.16231729147E+04  0.50400001928E-02 0. -1.
    10030    2    1    2    0    0  0.00000000000E+00  0.00000000000E+00 -0.16371348240E+03  0.30826323469E+04  0.30782820017E+04 0.  0.
        1    1    3    3  502    0  0.10431267678E+04 -0.99131953695E+03  0.46492510485E+03  0.15122774981E+04  0.50400001928E-02 0.  1.
       -1    1    3    3    0  502 -0.10431267678E+04  0.99131953695E+03 -0.62863858724E+03  0.15703548489E+04  0.50400001928E-02 0. -1.
</event>
<event>
 5   0  0.3026332E-07  0.3364067E+04  0.7818609E-02  0.8146782E-01
        1   -1    0    0  501    0  0.00000000000E+00  0.00000000000E+00  0.15327570910E+04  0.15327570910E+04  0.50400001928E-02 0. -1.
       -1   -1    0    0    0  501  0.00000000000E+00  0.00000000000E+00 -0.18458483155E+04  0.18458483155E+04  0.50400001928E-02 0.  1.
    10030    2    1    2    0    0  0.00000000000E+00  0.00000000000E+00 -0.31309122456E+03  0.33786054065E+04  0.33640672374E+04 0.  0.
        1    1    3    3  502    0 -0.91278323943E+03 -0.79987271452E+03  0.10130762613E+04  0.15809152769E+04  0.50400001928E-02 0. -1.
       -1    1    3    3    0  502  0.91278323943E+03  0.79987271452E+03 -0.13261674858E+04  0.17976901296E+04  0.50400001928E-02 0.  1.
</event>
<event>
 5   0  0.3061330E-07  0.3503456E+04  0.7818609E-02  0.8112971E-01
        1   -1    0    0  501    0  0.00000000000E+00  0.00000000000E+00  0.20152258779E+04  0.20152258780E+04  0.50400001928E-02 0. -1.
       -1   -1    0    0    0  501  0.00000000000E+00  0.00000000000E+00 -0.15226833578E+04  0.15226833578E+04  0.50400001928E-02 0.  1.
    10030    2    1    2    0    0  0.00000000000E+00  0.00000000000E+00  0.49254252020E+03  0.35379092357E+04  0.35034559546E+04 0.  0.
        5    1    3    3  502    0  0.79051841133E+03 -0.12627695144E+04  0.11767568535E+04  0.18984954536E+04  0.46999998093E+01 0. -1.
       -5    1    3    3    0  502 -0.79051841133E+03  0.12627695144E+04 -0.68421433327E+03  0.16394137821E+04  0.46999998093E+01 0.  1.
</event>
<event>
 5   0  0.2933506E-07  0.3491498E+04  0.7818609E-02  0.8115808E-01
       -1   -1    0    0    0  501  0.00000000000E+00  0.00000000000E+00  0.14789157082E+04  0.14789157082E+04  0.50400001928E-02 0.  1.
        1   -1    0    0  501    0  0.00000000000E+00  0.00000000000E+00 -0.20607262169E+04  0.20607262169E+04  0.50400001928E-02 0. -1.
    10030    2    1    2    0    0  0.00000000000E+00  0.00000000000E+00 -0.58181050872E+03  0.35396419251E+04  0.34914984591E+04 0.  0.
        4    1    3    3  502    0 -0.20181846367E+03 -0.14040321683E+04 -0.13225825214E+04  0.19393976283E+04  0.12699999809E+01 0. -1.
       -4    1    3    3    0  502  0.20181846367E+03  0.14040321683E+04  0.74077201271E+03  0.16002442968E+04  0.12699999809E+01 0.  1.
</event>
<event>
 5   0  0.2933506E-07  0.3387406E+04  0.7818609E-02  0.8141004E-01
       -1   -1    0    0    0  501  0.00000000000E+00  0.00000000000E+00  0.13603856747E+04  0.13603856747E+04  0.50400001928E-02 0. -1.
        1   -1    0    0  501    0  0.00000000000E+00  0.00000000000E+00 -0.21086882131E+04  0.21086882131E+04  0.50400001928E-02 0.  1.
    10030    2    1    2    0    0  0.00000000000E+00  0.00000000000E+00 -0.74830253838E+03  0.34690738879E+04  0.33874056371E+04 0.  0.
        4    1    3    3  502    0 -0.10162373807E+03  0.15980655005E+04  0.19095568004E+03  0.16126395793E+04  0.12699999809E+01 0. -1.
       -4    1    3    3    0  502  0.10162373807E+03 -0.15980655005E+04 -0.93925821842E+03  0.18564343085E+04  0.12699999809E+01 0.  1.
</event>
<event>
 5   0  0.3026332E-07  0.3488630E+04  0.7818609E-02  0.8116490E-01
        1   -1    0    0  501    0  0.00000000000E+00  0.00000000000E+00  0.23197576123E+04  0.23197576123E+04  0.50400001928E-02 0. -1.
       -1   -1    0    0    0  501  0.00000000000E+00  0.00000000000E+00 -0.13116175884E+04  0.13116175884E+04  0.50400001928E-02 0.  1.
    10030    2    1    2    0    0  0.00000000000E+00  0.00000000000E+00  0.10081400238E+04  0.36313752007E+04  0.34886300378E+04 0.  0.
        1    1    3    3  502    0  0.13798772489E+04  0.46376044731E+03  0.15043800718E+04  0.20933930292E+04  0.50400001928E-02 0. -1.
       -1    1    3    3    0  502 -0.13798772489E+04 -0.46376044731E+03 -0.49624004795E+03  0.15379821715E+04  0.50400001928E-02 0.  1.
</event>
<event>
 5   0  0.9311672E-07  0.3500521E+04  0.7818609E-02  0.8113667E-01
        2   -1    0    0  501    0  0.00000000000E+00  0.00000000000E+00  0.18429729650E+04  0.18429729650E+04  0.25500000920E-02 0.  1.
       -2   -1    0    0    0  501  0.00000000000E+00  0.00000000000E+00 -0.16622118325E+04  0.16622118325E+04  0.25500000920E-02 0. -1.
    10030    2    1    2    0    0  0.00000000000E+00  0.00000000000E+00  0.18076113250E+03  0.35051847974E+04  0.35005208008E+04 0.  0.
        4    1    3    3  502    0 -0.76577438007E+03  0.15679923296E+04 -0.45444955077E+02  0.17455879249E+04  0.12699999809E+01 0.  1.
       -4    1    3    3    0  502  0.76577438007E+03 -0.15679923296E+04  0.22620608758E+03  0.17595968725E+04  0.12699999809E+01 0. -1.
</event>
<event>
 5   0  0.2936607E-07  0.3490140E+04  0.7818609E-02  0.8116131E-01
       -1   -1    0    0    0  501  0.00000000000E+00  0.00000000000E+00  0.16625678039E+04  0.16625678039E+04  0.50400001928E-02 0.  1.
        1   -1    0    0  501    0  0.00000000000E+00  0.00000000000E+00 -0.18316660592E+04  0.18316660592E+04  0.50400001928E-02 0. -1.
    10030    2    1    2    0    0  0.00000000000E+00  0.00000000000E+00 -0.16909825533E+03  0.34942338631E+04  0.34901398353E+04 0.  0.
        2    1    3    3  502    0  0.80169938406E+02  0.96542071826E+03 -0.15377353549E+04  0.18174417196E+04  0.25500000920E-02 0. -1.
       -2    1    3    3    0  502 -0.80169938406E+02 -0.96542071826E+03  0.13686370996E+04  0.16767921435E+04  0.25500000920E-02 0.  1.
</event>
<event>
 5   0  0.2972541E-07  0.3457032E+04  0.7818609E-02  0.8124049E-01
       -1   -1    0    0    0  501  0.00000000000E+00  0.00000000000E+00  0.16509619050E+04  0.16509619050E+04  0.50400001928E-02 0.  1.
        1   -1    0    0  501    0  0.00000000000E+00  0.00000000000E+00 -0.18097133144E+04  0.18097133144E+04  0.50400001928E-02 0. -1.
    10030    2    1    2    0    0  0.00000000000E+00  0.00000000000E+00 -0.15875140944E+03  0.34606752194E+04  0.34570321034E+04 0.  0.
        3    1    3    3  502    0  0.99376398905E+03 -0.84946979757E+03  0.10525687285E+04  0.16784119701E+04  0.10100000352E+00 0.  1.
       -3    1    3    3    0  502 -0.99376398905E+03  0.84946979757E+03 -0.12113201380E+04  0.17822632493E+04  0.10100000352E+00 0. -1.
</event>
<event>
 5   0  0.6188930E-07  0.3510762E+04  0.7818609E-02  0.8111244E-01
        2   -1    0    0  501    0  0.00000000000E+00  0.00000000000E+00  0.17629073129E+04  0.17629073129E+04  0.25500000920E-02 0.  1.
       -2   -1    0    0    0  501  0.00000000000E+00  0.00000000000E+00 -0.17478867476E+04  0.17478867476E+04  0.25500000920E-02 0. -1.
    10030    2    1    2    0    0  0.00000000000E+00  0.00000000000E+00  0.15020565221E+02  0.35107940605E+04  0.35107619284E+04 0.  0.
        3    1    3    3  502    0 -0.14453788989E+04  0.73814586208E+03  0.67638324037E+03  0.17582587332E+04  0.10100000352E+00 0.  1.
       -3    1    3    3    0  502  0.14453788989E+04 -0.73814586208E+03 -0.66136267515E+03  0.17525353273E+04  0.10100000352E+00 0. -1.
</event>
<event>
 5   0  0.2936607E-07  0.3491327E+04  0.7818609E-02  0.8115848E-01
        1   -1    0    0  501    0  0.00000000000E+00  0.00000000000E+00  0.12590111536E+04  0.12590111536E+04  0.50400001928E-02 0.  1.
       -1   -1    0    0    0  501  0.00000000000E+00  0.00000000000E+00 -0.24204237890E+04  0.24204237890E+04  0.50400001928E-02 0. -1.
    10030    2    1    2    0    0  0.00000000000E+00  0.00000000000E+00 -0.11614126354E+04  0.36794349426E+04  0.34913267088E+04 0.  0.
        2    1    3    3  502    0 -0.48688842611E+03  0.10813217049E+04  0.76933807098E+03  0.14135763285E+04  0.25500000920E-02 0.  1.
       -2    1    3    3    0  502  0.48688842611E+03 -0.10813217049E+04 -0.19307507064E+04  0.22658586141E+04  0.25500000920E-02 0. -1.
</event>
<event>
 5   0  0.2972541E-07  0.3525724E+04  0.7818609E-02  0.8107721E-01
       -1   -1    0    0    0  501  0.00000000000E+00  0.00000000000E+00  0.11182964935E+04  0.11182964935E+04  0.50400001928E-02 0.  1.
        1   -1    0    0  501    0  0.00000000000E+00  0.00000000000E+00 -0.27789424189E+04  0.27789424189E+04  0.50400001928E-02 0. -1.
    10030    2    1    2    0    0  0.00000000000E+00  0.00000000000E+00 -0.16606459254E+04  0.38972389124E+04  0.35257235074E+04 0.  0.
        3    1    3    3  502    0 -0.12188055238E+04  0.12685704256E+04 -0.95598456599E+03  0.20021649109E+04  0.10100000352E+00 0. -1.
       -3    1    3    3    0  502  0.12188055238E+04 -0.12685704256E+04 -0.70466135943E+03  0.18950740016E+04  0.10100000352E+00 0.  1.
</event>
<event>
 5   0  0.3061330E-07  0.3504514E+04  0.7818609E-02  0.8112721E-01
        1   -1    0    0  501    0  0.00000000000E+00  0.00000000000E+00  0.20120096326E+04  0.20120096326E+04  0.50400001928E-02 0.  1.
       -1   -1    0    0    0  501  0.00000000000E+00  0.00000000000E+00 -0.15260388549E+04  0.15260388549E+04  0.50400001928E-02 0. -1.
    10030    2    1    2    0    0  0.00000000000E+00  0.00000000000E+00  0.48597077767E+03  0.35380484876E+04  0.35045141608E+04 0.  0.
        5    1    3    3  502    0 -0.44760275825E+03  0.12265847496E+04  0.14227237326E+04  0.19310679134E+04  0.46999998093E+01 0.  1.
       -5    1    3    3    0  502  0.44760275825E+03 -0.12265847496E+04 -0.93675295491E+03  0.16069805741E+04  0.46999998093E+01 0. -1.
</event>
<event>
 5   0  0.8950809E-07  0.3329362E+04  0.7818609E-02  0.8155464E-01
        2   -1    0    0  501    0  0.00000000000E+00  0.00000000000E+00  0.25559889589E+04  0.25559889589E+04  0.25500000920E-02 0. -1.
       -2   -1    0    0    0  501  0.00000000000E+00  0.00000000000E+00 -0.10841844705E+04  0.10841844705E+04  0.25500000920E-02 0.  1.
    10030    2    1    2    0    0  0.00000000000E+00  0.00000000000E+00  0.14718044884E+04  0.36401734294E+04  0.33293624231E+04 0.  0.
        2    1    3    3  502    0  0.12225427667E+04 -0.89664604024E+03 -0.15717234610E+02  0.15161899516E+04  0.25500000920E-02 0.  1.
       -2    1    3    3    0  502 -0.12225427667E+04  0.89664604024E+03  0.14875217230E+04  0.21239834778E+04  0.25500000920E-02 0. -1.
</event>
<event>
 5   0  0.8950809E-07  0.3367420E+04  0.7818609E-02  0.8145949E-01
        2   -1    0    0  501    0  0.00000000000E+00  0.00000000000E+00  0.12243753668E+04  0.12243753668E+04  0.25500000920E-02 0.  1.
       -2   -1    0    0    0  501  0.00000000000E+00  0.00000000000E+00 -0.23153674434E+04  0.23153674434E+04  0.25500000920E-02 0. -1.
    10030    2    1    2    0    0  0.00000000000E+00  0.00000000000E+00 -0.10909920766E+04  0.35397428102E+04  0.33674197023E+04 0.  0.
        2    1    3    3  502    0 -0.19781865394E+03 -0.12371149204E+04 -0.17279114094E+04  0.21343063006E+04  0.25500000920E-02 0. -1.
       -2    1    3    3    0  502  0.19781865394E+03  0.12371149204E+04  0.63691933287E+03  0.14054365096E+04  0.25500000920E-02 0.  1.
</event>
<event>
 5   0  0.6188930E-07  0.3049979E+04  0.7818609E-02  0.8229601E-01
       -2   -1    0    0    0  501  0.00000000000E+00  0.00000000000E+00  0.15428285385E+04  0.15428285385E+04  0.25500000920E-02 0. -1.
        2   -1    0    0  501    0  0.00000000000E+00  0.00000000000E+00 -0.15073565373E+04  0.15073565373E+04  0.25500000920E-02 0.  1.
    10030    2    1    2    0    0  0.00000000000E+00  0.00000000000E+00  0.35472001222E+02  0.30501850757E+04  0.30499788087E+04 0.  0.
        3    1    3    3  502    0 -0.51114709872E+02  0.12222473187E+04 -0.89287016927E+03  0.15145026811E+04  0.10100000352E+00 0.  1.
       -3    1    3    3    0  502  0.51114709872E+02 -0.12222473187E+04  0.92834217049E+03  0.15356823947E+04  0.10100000352E+00 0. -1.
</event>
<event>
 5   0  0.9311672E-07  0.3508523E+04  0.7818609E-02  0.8111773E-01
       -2   -1    0    0    0  501  0.00000000000E+00  0.00000000000E+00  0.21246299751E+04  0.21246299751E+04  0.25500000920E-02 0.  1.
        2   -1    0    0  501    0  0.00000000000E+00  0.00000000000E+00 -0.14484563746E+04  0.14484563746E+04  0.25500000920E-02 0. -1.
    10030    2    1    2    0    0  0.00000000000E+00  0.00000000000E+00  0.67617360048E+03  0.35730863497E+04  0.35085232398E+04 0.  0.
        4    1    3    3  502    0 -0.66130659575E+01  0.14745327409E+04  0.13059123821E+04  0.19696952300E+04  0.12699999809E+01 0.  1.
       -4    1    3    3    0  502  0.66130659575E+01 -0.14745327409E+04 -0.62973878159E+03  0.16033911197E+04  0.12699999809E+01 0. -1.
</event>
<event>
 5   0  0.3026332E-07  0.3512926E+04  0.7818609E-02  0.8110733E-01
        1   -1    0    0  501    0  0.00000000000E+00  0.00000000000E+00  0.22273341435E+04  0.22273341435E+04  0.50400001928E-02 0.  1.
       -1   -1    0    0    0  501  0.00000000000E+00  0.00000000000E+00 -0.13851369884E+04  0.13851369884E+04  0.50400001928E-02 0. -1.
    10030    2    1    2    0    0  0.00000000000E+00  0.00000000000E+00  0.84219715504E+03  0.36124711319E+04  0.35129263629E+04 0.  0.
        1    1    3    3  502    0  0.10510115269E+04  0.14053047843E+04  0.49843702775E+03  0.18242659447E+04  0.50400001928E-02 0.  1.
       -1    1    3    3    0  502 -0.10510115269E+04 -0.14053047843E+04  0.34376012729E+03  0.17882051872E+04  0.50400001928E-02 0. -1.
</event>
<event>
 5   0  0.9311672E-07  0.3505174E+04  0.7818609E-02  0.8112565E-01
       -2   -1    0    0    0  501  0.00000000000E+00  0.00000000000E+00  0.15296481440E+04  0.15296481440E+04  0.25500000920E-02 0.  1.
        2   -1    0    0  501    0  0.00000000000E+00  0.00000000000E+00 -0.20080183465E+04  0.20080183465E+04  0.25500000920E-02 0. -1.
    10030    2    1    2    0    0  0.00000000000E+00  0.00000000000E+00 -0.47837020249E+03  0.35376664905E+04  0.35051741965E+04 0.  0.
        4    1    3    3  502    0 -0.16537576577E+04  0.12154771544E+03  0.33341137315E+03  0.16914056268E+04  0.12699999809E+01 0.  1.
       -4    1    3    3    0  502  0.16537576577E+04 -0.12154771544E+03 -0.81178157564E+03  0.18462608638E+04  0.12699999809E+01 0. -1.
</event>
<event>
 5   0  0.2936607E-07  0.3481840E+04  0.7818609E-02  0.8118107E-01
       -1   -1    0    0    0  501  0.00000000000E+00  0.00000000000E+00  0.26489189476E+04  0.26489189476E+04  0.50400001928E-02 0.  1.
        1   -1    0    0  501    0  0.00000000000E+00  0.00000000000E+00 -0.11441658895E+04  0.11441658895E+04  0.50400001928E-02 0. -1.
    10030    2    1    2    0    0  0.00000000000E+00  0.00000000000E+00  0.15047530581E+04  0.37930848371E+04  0.34818401479E+04 0.  0.
        2    1    3    3  502    0  0.14042106661E+04 -0.14013858028E+03 -0.35824465108E+03  0.14559483667E+04  0.25500000920E-02 0. -1.
       -2    1    3    3    0  502 -0.14042106661E+04  0.14013858028E+03  0.18629977092E+04  0.23371364704E+04  0.25500000920E-02 0.  1.
</event>
<event>
 5   0  0.9128871E-07  0.3551071E+04  0.7818609E-02  0.8101792E-01
       -2   -1    0    0    0  501  0.00000000000E+00  0.00000000000E+00  0.16948115947E+04  0.16948115947E+04  0.25500000920E-02 0.  1.
        2   -1    0    0  501    0  0.00000000000E+00  0.00000000000E+00 -0.18601043957E+04  0.18601043957E+04  0.25500000920E-02 0. -1.
    10030    2    1    2    0    0  0.00000000000E+00  0.00000000000E+00 -0.16529280097E+03  0.35549159904E+04  0.35510711044E+04 0.  0.
        1    1    3    3  502    0 -0.31046705866E+03 -0.16020155789E+04 -0.78317745609E+03  0.18100305625E+04  0.50400001928E-02 0. -1.
       -1    1    3    3    0  502  0.31046705866E+03  0.16020155789E+04  0.61788465513E+03  0.17448854279E+04  0.50400001928E-02 0.  1.
</event>
<event>
 5   0  0.2972541E-07  0.3449316E+04  0.7818609E-02  0.8125907E-01
       -1   -1    0    0    0  501  0.00000000000E+00  0.00000000000E+00  0.12769249808E+04  0.12769249808E+04  0.50400001928E-02 0. -1.
        1   -1    0    0  501    0  0.00000000000E+00  0.00000000000E+00 -0.23293817904E+04  0.23293817904E+04  0.50400001928E-02 0.  1.
    10030    2    1    2    0    0  0.00000000000E+00  0.00000000000E+00 -0.10524568097E+04  0.36063067712E+04  0.34493163369E+04 0.  0.
        3    1    3    3  502    0  0.15791477275E+04  0.46920504016E+03  0.74802462645E+01  0.16473970011E+04  0.10100000352E+00 0. -1.
       -3    1    3    3    0  502 -0.15791477275E+04 -0.46920504016E+03 -0.10599370559E+04  0.19589097701E+04  0.10100000352E+00 0.  1.
</event>
<event>
 5   0  0.6188930E-07  0.3456856E+04  0.7818609E-02  0.8124091E-01
       -2   -1    0    0    0  501  0.00000000000E+00  0.00000000000E+00  0.30872369804E+04  0.30872369804E+04  0.25500000920E-02 0.  1.
        2   -1    0    0  501    0  0.00000000000E+00  0.00000000000E+00 -0.96768217800E+03  0.96768217800E+03  0.25500000920E-02 0. -1.
    10030    2    1    2    0    0  0.00000000000E+00  0.00000000000E+00  0.21195548024E+04  0.40549191584E+04  0.34568564941E+04 0.  0.
        3    1    3    3  502    0  0.10683907902E+04  0.68051330694E+02  0.26515165274E+04  0.28594806818E+04  0.10100000352E+00 0.  1.
       -3    1    3    3    0  502 -0.10683907902E+04 -0.68051330694E+02 -0.53196172502E+03  0.11954384766E+04  0.10100000352E+00 0. -1.
</event>
<event>
 5   0  0.3061330E-07  0.3504511E+04  0.7818609E-02  0.8112722E-01
       -1   -1    0    0    0  501  0.00000000000E+00  0.00000000000E+00  0.11932333194E+04  0.11932333195E+04  0.50400001928E-02 0.  1.
        1   -1    0    0  501    0  0.00000000000E+00  0.00000000000E+00 -0.25731753225E+04  0.25731753225E+04  0.50400001928E-02 0. -1.
    10030    2    1    2    0    0  0.00000000000E+00  0.00000000000E+00 -0.13799420031E+04  0.37664086420E+04  0.35045105402E+04 0.  0.
        5    1    3    3  502    0 -0.45398748616E+03  0.16611985759E+04 -0.10377112332E+04  0.20106098676E+04  0.46999998093E+01 0. -1.
       -5    1    3    3    0  502  0.45398748616E+03 -0.16611985759E+04 -0.34223076985E+03  0.17557987744E+04  0.46999998093E+01 0.  1.
</event>
<event>
 5   0  0.9128871E-07  0.3485159E+04  0.7818609E-02  0.8117316E-01
       -2   -1    0    0    0  501  0.00000000000E+00  0.00000000000E+00  0.18060084805E+04  0.18060084805E+04  0.25500000920E-02 0. -1.
        2   -1    0    0  501    0  0.00000000000E+00  0.00000000000E+00 -0.16813778562E+04  0.16813778562E+04  0.25500000920E-02 0.  1.
    10030    2    1    2    0    0  0.00000000000E+00  0.00000000000E+00  0.12463062435E+03  0.34873863367E+04  0.34851586289E+04 0.  0.
        1    1    3    3  502    0  0.74740785483E+03  0.76203026883E+03 -0.13159808386E+04  0.16944362483E+04  0.50400001928E-02 0.  1.
       -1    1    3    3    0  502 -0.74740785483E+03 -0.76203026883E+03  0.14406114630E+04  0.17929500883E+04  0.50400001928E-02 0. -1.
</event>
<event>
 5   0  0.6188930E-07  0.3483370E+04  0.7818609E-02  0.8117742E-01
       -2   -1    0    0    0  501  0.00000000000E+00  0.00000000000E+00  0.10424970061E+04  0.10424970061E+04  0.25500000920E-02 0.  1.
        2   -1    0    0  501    0  0.00000000000E+00  0.00000000000E+00 -0.29098079268E+04  0.29098079268E+04  0.25500000920E-02 0. -1.
    10030    2    1    2    0    0  0.00000000000E+00  0.00000000000E+00 -0.18673109207E+04  0.39523049328E+04  0.34833696628E+04 0.  0.
        3    1    3    3  502    0 -0.17875984491E+03  0.12832632666E+04 -0.22542815530E+04  0.26000971182E+04  0.10100000352E+00 0. -1.
       -3    1    3    3    0  502  0.17875984491E+03 -0.12832632666E+04  0.38697063235E+03  0.13522078146E+04  0.10100000352E+00 0.  1.
</event>
<event>
 5   0  0.3061330E-07  0.3513677E+04  0.7818609E-02  0.8110556E-01
        1   -1    0    0  501    0  0.00000000000E+00  0.00000000000E+00  0.19539451548E+04  0.19539451548E+04  0.50400001928E-02 0. -1.
       -1   -1    0    0    0  501  0.00000000000E+00  0.00000000000E+00 -0.15796151239E+04  0.15796151239E+04  0.50400001928E-02 0.  1.
    10030    2    1    2    0    0  0.00000000000E+00  0.00000000000E+00  0.37433003087E+03  0.35335602787E+04  0.35136768877E+04 0.  0.
        5    1    3    3  502    0  0.14404409390E+04  0.97872396469E+03 -0.45854040732E+02  0.17420951125E+04  0.46999998093E+01 0.  1.
       -5    1    3    3    0  502 -0.14404409390E+04 -0.97872396469E+03  0.42018407160E+03  0.17914651663E+04  0.46999998093E+01 0. -1.
</event>
<event>
 5   0  0.2933506E-07  0.3517016E+04  0.7818609E-02  0.8109769E-01
        1   -1    0    0  501    0  0.00000000000E+00  0.00000000000E+00  0.16617350743E+04  0.16617350743E+04  0.50400001928E-02 0.  1.
       -1   -1    0    0    0  501  0.00000000000E+00  0.00000000000E+00 -0.18609162624E+04  0.18609162624E+04  0.50400001928E-02 0. -1.
    10030    2    1    2    0    0  0.00000000000E+00  0.00000000000E+00 -0.19918118816E+03  0.35226513367E+04  0.35170156802E+04 0.  0.
        4    1    3    3  502    0  0.10580775890E+04 -0.87081646092E+03 -0.12033994794E+04  0.18237383071E+04  0.12699999809E+01 0. -1.
       -4    1    3    3    0  502 -0.10580775890E+04  0.87081646092E+03  0.10042182912E+04  0.16989130296E+04  0.12699999809E+01 0.  1.
</event>
<event>
 5   0  0.2936607E-07  0.3491380E+04  0.7818609E-02  0.8115836E-01
        1   -1    0    0  501    0  0.00000000000E+00  0.00000000000E+00  0.15435544815E+04  0.15435544815E+04  0.50400001928E-02 0.  1.
       -1   -1    0    0    0  501  0.00000000000E+00  0.00000000000E+00 -0.19742956534E+04  0.19742956534E+04  0.50400001928E-02 0. -1.
    10030    2    1    2    0    0  0.00000000000E+00  0.00000000000E+00 -0.43074117191E+03  0.35178501349E+04  0.34913796148E+04 0.  0.
        2    1    3    3  502    0  0.95035789144E+02 -0.20921115270E+03  0.15282499599E+04  0.15454284350E+04  0.25500000920E-02 0.  1.
       -2    1    3    3    0  502 -0.95035789144E+02  0.20921115270E+03 -0.19589911319E+04  0.19724216999E+04  0.25500000920E-02 0. -1.
</event>
<event>
 5   0  0.9311672E-07  0.3534903E+04  0.7818609E-02  0.8105568E-01
       -2   -1    0    0    0  501  0.00000000000E+00  0.00000000000E+00  0.11619396679E+04  0.11619396679E+04  0.25500000920E-02 0.  1.
        2   -1    0    0  501    0  0.00000000000E+00  0.00000000000E+00 -0.26885082331E+04  0.26885082331E+04  0.25500000920E-02 0. -1.
    10030    2    1    2    0    0  0.00000000000E+00  0.00000000000E+00 -0.15265685652E+04  0.38504479010E+04  0.35349027503E+04 0.  0.
        4    1    3    3  502    0 -0.10212295328E+04 -0.81866383529E+03  0.53049662301E+03  0.14122848558E+04  0.12699999809E+01 0.  1.
       -4    1    3    3    0  502  0.10212295328E+04  0.81866383529E+03 -0.20570651882E+04  0.24381630452E+04  0.12699999809E+01 0. -1.
</event>
<event>
 5   0  0.9128871E-07  0.3517172E+04  0.7818609E-02  0.8109732E-01
        2   -1    0    0  501    0  0.00000000000E+00  0.00000000000E+00  0.24021710892E+04  0.24021710892E+04  0.25500000920E-02 0.  1.
       -2   -1    0    0    0  501  0.00000000000E+00  0.00000000000E+00 -0.12874289951E+04  0.12874289951E+04  0.25500000920E-02 0. -1.
    10030    2    1    2    0    0  0.00000000000E+00  0.00000000000E+00  0.11147420940E+04  0.36896000843E+04  0.35171719955E+04 0.  0.
        1    1    3    3  502    0 -0.12238649140E+04 -0.11718096269E+04  0.10512395277E+04  0.19940129573E+04  0.50400001928E-02 0.  1.
       -1    1    3    3    0  502  0.12238649140E+04  0.11718096269E+04  0.63502566294E+02  0.16955871270E+04  0.50400001928E-02 0. -1.
</event>
<event>
 5   0  0.2933506E-07  0.3471304E+04  0.7818609E-02  0.8120624E-01
        1   -1    0    0  501    0  0.00000000000E+00  0.00000000000E+00  0.25946818271E+04  0.25946818271E+04  0.50400001928E-02 0.  1.
       -1   -1    0    0    0  501  0.00000000000E+00  0.00000000000E+00 -0.11610239698E+04  0.11610239698E+04  0.50400001928E-02 0. -1.
    10030    2    1    2    0    0  0.00000000000E+00  0.00000000000E+00  0.14336578573E+04  0.37557057968E+04  0.34713039597E+04 0.  0.
        4    1    3    3  502    0 -0.16823340502E+04  0.18983797683E+03  0.30314141640E+03  0.17199368143E+04  0.12699999809E+01 0. -1.
       -4    1    3    3    0  502  0.16823340502E+04 -0.18983797683E+03  0.11305164409E+04  0.20357689825E+04  0.12699999809E+01 0.  1.
</event>
<event>
 5   0  0.6188930E-07  0.3535305E+04  0.7818609E-02  0.8105474E-01
        2   -1    0    0  501    0  0.00000000000E+00  0.00000000000E+00  0.25103960836E+04  0.25103960836E+04  0.25500000920E-02 0.  1.
       -2   -1    0    0    0  501  0.00000000000E+00  0.00000000000E+00 -0.12446623642E+04  0.12446623642E+04  0.25500000920E-02 0. -1.
    10030    2    1    2    0    0  0.00000000000E+00  0.00000000000E+00  0.12657337195E+04  0.37550584478E+04  0.35353050926E+04 0.  0.
        3    1    3    3  502    0  0.17178523196E+02 -0.60668697715E+03  0.23962538584E+04  0.24719216723E+04  0.10100000352E+00 0.  1.
       -3    1    3    3    0  502 -0.17178523196E+02  0.60668697715E+03 -0.11305201389E+04  0.12831367755E+04  0.10100000352E+00 0. -1.
</event>
<event>
 5   0  0.2936607E-07  0.3498068E+04  0.7818609E-02  0.8114248E-01
        1   -1    0    0  501    0  0.00000000000E+00  0.00000000000E+00  0.15960333507E+04  0.15960333507E+04  0.50400001928E-02 0. -1.
       -1   -1    0    0    0  501  0.00000000000E+00  0.00000000000E+00 -0.19167021978E+04  0.19167021978E+04  0.50400001928E-02 0.  1.
    10030    2    1    2    0    0  0.00000000000E+00  0.00000000000E+00 -0.32066884705E+03  0.35127355485E+04  0.34980683990E+04 0.  0.
        2    1    3    3  502    0  0.84078038096E+03  0.10620509242E+04  0.95076628364E+03  0.16549381682E+04  0.25500000920E-02 0. -1.
       -2    1    3    3    0  502 -0.84078038096E+03 -0.10620509242E+04 -0.12714351307E+04  0.18577973803E+04  0.25500000920E-02 0.  1.
</event>
<event>
 5   0  0.2972541E-07  0.3015275E+04  0.7818609E-02  0.8239382E-01
        1   -1    0    0  501    0  0.00000000000E+00  0.00000000000E+00  0.14952673970E+04  0.14952673970E+04  0.50400001928E-02 0. -1.
       -1   -1    0    0    0  501  0.00000000000E+00  0.00000000000E+00 -0.15201101184E+04  0.15201101184E+04  0.50400001928E-02 0.  1.
    10030    2    1    2    0    0  0.00000000000E+00  0.00000000000E+00 -0.24842721399E+02  0.30153775154E+04  0.30152751781E+04 0.  0.
        3    1    3    3  502    0 -0.13385190381E+04  0.69304898086E+03 -0.44375292477E+02  0.15079520158E+04  0.10100000352E+00 0. -1.
       -3    1    3    3    0  502  0.13385190381E+04 -0.69304898086E+03  0.19532571078E+02  0.15074254996E+04  0.10100000352E+00 0.  1.
</event>
<event>
 5   0  0.3061330E-07  0.3482021E+04  0.7818609E-02  0.8118064E-01
        1   -1    0    0  501    0  0.00000000000E+00  0.00000000000E+00  0.14278052835E+04  0.14278052835E+04  0.50400001928E-02 0. -1.
       -1   -1    0    0    0  501  0.00000000000E+00  0.00000000000E+00 -0.21229203401E+04  0.21229203401E+04  0.50400001928E-02 0.  1.
    10030    2    1    2    0    0  0.00000000000E+00  0.00000000000E+00 -0.69511505656E+03  0.35507256237E+04  0.34820206077E+04 0.  0.
        5    1    3    3  502    0 -0.35733474350E+02 -0.77469304119E+03 -0.19370530095E+04  0.20865336424E+04  0.46999998093E+01 0.  1.
       -5    1    3    3    0  502  0.35733474350E+02  0.77469304119E+03  0.12419379529E+04  0.14641919813E+04  0.46999998093E+01 0. -1.
</event>
<event>
 5   0  0.2936607E-07  0.3572049E+04  0.7818609E-02  0.8096924E-01
       -1   -1    0    0    0  501  0.00000000000E+00  0.00000000000E+00  0.11424834199E+04  0.11424834200E+04  0.50400001928E-02 0.  1.
        1   -1    0    0  501    0  0.00000000000E+00  0.00000000000E+00 -0.27920605673E+04  0.27920605673E+04  0.50400001928E-02 0. -1.
    10030    2    1    2    0    0  0.00000000000E+00  0.00000000000E+00 -0.16495771473E+04  0.39345439873E+04  0.35720486590E+04 0.  0.
        2    1    3    3  502    0 -0.75277713061E+03 -0.12267661304E+04  0.34000063518E+03  0.14789283211E+04  0.25500000920E-02 0.  1.
       -2    1    3    3    0  502  0.75277713061E+03  0.12267661304E+04 -0.19895777825E+04  0.24556156661E+04  0.25500000920E-02 0. -1.
</event>
<event>
 5   0  0.2907000E-07  0.3523894E+04  0.7818609E-02  0.8108151E-01
        3   -1    0    0  501    0  0.00000000000E+00  0.00000000000E+00  0.14874761673E+04  0.14874761708E+04  0.10100000352E+00 0.  1.
       -3   -1    0    0    0  501  0.00000000000E+00  0.00000000000E+00 -0.20870634545E+04  0.20870634569E+04  0.10100000352E+00 0. -1.
    10030    2    1    2    0    0  0.00000000000E+00  0.00000000000E+00 -0.59958728711E+03  0.35745396277E+04  0.35238939591E+04 0.  0.
        4    1    3    3  502    0  0.64667847270E+03 -0.19467783397E+03  0.13509743660E+04  0.15103727542E+04  0.12699999809E+01 0.  1.
       -4    1    3    3    0  502 -0.64667847270E+03  0.19467783397E+03 -0.19505616531E+04  0.20641668735E+04  0.12699999809E+01 0. -1.
</event>
<event>
 5   0  0.9311672E-07  0.3511568E+04  0.7818609E-02  0.8111054E-01
        2   -1    0    0  501    0  0.00000000000E+00  0.00000000000E+00  0.30665386601E+04  0.30665386601E+04  0.25500000920E-02 0.  1.
       -2   -1    0    0    0  501  0.00000000000E+00  0.00000000000E+00 -0.10052956617E+04  0.10052956617E+04  0.25500000920E-02 0. -1.
    10030    2    1    2    0    0  0.00000000000E+00  0.00000000000E+00  0.20612429984E+04  0.40718343218E+04  0.35115683171E+04 0.  0.
        4    1    3    3  502    0 -0.31600617105E+03  0.10779595759E+04 -0.53409033841E+03  0.12438291080E+04  0.12699999809E+01 0. -1.
       -4    1    3    3    0  502  0.31600617105E+03 -0.10779595759E+04  0.25953333368E+04  0.28280052138E+04  0.12699999809E+01 0.  1.
</event>
<event>
 5   0  0.2933506E-07  0.3510778E+04  0.7818609E-02  0.8111241E-01
        1   -1    0    0  501    0  0.00000000000E+00  0.00000000000E+00  0.10481533276E+04  0.10481533276E+04  0.50400001928E-02 0.  1.
       -1   -1    0    0    0  501  0.00000000000E+00  0.00000000000E+00 -0.29398274698E+04  0.29398274698E+04  0.50400001928E-02 0. -1.
    10030    2    1    2    0    0  0.00000000000E+00  0.00000000000E+00 -0.18916741422E+04  0.39879807974E+04  0.35107776603E+04 0.  0.
        4    1    3    3  502    0  0.59300593319E+03 -0.57306189316E+03  0.81441907405E+03  0.11590237320E+04  0.12699999809E+01 0.  1.
       -4    1    3    3    0  502 -0.59300593319E+03  0.57306189316E+03 -0.27060932162E+04  0.28289570654E+04  0.12699999809E+01 0. -1.
</event>
<event>
 5   0  0.2972541E-07  0.3503306E+04  0.7818609E-02  0.8113007E-01
        1   -1    0    0  501    0  0.00000000000E+00  0.00000000000E+00  0.10953236245E+04  0.10953236245E+04  0.50400001928E-02 0. -1.
       -1   -1    0    0    0  501  0.00000000000E+00  0.00000000000E+00 -0.28012612039E+04  0.28012612039E+04  0.50400001928E-02 0.  1.
    10030    2    1    2    0    0  0.00000000000E+00  0.00000000000E+00 -0.17059375794E+04  0.38965848284E+04  0.35033056247E+04 0.  0.
        3    1    3    3  502    0 -0.31197325657E+03  0.12053841530E+04 -0.22233560872E+04  0.25482524541E+04  0.10100000352E+00 0.  1.
       -3    1    3    3    0  502  0.31197325657E+03 -0.12053841530E+04  0.51741850788E+03  0.13483323743E+04  0.10100000352E+00 0. -1.
</event>
<event>
 5   0  0.8950809E-07  0.3370736E+04  0.7818609E-02  0.8145126E-01
       -2   -1    0    0    0  501  0.00000000000E+00  0.00000000000E+00  0.13445059584E+04  0.13445059584E+04  0.25500000920E-02 0.  1.
        2   -1    0    0  501    0  0.00000000000E+00  0.00000000000E+00 -0.21126456695E+04  0.21126456695E+04  0.25500000920E-02 0. -1.
    10030    2    1    2    0    0  0.00000000000E+00  0.00000000000E+00 -0.76813971101E+03  0.34571516279E+04  0.33707356412E+04 0.  0.
        2    1    3    3  502    0  0.12765169130E+04  0.94881982503E+03  0.18763448645E+03  0.16015496215E+04  0.25500000920E-02 0.  1.
       -2    1    3    3    0  502 -0.12765169130E+04 -0.94881982503E+03 -0.95577419746E+03  0.18556020064E+04  0.25500000920E-02 0. -1.
</event>
<event>
 5   0  0.9311672E-07  0.3501784E+04  0.7818609E-02  0.8113367E-01
       -2   -1    0    0    0  501  0.00000000000E+00  0.00000000000E+00  0.21229793714E+04  0.21229793714E+04  0.25500000920E-02 0.  1.
        2   -1    0    0  501    0  0.00000000000E+00  0.00000000000E+00 -0.14440194024E+04  0.14440194024E+04  0.25500000920E-02 0. -1.
    10030    2    1    2    0    0  0.00000000000E+00  0.00000000000E+00  0.67895996905E+03  0.35669987738E+04  0.35017843470E+04 0.  0.
        4    1    3    3  502    0 -0.16593126034E+04  0.44172337654E+03 -0.92165233644E+01  0.17171267904E+04  0.12699999809E+01 0.  1.
       -4    1    3    3    0  502  0.16593126034E+04 -0.44172337654E+03  0.68817649242E+03  0.18498719834E+04  0.12699999809E+01 0. -1.
</event>
<event>
 5   0  0.3061330E-07  0.3481780E+04  0.7818609E-02  0.8118121E-01
       -1   -1    0    0    0  501  0.00000000000E+00  0.00000000000E+00  0.21814342368E+04  0.21814342368E+04  0.50400001928E-02 0. -1.
        1   -1    0    0  501    0  0.00000000000E+00  0.00000000000E+00 -0.13893144176E+04  0.13893144176E+04  0.50400001928E-02 0.  1.
    10030    2    1    2    0    0  0.00000000000E+00  0.00000000000E+00  0.79211981922E+03  0.35707486544E+04  0.34817800254E+04 0.  0.
        5    1    3    3  502    0  0.17109640751E+04 -0.26522338786E+03  0.58217562935E+03  0.18266614534E+04  0.46999998093E+01 0.  1.
       -5    1    3    3    0  502 -0.17109640751E+04  0.26522338786E+03  0.20994418987E+03  0.17440872010E+04  0.46999998093E+01 0. -1.
</event>
<event>
 5   0  0.9311672E-07  0.2831814E+04  0.7818609E-02  0.8293459E-01
        2   -1    0    0  501    0  0.00000000000E+00  0.00000000000E+00  0.14018623580E+04  0.14018623580E+04  0.25500000920E-02 0. -1.
       -2   -1    0    0    0  501  0.00000000000E+00  0.00000000000E+00 -0.14300920527E+04  0.14300920527E+04  0.25500000920E-02 0.  1.
    10030    2    1    2    0    0  0.00000000000E+00  0.00000000000E+00 -0.28229694629E+02  0.28319544107E+04  0.28318137066E+04 0.  0.
        4    1    3    3  502    0 -0.91505393300E+03 -0.44975399128E+03 -0.99660360969E+03  0.14257709215E+04  0.12699999809E+01 0.  1.
       -4    1    3    3    0  502  0.91505393300E+03  0.44975399128E+03  0.96837391506E+03  0.14061834892E+04  0.12699999809E+01 0. -1.
</event>
<event>
 5   0  0.2936607E-07  0.3469855E+04  0.7818609E-02  0.8120971E-01
       -1   -1    0    0    0  501  0.00000000000E+00  0.00000000000E+00  0.15091098148E+04  0.15091098148E+04  0.50400001928E-02 0. -1.
        1   -1    0    0  501    0  0.00000000000E+00  0.00000000000E+00 -0.19945358810E+04  0.19945358810E+04  0.50400001928E-02 0.  1.
    10030    2    1    2    0    0  0.00000000000E+00  0.00000000000E+00 -0.48542606620E+03  0.35036456957E+04  0.34698551404E+04 0.  0.
        2    1    3    3  502    0 -0.14751148809E+04 -0.29578693212E+03 -0.11151408786E+04  0.18726967186E+04  0.25500000920E-02 0. -1.
       -2    1    3    3    0  502  0.14751148809E+04  0.29578693212E+03  0.62971481235E+03  0.16309489771E+04  0.25500000920E-02 0.  1.
</event>
<event>
 5   0  0.6188930E-07  0.3490763E+04  0.7818609E-02  0.8115983E-01
        2   -1    0    0  501    0  0.00000000000E+00  0.00000000000E+00  0.15670385468E+04  0.15670385468E+04  0.25500000920E-02 0.  1.
       -2   -1    0    0    0  501  0.00000000000E+00  0.00000000000E+00 -0.19440209827E+04  0.19440209827E+04  0.25500000920E-02 0. -1.
    10030    2    1    2    0    0  0.00000000000E+00  0.00000000000E+00 -0.37698243584E+03  0.35110595295E+04  0.34907625618E+04 0.  0.
        3    1    3    3  502    0 -0.53464082693E+03  0.66355160937E+03 -0.17205729300E+04  0.19200293669E+04  0.10100000352E+00 0. -1.
       -3    1    3    3    0  502  0.53464082693E+03 -0.66355160937E+03  0.13435904942E+04  0.15910301626E+04  0.10100000352E+00 0.  1.
</event>
<event>
 5   0  0.2936607E-07  0.3522674E+04  0.7818609E-02  0.8108437E-01
       -1   -1    0    0    0  501  0.00000000000E+00  0.00000000000E+00  0.12130794057E+04  0.12130794057E+04  0.50400001928E-02 0. -1.
        1   -1    0    0  501    0  0.00000000000E+00  0.00000000000E+00 -0.25573822887E+04  0.25573822887E+04  0.50400001928E-02 0.  1.
    10030    2    1    2    0    0  0.00000000000E+00  0.00000000000E+00 -0.13443028830E+04  0.37704616945E+04  0.35226738634E+04 0.  0.
        2    1    3    3  502    0 -0.57981964991E+03  0.24188878649E+03  0.10890737631E+04  0.12572918010E+04  0.25500000920E-02 0. -1.
       -2    1    3    3    0  502  0.57981964991E+03 -0.24188878649E+03 -0.24333766461E+04  0.25131698935E+04  0.25500000920E-02 0.  1.
</event>
<event>
 5   0  0.6188930E-07  0.3534312E+04  0.7818609E-02  0.8105706E-01
        2   -1    0    0  501    0  0.00000000000E+00  0.00000000000E+00  0.13958125068E+04  0.13958125068E+04  0.25500000920E-02 0.  1.
       -2   -1    0    0    0  501  0.00000000000E+00  0.00000000000E+00 -0.22372923125E+04  0.22372923125E+04  0.25500000920E-02 0. -1.
    10030    2    1    2    0    0  0.00000000000E+00  0.00000000000E+00 -0.84147980569E+03  0.36331048193E+04  0.35343121487E+04 0.  0.
        3    1    3    3  502    0  0.62272638775E+03  0.14998096501E+04  0.29560610535E+03  0.16506362774E+04  0.10100000352E+00 0.  1.
       -3    1    3    3    0  502 -0.62272638775E+03 -0.14998096501E+04 -0.11370859110E+04  0.19824685419E+04  0.10100000352E+00 0. -1.
</event>
<event>
 5   0  0.8845195E-07  0.3502477E+04  0.7818609E-02  0.8113203E-01
        2   -1    0    0  501    0  0.00000000000E+00  0.00000000000E+00  0.15143916381E+04  0.15143916381E+04  0.25500000920E-02 0. -1.
       -2   -1    0    0    0  501  0.00000000000E+00  0.00000000000E+00 -0.20251272467E+04  0.20251272467E+04  0.25500000920E-02 0.  1.
    10030    2    1    2    0    0  0.00000000000E+00  0.00000000000E+00 -0.51073560860E+03  0.35395188848E+04  0.35024767057E+04 0.  0.
        5    1    3    3  502    0  0.15216893308E+03 -0.10106978484E+04  0.11816940577E+04  0.15623983042E+04  0.46999998093E+01 0. -1.
       -5    1    3    3    0  502 -0.15216893308E+03  0.10106978484E+04 -0.16924296663E+04  0.19771205806E+04  0.46999998093E+01 0.  1.
</event>
<event>
 5   0  0.8950809E-07  0.3551690E+04  0.7818609E-02  0.8101648E-01
        2   -1    0    0  501    0  0.00000000000E+00  0.00000000000E+00  0.18822281684E+04  0.18822281684E+04  0.25500000920E-02 0.  1.
       -2   -1    0    0    0  501  0.00000000000E+00  0.00000000000E+00 -0.16754747496E+04  0.16754747496E+04  0.25500000920E-02 0. -1.
    10030    2    1    2    0    0  0.00000000000E+00  0.00000000000E+00  0.20675341885E+03  0.35577029180E+04  0.35516901718E+04 0.  0.
        2    1    3    3  502    0 -0.10981558370E+04  0.30288664318E+03  0.14680116278E+04  0.18581562636E+04  0.25500000920E-02 0.  1.
       -2    1    3    3    0  502  0.10981558370E+04 -0.30288664318E+03 -0.12612582089E+04  0.16995466544E+04  0.25500000920E-02 0. -1.
</event>
<event>
 5   0  0.3061330E-07  0.3508234E+04  0.7818609E-02  0.8111841E-01
       -1   -1    0    0    0  501  0.00000000000E+00  0.00000000000E+00  0.23051951345E+04  0.23051951345E+04  0.50400001928E-02 0. -1.
        1   -1    0    0  501    0  0.00000000000E+00  0.00000000000E+00 -0.13347789245E+04  0.13347789245E+04  0.50400001928E-02 0.  1.
    10030    2    1    2    0    0  0.00000000000E+00  0.00000000000E+00  0.97041621000E+03  0.36399740591E+04  0.35082336766E+04 0.  0.
        5    1    3    3  502    0 -0.92807161809E+03  0.14255934843E+04  0.41031620877E+02  0.17015696855E+04  0.46999998093E+01 0. -1.
       -5    1    3    3    0  502  0.92807161809E+03 -0.14255934843E+04  0.92938458912E+03  0.19384043735E+04  0.46999998093E+01 0.  1.
</event>
<event>
 5   0  0.9311672E-07  0.3520938E+04  0.7818609E-02  0.8108846E-01
       -2   -1    0    0    0  501  0.00000000000E+00  0.00000000000E+00  0.14835204409E+04  0.14835204409E+04  0.25500000920E-02 0.  1.
        2   -1    0    0  501    0  0.00000000000E+00  0.00000000000E+00 -0.20891191805E+04  0.20891191805E+04  0.25500000920E-02 0. -1.
    10030    2    1    2    0    0  0.00000000000E+00  0.00000000000E+00 -0.60559873954E+03  0.35726396214E+04  0.35209379476E+04 0.  0.
        4    1    3    3  502    0 -0.13649549660E+03 -0.17056263736E+03 -0.20753123760E+04  0.20867787867E+04  0.12699999809E+01 0. -1.
       -4    1    3    3    0  502  0.13649549660E+03  0.17056263736E+03  0.14697136365E+04  0.14858608347E+04  0.12699999809E+01 0.  1.
</event>
<event>
 5   0  0.6188930E-07  0.3500383E+04  0.7818609E-02  0.8113699E-01
       -2   -1    0    0    0  501  0.00000000000E+00  0.00000000000E+00  0.13938240336E+04  0.13938240336E+04  0.25500000920E-02 0. -1.
        2   -1    0    0  501    0  0.00000000000E+00  0.00000000000E+00 -0.21976733514E+04  0.21976733514E+04  0.25500000920E-02 0.  1.
    10030    2    1    2    0    0  0.00000000000E+00  0.00000000000E+00 -0.80384931782E+03  0.35914973849E+04  0.35003827991E+04 0.  0.
        3    1    3    3  502    0  0.18518424249E+03 -0.48074258378E+03  0.13142658551E+04  0.14116307533E+04  0.10100000352E+00 0. -1.
       -3    1    3    3    0  502 -0.18518424249E+03  0.48074258378E+03 -0.21181151730E+04  0.21798666316E+04  0.10100000352E+00 0.  1.
</event>
<event>
 5   0  0.2933506E-07  0.3443471E+04  0.7818609E-02  0.8127319E-01
       -1   -1    0    0    0  501  0.00000000000E+00  0.00000000000E+00  0.14953456099E+04  0.14953456099E+04  0.50400001928E-02 0.  1.
        1   -1    0    0  501    0  0.00000000000E+00  0.00000000000E+00 -0.19823996147E+04  0.19823996147E+04  0.50400001928E-02 0. -1.
    10030    2    1    2    0    0  0.00000000000E+00  0.00000000000E+00 -0.48705400476E+03  0.34777452246E+04  0.34434706683E+04 0.  0.
        4    1    3    3  502    0  0.57061201651E+03  0.16231436839E+04 -0.17825043308E+03  0.17297307078E+04  0.12699999809E+01 0.  1.
       -4    1    3    3    0  502 -0.57061201651E+03 -0.16231436839E+04 -0.30880357168E+03  0.17480145167E+04  0.12699999809E+01 0. -1.
</event>
<event>
 5   0  0.8845195E-07  0.3481558E+04  0.7818609E-02  0.8118174E-01
        2   -1    0    0  501    0  0.00000000000E+00  0.00000000000E+00  0.13062317862E+04  0.13062317862E+04  0.25500000920E-02 0.  1.
       -2   -1    0    0    0  501  0.00000000000E+00  0.00000000000E+00 -0.23198881275E+04  0.23198881275E+04  0.25500000920E-02 0. -1.
    10030    2    1    2    0    0  0.00000000000E+00  0.00000000000E+00 -0.10136563413E+04  0.36261199137E+04  0.34815580492E+04 0.  0.
        5    1    3    3  502    0 -0.12736613995E+04  0.75641183715E+03  0.44542006454E+03  0.15468656541E+04  0.46999998093E+01 0.  1.
       -5    1    3    3    0  502  0.12736613995E+04 -0.75641183715E+03 -0.14590764059E+04  0.20792542596E+04  0.46999998093E+01 0. -1.
</event>
<event>
 5   0  0.6188930E-07  0.3522135E+04  0.7818609E-02  0.8108564E-01
       -2   -1    0    0    0  501  0.00000000000E+00  0.00000000000E+00  0.20594744437E+04  0.20594744437E+04  0.25500000920E-02 0. -1.
        2   -1    0    0  501    0  0.00000000000E+00  0.00000000000E+00 -0.15058977251E+04  0.15058977251E+04  0.25500000920E-02 0.  1.
    10030    2    1    2    0    0  0.00000000000E+00  0.00000000000E+00  0.55357671860E+03  0.35653721689E+04  0.35221345118E+04 0.  0.
        3    1    3    3  502    0 -0.92317172289E+03  0.75829996840E+03  0.15865393094E+04  0.19860442750E+04  0.10100000352E+00 0. -1.
       -3    1    3    3    0  502  0.92317172289E+03 -0.75829996840E+03 -0.10329625908E+04  0.15793278938E+04  0.10100000352E+00 0.  1.
</event>
<event>
 5   0  0.3026332E-07  0.3499028E+04  0.7818609E-02  0.8114020E-01
       -1   -1    0    0    0  501  0.00000000000E+00  0.00000000000E+00  0.25879199726E+04  0.25879199726E+04  0.50400001928E-02 0. -1.
        1   -1    0    0  501    0  0.00000000000E+00  0.00000000000E+00 -0.11827255180E+04  0.11827255180E+04  0.50400001928E-02 0.  1.
    10030    2    1    2    0    0  0.00000000000E+00  0.00000000000E+00  0.14051944545E+04  0.37706454906E+04  0.34990278594E+04 0.  0.
        1    1    3    3  502    0  0.51907058333E+03  0.15526739458E+04  0.13673874584E+04  0.21330680050E+04  0.50400001928E-02 0. -1.
       -1    1    3    3    0  502 -0.51907058333E+03 -0.15526739458E+04  0.37806996105E+02  0.16375774856E+04  0.50400001928E-02 0.  1.
</event>
<event>
 5   0  0.9128871E-07  0.3513735E+04  0.7818609E-02  0.8110543E-01
       -2   -1    0    0    0  501  0.00000000000E+00  0.00000000000E+00  0.13599868395E+04  0.13599868395E+04  0.25500000920E-02 0.  1.
        2   -1    0    0  501    0  0.00000000000E+00  0.00000000000E+00 -0.22695682974E+04  0.22695682974E+04  0.25500000920E-02 0. -1.
    10030    2    1    2    0    0  0.00000000000E+00  0.00000000000E+00 -0.90958145789E+03  0.36295551369E+04  0.35137347742E+04 0.  0.
        1    1    3    3  502    0 -0.44285292922E+03  0.83008674295E+03 -0.19874157265E+04  0.21988597017E+04  0.50400001928E-02 0. -1.
       -1    1    3    3    0  502  0.44285292922E+03 -0.83008674295E+03  0.10778342686E+04  0.14306954352E+04  0.50400001928E-02 0.  1.
</event>
<event>
 5   0  0.2933506E-07  0.3502154E+04  0.7818609E-02  0.8113280E-01
       -1   -1    0    0    0  501  0.00000000000E+00  0.00000000000E+00  0.13412407192E+04  0.13412407192E+04  0.50400001928E-02 0. -1.
        1   -1    0    0  501    0  0.00000000000E+00  0.00000000000E+00 -0.22861447466E+04  0.22861447466E+04  0.50400001928E-02 0.  1.
    10030    2    1    2    0    0  0.00000000000E+00  0.00000000000E+00 -0.94490402744E+03  0.36273854658E+04  0.35021538654E+04 0.  0.
        4    1    3    3  502    0  0.74664937783E+03 -0.80482405466E+03 -0.18854337389E+04  0.21817628306E+04  0.12699999809E+01 0.  1.
       -4    1    3    3    0  502 -0.74664937783E+03  0.80482405466E+03  0.94052971146E+03  0.14456226352E+04  0.12699999809E+01 0. -1.
</event>
<event>
 5   0  0.9128871E-07  0.3471585E+04  0.7818609E-02  0.8120557E-01
       -2   -1    0    0    0  501  0.00000000000E+00  0.00000000000E+00  0.17998783694E+04  0.17998783694E+04  0.25500000920E-02 0.  1.
        2   -1    0    0  501    0  0.00000000000E+00  0.00000000000E+00 -0.16739883515E+04  0.16739883515E+04  0.25500000920E-02 0. -1.
    10030    2    1    2    0    0  0.00000000000E+00  0.00000000000E+00  0.12589001793E+03  0.34738667209E+04  0.34715848971E+04 0.  0.
        1    1    3    3  502    0 -0.29515211627E+03  0.15913002406E+04 -0.56486213824E+03  0.17141821557E+04  0.50400001928E-02 0. -1.
       -1    1    3    3    0  502  0.29515211627E+03 -0.15913002406E+04  0.69075215617E+03  0.17596845652E+04  0.50400001928E-02 0.  1.
</event>
<event>
 5   0  0.9128871E-07  0.3451691E+04  0.7818609E-02  0.8125335E-01
       -2   -1    0    0    0  501  0.00000000000E+00  0.00000000000E+00  0.14856302503E+04  0.14856302503E+04  0.25500000920E-02 0. -1.
        2   -1    0    0  501    0  0.00000000000E+00  0.00000000000E+00 -0.20049012124E+04  0.20049012124E+04  0.25500000920E-02 0.  1.
    10030    2    1    2    0    0  0.00000000000E+00  0.00000000000E+00 -0.51927096209E+03  0.34905314628E+04  0.34516905366E+04 0.  0.
        1    1    3    3  502    0  0.24040400072E+02 -0.17978851817E+03  0.14759641225E+04  0.14870682375E+04  0.50400001928E-02 0. -1.
       -1    1    3    3    0  502 -0.24040400072E+02  0.17978851817E+03 -0.19952350846E+04  0.20034632252E+04  0.50400001928E-02 0.  1.
</event>
<event>
 5   0  0.6188930E-07  0.3484297E+04  0.7818609E-02  0.8117522E-01
        2   -1    0    0  501    0  0.00000000000E+00  0.00000000000E+00  0.27087671903E+04  0.27087671903E+04  0.25500000920E-02 0. -1.
       -2   -1    0    0    0  501  0.00000000000E+00  0.00000000000E+00 -0.11204658179E+04  0.11204658179E+04  0.25500000920E-02 0.  1.
    10030    2    1    2    0    0  0.00000000000E+00  0.00000000000E+00  0.15883013724E+04  0.38292330082E+04  0.34842967988E+04 0.  0.
        3    1    3    3  502    0 -0.16924757215E+03 -0.29219706172E+03 -0.10841567618E+04  0.11355262031E+04  0.10100000352E+00 0.  1.
       -3    1    3    3    0  502  0.16924757215E+03  0.29219706172E+03  0.26724581341E+04  0.26937068052E+04  0.10100000352E+00 0. -1.
</event>
<event>
 5   0  0.6188930E-07  0.3468291E+04  0.7818609E-02  0.8121346E-01
        2   -1    0    0  501    0  0.00000000000E+00  0.00000000000E+00  0.17754200073E+04  0.17754200073E+04  0.25500000920E-02 0. -1.
       -2   -1    0    0    0  501  0.00000000000E+00  0.00000000000E+00 -0.16938309287E+04  0.16938309287E+04  0.25500000920E-02 0.  1.
    10030    2    1    2    0    0  0.00000000000E+00  0.00000000000E+00  0.81589078645E+02  0.34692509360E+04  0.34682914064E+04 0.  0.
        3    1    3    3  502    0  0.42046834528E+03  0.66409738940E+03  0.15870043039E+04  0.17709888884E+04  0.10100000352E+00 0. -1.
       -3    1    3    3    0  502 -0.42046834528E+03 -0.66409738940E+03 -0.15054152252E+04  0.16982620477E+04  0.10100000352E+00 0.  1.
</event>
<event>
 5   0  0.2936607E-07  0.3195822E+04  0.7818609E-02  0.8189921E-01
        1   -1    0    0  501    0  0.00000000000E+00  0.00000000000E+00  0.82050725816E+03  0.82050725817E+03  0.50400001928E-02 0. -1.
       -1   -1    0    0    0  501  0.00000000000E+00  0.00000000000E+00 -0.31118796409E+04  0.31118796409E+04  0.50400001928E-02 0.  1.
    10030    2    1    2    0    0  0.00000000000E+00  0.00000000000E+00 -0.22913723828E+04  0.39323868991E+04  0.31958221677E+04 0.  0.
        2    1    3    3  502    0  0.53633648822E+03  0.15059068141E+03 -0.29885229390E+04  0.30400006150E+04  0.25500000920E-02 0.  1.
       -2    1    3    3    0  502 -0.53633648822E+03 -0.15059068141E+03  0.69715055628E+03  0.89238628411E+03  0.25500000920E-02 0. -1.
</event>
<event>
 5   0  0.3026332E-07  0.3452893E+04  0.7818609E-02  0.8125045E-01
       -1   -1    0    0    0  501  0.00000000000E+00  0.00000000000E+00  0.97621863225E+03  0.97621863227E+03  0.50400001928E-02 0. -1.
        1   -1    0    0  501    0  0.00000000000E+00  0.00000000000E+00 -0.30532281729E+04  0.30532281729E+04  0.50400001928E-02 0.  1.
    10030    2    1    2    0    0  0.00000000000E+00  0.00000000000E+00 -0.20770095407E+04  0.40294468052E+04  0.34528934133E+04 0.  0.
        1    1    3    3  502    0  0.27451586642E+03 -0.16852215102E+04 -0.13366844498E+04  0.21684224260E+04  0.50400001928E-02 0. -1.
       -1    1    3    3    0  502 -0.27451586642E+03  0.16852215102E+04 -0.74032509092E+03  0.18610243791E+04  0.50400001928E-02 0.  1.
</event>
<event>
 5   0  0.3061330E-07  0.3505851E+04  0.7818609E-02  0.8112405E-01
       -1   -1    0    0    0  501  0.00000000000E+00  0.00000000000E+00  0.10310563902E+04  0.10310563902E+04  0.50400001928E-02 0. -1.
        1   -1    0    0  501    0  0.00000000000E+00  0.00000000000E+00 -0.29801939214E+04  0.29801939214E+04  0.50400001928E-02 0.  1.
    10030    2    1    2    0    0  0.00000000000E+00  0.00000000000E+00 -0.19491375312E+04  0.40112503116E+04  0.35058511016E+04 0.  0.
        5    1    3    3  502    0  0.51331174240E+03 -0.73885505456E+03  0.74674583326E+03  0.11692079225E+04  0.46999998093E+01 0. -1.
       -5    1    3    3    0  502 -0.51331174240E+03  0.73885505456E+03 -0.26958833645E+04  0.28420423891E+04  0.46999998093E+01 0.  1.
</event>
<event>
 5   0  0.2907000E-07  0.3467298E+04  0.7818609E-02  0.8121584E-01
       -3   -1    0    0    0  501  0.00000000000E+00  0.00000000000E+00  0.11276801561E+04  0.11276801607E+04  0.10100000352E+00 0. -1.
        3   -1    0    0  501    0  0.00000000000E+00  0.00000000000E+00 -0.26652400885E+04  0.26652400904E+04  0.10100000352E+00 0.  1.
    10030    2    1    2    0    0  0.00000000000E+00  0.00000000000E+00 -0.15375599323E+04  0.37929202510E+04  0.34672977209E+04 0.  0.
        3    1    3    3  502    0 -0.79847728898E+03  0.89781739912E+03 -0.21359063826E+04  0.24506607575E+04  0.10100000352E+00 0.  1.
       -3    1    3    3    0  502  0.79847728898E+03 -0.89781739912E+03  0.59834645026E+03  0.13422594935E+04  0.10100000352E+00 0. -1.
</event>
<event>
 5   0  0.2936607E-07  0.3546619E+04  0.7818609E-02  0.8102830E-01
        1   -1    0    0  501    0  0.00000000000E+00  0.00000000000E+00  0.18442285018E+04  0.18442285018E+04  0.50400001928E-02 0.  1.
       -1   -1    0    0    0  501  0.00000000000E+00  0.00000000000E+00 -0.17051177259E+04  0.17051177259E+04  0.50400001928E-02 0. -1.
    10030    2    1    2    0    0  0.00000000000E+00  0.00000000000E+00  0.13911077589E+03  0.35493462277E+04  0.35466190712E+04 0.  0.
        2    1    3    3  502    0 -0.81307004866E+03  0.79464439006E+03  0.14315148208E+04  0.18280528692E+04  0.25500000920E-02 0.  1.
       -2    1    3    3    0  502  0.81307004866E+03 -0.79464439006E+03 -0.12924040449E+04  0.17212933585E+04  0.25500000920E-02 0. -1.
</event>
<event>
 5   0  0.3026332E-07  0.3492906E+04  0.7818609E-02  0.8115473E-01
        1   -1    0    0  501    0  0.00000000000E+00  0.00000000000E+00  0.17751655717E+04  0.17751655717E+04  0.50400001928E-02 0. -1.
       -1   -1    0    0    0  501  0.00000000000E+00  0.00000000000E+00 -0.17182047745E+04  0.17182047746E+04  0.50400001928E-02 0.  1.
    10030    2    1    2    0    0  0.00000000000E+00  0.00000000000E+00  0.56960797153E+02  0.34933703463E+04  0.34929059311E+04 0.  0.
        1    1    3    3  502    0 -0.50708559958E+03 -0.58701159063E+03 -0.15364575114E+04  0.17211682362E+04  0.50400001928E-02 0.  1.
       -1    1    3    3    0  502  0.50708559958E+03  0.58701159063E+03  0.15934183086E+04  0.17722021101E+04  0.50400001928E-02 0. -1.
</event>
<event>
 5   0  0.9128871E-07  0.3292894E+04  0.7818609E-02  0.8164706E-01
       -2   -1    0    0    0  501  0.00000000000E+00  0.00000000000E+00  0.12304476303E+04  0.12304476303E+04  0.25500000920E-02 0.  1.
        2   -1    0    0  501    0  0.00000000000E+00  0.00000000000E+00 -0.22030903375E+04  0.22030903375E+04  0.25500000920E-02 0. -1.
    10030    2    1    2    0    0  0.00000000000E+00  0.00000000000E+00 -0.97264270719E+03  0.34335379678E+04  0.32928937336E+04 0.  0.
        1    1    3    3  502    0  0.34134605410E+03 -0.75662168979E+03  0.99630790396E+03  0.12967740550E+04  0.50400001928E-02 0.  1.
       -1    1    3    3    0  502 -0.34134605410E+03  0.75662168979E+03 -0.19689506112E+04  0.21367639129E+04  0.50400001928E-02 0. -1.
</event>
<event>
 5   0  0.2972541E-07  0.3634663E+04  0.7818609E-02  0.8082598E-01
       -1   -1    0    0    0  501  0.00000000000E+00  0.00000000000E+00  0.17366947693E+04  0.17366947693E+04  0.50400001928E-02 0.  1.
        1   -1    0    0  501    0  0.00000000000E+00  0.00000000000E+00 -0.19017123717E+04  0.19017123717E+04  0.50400001928E-02 0. -1.
    10030    2    1    2    0    0  0.00000000000E+00  0.00000000000E+00 -0.16501760234E+03  0.36384071410E+04  0.36346630813E+04 0.  0.
        3    1    3    3  502    0 -0.11368792369E+04 -0.84723178071E+03 -0.12205166190E+04  0.18708171789E+04  0.10100000352E+00 0. -1.
       -3    1    3    3    0  502  0.11368792369E+04  0.84723178071E+03  0.10554990166E+04  0.17675899621E+04  0.10100000352E+00 0.  1.
</event>
<event>
 5   0  0.8950809E-07  0.3518880E+04  0.7818609E-02  0.8109330E-01
       -2   -1    0    0    0  501  0.00000000000E+00  0.00000000000E+00  0.15022540389E+04  0.15022540389E+04  0.25500000920E-02 0.  1.
        2   -1    0    0  501    0  0.00000000000E+00  0.00000000000E+00 -0.20606567886E+04  0.20606567886E+04  0.25500000920E-02 0. -1.
    10030    2    1    2    0    0  0.00000000000E+00  0.00000000000E+00 -0.55840274966E+03  0.35629108275E+04  0.35188804944E+04 0.  0.
        2    1    3    3  502    0  0.17592113225E+03  0.11732293101E+04  0.10363695814E+04  0.15752705063E+04  0.25500000920E-02 0.  1.
       -2    1    3    3    0  502 -0.17592113225E+03 -0.11732293101E+04 -0.15947723310E+04  0.19876403212E+04  0.25500000920E-02 0. -1.
</event>
<event>
 5   0  0.3061330E-07  0.3488185E+04  0.7818609E-02  0.8116596E-01
       -1   -1    0    0    0  501  0.00000000000E+00  0.00000000000E+00  0.16910195162E+04  0.16910195162E+04  0.50400001928E-02 0. -1.
        1   -1    0    0  501    0  0.00000000000E+00  0.00000000000E+00 -0.17988307410E+04  0.17988307410E+04  0.50400001928E-02 0.  1.
    10030    2    1    2    0    0  0.00000000000E+00  0.00000000000E+00 -0.10781122479E+03  0.34898502571E+04  0.34881845646E+04 0.  0.
        5    1    3    3  502    0  0.77436470808E+03  0.59687767676E+03 -0.14988709334E+04  0.17895641444E+04  0.46999998093E+01 0.  1.
       -5    1    3    3    0  502 -0.77436470808E+03 -0.59687767676E+03  0.13910597086E+04  0.17002861127E+04  0.46999998093E+01 0. -1.
</event>
<event>
 5   0  0.9311672E-07  0.3515966E+04  0.7818609E-02  0.8110017E-01
       -2   -1    0    0    0  501  0.00000000000E+00  0.00000000000E+00  0.23815823052E+04  0.23815823052E+04  0.25500000920E-02 0.  1.
        2   -1    0    0  501    0  0.00000000000E+00  0.00000000000E+00 -0.12976685242E+04  0.12976685242E+04  0.25500000920E-02 0. -1.
    10030    2    1    2    0    0  0.00000000000E+00  0.00000000000E+00  0.10839137810E+04  0.36792508294E+04  0.35159660950E+04 0.  0.
        4    1    3    3  502    0  0.12957848123E+04  0.11767338965E+04  0.71308066727E+03  0.18900387810E+04  0.12699999809E+01 0.  1.
       -4    1    3    3    0  502 -0.12957848123E+04 -0.11767338965E+04  0.37083311372E+03  0.17892120484E+04  0.12699999809E+01 0. -1.
</event>
<event>
 5   0  0.9128871E-07  0.3360443E+04  0.7818609E-02  0.8147684E-01
        2   -1    0    0  501    0  0.00000000000E+00  0.00000000000E+00  0.12787913507E+04  0.12787913507E+04  0.25500000920E-02 0.  1.
       -2   -1    0    0    0  501  0.00000000000E+00  0.00000000000E+00 -0.22076666456E+04  0.22076666456E+04  0.25500000920E-02 0. -1.
    10030    2    1    2    0    0  0.00000000000E+00  0.00000000000E+00 -0.92887529489E+03  0.34864579963E+04  0.33604434300E+04 0.  0.
        1    1    3    3  502    0  0.13092389775E+04  0.40074407521E+03  0.54596238440E+03  0.14740344091E+04  0.50400001928E-02 0.  1.
       -1    1    3    3    0  502 -0.13092389775E+04 -0.40074407521E+03 -0.14748376793E+04  0.20124235872E+04  0.50400001928E-02 0. -1.
</event>
<event>
 5   0  0.9128871E-07  0.3492415E+04  0.7818609E-02  0.8115590E-01
        2   -1    0    0  501    0  0.00000000000E+00  0.00000000000E+00  0.17596303640E+04  0.17596303640E+04  0.25500000920E-02 0. -1.
       -2   -1    0    0    0  501  0.00000000000E+00  0.00000000000E+00 -0.17328873427E+04  0.17328873428E+04  0.25500000920E-02 0.  1.
    10030    2    1    2    0    0  0.00000000000E+00  0.00000000000E+00  0.26743021229E+02  0.34925177067E+04  0.34924153165E+04 0.  0.
        1    1    3    3  502    0 -0.13248198078E+04 -0.48957387543E+03 -0.10135038032E+04  0.17383958300E+04  0.50400001928E-02 0.  1.
       -1    1    3    3    0  502  0.13248198078E+04  0.48957387543E+03  0.10402468244E+04  0.17541218767E+04  0.50400001928E-02 0. -1.
</event>
<event>
 5   0  0.2936607E-07  0.3556190E+04  0.7818609E-02  0.8100601E-01
        1   -1    0    0  501    0  0.00000000000E+00  0.00000000000E+00  0.19548280119E+04  0.19548280120E+04  0.50400001928E-02 0.  1.
       -1   -1    0    0    0  501  0.00000000000E+00  0.00000000000E+00 -0.16173405459E+04  0.16173405459E+04  0.50400001928E-02 0. -1.
    10030    2    1    2    0    0  0.00000000000E+00  0.00000000000E+00  0.33748746603E+03  0.35721685579E+04  0.35561904359E+04 0.  0.
        2    1    3    3  502    0 -0.69986648282E+03  0.67014241464E+03  0.16663208005E+04  0.19275707406E+04  0.25500000920E-02 0.  1.
       -2    1    3    3    0  502  0.69986648282E+03 -0.67014241464E+03 -0.13288333345E+04  0.16445978173E+04  0.25500000920E-02 0. -1.
</event>
<event>
 5   0  0.9311672E-07  0.3504911E+04  0.7818609E-02  0.8112627E-01
        2   -1    0    0  501    0  0.00000000000E+00  0.00000000000E+00  0.16333695958E+04  0.16333695958E+04  0.25500000920E-02 0. -1.
       -2   -1    0    0    0  501  0.00000000000E+00  0.00000000000E+00 -0.18802240990E+04  0.18802240990E+04  0.25500000920E-02 0.  1.
    10030    2    1    2    0    0  0.00000000000E+00  0.00000000000E+00 -0.24685450318E+03  0.35135936948E+04  0.35049113407E+04 0.  0.
        4    1    3    3  502    0  0.45312876482E+03 -0.15460627579E+04 -0.81467401348E+03  0.18053617615E+04  0.12699999809E+01 0. -1.
       -4    1    3    3    0  502 -0.45312876482E+03  0.15460627579E+04  0.56781951030E+03  0.17082319333E+04  0.12699999809E+01 0.  1.
</event>
<event>
 5   0  0.9311672E-07  0.3465195E+04  0.7818609E-02  0.8122088E-01
        2   -1    0    0  501    0  0.00000000000E+00  0.00000000000E+00  0.22253967675E+04  0.22253967675E+04  0.25500000920E-02 0. -1.
       -2   -1    0    0    0  501  0.00000000000E+00  0.00000000000E+00 -0.13489252173E+04  0.13489252173E+04  0.25500000920E-02 0.  1.
    10030    2    1    2    0    0  0.00000000000E+00  0.00000000000E+00  0.87647155023E+03  0.35743219849E+04  0.34651948391E+04 0.  0.
        4    1    3    3  502    0 -0.35642878916E+03  0.84832617873E+03  0.19525260719E+04  0.21584852239E+04  0.12699999809E+01 0. -1.
       -4    1    3    3    0  502  0.35642878916E+03 -0.84832617873E+03 -0.10760545217E+04  0.14158367610E+04  0.12699999809E+01 0.  1.
</event>
<event>
 5   0  0.8845195E-07  0.3503566E+04  0.7818609E-02  0.8112945E-01
        2   -1    0    0  501    0  0.00000000000E+00  0.00000000000E+00  0.17599432885E+04  0.17599432885E+04  0.25500000920E-02 0.  1.
       -2   -1    0    0    0  501  0.00000000000E+00  0.00000000000E+00 -0.17436608990E+04  0.17436608990E+04  0.25500000920E-02 0. -1.
    10030    2    1    2    0    0  0.00000000000E+00  0.00000000000E+00  0.16282389548E+02  0.35036041875E+04  0.35035663525E+04 0.  0.
        5    1    3    3  502    0 -0.59744378175E+03 -0.16227843945E+04 -0.27177957156E+03  0.17505012108E+04  0.46999998093E+01 0. -1.
       -5    1    3    3    0  502  0.59744378175E+03  0.16227843945E+04  0.28806196111E+03  0.17531029767E+04  0.46999998093E+01 0.  1.
</event>
<event>
 5   0  0.9128871E-07  0.3476253E+04  0.7818609E-02  0.8119441E-01
        2   -1    0    0  501    0  0.00000000000E+00  0.00000000000E+00  0.22749067128E+04  0.22749067128E+04  0.25500000920E-02 0. -1.
       -2   -1    0    0    0  501  0.00000000000E+00  0.00000000000E+00 -0.13280034815E+04  0.13280034815E+04  0.25500000920E-02 0.  1.
    10030    2    1    2    0    0  0.00000000000E+00  0.00000000000E+00  0.94690323123E+03  0.36029101943E+04  0.34762531753E+04 0.  0.
        1    1    3    3  502    0  0.31683933161E+03 -0.34780408191E+03  0.22076550877E+04  0.22572318950E+04  0.50400001928E-02 0. -1.
       -1    1    3    3    0  502 -0.31683933161E+03  0.34780408191E+03 -0.12607518565E+04  0.13456782993E+04  0.50400001928E-02 0.  1.
</event>
<event>
 5   0  0.2972541E-07  0.3483579E+04  0.7818609E-02  0.8117693E-01
        1   -1    0    0  501    0  0.00000000000E+00  0.00000000000E+00  0.20732989702E+04  0.20732989702E+04  0.50400001928E-02 0.  1.
       -1   -1    0    0    0  501  0.00000000000E+00  0.00000000000E+00 -0.14632863307E+04  0.14632863308E+04  0.50400001928E-02 0. -1.
    10030    2    1    2    0    0  0.00000000000E+00  0.00000000000E+00  0.61001263945E+03  0.35365853010E+04  0.34835786442E+04 0.  0.
        3    1    3    3  502    0  0.28110200206E+03  0.15654848624E+04 -0.41577487093E+03  0.16439677441E+04  0.10100000352E+00 0. -1.
       -3    1    3    3    0  502 -0.28110200206E+03 -0.15654848624E+04  0.10257875104E+04  0.18926175569E+04  0.10100000352E+00 0.  1.
</event>
<event>
 5   0  0.2972541E-07  0.3423075E+04  0.7818609E-02  0.8132266E-01
        1   -1    0    0  501    0  0.00000000000E+00  0.00000000000E+00  0.18381266929E+04  0.18381266929E+04  0.50400001928E-02 0.  1.
       -1   -1    0    0    0  501  0.00000000000E+00  0.00000000000E+00 -0.15936663283E+04  0.15936663283E+04  0.50400001928E-02 0. -1.
    10030    2    1    2    0    0  0.00000000000E+00  0.00000000000E+00  0.24446036460E+03  0.34317930211E+04  0.34230750021E+04 0.  0.
        3    1    3    3  502    0  0.10117059478E+04 -0.42506083313E+03  0.14390192469E+04  0.18096966707E+04  0.10100000352E+00 0.  1.
       -3    1    3    3    0  502 -0.10117059478E+04  0.42506083313E+03 -0.11945588823E+04  0.16220963505E+04  0.10100000352E+00 0. -1.
</event>
<event>
 5   0  0.2972541E-07  0.3479136E+04  0.7818609E-02  0.8118752E-01
       -1   -1    0    0    0  501  0.00000000000E+00  0.00000000000E+00  0.16035402333E+04  0.16035402333E+04  0.50400001928E-02 0. -1.
        1   -1    0    0  501    0  0.00000000000E+00  0.00000000000E+00 -0.18871352301E+04  0.18871352301E+04  0.50400001928E-02 0.  1.
    10030    2    1    2    0    0  0.00000000000E+00  0.00000000000E+00 -0.28359499678E+03  0.34906754635E+04  0.34791362533E+04 0.  0.
        3    1    3    3  502    0 -0.16875658143E+04 -0.87728571632E+02  0.27251590159E+03  0.17116774248E+04  0.10100000352E+00 0. -1.
       -3    1    3    3    0  502  0.16875658143E+04  0.87728571632E+02 -0.55611089838E+03  0.17789980386E+04  0.10100000352E+00 0.  1.
</event>
<event>
 5   0  0.8845195E-07  0.3495378E+04  0.7818609E-02  0.8114886E-01
       -2   -1    0    0    0  501  0.00000000000E+00  0.00000000000E+00  0.14221687756E+04  0.14221687757E+04  0.25500000920E-02 0. -1.
        2   -1    0    0  501    0  0.00000000000E+00  0.00000000000E+00 -0.21477177463E+04  0.21477177463E+04  0.25500000920E-02 0.  1.
    10030    2    1    2    0    0  0.00000000000E+00  0.00000000000E+00 -0.72554897065E+03  0.35698865219E+04  0.34953781585E+04 0.  0.
        5    1    3    3  502    0 -0.93697321881E+03 -0.14500967508E+04 -0.64003058252E+03  0.18412931967E+04  0.46999998093E+01 0.  1.
       -5    1    3    3    0  502  0.93697321881E+03  0.14500967508E+04 -0.85518388131E+02  0.17285933253E+04  0.46999998093E+01 0. -1.
</event>
<event>
 5   0  0.6188930E-07  0.3522074E+04  0.7818609E-02  0.8108578E-01
        2   -1    0    0  501    0  0.00000000000E+00  0.00000000000E+00  0.10306832199E+04  0.10306832199E+04  0.25500000920E-02 0.  1.
       -2   -1    0    0    0  501  0.00000000000E+00  0.00000000000E+00 -0.30089280940E+04  0.30089280940E+04  0.25500000920E-02 0. -1.
    10030    2    1    2    0    0  0.00000000000E+00  0.00000000000E+00 -0.19782448741E+04  0.40396113139E+04  0.35220742164E+04 0.  0.
        3    1    3    3  502    0  0.10601326972E+04 -0.63802471012E+03 -0.24263703140E+04  0.27236427404E+04  0.10100000352E+00 0. -1.
       -3    1    3    3    0  502 -0.10601326972E+04  0.63802471012E+03  0.44812543992E+03  0.13159685735E+04  0.10100000352E+00 0.  1.
</event>
<event>
 5   0  0.8845195E-07  0.3511791E+04  0.7818609E-02  0.8111001E-01
        2   -1    0    0  501    0  0.00000000000E+00  0.00000000000E+00  0.14053889459E+04  0.14053889459E+04  0.25500000920E-02 0.  1.
       -2   -1    0    0    0  501  0.00000000000E+00  0.00000000000E+00 -0.21938195325E+04  0.21938195325E+04  0.25500000920E-02 0. -1.
    10030    2    1    2    0    0  0.00000000000E+00  0.00000000000E+00 -0.78843058660E+03  0.35992084785E+04  0.35117914063E+04 0.  0.
        5    1    3    3  502    0 -0.16810838258E+03  0.14199809758E+03 -0.21796249223E+04  0.21907101086E+04  0.46999998093E+01 0. -1.
       -5    1    3    3    0  502  0.16810838258E+03 -0.14199809758E+03  0.13911943357E+04  0.14084983698E+04  0.46999998093E+01 0.  1.
</event>
<event>
 5   0  0.8950809E-07  0.3306076E+04  0.7818609E-02  0.8161351E-01
        2   -1    0    0  501    0  0.00000000000E+00  0.00000000000E+00  0.18896755336E+04  0.18896755336E+04  0.25500000920E-02 0.  1.
       -2   -1    0    0    0  501  0.00000000000E+00  0.00000000000E+00 -0.14460334695E+04  0.14460334695E+04  0.25500000920E-02 0. -1.
    10030    2    1    2    0    0  0.00000000000E+00  0.00000000000E+00  0.44364206419E+03  0.33357090031E+04  0.33060756604E+04 0.  0.
        2    1    3    3  502    0  0.84490745394E+03  0.79936199642E+03  0.14069496235E+04  0.18254740343E+04  0.25500000920E-02 0.  1.
       -2    1    3    3    0  502 -0.84490745394E+03 -0.79936199642E+03 -0.96330755929E+03  0.15102349688E+04  0.25500000920E-02 0. -1.
</event>
<event>
 5   0  0.2936607E-07  0.3498904E+04  0.7818609E-02  0.8114050E-01
        1   -1    0    0  501    0  0.00000000000E+00  0.00000000000E+00  0.19143707055E+04  0.19143707055E+04  0.50400001928E-02 0. -1.
       -1   -1    0    0    0  501  0.00000000000E+00  0.00000000000E+00 -0.15987404163E+04  0.15987404163E+04  0.50400001928E-02 0.  1.
    10030    2    1    2    0    0  0.00000000000E+00  0.00000000000E+00  0.31563028922E+03  0.35131111217E+04  0.34989037246E+04 0.  0.
        2    1    3    3  502    0 -0.46005185533E+03  0.66033911321E+03  0.17174693800E+04  0.18966803962E+04  0.25500000920E-02 0. -1.
       -2    1    3    3    0  502  0.46005185533E+03 -0.66033911321E+03 -0.14018390908E+04  0.16164307255E+04  0.25500000920E-02 0.  1.
</event>
<event>
 5   0  0.9128871E-07  0.3491782E+04  0.7818609E-02  0.8115740E-01
        2   -1    0    0  501    0  0.00000000000E+00  0.00000000000E+00  0.13477640746E+04  0.13477640746E+04  0.25500000920E-02 0. -1.
       -2   -1    0    0    0  501  0.00000000000E+00  0.00000000000E+00 -0.22616245025E+04  0.22616245025E+04  0.25500000920E-02 0.  1.
    10030    2    1    2    0    0  0.00000000000E+00  0.00000000000E+00 -0.91386042788E+03  0.36093885771E+04  0.34917824988E+04 0.  0.
        1    1    3    3  502    0  0.80199591260E+03  0.11934415583E+04  0.56669360895E+03  0.15455231617E+04  0.50400001928E-02 0. -1.
       -1    1    3    3    0  502 -0.80199591260E+03 -0.11934415583E+04 -0.14805540368E+04  0.20638654154E+04  0.50400001928E-02 0.  1.
</event>
<event>
 5   0  0.3061330E-07  0.3522581E+04  0.7818609E-02  0.8108459E-01
        1   -1    0    0  501    0  0.00000000000E+00  0.00000000000E+00  0.17248391014E+04  0.17248391014E+04  0.50400001928E-02 0.  1.
       -1   -1    0    0    0  501  0.00000000000E+00  0.00000000000E+00 -0.17985127026E+04  0.17985127026E+04  0.50400001928E-02 0. -1.
    10030    2    1    2    0    0  0.00000000000E+00  0.00000000000E+00 -0.73673601204E+02  0.35233518041E+04  0.35225814591E+04 0.  0.
        5    1    3    3  502    0  0.50764114460E+03 -0.93859684782E+03  0.13647045766E+04  0.17323695466E+04  0.46999998093E+01 0.  1.
       -5    1    3    3    0  502 -0.50764114460E+03  0.93859684782E+03 -0.14383781778E+04  0.17909822575E+04  0.46999998093E+01 0. -1.
</event>
<event>
 5   0  0.8845195E-07  0.3482031E+04  0.7818609E-02  0.8118062E-01
        2   -1    0    0  501    0  0.00000000000E+00  0.00000000000E+00  0.12754060446E+04  0.12754060446E+04  0.25500000920E-02 0. -1.
       -2   -1    0    0    0  501  0.00000000000E+00  0.00000000000E+00 -0.23766044289E+04  0.23766044289E+04  0.25500000920E-02 0.  1.
    10030    2    1    2    0    0  0.00000000000E+00  0.00000000000E+00 -0.11011983843E+04  0.36520104734E+04  0.34820313922E+04 0.  0.
        5    1    3    3  502    0  0.31734665090E+03  0.46315073979E+03  0.11778471612E+04  0.13048231795E+04  0.46999998093E+01 0. -1.
       -5    1    3    3    0  502 -0.31734665090E+03 -0.46315073979E+03 -0.22790455455E+04  0.23471872940E+04  0.46999998093E+01 0.  1.
</event>
<event>
 5   0  0.3026332E-07  0.3442994E+04  0.7818609E-02  0.8127434E-01
        1   -1    0    0  501    0  0.00000000000E+00  0.00000000000E+00  0.10248362258E+04  0.10248362258E+04  0.50400001928E-02 0. -1.
       -1   -1    0    0    0  501  0.00000000000E+00  0.00000000000E+00 -0.28917320693E+04  0.28917320693E+04  0.50400001928E-02 0.  1.
    10030    2    1    2    0    0  0.00000000000E+00  0.00000000000E+00 -0.18668958435E+04  0.39165682951E+04  0.34429939181E+04 0.  0.
        1    1    3    3  502    0  0.14212387015E+04 -0.78128484410E+03 -0.15901057117E+04  0.22712907406E+04  0.50400001928E-02 0.  1.
       -1    1    3    3    0  502 -0.14212387015E+04  0.78128484410E+03 -0.27679013179E+03  0.16452775545E+04  0.50400001928E-02 0. -1.
</event>
<event>
 5   0  0.2907000E-07  0.3492294E+04  0.7818609E-02  0.8115619E-01
       -3   -1    0    0    0  501  0.00000000000E+00  0.00000000000E+00  0.25476302323E+04  0.25476302343E+04  0.10100000352E+00 0. -1.
        3   -1    0    0  501    0  0.00000000000E+00  0.00000000000E+00 -0.11968100202E+04  0.11968100245E+04  0.10100000352E+00 0.  1.
    10030    2    1    2    0    0  0.00000000000E+00  0.00000000000E+00  0.13508202121E+04  0.37444402588E+04  0.34922940321E+04 0.  0.
        5    1    3    3  502    0 -0.10544258328E+04  0.45859897970E+03  0.20843979319E+04  0.23805175256E+04  0.46999998093E+01 0. -1.
       -5    1    3    3    0  502  0.10544258328E+04 -0.45859897970E+03 -0.73357771984E+03  0.13639227332E+04  0.46999998093E+01 0.  1.
</event>
<event>
 5   0  0.3026332E-07  0.3434738E+04  0.7818609E-02  0.8129433E-01
        1   -1    0    0  501    0  0.00000000000E+00  0.00000000000E+00  0.20629336710E+04  0.20629336710E+04  0.50400001928E-02 0.  1.
       -1   -1    0    0    0  501  0.00000000000E+00  0.00000000000E+00 -0.14296899723E+04  0.14296899723E+04  0.50400001928E-02 0. -1.
    10030    2    1    2    0    0  0.00000000000E+00  0.00000000000E+00  0.63324369872E+03  0.34926236433E+04  0.34347375929E+04 0.  0.
        1    1    3    3  502    0 -0.62424387988E+03  0.83701086390E+03 -0.10698408725E+04  0.14949338114E+04  0.50400001928E-02 0. -1.
       -1    1    3    3    0  502  0.62424387988E+03 -0.83701086390E+03  0.17030845712E+04  0.19976898319E+04  0.50400001928E-02 0.  1.
</event>
<event>
 5   0  0.2936607E-07  0.3563932E+04  0.7818609E-02  0.8098804E-01
       -1   -1    0    0    0  501  0.00000000000E+00  0.00000000000E+00  0.29191620292E+04  0.29191620292E+04  0.50400001928E-02 0. -1.
        1   -1    0    0  501    0  0.00000000000E+00  0.00000000000E+00 -0.10877791266E+04  0.10877791266E+04  0.50400001928E-02 0.  1.
    10030    2    1    2    0    0  0.00000000000E+00  0.00000000000E+00  0.18313829026E+04  0.40069411558E+04  0.35639323914E+04 0.  0.
        2    1    3    3  502    0  0.16670379017E+04  0.19631362632E+03  0.15882552429E+04  0.23108676124E+04  0.25500000920E-02 0.  1.
       -2    1    3    3    0  502 -0.16670379017E+04 -0.19631362632E+03  0.24312765967E+03  0.16960735434E+04  0.25500000920E-02 0. -1.
</event>
<event>
 5   0  0.2972541E-07  0.3471479E+04  0.7818609E-02  0.8120582E-01
        1   -1    0    0  501    0  0.00000000000E+00  0.00000000000E+00  0.23320009843E+04  0.23320009843E+04  0.50400001928E-02 0.  1.
       -1   -1    0    0    0  501  0.00000000000E+00  0.00000000000E+00 -0.12919343096E+04  0.12919343096E+04  0.50400001928E-02 0. -1.
    10030    2    1    2    0    0  0.00000000000E+00  0.00000000000E+00  0.10400666747E+04  0.36239352940E+04  0.34714792707E+04 0.  0.
        3    1    3    3  502    0 -0.14534164843E+04 -0.85486238262E+03  0.94992288828E+03  0.19353456213E+04  0.10100000352E+00 0. -1.
       -3    1    3    3    0  502  0.14534164843E+04  0.85486238262E+03  0.90143786457E+02  0.16885896726E+04  0.10100000352E+00 0.  1.
</event>
<event>
 5   0  0.2933506E-07  0.3487475E+04  0.7818609E-02  0.8116765E-01
        1   -1    0    0  501    0  0.00000000000E+00  0.00000000000E+00  0.17296001059E+04  0.17296001059E+04  0.50400001928E-02 0.  1.
       -1   -1    0    0    0  501  0.00000000000E+00  0.00000000000E+00 -0.17579902063E+04  0.17579902064E+04  0.50400001928E-02 0. -1.
    10030    2    1    2    0    0  0.00000000000E+00  0.00000000000E+00 -0.28390100411E+02  0.34875903123E+04  0.34874747581E+04 0.  0.
        4    1    3    3  502    0 -0.79784927507E+02 -0.16381529993E+04  0.57803023757E+03  0.17389742529E+04  0.12699999809E+01 0.  1.
       -4    1    3    3    0  502  0.79784927507E+02  0.16381529993E+04 -0.60642033798E+03  0.17486160594E+04  0.12699999809E+01 0. -1.
</event>
<event>
 5   0  0.8845195E-07  0.3488658E+04  0.7818609E-02  0.8116483E-01
       -2   -1    0    0    0  501  0.00000000000E+00  0.00000000000E+00  0.16378098694E+04  0.16378098694E+04  0.25500000920E-02 0.  1.
        2   -1    0    0  501    0  0.00000000000E+00  0.00000000000E+00 -0.18577760465E+04  0.18577760465E+04  0.25500000920E-02 0. -1.
    10030    2    1    2    0    0  0.00000000000E+00  0.00000000000E+00 -0.21996617706E+03  0.34955859159E+04  0.34886581627E+04 0.  0.
        5    1    3    3  502    0 -0.13438636861E+04 -0.10636196734E+04 -0.43528983609E+03  0.17682634837E+04  0.46999998093E+01 0. -1.
       -5    1    3    3    0  502  0.13438636861E+04  0.10636196734E+04  0.21532365903E+03  0.17273224322E+04  0.46999998093E+01 0.  1.
</event>
<event>
 5   0  0.8950809E-07  0.3463484E+04  0.7818609E-02  0.8122499E-01
       -2   -1    0    0    0  501  0.00000000000E+00  0.00000000000E+00  0.17345324871E+04  0.17345324871E+04  0.25500000920E-02 0. -1.
        2   -1    0    0  501    0  0.00000000000E+00  0.00000000000E+00 -0.17289560264E+04  0.17289560264E+04  0.25500000920E-02 0.  1.
    10030    2    1    2    0    0  0.00000000000E+00  0.00000000000E+00  0.55764606765E+01  0.34634885135E+04  0.34634840243E+04 0.  0.
        2    1    3    3  502    0  0.15273761281E+03 -0.67041287265E+03 -0.15865999372E+04  0.17291852298E+04  0.25500000920E-02 0.  1.
       -2    1    3    3    0  502 -0.15273761281E+03  0.67041287265E+03  0.15921763978E+04  0.17343032838E+04  0.25500000920E-02 0. -1.
</event>
<event>
 5   0  0.8845195E-07  0.3438801E+04  0.7818609E-02  0.8128448E-01
       -2   -1    0    0    0  501  0.00000000000E+00  0.00000000000E+00  0.11010304119E+04  0.11010304119E+04  0.25500000920E-02 0.  1.
        2   -1    0    0  501    0  0.00000000000E+00  0.00000000000E+00 -0.26850653850E+04  0.26850653850E+04  0.25500000920E-02 0. -1.
    10030    2    1    2    0    0  0.00000000000E+00  0.00000000000E+00 -0.15840349731E+04  0.37860957970E+04  0.34388013301E+04 0.  0.
        5    1    3    3  502    0  0.10558373790E+04 -0.33944210021E+03 -0.22385994002E+04  0.24982719777E+04  0.46999998093E+01 0. -1.
       -5    1    3    3    0  502 -0.10558373790E+04  0.33944210021E+03  0.65456442707E+03  0.12878238193E+04  0.46999998093E+01 0.  1.
</event>
<event>
 5   0  0.2972541E-07  0.3514053E+04  0.7818609E-02  0.8110468E-01
       -1   -1    0    0    0  501  0.00000000000E+00  0.00000000000E+00  0.16568492977E+04  0.16568492978E+04  0.50400001928E-02 0. -1.
        1   -1    0    0  501    0  0.00000000000E+00  0.00000000000E+00 -0.18632603202E+04  0.18632603202E+04  0.50400001928E-02 0.  1.
    10030    2    1    2    0    0  0.00000000000E+00  0.00000000000E+00 -0.20641102248E+03  0.35201096180E+04  0.35140526764E+04 0.  0.
        3    1    3    3  502    0  0.11393895828E+04 -0.13362713531E+04 -0.16085287643E+03  0.17634351161E+04  0.10100000352E+00 0. -1.
       -3    1    3    3    0  502 -0.11393895828E+04  0.13362713531E+04 -0.45558146051E+02  0.17566745019E+04  0.10100000352E+00 0.  1.
</event>
<event>
 5   0  0.3061330E-07  0.3511549E+04  0.7818609E-02  0.8111058E-01
        1   -1    0    0  501    0  0.00000000000E+00  0.00000000000E+00  0.13505922295E+04  0.13505922295E+04  0.50400001928E-02 0. -1.
       -1   -1    0    0    0  501  0.00000000000E+00  0.00000000000E+00 -0.22825124535E+04  0.22825124535E+04  0.50400001928E-02 0.  1.
    10030    2    1    2    0    0  0.00000000000E+00  0.00000000000E+00 -0.93192022396E+03  0.36331046830E+04  0.35115487087E+04 0.  0.
        5    1    3    3  502    0 -0.98695746789E+03 -0.95464171815E+03 -0.15980474037E+04  0.21069417287E+04  0.46999998093E+01 0.  1.
       -5    1    3    3    0  502  0.98695746789E+03  0.95464171815E+03  0.66612717979E+03  0.15261629543E+04  0.46999998093E+01 0. -1.
</event>
<event>
 5   0  0.6188930E-07  0.3454138E+04  0.7818609E-02  0.8124745E-01
       -2   -1    0    0    0  501  0.00000000000E+00  0.00000000000E+00  0.11913518389E+04  0.11913518389E+04  0.25500000920E-02 0. -1.
        2   -1    0    0  501    0  0.00000000000E+00  0.00000000000E+00 -0.25036829064E+04  0.25036829064E+04  0.25500000920E-02 0.  1.
    10030    2    1    2    0    0  0.00000000000E+00  0.00000000000E+00 -0.13123310675E+04  0.36950347452E+04  0.34541379442E+04 0.  0.
        3    1    3    3  502    0  0.10970641278E+04  0.13323950824E+04 -0.58901108176E+03  0.18236667515E+04  0.10100000352E+00 0.  1.
       -3    1    3    3    0  502 -0.10970641278E+04 -0.13323950824E+04 -0.72331998572E+03  0.18713679937E+04  0.10100000352E+00 0. -1.
</event>
<event>
 5   0  0.6188930E-07  0.3524791E+04  0.7818609E-02  0.8107940E-01
       -2   -1    0    0    0  501  0.00000000000E+00  0.00000000000E+00  0.12470396767E+04  0.12470396767E+04  0.25500000920E-02 0. -1.
        2   -1    0    0  501    0  0.00000000000E+00  0.00000000000E+00 -0.24907287939E+04  0.24907287939E+04  0.25500000920E-02 0.  1.
    10030    2    1    2    0    0  0.00000000000E+00  0.00000000000E+00 -0.12436891172E+04  0.37377684706E+04  0.35247908476E+04 0.  0.
        3    1    3    3  502    0  0.72878503282E+02  0.90012367145E+03  0.98304275790E+03  0.13348808839E+04  0.10100000352E+00 0. -1.
       -3    1    3    3    0  502 -0.72878503282E+02 -0.90012367145E+03 -0.22267318751E+04  0.24028875867E+04  0.10100000352E+00 0.  1.
</event>
<event>
 5   0  0.9311672E-07  0.3531048E+04  0.7818609E-02  0.8106471E-01
       -2   -1    0    0    0  501  0.00000000000E+00  0.00000000000E+00  0.15494160315E+04  0.15494160315E+04  0.25500000920E-02 0.  1.
        2   -1    0    0  501    0  0.00000000000E+00  0.00000000000E+00 -0.20117745773E+04  0.20117745773E+04  0.25500000920E-02 0. -1.
    10030    2    1    2    0    0  0.00000000000E+00  0.00000000000E+00 -0.46235854582E+03  0.35611906088E+04  0.35310484459E+04 0.  0.
        4    1    3    3  502    0 -0.11372467759E+04 -0.45126156649E+03 -0.15148788091E+04  0.19472613203E+04  0.12699999809E+01 0. -1.
       -4    1    3    3    0  502  0.11372467759E+04  0.45126156649E+03  0.10525202633E+04  0.16139292884E+04  0.12699999809E+01 0.  1.
</event>
<event>
 5   0  0.6188930E-07  0.3524251E+04  0.7818609E-02  0.8108067E-01
       -2   -1    0    0    0  501  0.00000000000E+00  0.00000000000E+00  0.18090237188E+04  0.18090237188E+04  0.25500000920E-02 0.  1.
        2   -1    0    0  501    0  0.00000000000E+00  0.00000000000E+00 -0.17164428065E+04  0.17164428065E+04  0.25500000920E-02 0. -1.
    10030    2    1    2    0    0  0.00000000000E+00  0.00000000000E+00  0.92580912279E+02  0.35254665254E+04  0.35242507000E+04 0.  0.
        3    1    3    3  502    0 -0.22223984979E+03 -0.17083165088E+04  0.41702577725E+03  0.17724689995E+04  0.10100000352E+00 0.  1.
       -3    1    3    3    0  502  0.22223984979E+03  0.17083165088E+04 -0.32444486497E+03  0.17529975259E+04  0.10100000352E+00 0. -1.
</event>
<event>
 5   0  0.9128871E-07  0.3508713E+04  0.7818609E-02  0.8111728E-01
        2   -1    0    0  501    0  0.00000000000E+00  0.00000000000E+00  0.23885053244E+04  0.23885053244E+04  0.25500000920E-02 0. -1.
       -2   -1    0    0    0  501  0.00000000000E+00  0.00000000000E+00 -0.12885747088E+04  0.12885747088E+04  0.25500000920E-02 0.  1.
    10030    2    1    2    0    0  0.00000000000E+00  0.00000000000E+00  0.10999306156E+04  0.36770800333E+04  0.35087134696E+04 0.  0.
        1    1    3    3  502    0 -0.98876999178E+02 -0.13025756141E+04  0.17771769388E+04  0.22056377226E+04  0.50400001928E-02 0. -1.
       -1    1    3    3    0  502  0.98876999178E+02  0.13025756141E+04 -0.67724632312E+03  0.14714423107E+04  0.50400001928E-02 0.  1.
</event>
<event>
 5   0  0.6188930E-07  0.3477684E+04  0.7818609E-02  0.8119099E-01
        2   -1    0    0  501    0  0.00000000000E+00  0.00000000000E+00  0.11182131621E+04  0.11182131621E+04  0.25500000920E-02 0. -1.
       -2   -1    0    0    0  501  0.00000000000E+00  0.00000000000E+00 -0.27039312607E+04  0.27039312607E+04  0.25500000920E-02 0.  1.
    10030    2    1    2    0    0  0.00000000000E+00  0.00000000000E+00 -0.15857180985E+04  0.38221444228E+04  0.34776840139E+04 0.  0.
        3    1    3    3  502    0 -0.14714514534E+04  0.44628918930E+03  0.99490129053E+02  0.15408574613E+04  0.10100000352E+00 0. -1.
       -3    1    3    3    0  502  0.14714514534E+04 -0.44628918930E+03 -0.16852082276E+04  0.22812869615E+04  0.10100000352E+00 0.  1.
</event>
<event>
 5   0  0.8845195E-07  0.3390067E+04  0.7818609E-02  0.8140349E-01
       -2   -1    0    0    0  501  0.00000000000E+00  0.00000000000E+00  0.13521421888E+04  0.13521421888E+04  0.25500000920E-02 0.  1.
        2   -1    0    0  501    0  0.00000000000E+00  0.00000000000E+00 -0.21248786534E+04  0.21248786534E+04  0.25500000920E-02 0. -1.
    10030    2    1    2    0    0  0.00000000000E+00  0.00000000000E+00 -0.77273646454E+03  0.34770208422E+04  0.33900667093E+04 0.  0.
        5    1    3    3  502    0 -0.12126632511E+04 -0.40044077901E+03 -0.15295011634E+04  0.19925613859E+04  0.46999998093E+01 0. -1.
       -5    1    3    3    0  502  0.12126632511E+04  0.40044077901E+03  0.75676469882E+03  0.14844594563E+04  0.46999998093E+01 0.  1.
</event>
<event>
 5   0  0.2972541E-07  0.3485016E+04  0.7818609E-02  0.8117350E-01
       -1   -1    0    0    0  501  0.00000000000E+00  0.00000000000E+00  0.10675982529E+04  0.10675982529E+04  0.50400001928E-02 0. -1.
        1   -1    0    0  501    0  0.00000000000E+00  0.00000000000E+00 -0.28440793021E+04  0.28440793021E+04  0.50400001928E-02 0.  1.
    10030    2    1    2    0    0  0.00000000000E+00  0.00000000000E+00 -0.17764810492E+04  0.39116775550E+04  0.34850159793E+04 0.  0.
        3    1    3    3  502    0 -0.12304351662E+04 -0.27713907999E+03  0.46126893248E+03  0.13429615803E+04  0.10100000352E+00 0. -1.
       -3    1    3    3    0  502  0.12304351662E+04  0.27713907999E+03 -0.22377499817E+04  0.25687159747E+04  0.10100000352E+00 0.  1.
</event>
<event>
 5   0  0.2907000E-07  0.3430413E+04  0.7818609E-02  0.8130482E-01
       -3   -1    0    0    0  501  0.00000000000E+00  0.00000000000E+00  0.13777564574E+04  0.13777564611E+04  0.10100000352E+00 0. -1.
        3   -1    0    0  501    0  0.00000000000E+00  0.00000000000E+00 -0.21353068732E+04  0.21353068755E+04  0.10100000352E+00 0.  1.
    10030    2    1    2    0    0  0.00000000000E+00  0.00000000000E+00 -0.75755041573E+03  0.35130633367E+04  0.34304127121E+04 0.  0.
        5    1    3    3  502    0 -0.32784393924E+02  0.17137989482E+04 -0.31623752886E+03  0.17430461601E+04  0.46999998093E+01 0. -1.
       -5    1    3    3    0  502  0.32784393924E+02 -0.17137989482E+04 -0.44131288687E+03  0.17700171766E+04  0.46999998093E+01 0.  1.
</event>
<event>
 5   0  0.3026332E-07  0.3605802E+04  0.7818609E-02  0.8089164E-01
       -1   -1    0    0    0  501  0.00000000000E+00  0.00000000000E+00  0.16599526073E+04  0.16599526073E+04  0.50400001928E-02 0.  1.
        1   -1    0    0  501    0  0.00000000000E+00  0.00000000000E+00 -0.19581592378E+04  0.19581592378E+04  0.50400001928E-02 0. -1.
    10030    2    1    2    0    0  0.00000000000E+00  0.00000000000E+00 -0.29820663050E+03  0.36181118452E+04  0.36058017319E+04 0.  0.
        1    1    3    3  502    0  0.28814450187E+03 -0.79195304288E+03 -0.17483559074E+04  0.19408671399E+04  0.50400001928E-02 0. -1.
       -1    1    3    3    0  502 -0.28814450187E+03  0.79195304288E+03  0.14501492769E+04  0.16772447052E+04  0.50400001928E-02 0.  1.
</event>
<event>
 5   0  0.2972541E-07  0.3510353E+04  0.7818609E-02  0.8111341E-01
       -1   -1    0    0    0  501  0.00000000000E+00  0.00000000000E+00  0.17223023748E+04  0.17223023748E+04  0.50400001928E-02 0.  1.
        1   -1    0    0  501    0  0.00000000000E+00  0.00000000000E+00 -0.17886784420E+04  0.17886784420E+04  0.50400001928E-02 0. -1.
    10030    2    1    2    0    0  0.00000000000E+00  0.00000000000E+00 -0.66376067212E+02  0.35109808168E+04  0.35103533317E+04 0.  0.
        3    1    3    3  502    0  0.20202624620E+03  0.17231273970E+04 -0.29905971754E+03  0.17605167864E+04  0.10100000352E+00 0. -1.
       -3    1    3    3    0  502 -0.20202624620E+03 -0.17231273970E+04  0.23268365033E+03  0.17504640304E+04  0.10100000352E+00 0.  1.
</event>
<event>
 5   0  0.2933506E-07  0.3414673E+04  0.7818609E-02  0.8134314E-01
       -1   -1    0    0    0  501  0.00000000000E+00  0.00000000000E+00  0.15545172732E+04  0.15545172732E+04  0.50400001928E-02 0. -1.
        1   -1    0    0  501    0  0.00000000000E+00  0.00000000000E+00 -0.18751787449E+04  0.18751787449E+04  0.50400001928E-02 0.  1.
    10030    2    1    2    0    0  0.00000000000E+00  0.00000000000E+00 -0.32066147173E+03  0.34296960181E+04  0.34146728975E+04 0.  0.
        4    1    3    3  502    0 -0.46927491942E+03  0.15625477761E+04 -0.66575597453E+03  0.17621030427E+04  0.12699999809E+01 0. -1.
       -4    1    3    3    0  502  0.46927491942E+03 -0.15625477761E+04  0.34509450279E+03  0.16675929753E+04  0.12699999809E+01 0.  1.
</event>
<event>
 5   0  0.2936607E-07  0.3462350E+04  0.7818609E-02  0.8122771E-01
       -1   -1    0    0    0  501  0.00000000000E+00  0.00000000000E+00  0.12017490994E+04  0.12017490994E+04  0.50400001928E-02 0.  1.
        1   -1    0    0  501    0  0.00000000000E+00  0.00000000000E+00 -0.24938374152E+04  0.24938374152E+04  0.50400001928E-02 0. -1.
    10030    2    1    2    0    0  0.00000000000E+00  0.00000000000E+00 -0.12920883158E+04  0.36955865146E+04  0.34623499926E+04 0.  0.
        2    1    3    3  502    0 -0.22785858044E+03  0.15958723927E+04  0.27527966975E+02  0.16122921619E+04  0.25500000920E-02 0.  1.
       -2    1    3    3    0  502  0.22785858044E+03 -0.15958723927E+04 -0.13196162828E+04  0.20832943527E+04  0.25500000920E-02 0. -1.
</event>
<event>
 5   0  0.9311672E-07  0.3516278E+04  0.7818609E-02  0.8109943E-01
       -2   -1    0    0    0  501  0.00000000000E+00  0.00000000000E+00  0.18513232189E+04  0.18513232189E+04  0.25500000920E-02 0.  1.
        2   -1    0    0  501    0  0.00000000000E+00  0.00000000000E+00 -0.16696448643E+04  0.16696448643E+04  0.25500000920E-02 0. -1.
    10030    2    1    2    0    0  0.00000000000E+00  0.00000000000E+00  0.18167835453E+03  0.35209680832E+04  0.35162777505E+04 0.  0.
        4    1    3    3  502    0 -0.38653460690E+03  0.60039542124E+03  0.16995832878E+04  0.18434935935E+04  0.12699999809E+01 0.  1.
       -4    1    3    3    0  502  0.38653460690E+03 -0.60039542124E+03 -0.15179049333E+04  0.16774744897E+04  0.12699999809E+01 0. -1.
</event>
<event>
 5   0  0.6188930E-07  0.3513024E+04  0.7818609E-02  0.8110710E-01
        2   -1    0    0  501    0  0.00000000000E+00  0.00000000000E+00  0.18669789057E+04  0.18669789057E+04  0.25500000920E-02 0. -1.
       -2   -1    0    0    0  501  0.00000000000E+00  0.00000000000E+00 -0.16525810805E+04  0.16525810805E+04  0.25500000920E-02 0.  1.
    10030    2    1    2    0    0  0.00000000000E+00  0.00000000000E+00  0.21439782517E+03  0.35195599862E+04  0.35130237786E+04 0.  0.
        3    1    3    3  502    0  0.13733062355E+04 -0.70865754834E+03 -0.72932074469E+03  0.17088224882E+04  0.10100000352E+00 0.  1.
       -3    1    3    3    0  502 -0.13733062355E+04  0.70865754834E+03  0.94371856986E+03  0.18107374980E+04  0.10100000352E+00 0. -1.
</event>
<event>
 5   0  0.2933506E-07  0.3454519E+04  0.7818609E-02  0.8124654E-01
        1   -1    0    0  501    0  0.00000000000E+00  0.00000000000E+00  0.17291237265E+04  0.17291237265E+04  0.50400001928E-02 0. -1.
       -1   -1    0    0    0  501  0.00000000000E+00  0.00000000000E+00 -0.17253972288E+04  0.17253972288E+04  0.50400001928E-02 0.  1.
    10030    2    1    2    0    0  0.00000000000E+00  0.00000000000E+00  0.37264976783E+01  0.34545209553E+04  0.34545189453E+04 0.  0.
        4    1    3    3  502    0 -0.32210320476E+03 -0.13293230584E+04  0.10566498147E+04  0.17283983082E+04  0.12699999809E+01 0. -1.
       -4    1    3    3    0  502  0.32210320476E+03  0.13293230584E+04 -0.10529233170E+04  0.17261226470E+04  0.12699999809E+01 0.  1.
</event>
<event>
 5   0  0.6188930E-07  0.3468776E+04  0.7818609E-02  0.8121230E-01
       -2   -1    0    0    0  501  0.00000000000E+00  0.00000000000E+00  0.17746396582E+04  0.17746396582E+04  0.25500000920E-02 0. -1.
        2   -1    0    0  501    0  0.00000000000E+00  0.00000000000E+00 -0.16950495708E+04  0.16950495708E+04  0.25500000920E-02 0.  1.
    10030    2    1    2    0    0  0.00000000000E+00  0.00000000000E+00  0.79590087432E+02  0.34696892290E+04  0.34687762631E+04 0.  0.
        3    1    3    3  502    0 -0.37968445289E+03  0.12008216163E+04  0.12325724549E+04  0.17622053526E+04  0.10100000352E+00 0. -1.
       -3    1    3    3    0  502  0.37968445289E+03 -0.12008216163E+04 -0.11529823675E+04  0.17074838763E+04  0.10100000352E+00 0.  1.
</event>
<event>
 5   0  0.9128871E-07  0.3328064E+04  0.7818609E-02  0.8155791E-01
       -2   -1    0    0    0  501  0.00000000000E+00  0.00000000000E+00  0.91517929355E+03  0.91517929355E+03  0.25500000920E-02 0.  1.
        2   -1    0    0  501    0  0.00000000000E+00  0.00000000000E+00 -0.30256388733E+04  0.30256388733E+04  0.25500000920E-02 0. -1.
    10030    2    1    2    0    0  0.00000000000E+00  0.00000000000E+00 -0.21104595797E+04  0.39408181668E+04  0.33280637293E+04 0.  0.
        1    1    3    3  502    0 -0.64984443012E+03  0.14776537335E+03 -0.28607155490E+04  0.29373160949E+04  0.50400001928E-02 0. -1.
       -1    1    3    3    0  502  0.64984443012E+03 -0.14776537335E+03  0.75025596928E+03  0.10035020719E+04  0.50400001928E-02 0.  1.
</event>
<event>
 5   0  0.8950809E-07  0.3533280E+04  0.7818609E-02  0.8105948E-01
       -2   -1    0    0    0  501  0.00000000000E+00  0.00000000000E+00  0.12160199708E+04  0.12160199708E+04  0.25500000920E-02 0. -1.
        2   -1    0    0  501    0  0.00000000000E+00  0.00000000000E+00 -0.25665835346E+04  0.25665835346E+04  0.25500000920E-02 0.  1.
    10030    2    1    2    0    0  0.00000000000E+00  0.00000000000E+00 -0.13505635637E+04  0.37826035054E+04  0.35332799690E+04 0.  0.
        2    1    3    3  502    0 -0.15813264506E+04 -0.65115337103E+03 -0.11497517129E+04  0.20607093578E+04  0.25500000920E-02 0.  1.
       -2    1    3    3    0  502  0.15813264506E+04  0.65115337103E+03 -0.20081185079E+03  0.17218941476E+04  0.25500000920E-02 0. -1.
</event>
<event>
 5   0  0.8845195E-07  0.3460186E+04  0.7818609E-02  0.8123291E-01
       -2   -1    0    0    0  501  0.00000000000E+00  0.00000000000E+00  0.13706461615E+04  0.13706461615E+04  0.25500000920E-02 0.  1.
        2   -1    0    0  501    0  0.00000000000E+00  0.00000000000E+00 -0.21838038331E+04  0.21838038331E+04  0.25500000920E-02 0. -1.
    10030    2    1    2    0    0  0.00000000000E+00  0.00000000000E+00 -0.81315767159E+03  0.35544499945E+04  0.34601863194E+04 0.  0.
        5    1    3    3  502    0 -0.10716264139E+04  0.13423210501E+04 -0.61957074475E+03  0.18259515246E+04  0.46999998093E+01 0. -1.
       -5    1    3    3    0  502  0.10716264139E+04 -0.13423210501E+04 -0.19358692683E+03  0.17284984699E+04  0.46999998093E+01 0.  1.
</event>
<event>
 5   0  0.2933506E-07  0.3621825E+04  0.7818609E-02  0.8085511E-01
       -1   -1    0    0    0  501  0.00000000000E+00  0.00000000000E+00  0.14819721945E+04  0.14819721945E+04  0.50400001928E-02 0. -1.
        1   -1    0    0  501    0  0.00000000000E+00  0.00000000000E+00 -0.22128651023E+04  0.22128651023E+04  0.50400001928E-02 0.  1.
    10030    2    1    2    0    0  0.00000000000E+00  0.00000000000E+00 -0.73089290787E+03  0.36948372968E+04  0.36218252590E+04 0.  0.
        4    1    3    3  502    0 -0.18468759597E+03  0.17992206272E+04 -0.27364028418E+03  0.18292580440E+04  0.12699999809E+01 0. -1.
       -4    1    3    3    0  502  0.18468759597E+03 -0.17992206272E+04 -0.45725262369E+03  0.18655792528E+04  0.12699999809E+01 0.  1.
</event>
<event>
 5   0  0.6188930E-07  0.3362333E+04  0.7818609E-02  0.8147213E-01
        2   -1    0    0  501    0  0.00000000000E+00  0.00000000000E+00  0.25094117967E+04  0.25094117967E+04  0.25500000920E-02 0. -1.
       -2   -1    0    0    0  501  0.00000000000E+00  0.00000000000E+00 -0.11262884666E+04  0.11262884666E+04  0.25500000920E-02 0.  1.
    10030    2    1    2    0    0  0.00000000000E+00  0.00000000000E+00  0.13831233300E+04  0.36357002633E+04  0.33623334544E+04 0.  0.
        3    1    3    3  502    0 -0.13972864982E+04  0.79031047252E+03  0.15164463307E+03  0.16124504042E+04  0.10100000352E+00 0.  1.
       -3    1    3    3    0  502  0.13972864982E+04 -0.79031047252E+03  0.12314786970E+04  0.20232498591E+04  0.10100000352E+00 0. -1.
</event>
<event>
 5   0  0.8845195E-07  0.3506356E+04  0.7818609E-02  0.8112285E-01
        2   -1    0    0  501    0  0.00000000000E+00  0.00000000000E+00  0.19238756473E+04  0.19238756473E+04  0.25500000920E-02 0.  1.
       -2   -1    0    0    0  501  0.00000000000E+00  0.00000000000E+00 -0.15976255191E+04  0.15976255191E+04  0.25500000920E-02 0. -1.
    10030    2    1    2    0    0  0.00000000000E+00  0.00000000000E+00  0.32625012820E+03  0.35215011664E+04  0.35063558460E+04 0.  0.
        5    1    3    3  502    0  0.32872388282E+03  0.19487883615E+03 -0.15552808471E+04  0.16015485491E+04  0.46999998093E+01 0. -1.
       -5    1    3    3    0  502 -0.32872388282E+03 -0.19487883615E+03  0.18815309753E+04  0.19199526173E+04  0.46999998093E+01 0.  1.
</event>
<event>
 5   0  0.3061330E-07  0.3445237E+04  0.7818609E-02  0.8126892E-01
       -1   -1    0    0    0  501  0.00000000000E+00  0.00000000000E+00  0.13422488430E+04  0.13422488430E+04  0.50400001928E-02 0. -1.
        1   -1    0    0  501    0  0.00000000000E+00  0.00000000000E+00 -0.22107776022E+04  0.22107776022E+04  0.50400001928E-02 0.  1.
    10030    2    1    2    0    0  0.00000000000E+00  0.00000000000E+00 -0.86852875925E+03  0.35530264452E+04  0.34452365252E+04 0.  0.
        5    1    3    3  502    0  0.20217562115E+03  0.13233304221E+04  0.68377269241E+03  0.15032117525E+04  0.46999998093E+01 0. -1.
       -5    1    3    3    0  502 -0.20217562115E+03 -0.13233304221E+04 -0.15523014517E+04  0.20498146928E+04  0.46999998093E+01 0.  1.
</event>
<event>
 5   0  0.2933506E-07  0.3458018E+04  0.7818609E-02  0.8123812E-01
       -1   -1    0    0    0  501  0.00000000000E+00  0.00000000000E+00  0.23531878862E+04  0.23531878862E+04  0.50400001928E-02 0.  1.
        1   -1    0    0  501    0  0.00000000000E+00  0.00000000000E+00 -0.12703922795E+04  0.12703922795E+04  0.50400001928E-02 0. -1.
    10030    2    1    2    0    0  0.00000000000E+00  0.00000000000E+00  0.10827956066E+04  0.36235801657E+04  0.34580177691E+04 0.  0.
        4    1    3    3  502    0  0.13588845278E+04  0.10236985717E+04  0.21851505780E+03  0.17153064942E+04  0.12699999809E+01 0. -1.
       -4    1    3    3    0  502 -0.13588845278E+04 -0.10236985717E+04  0.86428054885E+03  0.19082736716E+04  0.12699999809E+01 0.  1.
</event>
<event>
 5   0  0.3026332E-07  0.3498752E+04  0.7818609E-02  0.8114086E-01
        1   -1    0    0  501    0  0.00000000000E+00  0.00000000000E+00  0.11420023651E+04  0.11420023651E+04  0.50400001928E-02 0. -1.
       -1   -1    0    0    0  501  0.00000000000E+00  0.00000000000E+00 -0.26797808853E+04  0.26797808854E+04  0.50400001928E-02 0.  1.
    10030    2    1    2    0    0  0.00000000000E+00  0.00000000000E+00 -0.15377785203E+04  0.38217832504E+04  0.34987518397E+04 0.  0.
        1    1    3    3  502    0  0.40928560386E+03 -0.11403846497E+04 -0.21472683241E+04  0.24655127480E+04  0.50400001928E-02 0.  1.
       -1    1    3    3    0  502 -0.40928560386E+03  0.11403846497E+04  0.60948980382E+03  0.13562705025E+04  0.50400001928E-02 0. -1.
</event>
<event>
 5   0  0.3061330E-07  0.3524464E+04  0.7818609E-02  0.8108017E-01
       -1   -1    0    0    0  501  0.00000000000E+00  0.00000000000E+00  0.25944689228E+04  0.25944689228E+04  0.50400001928E-02 0. -1.
        1   -1    0    0  501    0  0.00000000000E+00  0.00000000000E+00 -0.11969543952E+04  0.11969543952E+04  0.50400001928E-02 0.  1.
    10030    2    1    2    0    0  0.00000000000E+00  0.00000000000E+00  0.13975145277E+04  0.37914233180E+04  0.35244636360E+04 0.  0.
        5    1    3    3  502    0 -0.13004524937E+03  0.17449052162E+04  0.47353599842E+03  0.18126953446E+04  0.46999998093E+01 0.  1.
       -5    1    3    3    0  502  0.13004524937E+03 -0.17449052162E+04  0.92397852924E+03  0.19787279735E+04  0.46999998093E+01 0. -1.
</event>
<event>
 5   0  0.2972541E-07  0.3581088E+04  0.7818609E-02  0.8094838E-01
       -1   -1    0    0    0  501  0.00000000000E+00  0.00000000000E+00  0.12710749498E+04  0.12710749499E+04  0.50400001928E-02 0. -1.
        1   -1    0    0  501    0  0.00000000000E+00  0.00000000000E+00 -0.25223115755E+04  0.25223115755E+04  0.50400001928E-02 0.  1.
    10030    2    1    2    0    0  0.00000000000E+00  0.00000000000E+00 -0.12512366257E+04  0.37933865254E+04  0.35810875775E+04 0.  0.
        3    1    3    3  502    0  0.50598948320E+03 -0.16957897689E+04 -0.91439448725E+03  0.19919451764E+04  0.10100000352E+00 0.  1.
       -3    1    3    3    0  502 -0.50598948320E+03  0.16957897689E+04 -0.33684213844E+03  0.18014413490E+04  0.10100000352E+00 0. -1.
</event>
<event>
 5   0  0.2933506E-07  0.3484712E+04  0.7818609E-02  0.8117423E-01
       -1   -1    0    0    0  501  0.00000000000E+00  0.00000000000E+00  0.15419338449E+04  0.15419338449E+04  0.50400001928E-02 0. -1.
        1   -1    0    0  501    0  0.00000000000E+00  0.00000000000E+00 -0.19688290044E+04  0.19688290044E+04  0.50400001928E-02 0.  1.
    10030    2    1    2    0    0  0.00000000000E+00  0.00000000000E+00 -0.42689515947E+03  0.35107628493E+04  0.34847117968E+04 0.  0.
        4    1    3    3  502    0  0.15633090844E+04  0.18699927704E+02 -0.98829897818E+03  0.18496003524E+04  0.12699999809E+01 0.  1.
       -4    1    3    3    0  502 -0.15633090844E+04 -0.18699927704E+02  0.56140381871E+03  0.16611624969E+04  0.12699999809E+01 0. -1.
</event>
<event>
 5   0  0.3061330E-07  0.3488094E+04  0.7818609E-02  0.8116617E-01
        1   -1    0    0  501    0  0.00000000000E+00  0.00000000000E+00  0.21565714813E+04  0.21565714813E+04  0.50400001928E-02 0. -1.
       -1   -1    0    0    0  501  0.00000000000E+00  0.00000000000E+00 -0.14104332854E+04  0.14104332854E+04  0.50400001928E-02 0.  1.
    10030    2    1    2    0    0  0.00000000000E+00  0.00000000000E+00  0.74613819593E+03  0.35670047667E+04  0.34880941498E+04 0.  0.
        5    1    3    3  502    0  0.71516654029E+03 -0.88475837313E+03 -0.97873524552E+03  0.15007349300E+04  0.46999998093E+01 0.  1.
       -5    1    3    3    0  502 -0.71516654029E+03  0.88475837313E+03  0.17248734415E+04  0.20662698367E+04  0.46999998093E+01 0. -1.
</event>
<event>
 5   0  0.9128871E-07  0.3435612E+04  0.7818609E-02  0.8129221E-01
       -2   -1    0    0    0  501  0.00000000000E+00  0.00000000000E+00  0.20325798812E+04  0.20325798812E+04  0.25500000920E-02 0. -1.
        2   -1    0    0  501    0  0.00000000000E+00  0.00000000000E+00 -0.14517792487E+04  0.14517792487E+04  0.25500000920E-02 0.  1.
    10030    2    1    2    0    0  0.00000000000E+00  0.00000000000E+00  0.58080063246E+03  0.34843591299E+04  0.34356119064E+04 0.  0.
        1    1    3    3  502    0  0.98319243256E+03  0.19427631975E+03 -0.11245463284E+04  0.15063250289E+04  0.50400001928E-02 0.  1.
       -1    1    3    3    0  502 -0.98319243256E+03 -0.19427631975E+03  0.17053469609E+04  0.19780341010E+04  0.50400001928E-02 0. -1.
</event>
<event>
 5   0  0.3026332E-07  0.3584303E+04  0.7818609E-02  0.8094097E-01
        1   -1    0    0  501    0  0.00000000000E+00  0.00000000000E+00  0.24664198406E+04  0.24664198406E+04  0.50400001928E-02 0. -1.
       -1   -1    0    0    0  501  0.00000000000E+00  0.00000000000E+00 -0.13022144919E+04  0.13022144919E+04  0.50400001928E-02 0.  1.
    10030    2    1    2    0    0  0.00000000000E+00  0.00000000000E+00  0.11642053487E+04  0.37686343326E+04  0.35843033687E+04 0.  0.
        1    1    3    3  502    0  0.12586858926E+04 -0.12502652916E+04  0.31537527315E+03  0.18019198203E+04  0.50400001928E-02 0.  1.
       -1    1    3    3    0  502 -0.12586858926E+04  0.12502652916E+04  0.84883007558E+03  0.19667145123E+04  0.50400001928E-02 0. -1.
</event>
<event>
 5   0  0.9311672E-07  0.3457684E+04  0.7818609E-02  0.8123892E-01
        2   -1    0    0  501    0  0.00000000000E+00  0.00000000000E+00  0.16628448058E+04  0.16628448058E+04  0.25500000920E-02 0.  1.
       -2   -1    0    0    0  501  0.00000000000E+00  0.00000000000E+00 -0.17974582334E+04  0.17974582334E+04  0.25500000920E-02 0. -1.
    10030    2    1    2    0    0  0.00000000000E+00  0.00000000000E+00 -0.13461342761E+03  0.34603030392E+04  0.34576836680E+04 0.  0.
        4    1    3    3  502    0  0.61118955283E+02 -0.43554259561E+03  0.16059226801E+04  0.16650592021E+04  0.12699999809E+01 0.  1.
       -4    1    3    3    0  502 -0.61118955283E+02  0.43554259561E+03 -0.17405361077E+04  0.17952438370E+04  0.12699999809E+01 0. -1.
</event>
<event>
 5   0  0.8845195E-07  0.3493952E+04  0.7818609E-02  0.8115225E-01
        2   -1    0    0  501    0  0.00000000000E+00  0.00000000000E+00  0.11300651360E+04  0.11300651360E+04  0.25500000920E-02 0. -1.
       -2   -1    0    0    0  501  0.00000000000E+00  0.00000000000E+00 -0.27006624427E+04  0.27006624427E+04  0.25500000920E-02 0.  1.
    10030    2    1    2    0    0  0.00000000000E+00  0.00000000000E+00 -0.15705973067E+04  0.38307275787E+04  0.34939516142E+04 0.  0.
        5    1    3    3  502    0  0.33065922205E+03 -0.10153452619E+04  0.73059080950E+03  0.12938495055E+04  0.46999998093E+01 0. -1.
       -5    1    3    3    0  502 -0.33065922205E+03  0.10153452619E+04 -0.23011881162E+04  0.25368780732E+04  0.46999998093E+01 0.  1.
</event>
<event>
 5   0  0.8845195E-07  0.3486695E+04  0.7818609E-02  0.8116950E-01
       -2   -1    0    0    0  501  0.00000000000E+00  0.00000000000E+00  0.17640227798E+04  0.17640227798E+04  0.25500000920E-02 0.  1.
        2   -1    0    0  501    0  0.00000000000E+00  0.00000000000E+00 -0.17229148852E+04  0.17229148852E+04  0.25500000920E-02 0. -1.
    10030    2    1    2    0    0  0.00000000000E+00  0.00000000000E+00  0.41107894653E+02  0.34869376650E+04  0.34866953439E+04 0.  0.
        5    1    3    3  502    0 -0.96371171704E+03 -0.14497471451E+04 -0.72897487038E+02  0.17423671232E+04  0.46999998093E+01 0.  1.
       -5    1    3    3    0  502  0.96371171704E+03  0.14497471451E+04  0.11400538169E+03  0.17445705418E+04  0.46999998093E+01 0. -1.
</event>
<event>
 5   0  0.3026332E-07  0.3545457E+04  0.7818609E-02  0.8103101E-01
        1   -1    0    0  501    0  0.00000000000E+00  0.00000000000E+00  0.10591485437E+04  0.10591485437E+04  0.50400001928E-02 0. -1.
       -1   -1    0    0    0  501  0.00000000000E+00  0.00000000000E+00 -0.29670683650E+04  0.29670683650E+04  0.50400001928E-02 0.  1.
    10030    2    1    2    0    0  0.00000000000E+00  0.00000000000E+00 -0.19079198213E+04  0.40262169088E+04  0.35454568890E+04 0.  0.
        1    1    3    3  502    0 -0.71716272397E+03  0.15829895889E+04 -0.13512373414E+04  0.22013679302E+04  0.50400001928E-02 0.  1.
       -1    1    3    3    0  502  0.71716272397E+03 -0.15829895889E+04 -0.55668247996E+03  0.18248489786E+04  0.50400001928E-02 0. -1.
</event>
<event>
 5   0  0.8950809E-07  0.3495137E+04  0.7818609E-02  0.8114943E-01
        2   -1    0    0  501    0  0.00000000000E+00  0.00000000000E+00  0.24003347086E+04  0.24003347086E+04  0.25500000920E-02 0.  1.
       -2   -1    0    0    0  501  0.00000000000E+00  0.00000000000E+00 -0.12723205443E+04  0.12723205443E+04  0.25500000920E-02 0. -1.
    10030    2    1    2    0    0  0.00000000000E+00  0.00000000000E+00  0.11280141644E+04  0.36726552529E+04  0.34951367143E+04 0.  0.
        2    1    3    3  502    0  0.16664448310E+03  0.16920229675E+04  0.98861350218E+03  0.19667406446E+04  0.25500000920E-02 0.  1.
       -2    1    3    3    0  502 -0.16664448310E+03 -0.16920229675E+04  0.13940066218E+03  0.17059146083E+04  0.25500000920E-02 0. -1.
</event>
<event>
 5   0  0.2972541E-07  0.3495628E+04  0.7818609E-02  0.8114827E-01
       -1   -1    0    0    0  501  0.00000000000E+00  0.00000000000E+00  0.12524757896E+04  0.12524757896E+04  0.50400001928E-02 0. -1.
        1   -1    0    0  501    0  0.00000000000E+00  0.00000000000E+00 -0.24390527122E+04  0.24390527122E+04  0.50400001928E-02 0.  1.
    10030    2    1    2    0    0  0.00000000000E+00  0.00000000000E+00 -0.11865769226E+04  0.36915285018E+04  0.34956283965E+04 0.  0.
        3    1    3    3  502    0  0.15973736533E+03  0.33311981612E+03 -0.23973490346E+04  0.24256477984E+04  0.10100000352E+00 0.  1.
       -3    1    3    3    0  502 -0.15973736533E+03 -0.33311981612E+03  0.12107721121E+04  0.12658807034E+04  0.10100000352E+00 0. -1.
</event>
<event>
 5   0  0.2972541E-07  0.3590312E+04  0.7818609E-02  0.8092714E-01
        1   -1    0    0  501    0  0.00000000000E+00  0.00000000000E+00  0.20444526991E+04  0.20444526991E+04  0.50400001928E-02 0. -1.
       -1   -1    0    0    0  501  0.00000000000E+00  0.00000000000E+00 -0.15762582026E+04  0.15762582026E+04  0.50400001928E-02 0.  1.
    10030    2    1    2    0    0  0.00000000000E+00  0.00000000000E+00  0.46819449644E+03  0.36207109017E+04  0.35903121518E+04 0.  0.
        3    1    3    3  502    0 -0.30306430080E+03 -0.14247863413E+03  0.20126729668E+04  0.20403432586E+04  0.10100000352E+00 0. -1.
       -3    1    3    3    0  502  0.30306430080E+03  0.14247863413E+03 -0.15444784704E+04  0.15803676431E+04  0.10100000352E+00 0.  1.
</event>
<event>
 5   0  0.8950809E-07  0.3551582E+04  0.7818609E-02  0.8101673E-01
       -2   -1    0    0    0  501  0.00000000000E+00  0.00000000000E+00  0.29199631677E+04  0.29199631677E+04  0.25500000920E-02 0.  1.
        2   -1    0    0  501    0  0.00000000000E+00  0.00000000000E+00 -0.10799568114E+04  0.10799568114E+04  0.25500000920E-02 0. -1.
    10030    2    1    2    0    0  0.00000000000E+00  0.00000000000E+00  0.18400063563E+04  0.39999199792E+04  0.35515822458E+04 0.  0.
        2    1    3    3  502    0 -0.60124923681E+03  0.12268862166E+03 -0.95675388449E+03  0.11366314874E+04  0.25500000920E-02 0. -1.
       -2    1    3    3    0  502  0.60124923681E+03 -0.12268862166E+03  0.27967602408E+04  0.28632884918E+04  0.25500000920E-02 0.  1.
</event>
<event>
 5   0  0.2972541E-07  0.3484878E+04  0.7818609E-02  0.8117383E-01
        1   -1    0    0  501    0  0.00000000000E+00  0.00000000000E+00  0.13124519758E+04  0.13124519758E+04  0.50400001928E-02 0. -1.
       -1   -1    0    0    0  501  0.00000000000E+00  0.00000000000E+00 -0.23132992503E+04  0.23132992503E+04  0.50400001928E-02 0.  1.
    10030    2    1    2    0    0  0.00000000000E+00  0.00000000000E+00 -0.10008472745E+04  0.36257512261E+04  0.34848782887E+04 0.  0.
        3    1    3    3  502    0 -0.73401103345E+03  0.10059822164E+04  0.76758046127E+03  0.14628575432E+04  0.10100000352E+00 0. -1.
       -3    1    3    3    0  502  0.73401103345E+03 -0.10059822164E+04 -0.17684277358E+04  0.21628936830E+04  0.10100000352E+00 0.  1.
</event>
<event>
 5   0  0.6188930E-07  0.3498999E+04  0.7818609E-02  0.8114027E-01
       -2   -1    0    0    0  501  0.00000000000E+00  0.00000000000E+00  0.16443793922E+04  0.16443793922E+04  0.25500000920E-02 0. -1.
        2   -1    0    0  501    0  0.00000000000E+00  0.00000000000E+00 -0.18613399662E+04  0.18613399662E+04  0.25500000920E-02 0.  1.
    10030    2    1    2    0    0  0.00000000000E+00  0.00000000000E+00 -0.21696057402E+03  0.35057193584E+04  0.34989993326E+04 0.  0.
        3    1    3    3  502    0 -0.75061065229E+03  0.41386306505E+02 -0.16912674040E+04  0.18508145827E+04  0.10100000352E+00 0.  1.
       -3    1    3    3    0  502  0.75061065229E+03 -0.41386306505E+02  0.14743068299E+04  0.16549047757E+04  0.10100000352E+00 0. -1.
</event>
<event>
 5   0  0.6188930E-07  0.3480547E+04  0.7818609E-02  0.8118416E-01
       -2   -1    0    0    0  501  0.00000000000E+00  0.00000000000E+00  0.22818264394E+04  0.22818264394E+04  0.25500000920E-02 0.  1.
        2   -1    0    0  501    0  0.00000000000E+00  0.00000000000E+00 -0.13272491894E+04  0.13272491894E+04  0.25500000920E-02 0. -1.
    10030    2    1    2    0    0  0.00000000000E+00  0.00000000000E+00  0.95457724994E+03  0.36090756288E+04  0.34805472513E+04 0.  0.
        3    1    3    3  502    0 -0.18377676642E+03 -0.13050799987E+04  0.16557168863E+04  0.21162244967E+04  0.10100000352E+00 0.  1.
       -3    1    3    3    0  502  0.18377676642E+03  0.13050799987E+04 -0.70113963632E+03  0.14928511321E+04  0.10100000352E+00 0. -1.
</event>
<event>
 5   0  0.8950809E-07  0.3358404E+04  0.7818609E-02  0.8148192E-01
        2   -1    0    0  501    0  0.00000000000E+00  0.00000000000E+00  0.14044895320E+04  0.14044895320E+04  0.25500000920E-02 0. -1.
       -2   -1    0    0    0  501  0.00000000000E+00  0.00000000000E+00 -0.20076468873E+04  0.20076468873E+04  0.25500000920E-02 0.  1.
    10030    2    1    2    0    0  0.00000000000E+00  0.00000000000E+00 -0.60315735530E+03  0.34121364193E+04  0.33584038097E+04 0.  0.
        2    1    3    3  502    0 -0.82702283460E+02 -0.13489036416E+04 -0.13141883478E+04  0.18850654406E+04  0.25500000920E-02 0.  1.
       -2    1    3    3    0  502  0.82702283460E+02  0.13489036416E+04  0.71103099245E+03  0.15270709787E+04  0.25500000920E-02 0. -1.
</event>
<event>
 5   0  0.2933506E-07  0.3539903E+04  0.7818609E-02  0.8104398E-01
        1   -1    0    0  501    0  0.00000000000E+00  0.00000000000E+00  0.20972897479E+04  0.20972897479E+04  0.50400001928E-02 0. -1.
       -1   -1    0    0    0  501  0.00000000000E+00  0.00000000000E+00 -0.14937032897E+04  0.14937032897E+04  0.50400001928E-02 0.  1.
    10030    2    1    2    0    0  0.00000000000E+00  0.00000000000E+00  0.60358645818E+03  0.35909930376E+04  0.35399031602E+04 0.  0.
        4    1    3    3  502    0  0.16857487063E+04  0.16569765391E+03  0.82254660038E+03  0.18830265362E+04  0.12699999809E+01 0. -1.
       -4    1    3    3    0  502 -0.16857487063E+04 -0.16569765391E+03 -0.21896014221E+03  0.17079665014E+04  0.12699999809E+01 0.  1.
</event>
<event>
 5   0  0.9128871E-07  0.3453116E+04  0.7818609E-02  0.8124992E-01
        2   -1    0    0  501    0  0.00000000000E+00  0.00000000000E+00  0.28572773002E+04  0.28572773002E+04  0.25500000920E-02 0.  1.
       -2   -1    0    0    0  501  0.00000000000E+00  0.00000000000E+00 -0.10433020027E+04  0.10433020027E+04  0.25500000920E-02 0. -1.
    10030    2    1    2    0    0  0.00000000000E+00  0.00000000000E+00  0.18139752975E+04  0.39005793029E+04  0.34531163488E+04 0.  0.
        1    1    3    3  502    0  0.32380918562E+03  0.12416356352E+04  0.22118834606E+04  0.25571350928E+04  0.50400001928E-02 0.  1.
       -1    1    3    3    0  502 -0.32380918562E+03 -0.12416356352E+04 -0.39790816314E+03  0.13434442101E+04  0.50400001928E-02 0. -1.
</event>
<event>
 5   0  0.8950809E-07  0.3506308E+04  0.7818609E-02  0.8112297E-01
        2   -1    0    0  501    0  0.00000000000E+00  0.00000000000E+00  0.18938380033E+04  0.18938380033E+04  0.25500000920E-02 0.  1.
       -2   -1    0    0    0  501  0.00000000000E+00  0.00000000000E+00 -0.16229209422E+04  0.16229209422E+04  0.25500000920E-02 0. -1.
    10030    2    1    2    0    0  0.00000000000E+00  0.00000000000E+00  0.27091706109E+03  0.35167589455E+04  0.35063082333E+04 0.  0.
        2    1    3    3  502    0 -0.76384309890E+03  0.72166648523E+02 -0.14455916755E+04  0.16365816806E+04  0.25500000920E-02 0. -1.
       -2    1    3    3    0  502  0.76384309890E+03 -0.72166648523E+02  0.17165087366E+04  0.18801772649E+04  0.25500000920E-02 0.  1.
</event>
<event>
 5   0  0.9128871E-07  0.3504183E+04  0.7818609E-02  0.8112799E-01
        2   -1    0    0  501    0  0.00000000000E+00  0.00000000000E+00  0.12113661144E+04  0.12113661144E+04  0.25500000920E-02 0.  1.
       -2   -1    0    0    0  501  0.00000000000E+00  0.00000000000E+00 -0.25341841304E+04  0.25341841304E+04  0.25500000920E-02 0. -1.
    10030    2    1    2    0    0  0.00000000000E+00  0.00000000000E+00 -0.13228180160E+04  0.37455502448E+04  0.35041830907E+04 0.  0.
        1    1    3    3  502    0 -0.48399212085E+03  0.16278340715E+04 -0.20075700866E+03  0.17100864054E+04  0.50400001928E-02 0.  1.
       -1    1    3    3    0  502  0.48399212085E+03 -0.16278340715E+04 -0.11220610074E+04  0.20354638394E+04  0.50400001928E-02 0. -1.
</event>
<event>
 5   0  0.6188930E-07  0.3488500E+04  0.7818609E-02  0.8116521E-01
        2   -1    0    0  501    0  0.00000000000E+00  0.00000000000E+00  0.23034417836E+04  0.23034417836E+04  0.25500000920E-02 0.  1.
       -2   -1    0    0    0  501  0.00000000000E+00  0.00000000000E+00 -0.13208094133E+04  0.13208094133E+04  0.25500000920E-02 0. -1.
    10030    2    1    2    0    0  0.00000000000E+00  0.00000000000E+00  0.98263237031E+03  0.36242511969E+04  0.34884997296E+04 0.  0.
        3    1    3    3  502    0  0.15744185804E+02  0.16525650869E+04  0.10708666410E+04  0.19692573775E+04  0.10100000352E+00 0.  1.
       -3    1    3    3    0  502 -0.15744185804E+02 -0.16525650869E+04 -0.88234270716E+02  0.16549938194E+04  0.10100000352E+00 0. -1.
</event>
<event>
 5   0  0.8845195E-07  0.3472469E+04  0.7818609E-02  0.8120346E-01
       -2   -1    0    0    0  501  0.00000000000E+00  0.00000000000E+00  0.13096801316E+04  0.13096801316E+04  0.25500000920E-02 0.  1.
        2   -1    0    0  501    0  0.00000000000E+00  0.00000000000E+00 -0.23017146623E+04  0.23017146623E+04  0.25500000920E-02 0. -1.
    10030    2    1    2    0    0  0.00000000000E+00  0.00000000000E+00 -0.99203453070E+03  0.36113947939E+04  0.34724688404E+04 0.  0.
        5    1    3    3  502    0 -0.80343695055E+03  0.10334817433E+04 -0.16822155800E+04  0.21315409437E+04  0.46999998093E+01 0. -1.
       -5    1    3    3    0  502  0.80343695055E+03 -0.10334817433E+04  0.69018104926E+03  0.14798538502E+04  0.46999998093E+01 0.  1.
</event>
<event>
 5   0  0.9128871E-07  0.3476125E+04  0.7818609E-02  0.8119471E-01
       -2   -1    0    0    0  501  0.00000000000E+00  0.00000000000E+00  0.14327697197E+04  0.14327697197E+04  0.25500000920E-02 0.  1.
        2   -1    0    0  501    0  0.00000000000E+00  0.00000000000E+00 -0.21084072168E+04  0.21084072168E+04  0.25500000920E-02 0. -1.
    10030    2    1    2    0    0  0.00000000000E+00  0.00000000000E+00 -0.67563749717E+03  0.35411769365E+04  0.34761254390E+04 0.  0.
        1    1    3    3  502    0  0.28000997939E+03  0.12119357103E+04  0.89884620218E+03  0.15346394527E+04  0.50400001928E-02 0.  1.
       -1    1    3    3    0  502 -0.28000997939E+03 -0.12119357103E+04 -0.15744836993E+04  0.20065374838E+04  0.50400001928E-02 0. -1.
</event>
<event>
 5   0  0.9311672E-07  0.3696756E+04  0.7818609E-02  0.8068681E-01
        2   -1    0    0  501    0  0.00000000000E+00  0.00000000000E+00  0.27001016763E+04  0.27001016763E+04  0.25500000920E-02 0. -1.
       -2   -1    0    0    0  501  0.00000000000E+00  0.00000000000E+00 -0.12653229601E+04  0.12653229601E+04  0.25500000920E-02 0.  1.
    10030    2    1    2    0    0  0.00000000000E+00  0.00000000000E+00  0.14347787162E+04  0.39654246364E+04  0.36967556834E+04 0.  0.
        4    1    3    3  502    0  0.64826507928E+03 -0.14888550250E+04 -0.22970733282E+03  0.16400316979E+04  0.12699999809E+01 0. -1.
       -4    1    3    3    0  502 -0.64826507928E+03  0.14888550250E+04  0.16644860490E+04  0.23253929385E+04  0.12699999809E+01 0.  1.
</event>
<event>
 5   0  0.2933506E-07  0.3473063E+04  0.7818609E-02  0.8120203E-01
        1   -1    0    0  501    0  0.00000000000E+00  0.00000000000E+00  0.24135168340E+04  0.24135168340E+04  0.50400001928E-02 0.  1.
       -1   -1    0    0    0  501  0.00000000000E+00  0.00000000000E+00 -0.12494390419E+04  0.12494390419E+04  0.50400001928E-02 0. -1.
    10030    2    1    2    0    0  0.00000000000E+00  0.00000000000E+00  0.11640777921E+04  0.36629558759E+04  0.34730632938E+04 0.  0.
        4    1    3    3  502    0 -0.14416570396E+03 -0.14686689004E+04  0.15473804293E+04  0.21382609511E+04  0.12699999809E+01 0.  1.
       -4    1    3    3    0  502  0.14416570396E+03  0.14686689004E+04 -0.38330263725E+03  0.15246949248E+04  0.12699999809E+01 0. -1.
</event>
<event>
 5   0  0.8845195E-07  0.3484564E+04  0.7818609E-02  0.8117458E-01
        2   -1    0    0  501    0  0.00000000000E+00  0.00000000000E+00  0.18120613609E+04  0.18120613609E+04  0.25500000920E-02 0.  1.
       -2   -1    0    0    0  501  0.00000000000E+00  0.00000000000E+00 -0.16751899068E+04  0.16751899068E+04  0.25500000920E-02 0. -1.
    10030    2    1    2    0    0  0.00000000000E+00  0.00000000000E+00  0.13687145410E+03  0.34872512676E+04  0.34845641921E+04 0.  0.
        5    1    3    3  502    0 -0.50034945750E+03 -0.16535790078E+04 -0.15724137627E+03  0.17347680119E+04  0.46999998093E+01 0. -1.
       -5    1    3    3    0  502  0.50034945750E+03  0.16535790078E+04  0.29411283037E+03  0.17524832557E+04  0.46999998093E+01 0.  1.
</event>
<event>
 5   0  0.2972541E-07  0.3488520E+04  0.7818609E-02  0.8116516E-01
        1   -1    0    0  501    0  0.00000000000E+00  0.00000000000E+00  0.21235293404E+04  0.21235293404E+04  0.50400001928E-02 0. -1.
       -1   -1    0    0    0  501  0.00000000000E+00  0.00000000000E+00 -0.14327295014E+04  0.14327295014E+04  0.50400001928E-02 0.  1.
    10030    2    1    2    0    0  0.00000000000E+00  0.00000000000E+00  0.69079983902E+03  0.35562588418E+04  0.34885201064E+04 0.  0.
        3    1    3    3  502    0 -0.92511304586E+02  0.15353843479E+04 -0.49305460544E+03  0.16152604407E+04  0.10100000352E+00 0.  1.
       -3    1    3    3    0  502  0.92511304586E+02 -0.15353843479E+04  0.11838544445E+04  0.19409984011E+04  0.10100000352E+00 0. -1.
</event>
<event>
 5   0  0.3061330E-07  0.3446013E+04  0.7818609E-02  0.8126705E-01
        1   -1    0    0  501    0  0.00000000000E+00  0.00000000000E+00  0.24193617072E+04  0.24193617072E+04  0.50400001928E-02 0. -1.
       -1   -1    0    0    0  501  0.00000000000E+00  0.00000000000E+00 -0.12270801265E+04  0.12270801265E+04  0.50400001928E-02 0.  1.
    10030    2    1    2    0    0  0.00000000000E+00  0.00000000000E+00  0.11922815806E+04  0.36464418337E+04  0.34460125767E+04 0.  0.
        5    1    3    3  502    0 -0.75264436384E+03  0.96167913186E+02  0.22330492612E+04  0.23584428971E+04  0.46999998093E+01 0. -1.
       -5    1    3    3    0  502  0.75264436384E+03 -0.96167913186E+02 -0.10407676805E+04  0.12879989366E+04  0.46999998093E+01 0.  1.
</event>
<event>
 5   0  0.3026332E-07  0.3535065E+04  0.7818609E-02  0.8105530E-01
       -1   -1    0    0    0  501  0.00000000000E+00  0.00000000000E+00  0.14822006803E+04  0.14822006803E+04  0.50400001928E-02 0.  1.
        1   -1    0    0  501    0  0.00000000000E+00  0.00000000000E+00 -0.21077926766E+04  0.21077926766E+04  0.50400001928E-02 0. -1.
    10030    2    1    2    0    0  0.00000000000E+00  0.00000000000E+00 -0.62559199626E+03  0.35899933569E+04  0.35350653398E+04 0.  0.
        1    1    3    3  502    0  0.74275011692E+03  0.74148206033E+03 -0.17571104618E+04  0.20466828179E+04  0.50400001928E-02 0. -1.
       -1    1    3    3    0  502 -0.74275011692E+03 -0.74148206033E+03  0.11315184655E+04  0.15433105390E+04  0.50400001928E-02 0.  1.
</event>
<event>
 5   0  0.9311672E-07  0.3470148E+04  0.7818609E-02  0.8120901E-01
        2   -1    0    0  501    0  0.00000000000E+00  0.00000000000E+00  0.27761177600E+04  0.27761177600E+04  0.25500000920E-02 0. -1.
       -2   -1    0    0    0  501  0.00000000000E+00  0.00000000000E+00 -0.10844214430E+04  0.10844214430E+04  0.25500000920E-02 0.  1.
    10030    2    1    2    0    0  0.00000000000E+00  0.00000000000E+00  0.16916963170E+04  0.38605392030E+04  0.34701479088E+04 0.  0.
        4    1    3    3  502    0 -0.55963041741E+03 -0.16406866682E+04  0.92791014400E+03  0.19662293344E+04  0.12699999809E+01 0. -1.
       -4    1    3    3    0  502  0.55963041741E+03  0.16406866682E+04  0.76378617303E+03  0.18943098686E+04  0.12699999809E+01 0.  1.
</event>
<event>
 5   0  0.3026332E-07  0.3323311E+04  0.7818609E-02  0.8156989E-01
        1   -1    0    0  501    0  0.00000000000E+00  0.00000000000E+00  0.19878189453E+04  0.19878189453E+04  0.50400001928E-02 0.  1.
       -1   -1    0    0    0  501  0.00000000000E+00  0.00000000000E+00 -0.13890096820E+04  0.13890096820E+04  0.50400001928E-02 0. -1.
    10030    2    1    2    0    0  0.00000000000E+00  0.00000000000E+00  0.59880926332E+03  0.33768286272E+04  0.33233114576E+04 0.  0.
        1    1    3    3  502    0 -0.10505932122E+04  0.45531531109E+02  0.16067001766E+04  0.19202355781E+04  0.50400001928E-02 0.  1.
       -1    1    3    3    0  502  0.10505932122E+04 -0.45531531109E+02 -0.10078909132E+04  0.14565930492E+04  0.50400001928E-02 0. -1.
</event>
<event>
 5   0  0.6188930E-07  0.3559841E+04  0.7818609E-02  0.8099753E-01
       -2   -1    0    0    0  501  0.00000000000E+00  0.00000000000E+00  0.14621689309E+04  0.14621689309E+04  0.25500000920E-02 0. -1.
        2   -1    0    0  501    0  0.00000000000E+00  0.00000000000E+00 -0.21667238300E+04  0.21667238300E+04  0.25500000920E-02 0.  1.
    10030    2    1    2    0    0  0.00000000000E+00  0.00000000000E+00 -0.70455489911E+03  0.36288927609E+04  0.35598405954E+04 0.  0.
        3    1    3    3  502    0  0.15840667128E+03 -0.17654336015E+04 -0.51749465708E+03  0.18465235458E+04  0.10100000352E+00 0. -1.
       -3    1    3    3    0  502 -0.15840667128E+03  0.17654336015E+04 -0.18706024203E+03  0.17823692151E+04  0.10100000352E+00 0.  1.
</event>
<event>
 5   0  0.8845195E-07  0.3552348E+04  0.7818609E-02  0.8101495E-01
        2   -1    0    0  501    0  0.00000000000E+00  0.00000000000E+00  0.25208860416E+04  0.25208860416E+04  0.25500000920E-02 0. -1.
       -2   -1    0    0    0  501  0.00000000000E+00  0.00000000000E+00 -0.12514626778E+04  0.12514626778E+04  0.25500000920E-02 0.  1.
    10030    2    1    2    0    0  0.00000000000E+00  0.00000000000E+00  0.12694233638E+04  0.37723487194E+04  0.35523484041E+04 0.  0.
        5    1    3    3  502    0  0.78191877420E+03 -0.44575989716E+02  0.23276137197E+04  0.24558484697E+04  0.46999998093E+01 0. -1.
       -5    1    3    3    0  502 -0.78191877420E+03  0.44575989716E+02 -0.10581903558E+04  0.13165002497E+04  0.46999998093E+01 0.  1.
</event>
<event>
 5   0  0.8845195E-07  0.3533379E+04  0.7818609E-02  0.8105925E-01
        2   -1    0    0  501    0  0.00000000000E+00  0.00000000000E+00  0.18223066418E+04  0.18223066418E+04  0.25500000920E-02 0.  1.
       -2   -1    0    0    0  501  0.00000000000E+00  0.00000000000E+00 -0.17127694612E+04  0.17127694612E+04  0.25500000920E-02 0. -1.
    10030    2    1    2    0    0  0.00000000000E+00  0.00000000000E+00  0.10953718054E+03  0.35350761030E+04  0.35333786466E+04 0.  0.
        5    1    3    3  502    0  0.52318058363E+03 -0.10698600187E+04 -0.12507915213E+04  0.17270842198E+04  0.46999998093E+01 0. -1.
       -5    1    3    3    0  502 -0.52318058363E+03  0.10698600187E+04  0.13603287018E+04  0.18079918832E+04  0.46999998093E+01 0.  1.
</event>
<event>
 5   0  0.8950809E-07  0.3561231E+04  0.7818609E-02  0.8099430E-01
        2   -1    0    0  501    0  0.00000000000E+00  0.00000000000E+00  0.87348715891E+03  0.87348715892E+03  0.25500000920E-02 0.  1.
       -2   -1    0    0    0  501  0.00000000000E+00  0.00000000000E+00 -0.36298088288E+04  0.36298088288E+04  0.25500000920E-02 0. -1.
    10030    2    1    2    0    0  0.00000000000E+00  0.00000000000E+00 -0.27563216699E+04  0.45032959877E+04  0.35612309115E+04 0.  0.
        2    1    3    3  502    0  0.61163102340E+03 -0.16459782725E+04 -0.10046320514E+04  0.20230231193E+04  0.25500000920E-02 0.  1.
       -2    1    3    3    0  502 -0.61163102340E+03  0.16459782725E+04 -0.17516896185E+04  0.24802728684E+04  0.25500000920E-02 0. -1.
</event>
<event>
 5   0  0.2933506E-07  0.3519091E+04  0.7818609E-02  0.8109280E-01
       -1   -1    0    0    0  501  0.00000000000E+00  0.00000000000E+00  0.11036922309E+04  0.11036922310E+04  0.50400001928E-02 0.  1.
        1   -1    0    0  501    0  0.00000000000E+00  0.00000000000E+00 -0.28051300617E+04  0.28051300618E+04  0.50400001928E-02 0. -1.
    10030    2    1    2    0    0  0.00000000000E+00  0.00000000000E+00 -0.17014378308E+04  0.39088222927E+04  0.35190909371E+04 0.  0.
        4    1    3    3  502    0 -0.14113801386E+04  0.95697486397E+03 -0.36884912872E+03  0.17446621675E+04  0.12699999809E+01 0.  1.
       -4    1    3    3    0  502  0.14113801386E+04 -0.95697486397E+03 -0.13325887021E+04  0.21641601253E+04  0.12699999809E+01 0. -1.
</event>
<event>
 5   0  0.9128871E-07  0.3512887E+04  0.7818609E-02  0.8110743E-01
        2   -1    0    0  501    0  0.00000000000E+00  0.00000000000E+00  0.24344948427E+04  0.24344948427E+04  0.25500000920E-02 0. -1.
       -2   -1    0    0    0  501  0.00000000000E+00  0.00000000000E+00 -0.12672415599E+04  0.12672415599E+04  0.25500000920E-02 0.  1.
    10030    2    1    2    0    0  0.00000000000E+00  0.00000000000E+00  0.11672532828E+04  0.37017364026E+04  0.35128865863E+04 0.  0.
        1    1    3    3  502    0  0.35094460229E+03 -0.12758566621E+04 -0.63350884088E+03  0.14670738862E+04  0.50400001928E-02 0.  1.
       -1    1    3    3    0  502 -0.35094460229E+03  0.12758566621E+04  0.18007621237E+04  0.22346625164E+04  0.50400001928E-02 0. -1.
</event>
<event>
 5   0  0.6188930E-07  0.2849037E+04  0.7818609E-02  0.8288204E-01
        2   -1    0    0  501    0  0.00000000000E+00  0.00000000000E+00  0.20123026215E+04  0.20123026215E+04  0.25500000920E-02 0.  1.
       -2   -1    0    0    0  501  0.00000000000E+00  0.00000000000E+00 -0.10084235085E+04  0.10084235085E+04  0.25500000920E-02 0. -1.
    10030    2    1    2    0    0  0.00000000000E+00  0.00000000000E+00  0.10038791130E+04  0.30207261300E+04  0.28490372197E+04 0.  0.
        3    1    3    3  502    0  0.74444070297E+03 -0.86384169550E+03  0.14071071122E+04  0.18111777578E+04  0.10100000352E+00 0.  1.
       -3    1    3    3    0  502 -0.74444070297E+03  0.86384169550E+03 -0.40322799919E+03  0.12095483722E+04  0.10100000352E+00 0. -1.
</event>
<event>
 5   0  0.9311672E-07  0.3478773E+04  0.7818609E-02  0.8118839E-01
       -2   -1    0    0    0  501  0.00000000000E+00  0.00000000000E+00  0.11292628195E+04  0.11292628196E+04  0.25500000920E-02 0. -1.
        2   -1    0    0  501    0  0.00000000000E+00  0.00000000000E+00 -0.26791504003E+04  0.26791504003E+04  0.25500000920E-02 0.  1.
    10030    2    1    2    0    0  0.00000000000E+00  0.00000000000E+00 -0.15498875808E+04  0.38084132199E+04  0.34787727348E+04 0.  0.
        4    1    3    3  502    0  0.55228377926E+03 -0.13463390815E+04  0.26813512916E+03  0.14797109027E+04  0.12699999809E+01 0. -1.
       -4    1    3    3    0  502 -0.55228377926E+03  0.13463390815E+04 -0.18180227099E+04  0.23287023171E+04  0.12699999809E+01 0.  1.
</event>
<event>
 5   0  0.6188930E-07  0.3568342E+04  0.7818609E-02  0.8097782E-01
        2   -1    0    0  501    0  0.00000000000E+00  0.00000000000E+00  0.14331970406E+04  0.14331970406E+04  0.25500000920E-02 0. -1.
       -2   -1    0    0    0  501  0.00000000000E+00  0.00000000000E+00 -0.22210950394E+04  0.22210950394E+04  0.25500000920E-02 0.  1.
    10030    2    1    2    0    0  0.00000000000E+00  0.00000000000E+00 -0.78789799881E+03  0.36542920801E+04  0.35683423813E+04 0.  0.
        3    1    3    3  502    0 -0.10885335339E+04  0.17024125258E+03 -0.18310968304E+04  0.21370079436E+04  0.10100000352E+00 0.  1.
       -3    1    3    3    0  502  0.10885335339E+04 -0.17024125258E+03  0.10431988315E+04  0.15172841365E+04  0.10100000352E+00 0. -1.
</event>
<event>
 5   0  0.6188930E-07  0.3467339E+04  0.7818609E-02  0.8121574E-01
        2   -1    0    0  501    0  0.00000000000E+00  0.00000000000E+00  0.15526665102E+04  0.15526665102E+04  0.25500000920E-02 0.  1.
       -2   -1    0    0    0  501  0.00000000000E+00  0.00000000000E+00 -0.19357726006E+04  0.19357726006E+04  0.25500000920E-02 0. -1.
    10030    2    1    2    0    0  0.00000000000E+00  0.00000000000E+00 -0.38310609045E+03  0.34884391108E+04  0.34673386269E+04 0.  0.
        3    1    3    3  502    0  0.85335373985E+03  0.12692045019E+04 -0.10129259568E+04  0.18344240724E+04  0.10100000352E+00 0. -1.
       -3    1    3    3    0  502 -0.85335373985E+03 -0.12692045019E+04  0.62981986640E+03  0.16540150384E+04  0.10100000352E+00 0.  1.
</event>
<event>
 5   0  0.2933506E-07  0.3427599E+04  0.7818609E-02  0.8131166E-01
       -1   -1    0    0    0  501  0.00000000000E+00  0.00000000000E+00  0.23753472725E+04  0.23753472725E+04  0.50400001928E-02 0. -1.
        1   -1    0    0  501    0  0.00000000000E+00  0.00000000000E+00 -0.12364966320E+04  0.12364966320E+04  0.50400001928E-02 0.  1.
    10030    2    1    2    0    0  0.00000000000E+00  0.00000000000E+00  0.11388506405E+04  0.36118439045E+04  0.34275991027E+04 0.  0.
        4    1    3    3  502    0  0.21090926657E+03 -0.10648993370E+04 -0.82798585522E+03  0.13653041808E+04  0.12699999809E+01 0.  1.
       -4    1    3    3    0  502 -0.21090926657E+03  0.10648993370E+04  0.19668364957E+04  0.22465397237E+04  0.12699999809E+01 0. -1.
</event>
<event>
 5   0  0.2972541E-07  0.3302641E+04  0.7818609E-02  0.8162224E-01
        1   -1    0    0  501    0  0.00000000000E+00  0.00000000000E+00  0.15793971794E+04  0.15793971794E+04  0.50400001928E-02 0. -1.
       -1   -1    0    0    0  501  0.00000000000E+00  0.00000000000E+00 -0.17265187567E+04  0.17265187567E+04  0.50400001928E-02 0.  1.
    10030    2    1    2    0    0  0.00000000000E+00  0.00000000000E+00 -0.14712157736E+03  0.33059159361E+04  0.33026406735E+04 0.  0.
        3    1    3    3  502    0 -0.33939613772E+03  0.20321307251E+03  0.15312676173E+04  0.15815390660E+04  0.10100000352E+00 0. -1.
       -3    1    3    3    0  502  0.33939613772E+03 -0.20321307251E+03 -0.16783891947E+04  0.17243768701E+04  0.10100000352E+00 0.  1.
</event>
<event>
 5   0  0.3061330E-07  0.3635684E+04  0.7818609E-02  0.8082366E-01
       -1   -1    0    0    0  501  0.00000000000E+00  0.00000000000E+00  0.16944376121E+04  0.16944376121E+04  0.50400001928E-02 0. -1.
        1   -1    0    0  501    0  0.00000000000E+00  0.00000000000E+00 -0.19502337570E+04  0.19502337570E+04  0.50400001928E-02 0.  1.
    10030    2    1    2    0    0  0.00000000000E+00  0.00000000000E+00 -0.25579614495E+03  0.36446713691E+04  0.36356839413E+04 0.  0.
        5    1    3    3  502    0 -0.77875820329E+03  0.48421190788E+03 -0.17013646131E+04  0.19327672254E+04  0.46999998093E+01 0.  1.
       -5    1    3    3    0  502  0.77875820329E+03 -0.48421190788E+03  0.14455684682E+04  0.17119041437E+04  0.46999998093E+01 0. -1.
</event>
<event>
 5   0  0.9128871E-07  0.3493609E+04  0.7818609E-02  0.8115306E-01
       -2   -1    0    0    0  501  0.00000000000E+00  0.00000000000E+00  0.19850388226E+04  0.19850388226E+04  0.25500000920E-02 0. -1.
        2   -1    0    0  501    0  0.00000000000E+00  0.00000000000E+00 -0.15371615188E+04  0.15371615188E+04  0.25500000920E-02 0.  1.
    10030    2    1    2    0    0  0.00000000000E+00  0.00000000000E+00  0.44787730376E+03  0.35222003414E+04  0.34936086166E+04 0.  0.
        1    1    3    3  502    0  0.16471498125E+04 -0.55503954204E+03  0.39900855958E+03  0.17833617773E+04  0.50400001928E-02 0. -1.
       -1    1    3    3    0  502 -0.16471498125E+04  0.55503954204E+03  0.48868744187E+02  0.17388385641E+04  0.50400001928E-02 0.  1.
</event>
<event>
 5   0  0.8845195E-07  0.3501000E+04  0.7818609E-02  0.8113553E-01
        2   -1    0    0  501    0  0.00000000000E+00  0.00000000000E+00  0.25203536654E+04  0.25203536654E+04  0.25500000920E-02 0.  1.
       -2   -1    0    0    0  501  0.00000000000E+00  0.00000000000E+00 -0.12158018536E+04  0.12158018536E+04  0.25500000920E-02 0. -1.
    10030    2    1    2    0    0  0.00000000000E+00  0.00000000000E+00  0.13045518118E+04  0.37361555191E+04  0.35010002332E+04 0.  0.
        5    1    3    3  502    0  0.17357535645E+04  0.13880712755E+03  0.84353645338E+03  0.19348601224E+04  0.46999998093E+01 0.  1.
       -5    1    3    3    0  502 -0.17357535645E+04 -0.13880712755E+03  0.46101535838E+03  0.18012953966E+04  0.46999998093E+01 0. -1.
</event>
<event>
 5   0  0.3061330E-07  0.3452187E+04  0.7818609E-02  0.8125215E-01
       -1   -1    0    0    0  501  0.00000000000E+00  0.00000000000E+00  0.14676345015E+04  0.14676345015E+04  0.50400001928E-02 0. -1.
        1   -1    0    0  501    0  0.00000000000E+00  0.00000000000E+00 -0.20300691637E+04  0.20300691637E+04  0.50400001928E-02 0.  1.
    10030    2    1    2    0    0  0.00000000000E+00  0.00000000000E+00 -0.56243466223E+03  0.34977036653E+04  0.34521874487E+04 0.  0.
        5    1    3    3  502    0  0.14048520429E+04 -0.32239151698E+03 -0.12433865080E+04  0.19035697126E+04  0.46999998093E+01 0.  1.
       -5    1    3    3    0  502 -0.14048520429E+04  0.32239151698E+03  0.68095184573E+03  0.15941339526E+04  0.46999998093E+01 0. -1.
</event>
<event>
 5   0  0.3026332E-07  0.3509925E+04  0.7818609E-02  0.8111442E-01
       -1   -1    0    0    0  501  0.00000000000E+00  0.00000000000E+00  0.10009167475E+04  0.10009167475E+04  0.50400001928E-02 0. -1.
        1   -1    0    0  501    0  0.00000000000E+00  0.00000000000E+00 -0.30770725177E+04  0.30770725177E+04  0.50400001928E-02 0.  1.
    10030    2    1    2    0    0  0.00000000000E+00  0.00000000000E+00 -0.20761557703E+04  0.40779892652E+04  0.35099250227E+04 0.  0.
        1    1    3    3  502    0  0.53410279349E+03  0.32979096250E+03 -0.29421806020E+04  0.30083973420E+04  0.50400001928E-02 0.  1.
       -1    1    3    3    0  502 -0.53410279349E+03 -0.32979096250E+03  0.86602483171E+03  0.10695919232E+04  0.50400001928E-02 0. -1.
</event>
<event>
 5   0  0.9311672E-07  0.3508030E+04  0.7818609E-02  0.8111889E-01
       -2   -1    0    0    0  501  0.00000000000E+00  0.00000000000E+00  0.28976658680E+04  0.28976658680E+04  0.25500000920E-02 0. -1.
        2   -1    0    0  501    0  0.00000000000E+00  0.00000000000E+00 -0.10617405499E+04  0.10617405499E+04  0.25500000920E-02 0.  1.
    10030    2    1    2    0    0  0.00000000000E+00  0.00000000000E+00  0.18359253181E+04  0.39594064179E+04  0.35080304173E+04 0.  0.
        4    1    3    3  502    0  0.59045007255E+03  0.57896353884E+03  0.26638422009E+04  0.27892448713E+04  0.12699999809E+01 0. -1.
       -4    1    3    3    0  502 -0.59045007255E+03 -0.57896353884E+03 -0.82791688283E+03  0.11701615467E+04  0.12699999809E+01 0.  1.
</event>
<event>
 5   0  0.2933506E-07  0.3487391E+04  0.7818609E-02  0.8116785E-01
       -1   -1    0    0    0  501  0.00000000000E+00  0.00000000000E+00  0.19510057239E+04  0.19510057239E+04  0.50400001928E-02 0.  1.
        1   -1    0    0  501    0  0.00000000000E+00  0.00000000000E+00 -0.15584134532E+04  0.15584134532E+04  0.50400001928E-02 0. -1.
    10030    2    1    2    0    0  0.00000000000E+00  0.00000000000E+00  0.39259227068E+03  0.35094191771E+04  0.34873907538E+04 0.  0.
        4    1    3    3  502    0  0.13926378659E+04  0.58395943295E+03  0.10735959389E+04  0.18528515045E+04  0.12699999809E+01 0.  1.
       -4    1    3    3    0  502 -0.13926378659E+04 -0.58395943295E+03 -0.68100366817E+03  0.16565676726E+04  0.12699999809E+01 0. -1.
</event>
<event>
 5   0  0.9311672E-07  0.3530986E+04  0.7818609E-02  0.8106486E-01
        2   -1    0    0  501    0  0.00000000000E+00  0.00000000000E+00  0.21880099029E+04  0.21880099029E+04  0.25500000920E-02 0. -1.
       -2   -1    0    0    0  501  0.00000000000E+00  0.00000000000E+00 -0.14245668395E+04  0.14245668395E+04  0.25500000920E-02 0.  1.
    10030    2    1    2    0    0  0.00000000000E+00  0.00000000000E+00  0.76344306342E+03  0.36125767424E+04  0.35309864639E+04 0.  0.
        4    1    3    3  502    0  0.58465940057E+03 -0.84636702451E+03 -0.10862857593E+04  0.14960555199E+04  0.12699999809E+01 0.  1.
       -4    1    3    3    0  502 -0.58465940057E+03  0.84636702451E+03  0.18497288227E+04  0.21165212225E+04  0.12699999809E+01 0. -1.
</event>
<event>
 5   0  0.9128871E-07  0.3502143E+04  0.7818609E-02  0.8113282E-01
        2   -1    0    0  501    0  0.00000000000E+00  0.00000000000E+00  0.23768448375E+04  0.23768448375E+04  0.25500000920E-02 0.  1.
       -2   -1    0    0    0  501  0.00000000000E+00  0.00000000000E+00 -0.12900512972E+04  0.12900512972E+04  0.25500000920E-02 0. -1.
    10030    2    1    2    0    0  0.00000000000E+00  0.00000000000E+00  0.10867935403E+04  0.36668961347E+04  0.35021432100E+04 0.  0.
        1    1    3    3  502    0  0.41779656288E+02  0.12735441946E+04 -0.71418542025E+03  0.14607262474E+04  0.50400001928E-02 0. -1.
       -1    1    3    3    0  502 -0.41779656288E+02 -0.12735441946E+04  0.18009789606E+04  0.22061698873E+04  0.50400001928E-02 0.  1.
</event>
<event>
 5   0  0.8845195E-07  0.3086664E+04  0.7818609E-02  0.8219407E-01
       -2   -1    0    0    0  501  0.00000000000E+00  0.00000000000E+00  0.27421319362E+04  0.27421319362E+04  0.25500000920E-02 0. -1.
        2   -1    0    0  501    0  0.00000000000E+00  0.00000000000E+00 -0.86862094604E+03  0.86862094604E+03  0.25500000920E-02 0.  1.
    10030    2    1    2    0    0  0.00000000000E+00  0.00000000000E+00  0.18735109901E+04  0.36107528822E+04  0.30866637242E+04 0.  0.
        5    1    3    3  502    0  0.12012075987E+04 -0.67311688314E+03  0.17521472332E+04  0.22284586714E+04  0.46999998093E+01 0. -1.
       -5    1    3    3    0  502 -0.12012075987E+04  0.67311688314E+03  0.12136375698E+03  0.13822942108E+04  0.46999998093E+01 0.  1.
</event>
<event>
 5   0  0.3026332E-07  0.3499107E+04  0.7818609E-02  0.8114002E-01
        1   -1    0    0  501    0  0.00000000000E+00  0.00000000000E+00  0.19517264035E+04  0.19517264035E+04  0.50400001928E-02 0. -1.
       -1   -1    0    0    0  501  0.00000000000E+00  0.00000000000E+00 -0.15683225773E+04  0.15683225773E+04  0.50400001928E-02 0.  1.
    10030    2    1    2    0    0  0.00000000000E+00  0.00000000000E+00  0.38340382623E+03  0.35200489809E+04  0.34991065050E+04 0.  0.
        1    1    3    3  502    0  0.99850450565E+03 -0.15770309905E+03 -0.12447993837E+04  0.16035607319E+04  0.50400001928E-02 0.  1.
       -1    1    3    3    0  502 -0.99850450565E+03  0.15770309905E+03  0.16282032100E+04  0.19164882489E+04  0.50400001928E-02 0. -1.
</event>
<event>
 5   0  0.3061330E-07  0.3468293E+04  0.7818609E-02  0.8121345E-01
        1   -1    0    0  501    0  0.00000000000E+00  0.00000000000E+00  0.21138117150E+04  0.21138117150E+04  0.50400001928E-02 0.  1.
       -1   -1    0    0    0  501  0.00000000000E+00  0.00000000000E+00 -0.14226739493E+04  0.14226739493E+04  0.50400001928E-02 0. -1.
    10030    2    1    2    0    0  0.00000000000E+00  0.00000000000E+00  0.69113776571E+03  0.35364856643E+04  0.34682934482E+04 0.  0.
        5    1    3    3  502    0 -0.15016534850E+04 -0.86299743182E+03  0.25717525212E+03  0.17509680056E+04  0.46999998093E+01 0. -1.
       -5    1    3    3    0  502  0.15016534850E+04  0.86299743182E+03  0.43396251358E+03  0.17855176587E+04  0.46999998093E+01 0.  1.
</event>
<event>
 5   0  0.9311672E-07  0.3427719E+04  0.7818609E-02  0.8131136E-01
       -2   -1    0    0    0  501  0.00000000000E+00  0.00000000000E+00  0.15314083524E+04  0.15314083524E+04  0.25500000920E-02 0.  1.
        2   -1    0    0  501    0  0.00000000000E+00  0.00000000000E+00 -0.19180480645E+04  0.19180480645E+04  0.25500000920E-02 0. -1.
    10030    2    1    2    0    0  0.00000000000E+00  0.00000000000E+00 -0.38663971209E+03  0.34494564169E+04  0.34277192570E+04 0.  0.
        4    1    3    3  502    0 -0.68973562255E+02 -0.71185450855E+03 -0.17607009941E+04  0.19004114810E+04  0.12699999809E+01 0. -1.
       -4    1    3    3    0  502  0.68973562255E+02  0.71185450855E+03  0.13740612820E+04  0.15490449359E+04  0.12699999809E+01 0.  1.
</event>
<event>
 5   0  0.2907000E-07  0.3498269E+04  0.7818609E-02  0.8114200E-01
       -3   -1    0    0    0  501  0.00000000000E+00  0.00000000000E+00  0.14613257098E+04  0.14613257133E+04  0.10100000352E+00 0. -1.
        3   -1    0    0  501    0  0.00000000000E+00  0.00000000000E+00 -0.20936277286E+04  0.20936277310E+04  0.10100000352E+00 0.  1.
    10030    2    1    2    0    0  0.00000000000E+00  0.00000000000E+00 -0.63230201872E+03  0.35549534443E+04  0.34982693076E+04 0.  0.
        5    1    3    3  502    0  0.17356478075E+04 -0.79071403220E+02 -0.11107835616E+03  0.17410014618E+04  0.46999998093E+01 0.  1.
       -5    1    3    3    0  502 -0.17356478075E+04  0.79071403220E+02 -0.52122366255E+03  0.18139519826E+04  0.46999998093E+01 0. -1.
</event>
<event>
 5   0  0.2936607E-07  0.3441495E+04  0.7818609E-02  0.8127797E-01
       -1   -1    0    0    0  501  0.00000000000E+00  0.00000000000E+00  0.20196147295E+04  0.20196147296E+04  0.50400001928E-02 0.  1.
        1   -1    0    0  501    0  0.00000000000E+00  0.00000000000E+00 -0.14661071088E+04  0.14661071088E+04  0.50400001928E-02 0. -1.
    10030    2    1    2    0    0  0.00000000000E+00  0.00000000000E+00  0.55350762077E+03  0.34857218383E+04  0.34414947404E+04 0.  0.
        2    1    3    3  502    0 -0.75855926599E+03 -0.10615028953E+04  0.14131217538E+04  0.19233079961E+04  0.25500000920E-02 0.  1.
       -2    1    3    3    0  502  0.75855926599E+03  0.10615028953E+04 -0.85961413302E+03  0.15624138423E+04  0.25500000920E-02 0. -1.
</event>
<event>
 5   0  0.9311672E-07  0.3503350E+04  0.7818609E-02  0.8112997E-01
       -2   -1    0    0    0  501  0.00000000000E+00  0.00000000000E+00  0.21512873510E+04  0.21512873510E+04  0.25500000920E-02 0. -1.
        2   -1    0    0  501    0  0.00000000000E+00  0.00000000000E+00 -0.14262922403E+04  0.14262922403E+04  0.25500000920E-02 0.  1.
    10030    2    1    2    0    0  0.00000000000E+00  0.00000000000E+00  0.72499511065E+03  0.35775795913E+04  0.35033495146E+04 0.  0.
        4    1    3    3  502    0 -0.98719037152E+03  0.13236491400E+03 -0.11089698015E+04  0.14905975089E+04  0.12699999809E+01 0.  1.
       -4    1    3    3    0  502  0.98719037152E+03 -0.13236491400E+03  0.18339649122E+04  0.20869820823E+04  0.12699999809E+01 0. -1.
</event>
<event>
 5   0  0.8845195E-07  0.3521768E+04  0.7818609E-02  0.8108650E-01
       -2   -1    0    0    0  501  0.00000000000E+00  0.00000000000E+00  0.13999321220E+04  0.13999321220E+04  0.25500000920E-02 0.  1.
        2   -1    0    0  501    0  0.00000000000E+00  0.00000000000E+00 -0.22149025078E+04  0.22149025078E+04  0.25500000920E-02 0. -1.
    10030    2    1    2    0    0  0.00000000000E+00  0.00000000000E+00 -0.81497038577E+03  0.36148346298E+04  0.35217684012E+04 0.  0.
        5    1    3    3  502    0  0.45060373403E+03  0.48929227545E+03 -0.20809815470E+04  0.21847098079E+04  0.46999998093E+01 0. -1.
       -5    1    3    3    0  502 -0.45060373403E+03 -0.48929227545E+03  0.12660111612E+04  0.14301248219E+04  0.46999998093E+01 0.  1.
</event>
<event>
 5   0  0.9128871E-07  0.3443862E+04  0.7818609E-02  0.8127224E-01
        2   -1    0    0  501    0  0.00000000000E+00  0.00000000000E+00  0.24040040534E+04  0.24040040534E+04  0.25500000920E-02 0. -1.
       -2   -1    0    0    0  501  0.00000000000E+00  0.00000000000E+00 -0.12333784305E+04  0.12333784305E+04  0.25500000920E-02 0.  1.
    10030    2    1    2    0    0  0.00000000000E+00  0.00000000000E+00  0.11706256230E+04  0.36373824839E+04  0.34438622192E+04 0.  0.
        1    1    3    3  502    0  0.16510604506E+04  0.48887813296E+03  0.57828252605E+03  0.18164286720E+04  0.50400001928E-02 0.  1.
       -1    1    3    3    0  502 -0.16510604506E+04 -0.48887813296E+03  0.59234309694E+03  0.18209538119E+04  0.50400001928E-02 0. -1.
</event>
<event>
 5   0  0.3026332E-07  0.3506673E+04  0.7818609E-02  0.8112210E-01
        1   -1    0    0  501    0  0.00000000000E+00  0.00000000000E+00  0.19421343580E+04  0.19421343580E+04  0.50400001928E-02 0. -1.
       -1   -1    0    0    0  501  0.00000000000E+00  0.00000000000E+00 -0.15828918022E+04  0.15828918022E+04  0.50400001928E-02 0.  1.
    10030    2    1    2    0    0  0.00000000000E+00  0.00000000000E+00  0.35924255577E+03  0.35250261602E+04  0.35066728128E+04 0.  0.
        1    1    3    3  502    0 -0.55713762648E+03  0.18815366686E+02  0.18506792054E+04  0.19328139781E+04  0.50400001928E-02 0. -1.
       -1    1    3    3    0  502  0.55713762648E+03 -0.18815366686E+02 -0.14914366496E+04  0.15922121821E+04  0.50400001928E-02 0.  1.
</event>
<event>
 5   0  0.2933506E-07  0.3458642E+04  0.7818609E-02  0.8123662E-01
        1   -1    0    0  501    0  0.00000000000E+00  0.00000000000E+00  0.13722153174E+04  0.13722153174E+04  0.50400001928E-02 0.  1.
       -1   -1    0    0    0  501  0.00000000000E+00  0.00000000000E+00 -0.21793596501E+04  0.21793596501E+04  0.50400001928E-02 0. -1.
    10030    2    1    2    0    0  0.00000000000E+00  0.00000000000E+00 -0.80714433271E+03  0.35515749676E+04  0.34586417531E+04 0.  0.
        4    1    3    3  502    0 -0.11038457681E+04 -0.12829852159E+04 -0.39036928579E+02  0.16929418297E+04  0.12699999809E+01 0.  1.
       -4    1    3    3    0  502  0.11038457681E+04  0.12829852159E+04 -0.76810740413E+03  0.18586331379E+04  0.12699999809E+01 0. -1.
</event>
<event>
 5   0  0.3026332E-07  0.3585004E+04  0.7818609E-02  0.8093935E-01
       -1   -1    0    0    0  501  0.00000000000E+00  0.00000000000E+00  0.13791683918E+04  0.13791683918E+04  0.50400001928E-02 0.  1.
        1   -1    0    0  501    0  0.00000000000E+00  0.00000000000E+00 -0.23297109413E+04  0.23297109413E+04  0.50400001928E-02 0. -1.
    10030    2    1    2    0    0  0.00000000000E+00  0.00000000000E+00 -0.95054254948E+03  0.37088793331E+04  0.35850041519E+04 0.  0.
        1    1    3    3  502    0 -0.69014110044E+03  0.65914214246E+02 -0.21853933301E+04  0.22927240194E+04  0.50400001928E-02 0. -1.
       -1    1    3    3    0  502  0.69014110044E+03 -0.65914214246E+02  0.12348507806E+04  0.14161553137E+04  0.50400001928E-02 0.  1.
</event>
<event>
 5   0  0.6188930E-07  0.3497036E+04  0.7818609E-02  0.8114493E-01
       -2   -1    0    0    0  501  0.00000000000E+00  0.00000000000E+00  0.17418331257E+04  0.17418331257E+04  0.25500000920E-02 0. -1.
        2   -1    0    0  501    0  0.00000000000E+00  0.00000000000E+00 -0.17552289632E+04  0.17552289632E+04  0.25500000920E-02 0.  1.
    10030    2    1    2    0    0  0.00000000000E+00  0.00000000000E+00 -0.13395837469E+02  0.34970620889E+04  0.34970364318E+04 0.  0.
        3    1    3    3  502    0  0.73428556019E+03 -0.69285841590E+03  0.14209287058E+04  0.17430623814E+04  0.10100000352E+00 0. -1.
       -3    1    3    3    0  502 -0.73428556019E+03  0.69285841590E+03 -0.14343245433E+04  0.17539997075E+04  0.10100000352E+00 0.  1.
</event>
<event>
 5   0  0.8950809E-07  0.3470744E+04  0.7818609E-02  0.8120759E-01
       -2   -1    0    0    0  501  0.00000000000E+00  0.00000000000E+00  0.12520990132E+04  0.12520990132E+04  0.25500000920E-02 0. -1.
        2   -1    0    0  501    0  0.00000000000E+00  0.00000000000E+00 -0.24051735568E+04  0.24051735568E+04  0.25500000920E-02 0.  1.
    10030    2    1    2    0    0  0.00000000000E+00  0.00000000000E+00 -0.11530745436E+04  0.36572725701E+04  0.34707436881E+04 0.  0.
        2    1    3    3  502    0 -0.55488961913E+03  0.90180323664E+03  0.87225956905E+03  0.13718557952E+04  0.25500000920E-02 0. -1.
       -2    1    3    3    0  502  0.55488961913E+03 -0.90180323664E+03 -0.20253341126E+04  0.22854167749E+04  0.25500000920E-02 0.  1.
</event>
<event>
 5   0  0.2936607E-07  0.3510279E+04  0.7818609E-02  0.8111358E-01
       -1   -1    0    0    0  501  0.00000000000E+00  0.00000000000E+00  0.13036483384E+04  0.13036483384E+04  0.50400001928E-02 0.  1.
        1   -1    0    0  501    0  0.00000000000E+00  0.00000000000E+00 -0.23629955217E+04  0.23629955217E+04  0.50400001928E-02 0. -1.
    10030    2    1    2    0    0  0.00000000000E+00  0.00000000000E+00 -0.10593471833E+04  0.36666438601E+04  0.35102792969E+04 0.  0.
        2    1    3    3  502    0  0.22412089028E+02 -0.17479237941E+04 -0.36526047386E+03  0.17858205692E+04  0.25500000920E-02 0. -1.
       -2    1    3    3    0  502 -0.22412089028E+02  0.17479237941E+04 -0.69408670944E+03  0.18808232910E+04  0.25500000920E-02 0.  1.
</event>
<event>
 5   0  0.9128871E-07  0.3486050E+04  0.7818609E-02  0.8117104E-01
       -2   -1    0    0    0  501  0.00000000000E+00  0.00000000000E+00  0.14446180322E+04  0.14446180322E+04  0.25500000920E-02 0.  1.
        2   -1    0    0  501    0  0.00000000000E+00  0.00000000000E+00 -0.21030722911E+04  0.21030722911E+04  0.25500000920E-02 0. -1.
    10030    2    1    2    0    0  0.00000000000E+00  0.00000000000E+00 -0.65845425892E+03  0.35476903232E+04  0.34860500023E+04 0.  0.
        1    1    3    3  502    0  0.11421436263E+04  0.13661073029E+03  0.10035017958E+04  0.15264895706E+04  0.50400001928E-02 0.  1.
       -1    1    3    3    0  502 -0.11421436263E+04 -0.13661073029E+03 -0.16619560547E+04  0.20212007527E+04  0.50400001928E-02 0. -1.
</event>
<event>
 5   0  0.8845195E-07  0.3224608E+04  0.7818609E-02  0.8182348E-01
       -2   -1    0    0    0  501  0.00000000000E+00  0.00000000000E+00  0.12528255099E+04  0.12528255099E+04  0.25500000920E-02 0.  1.
        2   -1    0    0  501    0  0.00000000000E+00  0.00000000000E+00 -0.20749290948E+04  0.20749290948E+04  0.25500000920E-02 0. -1.
    10030    2    1    2    0    0  0.00000000000E+00  0.00000000000E+00 -0.82210358494E+03  0.33277546047E+04  0.32246079459E+04 0.  0.
        5    1    3    3  502    0  0.10763069844E+04 -0.94520317437E+03 -0.11747616490E+04  0.18525476478E+04  0.46999998093E+01 0. -1.
       -5    1    3    3    0  502 -0.10763069844E+04  0.94520317437E+03  0.35265806404E+03  0.14752069569E+04  0.46999998093E+01 0.  1.
</event>
<event>
 5   0  0.2936607E-07  0.3497511E+04  0.7818609E-02  0.8114380E-01
        1   -1    0    0  501    0  0.00000000000E+00  0.00000000000E+00  0.19852609443E+04  0.19852609443E+04  0.50400001928E-02 0. -1.
       -1   -1    0    0    0  501  0.00000000000E+00  0.00000000000E+00 -0.15404253816E+04  0.15404253816E+04  0.50400001928E-02 0.  1.
    10030    2    1    2    0    0  0.00000000000E+00  0.00000000000E+00  0.44483556268E+03  0.35256863260E+04  0.34975113140E+04 0.  0.
        2    1    3    3  502    0  0.14028067467E+04 -0.59639693282E+02  0.12732754792E+04  0.18954297949E+04  0.25500000920E-02 0. -1.
       -2    1    3    3    0  502 -0.14028067467E+04  0.59639693282E+02 -0.82843991648E+03  0.16302565310E+04  0.25500000920E-02 0.  1.
</event>
<event>
 5   0  0.9128871E-07  0.3342077E+04  0.7818609E-02  0.8152271E-01
        2   -1    0    0  501    0  0.00000000000E+00  0.00000000000E+00  0.23428182853E+04  0.23428182853E+04  0.25500000920E-02 0.  1.
       -2   -1    0    0    0  501  0.00000000000E+00  0.00000000000E+00 -0.11918845830E+04  0.11918845830E+04  0.25500000920E-02 0. -1.
    10030    2    1    2    0    0  0.00000000000E+00  0.00000000000E+00  0.11509337023E+04  0.35347028683E+04  0.33420765970E+04 0.  0.
        1    1    3    3  502    0 -0.35942749882E+03  0.15404660598E+04  0.57695026200E+01  0.15818524253E+04  0.50400001928E-02 0. -1.
       -1    1    3    3    0  502  0.35942749882E+03 -0.15404660598E+04  0.11451641997E+04  0.19528504430E+04  0.50400001928E-02 0.  1.
</event>
<event>
 5   0  0.2933506E-07  0.3469036E+04  0.7818609E-02  0.8121167E-01
       -1   -1    0    0    0  501  0.00000000000E+00  0.00000000000E+00  0.11228030284E+04  0.11228030284E+04  0.50400001928E-02 0.  1.
        1   -1    0    0  501    0  0.00000000000E+00  0.00000000000E+00 -0.26795024424E+04  0.26795024424E+04  0.50400001928E-02 0. -1.
    10030    2    1    2    0    0  0.00000000000E+00  0.00000000000E+00 -0.15566994140E+04  0.38023054708E+04  0.34690364408E+04 0.  0.
        4    1    3    3  502    0  0.82906444040E+01 -0.17030131649E+04 -0.41776234158E+03  0.17535248962E+04  0.12699999809E+01 0.  1.
       -4    1    3    3    0  502 -0.82906444040E+01  0.17030131649E+04 -0.11389370724E+04  0.20487805745E+04  0.12699999809E+01 0. -1.
</event>
<event>
 5   0  0.9128871E-07  0.3362555E+04  0.7818609E-02  0.8147158E-01
       -2   -1    0    0    0  501  0.00000000000E+00  0.00000000000E+00  0.89258688474E+03  0.89258688474E+03  0.25500000920E-02 0. -1.
        2   -1    0    0  501    0  0.00000000000E+00  0.00000000000E+00 -0.31668554402E+04  0.31668554402E+04  0.25500000920E-02 0.  1.
    10030    2    1    2    0    0  0.00000000000E+00  0.00000000000E+00 -0.22742685555E+04  0.40594423250E+04  0.33625547620E+04 0.  0.
        1    1    3    3  502    0  0.26803634917E+03  0.12530328012E+04 -0.24511846331E+04  0.27659068659E+04  0.50400001928E-02 0.  1.
       -1    1    3    3    0  502 -0.26803634917E+03 -0.12530328012E+04  0.17691607758E+03  0.12935354591E+04  0.50400001928E-02 0. -1.
</event>
<event>
 5   0  0.2936607E-07  0.3502816E+04  0.7818609E-02  0.8113123E-01
       -1   -1    0    0    0  501  0.00000000000E+00  0.00000000000E+00  0.25621994690E+04  0.25621994690E+04  0.50400001928E-02 0. -1.
        1   -1    0    0  501    0  0.00000000000E+00  0.00000000000E+00 -0.11971862548E+04  0.11971862548E+04  0.50400001928E-02 0.  1.
    10030    2    1    2    0    0  0.00000000000E+00  0.00000000000E+00  0.13650132142E+04  0.37593857238E+04  0.35028160022E+04 0.  0.
        2    1    3    3  502    0 -0.19185478562E+03 -0.53719961210E+03 -0.10946934619E+04  0.12344008497E+04  0.25500000920E-02 0.  1.
       -2    1    3    3    0  502  0.19185478562E+03  0.53719961210E+03  0.24597066761E+04  0.25249848741E+04  0.25500000920E-02 0. -1.
</event>
<event>
 5   0  0.8950809E-07  0.3346259E+04  0.7818609E-02  0.8151224E-01
       -2   -1    0    0    0  501  0.00000000000E+00  0.00000000000E+00  0.17314871109E+04  0.17314871109E+04  0.25500000920E-02 0. -1.
        2   -1    0    0  501    0  0.00000000000E+00  0.00000000000E+00 -0.16167385332E+04  0.16167385332E+04  0.25500000920E-02 0.  1.
    10030    2    1    2    0    0  0.00000000000E+00  0.00000000000E+00  0.11474857764E+03  0.33482256441E+04  0.33462587658E+04 0.  0.
        2    1    3    3  502    0 -0.13412069179E+04 -0.20895343815E+03  0.10361437133E+04  0.17076566782E+04  0.25500000920E-02 0. -1.
       -2    1    3    3    0  502  0.13412069179E+04  0.20895343815E+03 -0.92139513569E+03  0.16405689659E+04  0.25500000920E-02 0.  1.
</event>
<event>
 5   0  0.8950809E-07  0.3489526E+04  0.7818609E-02  0.8116277E-01
        2   -1    0    0  501    0  0.00000000000E+00  0.00000000000E+00  0.16533289667E+04  0.16533289667E+04  0.25500000920E-02 0. -1.
       -2   -1    0    0    0  501  0.00000000000E+00  0.00000000000E+00 -0.18412531912E+04  0.18412531912E+04  0.25500000920E-02 0.  1.
    10030    2    1    2    0    0  0.00000000000E+00  0.00000000000E+00 -0.18792422457E+03  0.34945821579E+04  0.34895256045E+04 0.  0.
        2    1    3    3  502    0  0.12423229817E+04  0.12208889106E+04  0.74818272575E+01  0.17418358420E+04  0.25500000920E-02 0. -1.
       -2    1    3    3    0  502 -0.12423229817E+04 -0.12208889106E+04 -0.19540605182E+03  0.17527463159E+04  0.25500000920E-02 0.  1.
</event>
<event>
 5   0  0.2933506E-07  0.3425150E+04  0.7818609E-02  0.8131761E-01
        1   -1    0    0  501    0  0.00000000000E+00  0.00000000000E+00  0.23062320012E+04  0.23062320012E+04  0.50400001928E-02 0.  1.
       -1   -1    0    0    0  501  0.00000000000E+00  0.00000000000E+00 -0.12717341374E+04  0.12717341374E+04  0.50400001928E-02 0. -1.
    10030    2    1    2    0    0  0.00000000000E+00  0.00000000000E+00  0.10344978638E+04  0.35779661387E+04  0.34251504871E+04 0.  0.
        4    1    3    3  502    0 -0.71944812757E+03 -0.84522926265E+03 -0.84512154473E+03  0.13950806977E+04  0.12699999809E+01 0. -1.
       -4    1    3    3    0  502  0.71944812757E+03  0.84522926265E+03  0.18796194086E+04  0.21828854410E+04  0.12699999809E+01 0.  1.
</event>
<event>
 5   0  0.3061330E-07  0.3509537E+04  0.7818609E-02  0.8111534E-01
        1   -1    0    0  501    0  0.00000000000E+00  0.00000000000E+00  0.14797779838E+04  0.14797779838E+04  0.50400001928E-02 0. -1.
       -1   -1    0    0    0  501  0.00000000000E+00  0.00000000000E+00 -0.20808611852E+04  0.20808611852E+04  0.50400001928E-02 0.  1.
    10030    2    1    2    0    0  0.00000000000E+00  0.00000000000E+00 -0.60108320140E+03  0.35606391690E+04  0.35095370459E+04 0.  0.
        5    1    3    3  502    0  0.17242799697E+04 -0.31817858291E+03 -0.37091626367E+03  0.17921997627E+04  0.46999998093E+01 0.  1.
       -5    1    3    3    0  502 -0.17242799697E+04  0.31817858291E+03 -0.23016693773E+03  0.17684394063E+04  0.46999998093E+01 0. -1.
</event>
<event>
 5   0  0.8845195E-07  0.3516929E+04  0.7818609E-02  0.8109790E-01
        2   -1    0    0  501    0  0.00000000000E+00  0.00000000000E+00  0.18451531253E+04  0.18451531253E+04  0.25500000920E-02 0. -1.
       -2   -1    0    0    0  501  0.00000000000E+00  0.00000000000E+00 -0.16758490322E+04  0.16758490322E+04  0.25500000920E-02 0.  1.
    10030    2    1    2    0    0  0.00000000000E+00  0.00000000000E+00  0.16930409302E+03  0.35210021575E+04  0.35169293876E+04 0.  0.
        5    1    3    3  502    0  0.13759582464E+03 -0.26095604718E+03  0.18201950594E+04  0.18439530400E+04  0.46999998093E+01 0. -1.
       -5    1    3    3    0  502 -0.13759582464E+03  0.26095604718E+03 -0.16508909664E+04  0.16770491175E+04  0.46999998093E+01 0.  1.
</event>
<event>
 5   0  0.6188930E-07  0.3618525E+04  0.7818609E-02  0.8086261E-01
       -2   -1    0    0    0  501  0.00000000000E+00  0.00000000000E+00  0.15620914884E+04  0.15620914884E+04  0.25500000920E-02 0. -1.
        2   -1    0    0  501    0  0.00000000000E+00  0.00000000000E+00 -0.20955436638E+04  0.20955436638E+04  0.25500000920E-02 0.  1.
    10030    2    1    2    0    0  0.00000000000E+00  0.00000000000E+00 -0.53345217541E+03  0.36576351523E+04  0.36185250702E+04 0.  0.
        3    1    3    3  502    0 -0.13462442276E+04 -0.59519102958E+03  0.79669277265E+03  0.16737219800E+04  0.10100000352E+00 0.  1.
       -3    1    3    3    0  502  0.13462442276E+04  0.59519102958E+03 -0.13301449481E+04  0.19839131723E+04  0.10100000352E+00 0. -1.
</event>
<event>
 5   0  0.8845195E-07  0.3473320E+04  0.7818609E-02  0.8120142E-01
       -2   -1    0    0    0  501  0.00000000000E+00  0.00000000000E+00  0.15963490886E+04  0.15963490886E+04  0.25500000920E-02 0. -1.
        2   -1    0    0  501    0  0.00000000000E+00  0.00000000000E+00 -0.18893035061E+04  0.18893035061E+04  0.25500000920E-02 0.  1.
    10030    2    1    2    0    0  0.00000000000E+00  0.00000000000E+00 -0.29295441745E+03  0.34856525947E+04  0.34733199853E+04 0.  0.
        5    1    3    3  502    0 -0.47474402026E+03  0.11299073663E+04  0.10882952613E+04  0.16390488727E+04  0.46999998093E+01 0. -1.
       -5    1    3    3    0  502  0.47474402026E+03 -0.11299073663E+04 -0.13812496787E+04  0.18466037220E+04  0.46999998093E+01 0.  1.
</event>
<event>
 5   0  0.3026332E-07  0.3392656E+04  0.7818609E-02  0.8139711E-01
       -1   -1    0    0    0  501  0.00000000000E+00  0.00000000000E+00  0.10972605946E+04  0.10972605946E+04  0.50400001928E-02 0.  1.
        1   -1    0    0  501    0  0.00000000000E+00  0.00000000000E+00 -0.26224656043E+04  0.26224656044E+04  0.50400001928E-02 0. -1.
    10030    2    1    2    0    0  0.00000000000E+00  0.00000000000E+00 -0.15252050097E+04  0.37197261990E+04  0.33926556963E+04 0.  0.
        1    1    3    3  502    0 -0.87824953963E+03 -0.14509524391E+04 -0.79627007957E+03  0.18736678665E+04  0.50400001928E-02 0.  1.
       -1    1    3    3    0  502  0.87824953963E+03  0.14509524391E+04 -0.72893493016E+03  0.18460583325E+04  0.50400001928E-02 0. -1.
</event>
<event>
 5   0  0.9128871E-07  0.3345987E+04  0.7818609E-02  0.8151292E-01
       -2   -1    0    0    0  501  0.00000000000E+00  0.00000000000E+00  0.15454146240E+04  0.15454146240E+04  0.25500000920E-02 0.  1.
        2   -1    0    0  501    0  0.00000000000E+00  0.00000000000E+00 -0.18111039547E+04  0.18111039547E+04  0.25500000920E-02 0. -1.
    10030    2    1    2    0    0  0.00000000000E+00  0.00000000000E+00 -0.26568933064E+03  0.33565185787E+04  0.33459865733E+04 0.  0.
        1    1    3    3  502    0 -0.11320777816E+04 -0.87221636938E+03  0.73968912606E+03  0.16091928106E+04  0.50400001928E-02 0.  1.
       -1    1    3    3    0  502  0.11320777816E+04  0.87221636938E+03 -0.10053784567E+04  0.17473257681E+04  0.50400001928E-02 0. -1.
</event>
<event>
 5   0  0.3061330E-07  0.3439027E+04  0.7818609E-02  0.8128394E-01
       -1   -1    0    0    0  501  0.00000000000E+00  0.00000000000E+00  0.16697338290E+04  0.16697338290E+04  0.50400001928E-02 0. -1.
        1   -1    0    0  501    0  0.00000000000E+00  0.00000000000E+00 -0.17707771483E+04  0.17707771483E+04  0.50400001928E-02 0.  1.
    10030    2    1    2    0    0  0.00000000000E+00  0.00000000000E+00 -0.10104331935E+03  0.34405109773E+04  0.34390269020E+04 0.  0.
        5    1    3    3  502    0  0.50394463307E+03 -0.16405637894E+04 -0.15684394346E+03  0.17233780354E+04  0.46999998093E+01 0.  1.
       -5    1    3    3    0  502 -0.50394463307E+03  0.16405637894E+04  0.55800624111E+02  0.17171329419E+04  0.46999998093E+01 0. -1.
</event>
<event>
 5   0  0.3061330E-07  0.3547509E+04  0.7818609E-02  0.8102622E-01
        1   -1    0    0  501    0  0.00000000000E+00  0.00000000000E+00  0.20257356586E+04  0.20257356586E+04  0.50400001928E-02 0.  1.
       -1   -1    0    0    0  501  0.00000000000E+00  0.00000000000E+00 -0.15531171823E+04  0.15531171823E+04  0.50400001928E-02 0. -1.
    10030    2    1    2    0    0  0.00000000000E+00  0.00000000000E+00  0.47261847631E+03  0.35788528409E+04  0.35475089052E+04 0.  0.
        5    1    3    3  502    0  0.23869553278E+03  0.11195552515E+04  0.16031987582E+04  0.19699360058E+04  0.46999998093E+01 0.  1.
       -5    1    3    3    0  502 -0.23869553278E+03 -0.11195552515E+04 -0.11305802819E+04  0.16089168351E+04  0.46999998093E+01 0. -1.
</event>
<event>
 5   0  0.8950809E-07  0.3514545E+04  0.7818609E-02  0.8110352E-01
        2   -1    0    0  501    0  0.00000000000E+00  0.00000000000E+00  0.12370989047E+04  0.12370989047E+04  0.25500000920E-02 0. -1.
       -2   -1    0    0    0  501  0.00000000000E+00  0.00000000000E+00 -0.24961680794E+04  0.24961680794E+04  0.25500000920E-02 0.  1.
    10030    2    1    2    0    0  0.00000000000E+00  0.00000000000E+00 -0.12590691747E+04  0.37332669841E+04  0.35145450897E+04 0.  0.
        2    1    3    3  502    0  0.41176537576E+03 -0.17083481822E+04 -0.62783484009E+03  0.18660602410E+04  0.25500000920E-02 0.  1.
       -2    1    3    3    0  502 -0.41176537576E+03  0.17083481822E+04 -0.63123433457E+03  0.18672067431E+04  0.25500000920E-02 0. -1.
</event>
<event>
 5   0  0.8950809E-07  0.3492508E+04  0.7818609E-02  0.8115568E-01
        2   -1    0    0  501    0  0.00000000000E+00  0.00000000000E+00  0.18469420565E+04  0.18469420565E+04  0.25500000920E-02 0. -1.
       -2   -1    0    0    0  501  0.00000000000E+00  0.00000000000E+00 -0.16510548591E+04  0.16510548591E+04  0.25500000920E-02 0.  1.
    10030    2    1    2    0    0  0.00000000000E+00  0.00000000000E+00  0.19588719740E+03  0.34979969156E+04  0.34925077848E+04 0.  0.
        2    1    3    3  502    0  0.87546775462E+02 -0.13641009534E+04  0.11863745549E+04  0.18099503953E+04  0.25500000920E-02 0. -1.
       -2    1    3    3    0  502 -0.87546775462E+02  0.13641009534E+04 -0.99048735749E+03  0.16880465202E+04  0.25500000920E-02 0.  1.
</event>
<event>
 5   0  0.3026332E-07  0.3509307E+04  0.7818609E-02  0.8111588E-01
        1   -1    0    0  501    0  0.00000000000E+00  0.00000000000E+00  0.24481504450E+04  0.24481504450E+04  0.50400001928E-02 0.  1.
       -1   -1    0    0    0  501  0.00000000000E+00  0.00000000000E+00 -0.12576058596E+04  0.12576058596E+04  0.50400001928E-02 0. -1.
    10030    2    1    2    0    0  0.00000000000E+00  0.00000000000E+00  0.11905445854E+04  0.37057563046E+04  0.35093066807E+04 0.  0.
        1    1    3    3  502    0 -0.34924048554E+03 -0.14259116535E+04  0.16101205543E+04  0.21789174284E+04  0.50400001928E-02 0.  1.
       -1    1    3    3    0  502  0.34924048554E+03  0.14259116535E+04 -0.41957596891E+03  0.15268388762E+04  0.50400001928E-02 0. -1.
</event>
<event>
 5   0  0.8845195E-07  0.3516974E+04  0.7818609E-02  0.8109779E-01
        2   -1    0    0  501    0  0.00000000000E+00  0.00000000000E+00  0.15563785193E+04  0.15563785193E+04  0.25500000920E-02 0.  1.
       -2   -1    0    0    0  501  0.00000000000E+00  0.00000000000E+00 -0.19868409277E+04  0.19868409277E+04  0.25500000920E-02 0. -1.
    10030    2    1    2    0    0  0.00000000000E+00  0.00000000000E+00 -0.43046240838E+03  0.35432194471E+04  0.35169740069E+04 0.  0.
        5    1    3    3  502    0 -0.66449146812E+03  0.79518195321E+03  0.12160717397E+04  0.15977220709E+04  0.46999998093E+01 0.  1.
       -5    1    3    3    0  502  0.66449146812E+03 -0.79518195321E+03 -0.16465341480E+04  0.19454973761E+04  0.46999998093E+01 0. -1.
</event>
<event>
 5   0  0.2936607E-07  0.3483591E+04  0.7818609E-02  0.8117690E-01
        1   -1    0    0  501    0  0.00000000000E+00  0.00000000000E+00  0.18847989210E+04  0.18847989210E+04  0.50400001928E-02 0. -1.
       -1   -1    0    0    0  501  0.00000000000E+00  0.00000000000E+00 -0.16096419488E+04  0.16096419488E+04  0.50400001928E-02 0.  1.
    10030    2    1    2    0    0  0.00000000000E+00  0.00000000000E+00  0.27515697222E+03  0.34944408699E+04  0.34835909108E+04 0.  0.
        2    1    3    3  502    0  0.61777099592E+03 -0.26449540497E+03  0.17495223294E+04  0.18741470603E+04  0.25500000920E-02 0. -1.
       -2    1    3    3    0  502 -0.61777099592E+03  0.26449540497E+03 -0.14743653572E+04  0.16202938095E+04  0.25500000920E-02 0.  1.
</event>
<event>
 5   0  0.8950809E-07  0.3487284E+04  0.7818609E-02  0.8116810E-01
        2   -1    0    0  501    0  0.00000000000E+00  0.00000000000E+00  0.24224839210E+04  0.24224839210E+04  0.25500000920E-02 0.  1.
       -2   -1    0    0    0  501  0.00000000000E+00  0.00000000000E+00 -0.12550291952E+04  0.12550291952E+04  0.25500000920E-02 0. -1.
    10030    2    1    2    0    0  0.00000000000E+00  0.00000000000E+00  0.11674547259E+04  0.36775131162E+04  0.34872843565E+04 0.  0.
        2    1    3    3  502    0  0.35012793384E+02  0.63015125769E+03  0.22978067664E+04  0.23829042027E+04  0.25500000920E-02 0.  1.
       -2    1    3    3    0  502 -0.35012793384E+02 -0.63015125769E+03 -0.11303520406E+04  0.12946089135E+04  0.25500000920E-02 0. -1.
</event>
<event>
 5   0  0.2972541E-07  0.3552006E+04  0.7818609E-02  0.8101575E-01
       -1   -1    0    0    0  501  0.00000000000E+00  0.00000000000E+00  0.29950617416E+04  0.29950617416E+04  0.50400001928E-02 0.  1.
        1   -1    0    0  501    0  0.00000000000E+00  0.00000000000E+00 -0.10531292214E+04  0.10531292214E+04  0.50400001928E-02 0. -1.
    10030    2    1    2    0    0  0.00000000000E+00  0.00000000000E+00  0.19419325202E+04  0.40481909631E+04  0.35520062162E+04 0.  0.
        3    1    3    3  502    0  0.11517364043E+04 -0.13508869600E+04  0.91071649361E+03  0.19951934406E+04  0.10100000352E+00 0.  1.
       -3    1    3    3    0  502 -0.11517364043E+04  0.13508869600E+04  0.10312160266E+04  0.20529975225E+04  0.10100000352E+00 0. -1.
</event>
<event>
 5   0  0.3061330E-07  0.3505282E+04  0.7818609E-02  0.8112539E-01
        1   -1    0    0  501    0  0.00000000000E+00  0.00000000000E+00  0.96482452875E+03  0.96482452876E+03  0.50400001928E-02 0.  1.
       -1   -1    0    0    0  501  0.00000000000E+00  0.00000000000E+00 -0.31837394695E+04  0.31837394695E+04  0.50400001928E-02 0. -1.
    10030    2    1    2    0    0  0.00000000000E+00  0.00000000000E+00 -0.22189149407E+04  0.41485639982E+04  0.35052816910E+04 0.  0.
        5    1    3    3  502    0  0.14802736987E+04  0.44203234297E+03 -0.12983263638E+03  0.15503165544E+04  0.46999998093E+01 0.  1.
       -5    1    3    3    0  502 -0.14802736987E+04 -0.44203234297E+03 -0.20890823043E+04  0.25982474439E+04  0.46999998093E+01 0. -1.
</event>
<event>
 5   0  0.8845195E-07  0.3519631E+04  0.7818609E-02  0.8109153E-01
        2   -1    0    0  501    0  0.00000000000E+00  0.00000000000E+00  0.24659320332E+04  0.24659320332E+04  0.25500000920E-02 0.  1.
       -2   -1    0    0    0  501  0.00000000000E+00  0.00000000000E+00 -0.12558942455E+04  0.12558942455E+04  0.25500000920E-02 0. -1.
    10030    2    1    2    0    0  0.00000000000E+00  0.00000000000E+00  0.12100377877E+04  0.37218262787E+04  0.35196305773E+04 0.  0.
        5    1    3    3  502    0 -0.13350411581E+04 -0.11420978180E+04  0.71184438403E+03  0.18956441746E+04  0.46999998093E+01 0.  1.
       -5    1    3    3    0  502  0.13350411581E+04  0.11420978180E+04  0.49819340367E+03  0.18261821040E+04  0.46999998093E+01 0. -1.
</event>
<event>
 5   0  0.2972541E-07  0.3462086E+04  0.7818609E-02  0.8122834E-01
        1   -1    0    0  501    0  0.00000000000E+00  0.00000000000E+00  0.19852665100E+04  0.19852665100E+04  0.50400001928E-02 0. -1.
       -1   -1    0    0    0  501  0.00000000000E+00  0.00000000000E+00 -0.15093741989E+04  0.15093741989E+04  0.50400001928E-02 0.  1.
    10030    2    1    2    0    0  0.00000000000E+00  0.00000000000E+00  0.47589231115E+03  0.34946407089E+04  0.34620861041E+04 0.  0.
        3    1    3    3  502    0 -0.19108921910E+03 -0.14551140944E+03  0.19683651039E+04  0.19829649145E+04  0.10100000352E+00 0. -1.
       -3    1    3    3    0  502  0.19108921910E+03  0.14551140944E+03 -0.14924727927E+04  0.15116757943E+04  0.10100000352E+00 0.  1.
</event>
<event>
 5   0  0.8950809E-07  0.3462682E+04  0.7818609E-02  0.8122691E-01
        2   -1    0    0  501    0  0.00000000000E+00  0.00000000000E+00  0.21703599389E+04  0.21703599389E+04  0.25500000920E-02 0. -1.
       -2   -1    0    0    0  501  0.00000000000E+00  0.00000000000E+00 -0.13811264611E+04  0.13811264611E+04  0.25500000920E-02 0.  1.
    10030    2    1    2    0    0  0.00000000000E+00  0.00000000000E+00  0.78923347780E+03  0.35514863999E+04  0.34626819326E+04 0.  0.
        2    1    3    3  502    0  0.14994660577E+04 -0.77381366986E+03 -0.30847317237E+01  0.16873634965E+04  0.25500000920E-02 0.  1.
       -2    1    3    3    0  502 -0.14994660577E+04  0.77381366986E+03  0.79231820953E+03  0.18641229034E+04  0.25500000920E-02 0. -1.
</event>
<event>
 5   0  0.8950809E-07  0.3514106E+04  0.7818609E-02  0.8110455E-01
        2   -1    0    0  501    0  0.00000000000E+00  0.00000000000E+00  0.26207824177E+04  0.26207824177E+04  0.25500000920E-02 0.  1.
       -2   -1    0    0    0  501  0.00000000000E+00  0.00000000000E+00 -0.11779823547E+04  0.11779823547E+04  0.25500000920E-02 0. -1.
    10030    2    1    2    0    0  0.00000000000E+00  0.00000000000E+00  0.14428000630E+04  0.37987647724E+04  0.35141061132E+04 0.  0.
        2    1    3    3  502    0 -0.77641619584E+03  0.21842596306E+03 -0.96604202175E+03  0.12584789225E+04  0.25500000920E-02 0. -1.
       -2    1    3    3    0  502  0.77641619584E+03 -0.21842596306E+03  0.24088420847E+04  0.25402858500E+04  0.25500000920E-02 0.  1.
</event>
<event>
 5   0  0.2936607E-07  0.3504446E+04  0.7818609E-02  0.8112737E-01
        1   -1    0    0  501    0  0.00000000000E+00  0.00000000000E+00  0.25765711813E+04  0.25765711813E+04  0.50400001928E-02 0. -1.
       -1   -1    0    0    0  501  0.00000000000E+00  0.00000000000E+00 -0.11916166986E+04  0.11916166986E+04  0.50400001928E-02 0.  1.
    10030    2    1    2    0    0  0.00000000000E+00  0.00000000000E+00  0.13849544827E+04  0.37681878799E+04  0.35044458876E+04 0.  0.
        2    1    3    3  502    0 -0.12263364858E+04 -0.10434067700E+04 -0.50686683303E+02  0.16109525145E+04  0.25500000920E-02 0.  1.
       -2    1    3    3    0  502  0.12263364858E+04  0.10434067700E+04  0.14356411660E+04  0.21572353654E+04  0.25500000920E-02 0. -1.
</event>
<event>
 5   0  0.9311672E-07  0.3505308E+04  0.7818609E-02  0.8112533E-01
        2   -1    0    0  501    0  0.00000000000E+00  0.00000000000E+00  0.26869451749E+04  0.26869451749E+04  0.25500000920E-02 0. -1.
       -2   -1    0    0    0  501  0.00000000000E+00  0.00000000000E+00 -0.11432300396E+04  0.11432300396E+04  0.25500000920E-02 0.  1.
    10030    2    1    2    0    0  0.00000000000E+00  0.00000000000E+00  0.15437151352E+04  0.38301752145E+04  0.35053082254E+04 0.  0.
        4    1    3    3  502    0 -0.74868681920E+02 -0.13749474703E+04 -0.41293506139E+03  0.14375683787E+04  0.12699999809E+01 0.  1.
       -4    1    3    3    0  502  0.74868681920E+02  0.13749474703E+04  0.19566501966E+04  0.23926068358E+04  0.12699999809E+01 0. -1.
</event>
<event>
 5   0  0.3061330E-07  0.3366708E+04  0.7818609E-02  0.8146126E-01
        1   -1    0    0  501    0  0.00000000000E+00  0.00000000000E+00  0.26730885854E+04  0.26730885854E+04  0.50400001928E-02 0. -1.
       -1   -1    0    0    0  501  0.00000000000E+00  0.00000000000E+00 -0.10600771180E+04  0.10600771180E+04  0.50400001928E-02 0.  1.
    10030    2    1    2    0    0  0.00000000000E+00  0.00000000000E+00  0.16130114674E+04  0.37331657033E+04  0.33667076165E+04 0.  0.
        5    1    3    3  502    0  0.41123739369E+03 -0.10817516910E+04 -0.54899189437E+03  0.12809047994E+04  0.46999998093E+01 0.  1.
       -5    1    3    3    0  502 -0.41123739369E+03  0.10817516910E+04  0.21620033618E+04  0.24522609040E+04  0.46999998093E+01 0. -1.
</event>
<event>
 5   0  0.3061330E-07  0.3544278E+04  0.7818609E-02  0.8103376E-01
       -1   -1    0    0    0  501  0.00000000000E+00  0.00000000000E+00  0.13025211636E+04  0.13025211636E+04  0.50400001928E-02 0. -1.
        1   -1    0    0  501    0  0.00000000000E+00  0.00000000000E+00 -0.24110753951E+04  0.24110753951E+04  0.50400001928E-02 0.  1.
    10030    2    1    2    0    0  0.00000000000E+00  0.00000000000E+00 -0.11085542316E+04  0.37135965587E+04  0.35442780529E+04 0.  0.
        5    1    3    3  502    0  0.43564820766E+03  0.40460453025E+03 -0.23034483967E+04  0.23789474128E+04  0.46999998093E+01 0.  1.
       -5    1    3    3    0  502 -0.43564820766E+03 -0.40460453025E+03  0.11948941651E+04  0.13346491459E+04  0.46999998093E+01 0. -1.
</event>
<event>
 5   0  0.2972541E-07  0.3531339E+04  0.7818609E-02  0.8106403E-01
       -1   -1    0    0    0  501  0.00000000000E+00  0.00000000000E+00  0.12749766054E+04  0.12749766054E+04  0.50400001928E-02 0. -1.
        1   -1    0    0  501    0  0.00000000000E+00  0.00000000000E+00 -0.24452132005E+04  0.24452132006E+04  0.50400001928E-02 0.  1.
    10030    2    1    2    0    0  0.00000000000E+00  0.00000000000E+00 -0.11702365951E+04  0.37201898060E+04  0.35313394773E+04 0.  0.
        3    1    3    3  502    0  0.29154582550E+03  0.12428721098E+04  0.69989197557E+03  0.14558773428E+04  0.10100000352E+00 0.  1.
       -3    1    3    3    0  502 -0.29154582550E+03 -0.12428721098E+04 -0.18701285707E+04  0.22643124632E+04  0.10100000352E+00 0. -1.
</event>
<event>
 5   0  0.8950809E-07  0.3506010E+04  0.7818609E-02  0.8112367E-01
       -2   -1    0    0    0  501  0.00000000000E+00  0.00000000000E+00  0.98832011784E+03  0.98832011785E+03  0.25500000920E-02 0. -1.
        2   -1    0    0  501    0  0.00000000000E+00  0.00000000000E+00 -0.31093425819E+04  0.31093425819E+04  0.25500000920E-02 0.  1.
    10030    2    1    2    0    0  0.00000000000E+00  0.00000000000E+00 -0.21210224640E+04  0.40976626997E+04  0.35060095989E+04 0.  0.
        2    1    3    3  502    0 -0.13750337351E+04 -0.58486831270E+03 -0.21318431287E+04  0.26033716295E+04  0.25500000920E-02 0.  1.
       -2    1    3    3    0  502  0.13750337351E+04  0.58486831270E+03  0.10820664698E+02  0.14942910702E+04  0.25500000920E-02 0. -1.
</event>
<event>
 5   0  0.2933506E-07  0.3482372E+04  0.7818609E-02  0.8117980E-01
        1   -1    0    0  501    0  0.00000000000E+00  0.00000000000E+00  0.12907801341E+04  0.12907801341E+04  0.50400001928E-02 0.  1.
       -1   -1    0    0    0  501  0.00000000000E+00  0.00000000000E+00 -0.23487566219E+04  0.23487566219E+04  0.50400001928E-02 0. -1.
    10030    2    1    2    0    0  0.00000000000E+00  0.00000000000E+00 -0.10579764878E+04  0.36395367560E+04  0.34823718281E+04 0.  0.
        4    1    3    3  502    0  0.83826060397E+03 -0.66900577380E+01 -0.21239703788E+04  0.22834135368E+04  0.12699999809E+01 0. -1.
       -4    1    3    3    0  502 -0.83826060397E+03  0.66900577380E+01  0.10659938910E+04  0.13561232192E+04  0.12699999809E+01 0.  1.
</event>
<event>
 5   0  0.8950809E-07  0.3504328E+04  0.7818609E-02  0.8112765E-01
       -2   -1    0    0    0  501  0.00000000000E+00  0.00000000000E+00  0.14108457240E+04  0.14108457240E+04  0.25500000920E-02 0. -1.
        2   -1    0    0  501    0  0.00000000000E+00  0.00000000000E+00 -0.21760555520E+04  0.21760555520E+04  0.25500000920E-02 0.  1.
    10030    2    1    2    0    0  0.00000000000E+00  0.00000000000E+00 -0.76520982796E+03  0.35869012760E+04  0.35043279930E+04 0.  0.
        2    1    3    3  502    0  0.16009544832E+04  0.64340236064E+03 -0.70364748040E+02  0.17268390350E+04  0.25500000920E-02 0.  1.
       -2    1    3    3    0  502 -0.16009544832E+04 -0.64340236064E+03 -0.69484507992E+03  0.18600622409E+04  0.25500000920E-02 0. -1.
</event>
<event>
 5   0  0.8950809E-07  0.3517321E+04  0.7818609E-02  0.8109697E-01
        2   -1    0    0  501    0  0.00000000000E+00  0.00000000000E+00  0.17967006671E+04  0.17967006671E+04  0.25500000920E-02 0. -1.
       -2   -1    0    0    0  501  0.00000000000E+00  0.00000000000E+00 -0.17214257679E+04  0.17214257679E+04  0.25500000920E-02 0.  1.
    10030    2    1    2    0    0  0.00000000000E+00  0.00000000000E+00  0.75274899259E+02  0.35181264350E+04  0.35173210405E+04 0.  0.
        2    1    3    3  502    0  0.97089484892E+03 -0.43893535995E+03 -0.13618204327E+04  0.17291199926E+04  0.25500000920E-02 0.  1.
       -2    1    3    3    0  502 -0.97089484892E+03  0.43893535995E+03  0.14370953319E+04  0.17890064424E+04  0.25500000920E-02 0. -1.
</event>
<event>
 5   0  0.2972541E-07  0.3132523E+04  0.7818609E-02  0.8206868E-01
       -1   -1    0    0    0  501  0.00000000000E+00  0.00000000000E+00  0.13557856014E+04  0.13557856014E+04  0.50400001928E-02 0. -1.
        1   -1    0    0  501    0  0.00000000000E+00  0.00000000000E+00 -0.18094125244E+04  0.18094125244E+04  0.50400001928E-02 0.  1.
    10030    2    1    2    0    0  0.00000000000E+00  0.00000000000E+00 -0.45362692300E+03  0.31651981258E+04  0.31325232307E+04 0.  0.
        3    1    3    3  502    0 -0.43302351380E+03  0.44997221767E+03  0.12245504665E+04  0.13745938365E+04  0.10100000352E+00 0. -1.
       -3    1    3    3    0  502  0.43302351380E+03 -0.44997221767E+03 -0.16781773895E+04  0.17906042893E+04  0.10100000352E+00 0.  1.
</event>
<event>
 5   0  0.3026332E-07  0.3492020E+04  0.7818609E-02  0.8115684E-01
        1   -1    0    0  501    0  0.00000000000E+00  0.00000000000E+00  0.30274914904E+04  0.30274914904E+04  0.50400001928E-02 0.  1.
       -1   -1    0    0    0  501  0.00000000000E+00  0.00000000000E+00 -0.10069561281E+04  0.10069561281E+04  0.50400001928E-02 0. -1.
    10030    2    1    2    0    0  0.00000000000E+00  0.00000000000E+00  0.20205353623E+04  0.40344476185E+04  0.34920201082E+04 0.  0.
        1    1    3    3  502    0  0.43590746688E+03  0.42962288878E+03  0.28994975163E+04  0.29633894435E+04  0.50400001928E-02 0.  1.
       -1    1    3    3    0  502 -0.43590746688E+03 -0.42962288878E+03 -0.87896215401E+03  0.10710581751E+04  0.50400001928E-02 0. -1.
</event>
<event>
 5   0  0.2972541E-07  0.3391035E+04  0.7818609E-02  0.8140110E-01
       -1   -1    0    0    0  501  0.00000000000E+00  0.00000000000E+00  0.21519507603E+04  0.21519507603E+04  0.50400001928E-02 0. -1.
        1   -1    0    0  501    0  0.00000000000E+00  0.00000000000E+00 -0.13358948467E+04  0.13358948467E+04  0.50400001928E-02 0.  1.
    10030    2    1    2    0    0  0.00000000000E+00  0.00000000000E+00  0.81605591362E+03  0.34878456070E+04  0.33910351995E+04 0.  0.
        3    1    3    3  502    0  0.92087469606E+03 -0.10171979400E+04  0.14324947321E+04  0.19836186687E+04  0.10100000352E+00 0. -1.
       -3    1    3    3    0  502 -0.92087469606E+03  0.10171979400E+04 -0.61643881847E+03  0.15042269384E+04  0.10100000352E+00 0.  1.
</event>
<event>
 5   0  0.3061330E-07  0.2916130E+04  0.7818609E-02  0.8268094E-01
        1   -1    0    0  501    0  0.00000000000E+00  0.00000000000E+00  0.23443343704E+04  0.23443343705E+04  0.50400001928E-02 0.  1.
       -1   -1    0    0    0  501  0.00000000000E+00  0.00000000000E+00 -0.90684760380E+03  0.90684760382E+03  0.50400001928E-02 0. -1.
    10030    2    1    2    0    0  0.00000000000E+00  0.00000000000E+00  0.14374867666E+04  0.32511819743E+04  0.29161303170E+04 0.  0.
        5    1    3    3  502    0  0.51403945865E+03  0.10569262040E+03  0.22353807813E+04  0.22961613233E+04  0.46999998093E+01 0.  1.
       -5    1    3    3    0  502 -0.51403945865E+03 -0.10569262040E+03 -0.79789401471E+03  0.95502065096E+03  0.46999998093E+01 0. -1.
</event>
<event>
 5   0  0.2936607E-07  0.3494336E+04  0.7818609E-02  0.8115134E-01
        1   -1    0    0  501    0  0.00000000000E+00  0.00000000000E+00  0.13153707891E+04  0.13153707891E+04  0.50400001928E-02 0. -1.
       -1   -1    0    0    0  501  0.00000000000E+00  0.00000000000E+00 -0.23207115127E+04  0.23207115127E+04  0.50400001928E-02 0.  1.
    10030    2    1    2    0    0  0.00000000000E+00  0.00000000000E+00 -0.10053407236E+04  0.36360823017E+04  0.34943360649E+04 0.  0.
        2    1    3    3  502    0 -0.90643439017E+03  0.24434431768E+03  0.10306249881E+04  0.13941001813E+04  0.25500000920E-02 0. -1.
       -2    1    3    3    0  502  0.90643439017E+03 -0.24434431768E+03 -0.20359657117E+04  0.22419821205E+04  0.25500000920E-02 0.  1.
</event>
<event>
 5   0  0.2936607E-07  0.3477103E+04  0.7818609E-02  0.8119238E-01
        1   -1    0    0  501    0  0.00000000000E+00  0.00000000000E+00  0.18896157261E+04  0.18896157261E+04  0.50400001928E-02 0.  1.
       -1   -1    0    0    0  501  0.00000000000E+00  0.00000000000E+00 -0.15995638923E+04  0.15995638923E+04  0.50400001928E-02 0. -1.
    10030    2    1    2    0    0  0.00000000000E+00  0.00000000000E+00  0.29005183379E+03  0.34891796183E+04  0.34771028663E+04 0.  0.
        2    1    3    3  502    0 -0.23623482735E+03 -0.98208181185E+03 -0.12749044743E+04  0.16265524884E+04  0.25500000920E-02 0. -1.
       -2    1    3    3    0  502  0.23623482735E+03  0.98208181185E+03  0.15649563081E+04  0.18626271299E+04  0.25500000920E-02 0.  1.
</event>
<event>
 5   0  0.9128871E-07  0.3529565E+04  0.7818609E-02  0.8106819E-01
       -2   -1    0    0    0  501  0.00000000000E+00  0.00000000000E+00  0.17000197154E+04  0.17000197154E+04  0.25500000920E-02 0.  1.
        2   -1    0    0  501    0  0.00000000000E+00  0.00000000000E+00 -0.18320124568E+04  0.18320124568E+04  0.25500000920E-02 0. -1.
    10030    2    1    2    0    0  0.00000000000E+00  0.00000000000E+00 -0.13199274146E+03  0.35320321722E+04  0.35295650131E+04 0.  0.
        1    1    3    3  502    0 -0.15824424929E+04  0.66253963547E+03 -0.48025950920E+03  0.17814971816E+04  0.50400001928E-02 0. -1.
       -1    1    3    3    0  502  0.15824424929E+04 -0.66253963547E+03  0.34826676774E+03  0.17505349906E+04  0.50400001928E-02 0.  1.
</event>
<event>
 5   0  0.6188930E-07  0.3495122E+04  0.7818609E-02  0.8114947E-01
        2   -1    0    0  501    0  0.00000000000E+00  0.00000000000E+00  0.34118324098E+04  0.34118324098E+04  0.25500000920E-02 0.  1.
       -2   -1    0    0    0  501  0.00000000000E+00  0.00000000000E+00 -0.89511127982E+03  0.89511127982E+03  0.25500000920E-02 0. -1.
    10030    2    1    2    0    0  0.00000000000E+00  0.00000000000E+00  0.25167211300E+04  0.43069436896E+04  0.34951221294E+04 0.  0.
        3    1    3    3  502    0  0.11656468808E+04  0.23868542886E+03  0.28356052916E+04  0.30751196342E+04  0.10100000352E+00 0.  1.
       -3    1    3    3    0  502 -0.11656468808E+04 -0.23868542886E+03 -0.31888416164E+03  0.12318240554E+04  0.10100000352E+00 0. -1.
</event>
<event>
 5   0  0.3061330E-07  0.3510210E+04  0.7818609E-02  0.8111375E-01
       -1   -1    0    0    0  501  0.00000000000E+00  0.00000000000E+00  0.17683992275E+04  0.17683992275E+04  0.50400001928E-02 0. -1.
        1   -1    0    0  501    0  0.00000000000E+00  0.00000000000E+00 -0.17419103849E+04  0.17419103849E+04  0.50400001928E-02 0.  1.
    10030    2    1    2    0    0  0.00000000000E+00  0.00000000000E+00  0.26488842539E+02  0.35103096124E+04  0.35102096684E+04 0.  0.
        5    1    3    3  502    0  0.19261406281E+03 -0.11398589260E+04  0.13338850436E+04  0.17651203777E+04  0.46999998093E+01 0. -1.
       -5    1    3    3    0  502 -0.19261406281E+03  0.11398589260E+04 -0.13073962011E+04  0.17451892347E+04  0.46999998093E+01 0.  1.
</event>
<event>
 5   0  0.8950809E-07  0.3468567E+04  0.7818609E-02  0.8121280E-01
        2   -1    0    0  501    0  0.00000000000E+00  0.00000000000E+00  0.21225982790E+04  0.21225982790E+04  0.25500000920E-02 0. -1.
       -2   -1    0    0    0  501  0.00000000000E+00  0.00000000000E+00 -0.14170084383E+04  0.14170084383E+04  0.25500000920E-02 0.  1.
    10030    2    1    2    0    0  0.00000000000E+00  0.00000000000E+00  0.70558984064E+03  0.35396067173E+04  0.34685672388E+04 0.  0.
        2    1    3    3  502    0 -0.34569841479E+03 -0.13017635565E+04 -0.76212143962E+03  0.15475544707E+04  0.25500000920E-02 0.  1.
       -2    1    3    3    0  502  0.34569841479E+03  0.13017635565E+04  0.14677112803E+04  0.19920522466E+04  0.25500000920E-02 0. -1.
</event>
<event>
 5   0  0.9311672E-07  0.3512583E+04  0.7818609E-02  0.8110814E-01
        2   -1    0    0  501    0  0.00000000000E+00  0.00000000000E+00  0.13199936423E+04  0.13199936423E+04  0.25500000920E-02 0.  1.
       -2   -1    0    0    0  501  0.00000000000E+00  0.00000000000E+00 -0.23367984806E+04  0.23367984806E+04  0.25500000920E-02 0. -1.
    10030    2    1    2    0    0  0.00000000000E+00  0.00000000000E+00 -0.10168048383E+04  0.36567921229E+04  0.35125826041E+04 0.  0.
        4    1    3    3  502    0  0.16049243000E+04 -0.53828843757E+03 -0.99561296318E+03  0.19638694550E+04  0.12699999809E+01 0.  1.
       -4    1    3    3    0  502 -0.16049243000E+04  0.53828843757E+03 -0.21191875101E+02  0.16929226679E+04  0.12699999809E+01 0. -1.
</event>
<event>
 5   0  0.2933506E-07  0.3509657E+04  0.7818609E-02  0.8111505E-01
       -1   -1    0    0    0  501  0.00000000000E+00  0.00000000000E+00  0.13245935172E+04  0.13245935172E+04  0.50400001928E-02 0.  1.
        1   -1    0    0  501    0  0.00000000000E+00  0.00000000000E+00 -0.23248062143E+04  0.23248062144E+04  0.50400001928E-02 0. -1.
    10030    2    1    2    0    0  0.00000000000E+00  0.00000000000E+00 -0.10002126971E+04  0.36493997316E+04  0.35096571003E+04 0.  0.
        4    1    3    3  502    0 -0.20158675016E+03  0.10447979779E+04 -0.19510815050E+04  0.22223772597E+04  0.12699999809E+01 0. -1.
       -4    1    3    3    0  502  0.20158675016E+03 -0.10447979779E+04  0.95086880789E+03  0.14270224719E+04  0.12699999809E+01 0.  1.
</event>
<event>
 5   0  0.6188930E-07  0.3513221E+04  0.7818609E-02  0.8110664E-01
        2   -1    0    0  501    0  0.00000000000E+00  0.00000000000E+00  0.15636380159E+04  0.15636380159E+04  0.25500000920E-02 0.  1.
       -2   -1    0    0    0  501  0.00000000000E+00  0.00000000000E+00 -0.19733982492E+04  0.19733982492E+04  0.25500000920E-02 0. -1.
    10030    2    1    2    0    0  0.00000000000E+00  0.00000000000E+00 -0.40976023334E+03  0.35370362651E+04  0.35132210423E+04 0.  0.
        3    1    3    3  502    0  0.35357403724E+03 -0.83516938781E+03  0.13096972948E+04  0.15930566595E+04  0.10100000352E+00 0.  1.
       -3    1    3    3    0  502 -0.35357403724E+03  0.83516938781E+03 -0.17194575281E+04  0.19439796057E+04  0.10100000352E+00 0. -1.
</event>
<event>
 5   0  0.6188930E-07  0.3503472E+04  0.7818609E-02  0.8112968E-01
       -2   -1    0    0    0  501  0.00000000000E+00  0.00000000000E+00  0.29331329381E+04  0.29331329381E+04  0.25500000920E-02 0.  1.
        2   -1    0    0  501    0  0.00000000000E+00  0.00000000000E+00 -0.10461780426E+04  0.10461780426E+04  0.25500000920E-02 0. -1.
    10030    2    1    2    0    0  0.00000000000E+00  0.00000000000E+00  0.18869548954E+04  0.39793109807E+04  0.35034721497E+04 0.  0.
        3    1    3    3  502    0  0.92594858239E+03  0.97646332449E+03 -0.33032132359E+03  0.13856311155E+04  0.10100000352E+00 0.  1.
       -3    1    3    3    0  502 -0.92594858239E+03 -0.97646332449E+03  0.22172762190E+04  0.25936798652E+04  0.10100000352E+00 0. -1.
</event>
<event>
 5   0  0.2933506E-07  0.3530390E+04  0.7818609E-02  0.8106625E-01
        1   -1    0    0  501    0  0.00000000000E+00  0.00000000000E+00  0.21764992525E+04  0.21764992525E+04  0.50400001928E-02 0. -1.
       -1   -1    0    0    0  501  0.00000000000E+00  0.00000000000E+00 -0.14316172212E+04  0.14316172212E+04  0.50400001928E-02 0.  1.
    10030    2    1    2    0    0  0.00000000000E+00  0.00000000000E+00  0.74488203128E+03  0.36081164737E+04  0.35303902401E+04 0.  0.
        4    1    3    3  502    0  0.16498640319E+03 -0.16999915585E+04 -0.83154086492E+02  0.17100023471E+04  0.12699999809E+01 0.  1.
       -4    1    3    3    0  502 -0.16498640319E+03  0.16999915585E+04  0.82803611777E+03  0.18981141266E+04  0.12699999809E+01 0. -1.
</event>
<event>
 5   0  0.2907000E-07  0.3464801E+04  0.7818609E-02  0.8122183E-01
       -3   -1    0    0    0  501  0.00000000000E+00  0.00000000000E+00  0.18773873060E+04  0.18773873088E+04  0.10100000352E+00 0. -1.
        3   -1    0    0  501    0  0.00000000000E+00  0.00000000000E+00 -0.15986108665E+04  0.15986108697E+04  0.10100000352E+00 0.  1.
    10030    2    1    2    0    0  0.00000000000E+00  0.00000000000E+00  0.27877643951E+03  0.34759981785E+04  0.34648011535E+04 0.  0.
        2    1    3    3  502    0 -0.14657556336E+04 -0.86764072917E+03 -0.17781666283E+03  0.17125591312E+04  0.25500000920E-02 0.  1.
       -2    1    3    3    0  502  0.14657556336E+04  0.86764072917E+03  0.45659310234E+03  0.17634390473E+04  0.25500000920E-02 0. -1.
</event>
<event>
 5   0  0.3026332E-07  0.3508975E+04  0.7818609E-02  0.8111666E-01
        1   -1    0    0  501    0  0.00000000000E+00  0.00000000000E+00  0.18328930591E+04  0.18328930591E+04  0.50400001928E-02 0. -1.
       -1   -1    0    0    0  501  0.00000000000E+00  0.00000000000E+00 -0.16794355791E+04  0.16794355791E+04  0.50400001928E-02 0.  1.
    10030    2    1    2    0    0  0.00000000000E+00  0.00000000000E+00  0.15345748007E+03  0.35123286382E+04  0.35089746743E+04 0.  0.
        1    1    3    3  502    0  0.99611707063E+03 -0.71632692378E+03  0.13320615702E+04  0.18110111836E+04  0.50400001928E-02 0. -1.
       -1    1    3    3    0  502 -0.99611707063E+03  0.71632692378E+03 -0.11786040901E+04  0.17013174546E+04  0.50400001928E-02 0.  1.
</event>
<event>
 5   0  0.9311672E-07  0.3513352E+04  0.7818609E-02  0.8110633E-01
       -2   -1    0    0    0  501  0.00000000000E+00  0.00000000000E+00  0.10991410230E+04  0.10991410230E+04  0.25500000920E-02 0. -1.
        2   -1    0    0  501    0  0.00000000000E+00  0.00000000000E+00 -0.28075649596E+04  0.28075649596E+04  0.25500000920E-02 0.  1.
    10030    2    1    2    0    0  0.00000000000E+00  0.00000000000E+00 -0.17084239366E+04  0.39067059826E+04  0.35133515747E+04 0.  0.
        4    1    3    3  502    0  0.16297279913E+03  0.11824086901E+04  0.57899076771E+03  0.13266055803E+04  0.12699999809E+01 0. -1.
       -4    1    3    3    0  502 -0.16297279913E+03 -0.11824086901E+04 -0.22874147043E+04  0.25801004023E+04  0.12699999809E+01 0.  1.
</event>
<event>
 5   0  0.6188930E-07  0.3493121E+04  0.7818609E-02  0.8115422E-01
       -2   -1    0    0    0  501  0.00000000000E+00  0.00000000000E+00  0.17545705600E+04  0.17545705600E+04  0.25500000920E-02 0.  1.
        2   -1    0    0  501    0  0.00000000000E+00  0.00000000000E+00 -0.17385874923E+04  0.17385874923E+04  0.25500000920E-02 0. -1.
    10030    2    1    2    0    0  0.00000000000E+00  0.00000000000E+00  0.15983067655E+02  0.34931580523E+04  0.34931214865E+04 0.  0.
        3    1    3    3  502    0 -0.74540914504E+03 -0.18721677126E+03 -0.15603964937E+04  0.17394028115E+04  0.10100000352E+00 0. -1.
       -3    1    3    3    0  502  0.74540914504E+03  0.18721677126E+03  0.15763795613E+04  0.17537552408E+04  0.10100000352E+00 0.  1.
</event>
<event>
 5   0  0.8950809E-07  0.3463535E+04  0.7818609E-02  0.8122487E-01
        2   -1    0    0  501    0  0.00000000000E+00  0.00000000000E+00  0.19757572739E+04  0.19757572739E+04  0.25500000920E-02 0.  1.
       -2   -1    0    0    0  501  0.00000000000E+00  0.00000000000E+00 -0.15179081422E+04  0.15179081422E+04  0.25500000920E-02 0. -1.
    10030    2    1    2    0    0  0.00000000000E+00  0.00000000000E+00  0.45784913175E+03  0.34936654161E+04  0.34635346415E+04 0.  0.
        2    1    3    3  502    0 -0.12500541074E+04 -0.16145789753E+03 -0.96897305824E+03  0.15898467573E+04  0.25500000920E-02 0. -1.
       -2    1    3    3    0  502  0.12500541074E+04  0.16145789753E+03  0.14268221900E+04  0.19038186589E+04  0.25500000920E-02 0.  1.
</event>
<event>
 5   0  0.8950809E-07  0.2915417E+04  0.7818609E-02  0.8268305E-01
        2   -1    0    0  501    0  0.00000000000E+00  0.00000000000E+00  0.12151643958E+04  0.12151643958E+04  0.25500000920E-02 0.  1.
       -2   -1    0    0    0  501  0.00000000000E+00  0.00000000000E+00 -0.17486636073E+04  0.17486636073E+04  0.25500000920E-02 0. -1.
    10030    2    1    2    0    0  0.00000000000E+00  0.00000000000E+00 -0.53349921154E+03  0.29638280031E+04  0.29154167838E+04 0.  0.
        2    1    3    3  502    0 -0.13411407340E+04 -0.90741782539E+02 -0.84004756335E+03  0.15851096013E+04  0.25500000920E-02 0. -1.
       -2    1    3    3    0  502  0.13411407340E+04  0.90741782539E+02  0.30654835181E+03  0.13787184018E+04  0.25500000920E-02 0.  1.
</event>
<event>
 5   0  0.9311672E-07  0.3184356E+04  0.7818609E-02  0.8192961E-01
        2   -1    0    0  501    0  0.00000000000E+00  0.00000000000E+00  0.99936836790E+03  0.99936836790E+03  0.25500000920E-02 0.  1.
       -2   -1    0    0    0  501  0.00000000000E+00  0.00000000000E+00 -0.25366324238E+04  0.25366324238E+04  0.25500000920E-02 0. -1.
    10030    2    1    2    0    0  0.00000000000E+00  0.00000000000E+00 -0.15372640559E+04  0.35360007917E+04  0.31843556368E+04 0.  0.
        4    1    3    3  502    0  0.94462227584E+03  0.11869513413E+04 -0.13056296310E+04  0.20014582376E+04  0.12699999809E+01 0. -1.
       -4    1    3    3    0  502 -0.94462227584E+03 -0.11869513413E+04 -0.23163442499E+03  0.15345425541E+04  0.12699999809E+01 0.  1.
</event>
<event>
 5   0  0.8845195E-07  0.3539776E+04  0.7818609E-02  0.8104428E-01
       -2   -1    0    0    0  501  0.00000000000E+00  0.00000000000E+00  0.11758547145E+04  0.11758547145E+04  0.25500000920E-02 0.  1.
        2   -1    0    0  501    0  0.00000000000E+00  0.00000000000E+00 -0.26640232523E+04  0.26640232523E+04  0.25500000920E-02 0. -1.
    10030    2    1    2    0    0  0.00000000000E+00  0.00000000000E+00 -0.14881685377E+04  0.38398779668E+04  0.35397764341E+04 0.  0.
        5    1    3    3  502    0  0.53898652340E+03  0.10279524399E+04  0.70534129437E+03  0.13582051107E+04  0.46999998093E+01 0.  1.
       -5    1    3    3    0  502 -0.53898652340E+03 -0.10279524399E+04 -0.21935098321E+04  0.24816728561E+04  0.46999998093E+01 0. -1.
</event>
<event>
 5   0  0.8845195E-07  0.3684768E+04  0.7818609E-02  0.8071346E-01
        2   -1    0    0  501    0  0.00000000000E+00  0.00000000000E+00  0.24610505784E+04  0.24610505784E+04  0.25500000920E-02 0. -1.
       -2   -1    0    0    0  501  0.00000000000E+00  0.00000000000E+00 -0.13792396055E+04  0.13792396055E+04  0.25500000920E-02 0.  1.
    10030    2    1    2    0    0  0.00000000000E+00  0.00000000000E+00  0.10818109729E+04  0.38402901839E+04  0.36847677967E+04 0.  0.
        5    1    3    3  502    0 -0.14105079660E+03  0.15401130650E+03  0.24486683092E+04  0.24575624892E+04  0.46999998093E+01 0. -1.
       -5    1    3    3    0  502  0.14105079660E+03 -0.15401130650E+03 -0.13668573364E+04  0.13827276947E+04  0.46999998093E+01 0.  1.
</event>
<event>
 5   0  0.6188930E-07  0.3464863E+04  0.7818609E-02  0.8122168E-01
        2   -1    0    0  501    0  0.00000000000E+00  0.00000000000E+00  0.13398067035E+04  0.13398067035E+04  0.25500000920E-02 0. -1.
       -2   -1    0    0    0  501  0.00000000000E+00  0.00000000000E+00 -0.22401129736E+04  0.22401129736E+04  0.25500000920E-02 0.  1.
    10030    2    1    2    0    0  0.00000000000E+00  0.00000000000E+00 -0.90030627010E+03  0.35799196772E+04  0.34648626978E+04 0.  0.
        3    1    3    3  502    0 -0.17219622331E+03  0.17097014939E+04 -0.67789879760E+03  0.18472351035E+04  0.10100000352E+00 0.  1.
       -3    1    3    3    0  502  0.17219622331E+03 -0.17097014939E+04 -0.22240747250E+03  0.17326845736E+04  0.10100000352E+00 0. -1.
</event>
<event>
 5   0  0.2933506E-07  0.3528664E+04  0.7818609E-02  0.8107030E-01
        1   -1    0    0  501    0  0.00000000000E+00  0.00000000000E+00  0.17688025830E+04  0.17688025830E+04  0.50400001928E-02 0. -1.
       -1   -1    0    0    0  501  0.00000000000E+00  0.00000000000E+00 -0.17598726279E+04  0.17598726279E+04  0.50400001928E-02 0.  1.
    10030    2    1    2    0    0  0.00000000000E+00  0.00000000000E+00  0.89299550962E+01  0.35286752110E+04  0.35286639115E+04 0.  0.
        4    1    3    3  502    0 -0.51158201218E+03 -0.27252288735E+02  0.16927851634E+04  0.17686102071E+04  0.12699999809E+01 0. -1.
       -4    1    3    3    0  502  0.51158201218E+03  0.27252288735E+02 -0.16838552083E+04  0.17600650039E+04  0.12699999809E+01 0.  1.
</event>
<event>
 5   0  0.3026332E-07  0.3290839E+04  0.7818609E-02  0.8165230E-01
       -1   -1    0    0    0  501  0.00000000000E+00  0.00000000000E+00  0.18526366072E+04  0.18526366072E+04  0.50400001928E-02 0.  1.
        1   -1    0    0  501    0  0.00000000000E+00  0.00000000000E+00 -0.14613791706E+04  0.14613791706E+04  0.50400001928E-02 0. -1.
    10030    2    1    2    0    0  0.00000000000E+00  0.00000000000E+00  0.39125743661E+03  0.33140157779E+04  0.32908385245E+04 0.  0.
        1    1    3    3  502    0  0.80115090046E+03  0.77914214679E+03  0.14118178308E+04  0.18005929128E+04  0.50400001928E-02 0.  1.
       -1    1    3    3    0  502 -0.80115090046E+03 -0.77914214679E+03 -0.10205603942E+04  0.15134228651E+04  0.50400001928E-02 0. -1.
</event>
<event>
 5   0  0.8950809E-07  0.3427030E+04  0.7818609E-02  0.8131304E-01
       -2   -1    0    0    0  501  0.00000000000E+00  0.00000000000E+00  0.99742363302E+03  0.99742363303E+03  0.25500000920E-02 0.  1.
        2   -1    0    0  501    0  0.00000000000E+00  0.00000000000E+00 -0.29437173687E+04  0.29437173687E+04  0.25500000920E-02 0. -1.
    10030    2    1    2    0    0  0.00000000000E+00  0.00000000000E+00 -0.19462937357E+04  0.39411410017E+04  0.34270297766E+04 0.  0.
        2    1    3    3  502    0 -0.14392352205E+04 -0.15033805830E+02 -0.20424206392E+04  0.24986208401E+04  0.25500000920E-02 0. -1.
       -2    1    3    3    0  502  0.14392352205E+04  0.15033805830E+02  0.96126903526E+02  0.14425201616E+04  0.25500000920E-02 0.  1.
</event>
<event>
 5   0  0.9311672E-07  0.3568017E+04  0.7818609E-02  0.8097857E-01
       -2   -1    0    0    0  501  0.00000000000E+00  0.00000000000E+00  0.14326482855E+04  0.14326482855E+04  0.25500000920E-02 0.  1.
        2   -1    0    0  501    0  0.00000000000E+00  0.00000000000E+00 -0.22215402696E+04  0.22215402696E+04  0.25500000920E-02 0. -1.
    10030    2    1    2    0    0  0.00000000000E+00  0.00000000000E+00 -0.78889198410E+03  0.36541885550E+04  0.35680167367E+04 0.  0.
        4    1    3    3  502    0 -0.75317936151E+03 -0.74232544360E+03 -0.18659335039E+04  0.21447693743E+04  0.12699999809E+01 0. -1.
       -4    1    3    3    0  502  0.75317936151E+03  0.74232544360E+03  0.10770415198E+04  0.15094191807E+04  0.12699999809E+01 0.  1.
</event>
<event>
 5   0  0.3061330E-07  0.3555998E+04  0.7818609E-02  0.8100646E-01
       -1   -1    0    0    0  501  0.00000000000E+00  0.00000000000E+00  0.10185068100E+04  0.10185068101E+04  0.50400001928E-02 0.  1.
        1   -1    0    0  501    0  0.00000000000E+00  0.00000000000E+00 -0.31038374509E+04  0.31038374509E+04  0.50400001928E-02 0. -1.
    10030    2    1    2    0    0  0.00000000000E+00  0.00000000000E+00 -0.20853306408E+04  0.41223442609E+04  0.35559975146E+04 0.  0.
        5    1    3    3  502    0  0.88853322478E+03 -0.12711709493E+04 -0.34777294218E+02  0.15513215090E+04  0.46999998093E+01 0. -1.
       -5    1    3    3    0  502 -0.88853322478E+03  0.12711709493E+04 -0.20505533466E+04  0.25710227520E+04  0.46999998093E+01 0.  1.
</event>
<event>
 5   0  0.3061330E-07  0.3487588E+04  0.7818609E-02  0.8116738E-01
       -1   -1    0    0    0  501  0.00000000000E+00  0.00000000000E+00  0.11836511123E+04  0.11836511123E+04  0.50400001928E-02 0. -1.
        1   -1    0    0  501    0  0.00000000000E+00  0.00000000000E+00 -0.25690156817E+04  0.25690156817E+04  0.50400001928E-02 0.  1.
    10030    2    1    2    0    0  0.00000000000E+00  0.00000000000E+00 -0.13853645694E+04  0.37526667940E+04  0.34875884328E+04 0.  0.
        5    1    3    3  502    0 -0.22393708946E+03 -0.13005155964E+04 -0.19191913305E+04  0.23291213127E+04  0.46999998093E+01 0.  1.
       -5    1    3    3    0  502  0.22393708946E+03  0.13005155964E+04  0.53382676113E+03  0.14235454813E+04  0.46999998093E+01 0. -1.
</event>
<event>
 5   0  0.9128871E-07  0.3491680E+04  0.7818609E-02  0.8115764E-01
       -2   -1    0    0    0  501  0.00000000000E+00  0.00000000000E+00  0.28166317974E+04  0.28166317974E+04  0.25500000920E-02 0. -1.
        2   -1    0    0  501    0  0.00000000000E+00  0.00000000000E+00 -0.10821284979E+04  0.10821284979E+04  0.25500000920E-02 0.  1.
    10030    2    1    2    0    0  0.00000000000E+00  0.00000000000E+00  0.17345032995E+04  0.38987602954E+04  0.34916801321E+04 0.  0.
        1    1    3    3  502    0 -0.81613725126E+03  0.15421349139E+04  0.79935597555E+03  0.19191743228E+04  0.50400001928E-02 0. -1.
       -1    1    3    3    0  502  0.81613725126E+03 -0.15421349139E+04  0.93514732393E+03  0.19795859726E+04  0.50400001928E-02 0.  1.
</event>
<event>
 5   0  0.3061330E-07  0.3522230E+04  0.7818609E-02  0.8108542E-01
        1   -1    0    0  501    0  0.00000000000E+00  0.00000000000E+00  0.20717958882E+04  0.20717958882E+04  0.50400001928E-02 0. -1.
       -1   -1    0    0    0  501  0.00000000000E+00  0.00000000000E+00 -0.14970227798E+04  0.14970227798E+04  0.50400001928E-02 0.  1.
    10030    2    1    2    0    0  0.00000000000E+00  0.00000000000E+00  0.57477310837E+03  0.35688186681E+04  0.35222297710E+04 0.  0.
        5    1    3    3  502    0  0.13761621211E+04  0.49573840917E+03 -0.70636394173E+03  0.16243616783E+04  0.46999998093E+01 0.  1.
       -5    1    3    3    0  502 -0.13761621211E+04 -0.49573840917E+03  0.12811370501E+04  0.19444569897E+04  0.46999998093E+01 0. -1.
</event>
<event>
 5   0  0.2936607E-07  0.3493612E+04  0.7818609E-02  0.8115305E-01
       -1   -1    0    0    0  501  0.00000000000E+00  0.00000000000E+00  0.12134802046E+04  0.12134802046E+04  0.50400001928E-02 0.  1.
        1   -1    0    0  501    0  0.00000000000E+00  0.00000000000E+00 -0.25145293730E+04  0.25145293730E+04  0.50400001928E-02 0. -1.
    10030    2    1    2    0    0  0.00000000000E+00  0.00000000000E+00 -0.13010491684E+04  0.37280095776E+04  0.34936122384E+04 0.  0.
        2    1    3    3  502    0  0.10736121969E+04  0.12632800387E+04 -0.12377283998E+04  0.20689347977E+04  0.25500000920E-02 0.  1.
       -2    1    3    3    0  502 -0.10736121969E+04 -0.12632800387E+04 -0.63320768619E+02  0.16590747799E+04  0.25500000920E-02 0. -1.
</event>
<event>
 5   0  0.2933506E-07  0.3505577E+04  0.7818609E-02  0.8112469E-01
        1   -1    0    0  501    0  0.00000000000E+00  0.00000000000E+00  0.18055026427E+04  0.18055026427E+04  0.50400001928E-02 0. -1.
       -1   -1    0    0    0  501  0.00000000000E+00  0.00000000000E+00 -0.17016137150E+04  0.17016137150E+04  0.50400001928E-02 0.  1.
    10030    2    1    2    0    0  0.00000000000E+00  0.00000000000E+00  0.10388892767E+03  0.35071163577E+04  0.35055773044E+04 0.  0.
        4    1    3    3  502    0  0.14612567172E+04  0.86914037216E+03 -0.37437671621E+03  0.17409295559E+04  0.12699999809E+01 0.  1.
       -4    1    3    3    0  502 -0.14612567172E+04 -0.86914037216E+03  0.47826564388E+03  0.17661868018E+04  0.12699999809E+01 0. -1.
</event>
<event>
 5   0  0.2933506E-07  0.3470886E+04  0.7818609E-02  0.8120725E-01
       -1   -1    0    0    0  501  0.00000000000E+00  0.00000000000E+00  0.19452782591E+04  0.19452782591E+04  0.50400001928E-02 0. -1.
        1   -1    0    0  501    0  0.00000000000E+00  0.00000000000E+00 -0.15482420485E+04  0.15482420485E+04  0.50400001928E-02 0.  1.
    10030    2    1    2    0    0  0.00000000000E+00  0.00000000000E+00  0.39703621063E+03  0.34935203076E+04  0.34708855335E+04 0.  0.
        4    1    3    3  502    0 -0.11536175338E+04  0.12926819342E+04  0.29866564458E+03  0.17581418536E+04  0.12699999809E+01 0.  1.
       -4    1    3    3    0  502  0.11536175338E+04 -0.12926819342E+04  0.98370566057E+02  0.17353784540E+04  0.12699999809E+01 0. -1.
</event>
<event>
 5   0  0.3026332E-07  0.3510579E+04  0.7818609E-02  0.8111287E-01
        1   -1    0    0  501    0  0.00000000000E+00  0.00000000000E+00  0.24530821390E+04  0.24530821390E+04  0.50400001928E-02 0.  1.
       -1   -1    0    0    0  501  0.00000000000E+00  0.00000000000E+00 -0.12559878489E+04  0.12559878489E+04  0.50400001928E-02 0. -1.
    10030    2    1    2    0    0  0.00000000000E+00  0.00000000000E+00  0.11970942901E+04  0.37090699879E+04  0.35105790742E+04 0.  0.
        1    1    3    3  502    0 -0.13866338463E+04 -0.10364955890E+04  0.29239664507E+03  0.17557255844E+04  0.50400001928E-02 0. -1.
       -1    1    3    3    0  502  0.13866338463E+04  0.10364955890E+04  0.90469764505E+03  0.19533444035E+04  0.50400001928E-02 0.  1.
</event>
<event>
 5   0  0.8845195E-07  0.3469989E+04  0.7818609E-02  0.8120939E-01
       -2   -1    0    0    0  501  0.00000000000E+00  0.00000000000E+00  0.17592027677E+04  0.17592027677E+04  0.25500000920E-02 0.  1.
        2   -1    0    0  501    0  0.00000000000E+00  0.00000000000E+00 -0.17111195742E+04  0.17111195742E+04  0.25500000920E-02 0. -1.
    10030    2    1    2    0    0  0.00000000000E+00  0.00000000000E+00  0.48083193511E+02  0.34703223419E+04  0.34699892166E+04 0.  0.
        5    1    3    3  502    0 -0.27221792722E+03  0.47501013859E+03 -0.16224599702E+04  0.17123480010E+04  0.46999998093E+01 0. -1.
       -5    1    3    3    0  502  0.27221792722E+03 -0.47501013859E+03  0.16705431637E+04  0.17579743409E+04  0.46999998093E+01 0.  1.
</event>
<event>
 5   0  0.3061330E-07  0.3492622E+04  0.7818609E-02  0.8115541E-01
        1   -1    0    0  501    0  0.00000000000E+00  0.00000000000E+00  0.10697894965E+04  0.10697894965E+04  0.50400001928E-02 0. -1.
       -1   -1    0    0    0  501  0.00000000000E+00  0.00000000000E+00 -0.28506568365E+04  0.28506568365E+04  0.50400001928E-02 0.  1.
    10030    2    1    2    0    0  0.00000000000E+00  0.00000000000E+00 -0.17808673399E+04  0.39204463330E+04  0.34926223626E+04 0.  0.
        5    1    3    3  502    0 -0.30055553107E+03 -0.39835468683E+03  0.98804543075E+03  0.11069218342E+04  0.46999998093E+01 0. -1.
       -5    1    3    3    0  502  0.30055553107E+03  0.39835468683E+03 -0.27689127707E+04  0.28135244988E+04  0.46999998093E+01 0.  1.
</event>
<event>
 5   0  0.6188930E-07  0.3486504E+04  0.7818609E-02  0.8116996E-01
        2   -1    0    0  501    0  0.00000000000E+00  0.00000000000E+00  0.16964032698E+04  0.16964032698E+04  0.25500000920E-02 0. -1.
       -2   -1    0    0    0  501  0.00000000000E+00  0.00000000000E+00 -0.17913947676E+04  0.17913947677E+04  0.25500000920E-02 0.  1.
    10030    2    1    2    0    0  0.00000000000E+00  0.00000000000E+00 -0.94991497811E+02  0.34877980375E+04  0.34865042328E+04 0.  0.
        3    1    3    3  502    0 -0.11556934653E+04 -0.38065156650E+03  0.12013284020E+04  0.17098868210E+04  0.10100000352E+00 0. -1.
       -3    1    3    3    0  502  0.11556934653E+04  0.38065156650E+03 -0.12963198998E+04  0.17779112165E+04  0.10100000352E+00 0.  1.
</event>
<event>
 5   0  0.2972541E-07  0.3512371E+04  0.7818609E-02  0.8110865E-01
        1   -1    0    0  501    0  0.00000000000E+00  0.00000000000E+00  0.20349594928E+04  0.20349594928E+04  0.50400001928E-02 0. -1.
       -1   -1    0    0    0  501  0.00000000000E+00  0.00000000000E+00 -0.15156010573E+04  0.15156010573E+04  0.50400001928E-02 0.  1.
    10030    2    1    2    0    0  0.00000000000E+00  0.00000000000E+00  0.51935843551E+03  0.35505605501E+04  0.35123705721E+04 0.  0.
        3    1    3    3  502    0  0.10255380992E+04  0.13475581424E+04  0.73008330173E+03  0.18440886578E+04  0.10100000352E+00 0.  1.
       -3    1    3    3    0  502 -0.10255380992E+04 -0.13475581424E+04 -0.21072486622E+03  0.17064718924E+04  0.10100000352E+00 0. -1.
</event>
<event>
 5   0  0.8845195E-07  0.3461973E+04  0.7818609E-02  0.8122862E-01
       -2   -1    0    0    0  501  0.00000000000E+00  0.00000000000E+00  0.17276343971E+04  0.17276343971E+04  0.25500000920E-02 0.  1.
        2   -1    0    0  501    0  0.00000000000E+00  0.00000000000E+00 -0.17343447479E+04  0.17343447479E+04  0.25500000920E-02 0. -1.
    10030    2    1    2    0    0  0.00000000000E+00  0.00000000000E+00 -0.67103508522E+01  0.34619791450E+04  0.34619726417E+04 0.  0.
        5    1    3    3  502    0 -0.97636834669E+03  0.98692576362E+03 -0.10372690779E+04  0.17329936068E+04  0.46999998093E+01 0. -1.
       -5    1    3    3    0  502  0.97636834669E+03 -0.98692576362E+03  0.10305587270E+04  0.17289855382E+04  0.46999998093E+01 0.  1.
</event>
<event>
 5   0  0.6188930E-07  0.3502357E+04  0.7818609E-02  0.8113232E-01
       -2   -1    0    0    0  501  0.00000000000E+00  0.00000000000E+00  0.24744025148E+04  0.24744025148E+04  0.25500000920E-02 0. -1.
        2   -1    0    0  501    0  0.00000000000E+00  0.00000000000E+00 -0.12393399904E+04  0.12393399904E+04  0.25500000920E-02 0.  1.
    10030    2    1    2    0    0  0.00000000000E+00  0.00000000000E+00  0.12350625244E+04  0.37137425052E+04  0.35023569144E+04 0.  0.
        3    1    3    3  502    0 -0.22131300185E+03 -0.13105692754E+04 -0.59148516274E+03  0.14547941361E+04  0.10100000352E+00 0.  1.
       -3    1    3    3    0  502  0.22131300185E+03  0.13105692754E+04  0.18265476871E+04  0.22589483691E+04  0.10100000352E+00 0. -1.
</event>
<event>
 5   0  0.6188930E-07  0.3480766E+04  0.7818609E-02  0.8118363E-01
        2   -1    0    0  501    0  0.00000000000E+00  0.00000000000E+00  0.24113824089E+04  0.24113824089E+04  0.25500000920E-02 0.  1.
       -2   -1    0    0    0  501  0.00000000000E+00  0.00000000000E+00 -0.12560984027E+04  0.12560984027E+04  0.25500000920E-02 0. -1.
    10030    2    1    2    0    0  0.00000000000E+00  0.00000000000E+00  0.11552840063E+04  0.36674808116E+04  0.34807663479E+04 0.  0.
        3    1    3    3  502    0 -0.16845143911E+03 -0.12200520076E+04  0.18732490357E+04  0.22418663538E+04  0.10100000352E+00 0.  1.
       -3    1    3    3    0  502  0.16845143911E+03  0.12200520076E+04 -0.71796502940E+03  0.14256144578E+04  0.10100000352E+00 0. -1.
</event>
<event>
 5   0  0.3026332E-07  0.3461167E+04  0.7818609E-02  0.8123055E-01
       -1   -1    0    0    0  501  0.00000000000E+00  0.00000000000E+00  0.11118270302E+04  0.11118270302E+04  0.50400001928E-02 0. -1.
        1   -1    0    0  501    0  0.00000000000E+00  0.00000000000E+00 -0.26936924315E+04  0.26936924315E+04  0.50400001928E-02 0.  1.
    10030    2    1    2    0    0  0.00000000000E+00  0.00000000000E+00 -0.15818654013E+04  0.38055194617E+04  0.34611674657E+04 0.  0.
        1    1    3    3  502    0 -0.14788423737E+04 -0.82940900521E+03 -0.11718485006E+04  0.20610975165E+04  0.50400001928E-02 0.  1.
       -1    1    3    3    0  502  0.14788423737E+04  0.82940900521E+03 -0.41001690070E+03  0.17444219452E+04  0.50400001928E-02 0. -1.
</event>
<event>
 5   0  0.9311672E-07  0.3485185E+04  0.7818609E-02  0.8117310E-01
        2   -1    0    0  501    0  0.00000000000E+00  0.00000000000E+00  0.32418206575E+04  0.32418206575E+04  0.25500000920E-02 0.  1.
       -2   -1    0    0    0  501  0.00000000000E+00  0.00000000000E+00 -0.93670474179E+03  0.93670474179E+03  0.25500000920E-02 0. -1.
    10030    2    1    2    0    0  0.00000000000E+00  0.00000000000E+00  0.23051159157E+04  0.41785253993E+04  0.34851850923E+04 0.  0.
        4    1    3    3  502    0  0.73503850693E+03 -0.14961126785E+04  0.17615346461E+04  0.24252094086E+04  0.12699999809E+01 0.  1.
       -4    1    3    3    0  502 -0.73503850693E+03  0.14961126785E+04  0.54358126956E+03  0.17533159906E+04  0.12699999809E+01 0. -1.
</event>
<event>
 5   0  0.9128871E-07  0.2945169E+04  0.7818609E-02  0.8259564E-01
        2   -1    0    0  501    0  0.00000000000E+00  0.00000000000E+00  0.20578956766E+04  0.20578956766E+04  0.25500000920E-02 0. -1.
       -2   -1    0    0    0  501  0.00000000000E+00  0.00000000000E+00 -0.10537488861E+04  0.10537488861E+04  0.25500000920E-02 0.  1.
    10030    2    1    2    0    0  0.00000000000E+00  0.00000000000E+00  0.10041467905E+04  0.31116445627E+04  0.29451691135E+04 0.  0.
        1    1    3    3  502    0 -0.12534031287E+04  0.64233789278E+03  0.95636425201E+03  0.17024247279E+04  0.50400001928E-02 0.  1.
       -1    1    3    3    0  502  0.12534031287E+04 -0.64233789278E+03  0.47782538524E+02  0.14092198347E+04  0.50400001928E-02 0. -1.
</event>
<event>
 5   0  0.6188930E-07  0.3494257E+04  0.7818609E-02  0.8115152E-01
       -2   -1    0    0    0  501  0.00000000000E+00  0.00000000000E+00  0.10980749618E+04  0.10980749618E+04  0.25500000920E-02 0.  1.
        2   -1    0    0  501    0  0.00000000000E+00  0.00000000000E+00 -0.27798268789E+04  0.27798268789E+04  0.25500000920E-02 0. -1.
    10030    2    1    2    0    0  0.00000000000E+00  0.00000000000E+00 -0.16817519170E+04  0.38779018407E+04  0.34942571708E+04 0.  0.
        3    1    3    3  502    0 -0.15498387394E+04 -0.78335379482E+03 -0.62793738707E+03  0.18466046297E+04  0.10100000352E+00 0.  1.
       -3    1    3    3    0  502  0.15498387394E+04  0.78335379482E+03 -0.10538145300E+04  0.20312972111E+04  0.10100000352E+00 0. -1.
</event>
<event>
 5   0  0.3061330E-07  0.3540632E+04  0.7818609E-02  0.8104228E-01
       -1   -1    0    0    0  501  0.00000000000E+00  0.00000000000E+00  0.11417738020E+04  0.11417738020E+04  0.50400001928E-02 0. -1.
        1   -1    0    0  501    0  0.00000000000E+00  0.00000000000E+00 -0.27448684190E+04  0.27448684190E+04  0.50400001928E-02 0.  1.
    10030    2    1    2    0    0  0.00000000000E+00  0.00000000000E+00 -0.16030946170E+04  0.38866422210E+04  0.35406320626E+04 0.  0.
        5    1    3    3  502    0  0.16850791434E+04  0.51086860358E+03 -0.60057564363E+03  0.18604278119E+04  0.46999998093E+01 0. -1.
       -5    1    3    3    0  502 -0.16850791434E+04 -0.51086860358E+03 -0.10025189734E+04  0.20262144091E+04  0.46999998093E+01 0.  1.
</event>
<event>
 5   0  0.8845195E-07  0.3502274E+04  0.7818609E-02  0.8113251E-01
       -2   -1    0    0    0  501  0.00000000000E+00  0.00000000000E+00  0.12693232474E+04  0.12693232474E+04  0.25500000920E-02 0.  1.
        2   -1    0    0  501    0  0.00000000000E+00  0.00000000000E+00 -0.24158392172E+04  0.24158392172E+04  0.25500000920E-02 0. -1.
    10030    2    1    2    0    0  0.00000000000E+00  0.00000000000E+00 -0.11465159698E+04  0.36851624647E+04  0.35022740501E+04 0.  0.
        5    1    3    3  502    0 -0.15980119365E+04  0.62218662147E+03 -0.94631475673E+03  0.19586454631E+04  0.46999998093E+01 0. -1.
       -5    1    3    3    0  502  0.15980119365E+04 -0.62218662147E+03 -0.20020121304E+03  0.17265170016E+04  0.46999998093E+01 0.  1.
</event>
<event>
 5   0  0.3026332E-07  0.3518634E+04  0.7818609E-02  0.8109388E-01
        1   -1    0    0  501    0  0.00000000000E+00  0.00000000000E+00  0.20553718682E+04  0.20553718682E+04  0.50400001928E-02 0.  1.
       -1   -1    0    0    0  501  0.00000000000E+00  0.00000000000E+00 -0.15059058245E+04  0.15059058245E+04  0.50400001928E-02 0. -1.
    10030    2    1    2    0    0  0.00000000000E+00  0.00000000000E+00  0.54946604365E+03  0.35612776927E+04  0.35186340918E+04 0.  0.
        1    1    3    3  502    0  0.41746031210E+03  0.10129292367E+04 -0.11185027591E+04  0.15656778637E+04  0.50400001928E-02 0. -1.
       -1    1    3    3    0  502 -0.41746031210E+03 -0.10129292367E+04  0.16679688027E+04  0.19955998290E+04  0.50400001928E-02 0.  1.
</event>
<event>
 5   0  0.8950809E-07  0.3490038E+04  0.7818609E-02  0.8116155E-01
        2   -1    0    0  501    0  0.00000000000E+00  0.00000000000E+00  0.18717267881E+04  0.18717267881E+04  0.25500000920E-02 0.  1.
       -2   -1    0    0    0  501  0.00000000000E+00  0.00000000000E+00 -0.16268890417E+04  0.16268890417E+04  0.25500000920E-02 0. -1.
    10030    2    1    2    0    0  0.00000000000E+00  0.00000000000E+00  0.24483774645E+03  0.34986158298E+04  0.34900382809E+04 0.  0.
        2    1    3    3  502    0 -0.32458949252E+03 -0.16710353647E+03  0.18330153497E+04  0.18690177106E+04  0.25500000920E-02 0.  1.
       -2    1    3    3    0  502  0.32458949252E+03  0.16710353647E+03 -0.15881776032E+04  0.16295981191E+04  0.25500000920E-02 0. -1.
</event>
<event>
 5   0  0.9311672E-07  0.3185076E+04  0.7818609E-02  0.8192770E-01
        2   -1    0    0  501    0  0.00000000000E+00  0.00000000000E+00  0.24380180823E+04  0.24380180823E+04  0.25500000920E-02 0.  1.
       -2   -1    0    0    0  501  0.00000000000E+00  0.00000000000E+00 -0.10402620637E+04  0.10402620637E+04  0.25500000920E-02 0. -1.
    10030    2    1    2    0    0  0.00000000000E+00  0.00000000000E+00  0.13977560186E+04  0.34782801461E+04  0.31850762765E+04 0.  0.
        4    1    3    3  502    0  0.69910591832E+03  0.59385870921E+03  0.21205476087E+04  0.23104417381E+04  0.12699999809E+01 0.  1.
       -4    1    3    3    0  502 -0.69910591832E+03 -0.59385870921E+03 -0.72279159008E+03  0.11678384080E+04  0.12699999809E+01 0. -1.
</event>
<event>
 5   0  0.2936607E-07  0.3540575E+04  0.7818609E-02  0.8104241E-01
        1   -1    0    0  501    0  0.00000000000E+00  0.00000000000E+00  0.16464055498E+04  0.16464055498E+04  0.50400001928E-02 0.  1.
       -1   -1    0    0    0  501  0.00000000000E+00  0.00000000000E+00 -0.19034906364E+04  0.19034906364E+04  0.50400001928E-02 0. -1.
    10030    2    1    2    0    0  0.00000000000E+00  0.00000000000E+00 -0.25708508661E+03  0.35498961862E+04  0.35405748391E+04 0.  0.
        2    1    3    3  502    0  0.77952566942E+03 -0.14438805111E+04  0.53763605415E+03  0.17267031379E+04  0.25500000920E-02 0. -1.
       -2    1    3    3    0  502 -0.77952566942E+03  0.14438805111E+04 -0.79472114076E+03  0.18231930483E+04  0.25500000920E-02 0.  1.
</event>
<event>
 5   0  0.2907000E-07  0.3539659E+04  0.7818609E-02  0.8104455E-01
        3   -1    0    0  501    0  0.00000000000E+00  0.00000000000E+00  0.14017440310E+04  0.14017440346E+04  0.10100000352E+00 0. -1.
       -3   -1    0    0    0  501  0.00000000000E+00  0.00000000000E+00 -0.22345713470E+04  0.22345713493E+04  0.10100000352E+00 0.  1.
    10030    2    1    2    0    0  0.00000000000E+00  0.00000000000E+00 -0.83282731607E+03  0.36363153839E+04  0.35396593385E+04 0.  0.
        3    1    3    3  502    0 -0.56596437613E+03  0.29570858832E+03  0.12792764843E+04  0.14297928443E+04  0.10100000352E+00 0. -1.
       -3    1    3    3    0  502  0.56596437613E+03 -0.29570858832E+03 -0.21121038003E+04  0.22065225396E+04  0.10100000352E+00 0.  1.
</event>
<event>
 5   0  0.2972541E-07  0.2879765E+04  0.7818609E-02  0.8278923E-01
       -1   -1    0    0    0  501  0.00000000000E+00  0.00000000000E+00  0.11232394799E+04  0.11232394799E+04  0.50400001928E-02 0. -1.
        1   -1    0    0  501    0  0.00000000000E+00  0.00000000000E+00 -0.18457880877E+04  0.18457880877E+04  0.50400001928E-02 0.  1.
    10030    2    1    2    0    0  0.00000000000E+00  0.00000000000E+00 -0.72254860780E+03  0.29690275676E+04  0.28797653041E+04 0.  0.
        3    1    3    3  502    0 -0.10222381297E+04  0.98723098497E+03 -0.60011464268E+03  0.15426384560E+04  0.10100000352E+00 0.  1.
       -3    1    3    3    0  502  0.10222381297E+04 -0.98723098497E+03 -0.12243396511E+03  0.14263891115E+04  0.10100000352E+00 0. -1.
</event>
<event>
 5   0  0.8845195E-07  0.3517121E+04  0.7818609E-02  0.8109744E-01
        2   -1    0    0  501    0  0.00000000000E+00  0.00000000000E+00  0.17444287720E+04  0.17444287720E+04  0.25500000920E-02 0.  1.
       -2   -1    0    0    0  501  0.00000000000E+00  0.00000000000E+00 -0.17728065229E+04  0.17728065229E+04  0.25500000920E-02 0. -1.
    10030    2    1    2    0    0  0.00000000000E+00  0.00000000000E+00 -0.28377750846E+02  0.35172352949E+04  0.35171208144E+04 0.  0.
        5    1    3    3  502    0  0.69524308275E+03  0.16123659721E+04 -0.11127778995E+03  0.17594009800E+04  0.46999998093E+01 0.  1.
       -5    1    3    3    0  502 -0.69524308275E+03 -0.16123659721E+04  0.82900039105E+02  0.17578343149E+04  0.46999998093E+01 0. -1.
</event>
<event>
 5   0  0.3061330E-07  0.3456341E+04  0.7818609E-02  0.8124215E-01
       -1   -1    0    0    0  501  0.00000000000E+00  0.00000000000E+00  0.16498544814E+04  0.16498544814E+04  0.50400001928E-02 0.  1.
        1   -1    0    0  501    0  0.00000000000E+00  0.00000000000E+00 -0.18102040579E+04  0.18102040579E+04  0.50400001928E-02 0. -1.
    10030    2    1    2    0    0  0.00000000000E+00  0.00000000000E+00 -0.16034957645E+03  0.34600585393E+04  0.34563410001E+04 0.  0.
        5    1    3    3  502    0 -0.37405044391E+03  0.95494560732E+03 -0.14726116544E+04  0.17945590050E+04  0.46999998093E+01 0. -1.
       -5    1    3    3    0  502  0.37405044391E+03 -0.95494560732E+03  0.13122620780E+04  0.16654995343E+04  0.46999998093E+01 0.  1.
</event>
<event>
 5   0  0.8950809E-07  0.3672962E+04  0.7818609E-02  0.8073980E-01
        2   -1    0    0  501    0  0.00000000000E+00  0.00000000000E+00  0.14076148386E+04  0.14076148386E+04  0.25500000920E-02 0. -1.
       -2   -1    0    0    0  501  0.00000000000E+00  0.00000000000E+00 -0.23960121392E+04  0.23960121392E+04  0.25500000920E-02 0.  1.
    10030    2    1    2    0    0  0.00000000000E+00  0.00000000000E+00 -0.98839730061E+03  0.38036269778E+04  0.36729618787E+04 0.  0.
        2    1    3    3  502    0  0.86245152278E+03 -0.46136127123E+03 -0.21038382576E+04  0.23200888487E+04  0.25500000920E-02 0.  1.
       -2    1    3    3    0  502 -0.86245152278E+03  0.46136127123E+03  0.11154409570E+04  0.14835381290E+04  0.25500000920E-02 0. -1.
</event>
<event>
 5   0  0.6188930E-07  0.3473928E+04  0.7818609E-02  0.8119997E-01
        2   -1    0    0  501    0  0.00000000000E+00  0.00000000000E+00  0.21033720066E+04  0.21033720066E+04  0.25500000920E-02 0.  1.
       -2   -1    0    0    0  501  0.00000000000E+00  0.00000000000E+00 -0.14343846895E+04  0.14343846895E+04  0.25500000920E-02 0. -1.
    10030    2    1    2    0    0  0.00000000000E+00  0.00000000000E+00  0.66898731709E+03  0.35377566961E+04  0.34739283831E+04 0.  0.
        3    1    3    3  502    0 -0.11319099698E+04  0.12771001554E+04  0.66423225908E+03  0.18312316868E+04  0.10100000352E+00 0.  1.
       -3    1    3    3    0  502  0.11319099698E+04 -0.12771001554E+04  0.47550580046E+01  0.17065250093E+04  0.10100000352E+00 0. -1.
</event>
<event>
 5   0  0.8950809E-07  0.3484318E+04  0.7818609E-02  0.8117517E-01
       -2   -1    0    0    0  501  0.00000000000E+00  0.00000000000E+00  0.29138225590E+04  0.29138225590E+04  0.25500000920E-02 0.  1.
        2   -1    0    0  501    0  0.00000000000E+00  0.00000000000E+00 -0.10416274031E+04  0.10416274031E+04  0.25500000920E-02 0. -1.
    10030    2    1    2    0    0  0.00000000000E+00  0.00000000000E+00  0.18721951558E+04  0.39554499621E+04  0.34843176809E+04 0.  0.
        2    1    3    3  502    0  0.10683255459E+04  0.43125436213E+03 -0.54744117779E+03  0.12755358247E+04  0.25500000920E-02 0. -1.
       -2    1    3    3    0  502 -0.10683255459E+04 -0.43125436213E+03  0.24196363336E+04  0.26799141374E+04  0.25500000920E-02 0.  1.
</event>
<event>
 5   0  0.3026332E-07  0.3501337E+04  0.7818609E-02  0.8113473E-01
        1   -1    0    0  501    0  0.00000000000E+00  0.00000000000E+00  0.24913903176E+04  0.24913903176E+04  0.50400001928E-02 0. -1.
       -1   -1    0    0    0  501  0.00000000000E+00  0.00000000000E+00 -0.12301727833E+04  0.12301727833E+04  0.50400001928E-02 0.  1.
    10030    2    1    2    0    0  0.00000000000E+00  0.00000000000E+00  0.12612175343E+04  0.37215631009E+04  0.35013372081E+04 0.  0.
        1    1    3    3  502    0 -0.31221457353E+03  0.25998873330E+03 -0.11793684592E+04  0.12473900929E+04  0.50400001928E-02 0.  1.
       -1    1    3    3    0  502  0.31221457353E+03 -0.25998873330E+03  0.24405859935E+04  0.24741730079E+04  0.50400001928E-02 0. -1.
</event>
<event>
 5   0  0.2972541E-07  0.3504287E+04  0.7818609E-02  0.8112775E-01
       -1   -1    0    0    0  501  0.00000000000E+00  0.00000000000E+00  0.15529569425E+04  0.15529569425E+04  0.50400001928E-02 0. -1.
        1   -1    0    0  501    0  0.00000000000E+00  0.00000000000E+00 -0.19768779747E+04  0.19768779747E+04  0.50400001928E-02 0.  1.
    10030    2    1    2    0    0  0.00000000000E+00  0.00000000000E+00 -0.42392103219E+03  0.35298349171E+04  0.35042867321E+04 0.  0.
        3    1    3    3  502    0  0.15077039926E+04 -0.84919277321E+03 -0.48911495002E+03  0.17982027528E+04  0.10100000352E+00 0. -1.
       -3    1    3    3    0  502 -0.15077039926E+04  0.84919277321E+03  0.65193917823E+02  0.17316321644E+04  0.10100000352E+00 0.  1.
</event>
<event>
 5   0  0.6188930E-07  0.3503721E+04  0.7818609E-02  0.8112909E-01
       -2   -1    0    0    0  501  0.00000000000E+00  0.00000000000E+00  0.16403926343E+04  0.16403926343E+04  0.25500000920E-02 0.  1.
        2   -1    0    0  501    0  0.00000000000E+00  0.00000000000E+00 -0.18709028627E+04  0.18709028627E+04  0.25500000920E-02 0. -1.
    10030    2    1    2    0    0  0.00000000000E+00  0.00000000000E+00 -0.23051022834E+03  0.35112954970E+04  0.35037210366E+04 0.  0.
        3    1    3    3  502    0 -0.80299661893E+03  0.61901744502E+03 -0.15469895050E+04  0.18496385339E+04  0.10100000352E+00 0. -1.
       -3    1    3    3    0  502  0.80299661893E+03 -0.61901744502E+03  0.13164792766E+04  0.16616569632E+04  0.10100000352E+00 0.  1.
</event>
<event>
 5   0  0.2972541E-07  0.3680018E+04  0.7818609E-02  0.8072405E-01
        1   -1    0    0  501    0  0.00000000000E+00  0.00000000000E+00  0.32488786286E+04  0.32488786286E+04  0.50400001928E-02 0. -1.
       -1   -1    0    0    0  501  0.00000000000E+00  0.00000000000E+00 -0.10420925895E+04  0.10420925895E+04  0.50400001928E-02 0.  1.
    10030    2    1    2    0    0  0.00000000000E+00  0.00000000000E+00  0.22067860391E+04  0.42909712181E+04  0.36800175777E+04 0.  0.
        3    1    3    3  502    0 -0.13092507470E+04 -0.11926329656E+03  0.26044683389E+04  0.29174674962E+04  0.10100000352E+00 0. -1.
       -3    1    3    3    0  502  0.13092507470E+04  0.11926329656E+03 -0.39768229983E+03  0.13735037220E+04  0.10100000352E+00 0.  1.
</event>
<event>
 5   0  0.2936607E-07  0.3774306E+04  0.7818609E-02  0.8051691E-01
       -1   -1    0    0    0  501  0.00000000000E+00  0.00000000000E+00  0.16859567305E+04  0.16859567305E+04  0.50400001928E-02 0. -1.
        1   -1    0    0  501    0  0.00000000000E+00  0.00000000000E+00 -0.21123597951E+04  0.21123597952E+04  0.50400001928E-02 0.  1.
    10030    2    1    2    0    0  0.00000000000E+00  0.00000000000E+00 -0.42640306464E+03  0.37983165257E+04  0.37743064072E+04 0.  0.
        2    1    3    3  502    0  0.26521419668E+03  0.63576723108E+03 -0.19813097984E+04  0.20976479827E+04  0.25500000920E-02 0.  1.
       -2    1    3    3    0  502 -0.26521419668E+03 -0.63576723108E+03  0.15549067338E+04  0.17006685429E+04  0.25500000920E-02 0. -1.
</event>
<event>
 5   0  0.8845195E-07  0.3490484E+04  0.7818609E-02  0.8116049E-01
       -2   -1    0    0    0  501  0.00000000000E+00  0.00000000000E+00  0.11851714542E+04  0.11851714542E+04  0.25500000920E-02 0. -1.
        2   -1    0    0  501    0  0.00000000000E+00  0.00000000000E+00 -0.25699829612E+04  0.25699829612E+04  0.25500000920E-02 0.  1.
    10030    2    1    2    0    0  0.00000000000E+00  0.00000000000E+00 -0.13848115070E+04  0.37551544154E+04  0.34904844612E+04 0.  0.
        5    1    3    3  502    0  0.25750669823E+03 -0.72295646323E+02  0.11629848486E+04  0.11933533459E+04  0.46999998093E+01 0. -1.
       -5    1    3    3    0  502 -0.25750669823E+03  0.72295646323E+02 -0.25477963556E+04  0.25618010695E+04  0.46999998093E+01 0.  1.
</event>
<event>
 5   0  0.3026332E-07  0.2898743E+04  0.7818609E-02  0.8273251E-01
       -1   -1    0    0    0  501  0.00000000000E+00  0.00000000000E+00  0.17177651095E+04  0.17177651095E+04  0.50400001928E-02 0. -1.
        1   -1    0    0  501    0  0.00000000000E+00  0.00000000000E+00 -0.12229136509E+04  0.12229136509E+04  0.50400001928E-02 0.  1.
    10030    2    1    2    0    0  0.00000000000E+00  0.00000000000E+00  0.49485145855E+03  0.29406787604E+04  0.28987434529E+04 0.  0.
        1    1    3    3  502    0  0.67712401437E+03  0.10659733662E+03 -0.10480838121E+04  0.12523336617E+04  0.50400001928E-02 0.  1.
       -1    1    3    3    0  502 -0.67712401437E+03 -0.10659733662E+03  0.15429352706E+04  0.16883450987E+04  0.50400001928E-02 0. -1.
</event>
<event>
 5   0  0.6188930E-07  0.3418229E+04  0.7818609E-02  0.8133447E-01
       -2   -1    0    0    0  501  0.00000000000E+00  0.00000000000E+00  0.12550579314E+04  0.12550579314E+04  0.25500000920E-02 0.  1.
        2   -1    0    0  501    0  0.00000000000E+00  0.00000000000E+00 -0.23274408815E+04  0.23274408815E+04  0.25500000920E-02 0. -1.
    10030    2    1    2    0    0  0.00000000000E+00  0.00000000000E+00 -0.10723829500E+04  0.35824988129E+04  0.34182294471E+04 0.  0.
        3    1    3    3  502    0  0.20565038455E+03  0.14438054818E+04 -0.14702017171E+04  0.20708354471E+04  0.10100000352E+00 0. -1.
       -3    1    3    3    0  502 -0.20565038455E+03 -0.14438054818E+04  0.39781876706E+03  0.15116633658E+04  0.10100000352E+00 0.  1.
</event>
<event>
 5   0  0.9128871E-07  0.3568032E+04  0.7818609E-02  0.8097854E-01
        2   -1    0    0  501    0  0.00000000000E+00  0.00000000000E+00  0.26812133430E+04  0.26812133430E+04  0.25500000920E-02 0. -1.
       -2   -1    0    0    0  501  0.00000000000E+00  0.00000000000E+00 -0.11870417675E+04  0.11870417675E+04  0.25500000920E-02 0.  1.
    10030    2    1    2    0    0  0.00000000000E+00  0.00000000000E+00  0.14941715755E+04  0.38682551105E+04  0.35680315165E+04 0.  0.
        1    1    3    3  502    0 -0.14342053551E+04 -0.45596747531E+03 -0.29157768252E+03  0.15329282058E+04  0.50400001928E-02 0.  1.
       -1    1    3    3    0  502  0.14342053551E+04  0.45596747531E+03  0.17857492580E+04  0.23353269047E+04  0.50400001928E-02 0. -1.
</event>
<event>
 5   0  0.6188930E-07  0.3468524E+04  0.7818609E-02  0.8121290E-01
       -2   -1    0    0    0  501  0.00000000000E+00  0.00000000000E+00  0.10720827865E+04  0.10720827865E+04  0.25500000920E-02 0.  1.
        2   -1    0    0  501    0  0.00000000000E+00  0.00000000000E+00 -0.28054405512E+04  0.28054405512E+04  0.25500000920E-02 0. -1.
    10030    2    1    2    0    0  0.00000000000E+00  0.00000000000E+00 -0.17333577646E+04  0.38775233377E+04  0.34685239071E+04 0.  0.
        3    1    3    3  502    0 -0.75522095711E+03  0.15440464145E+04 -0.60876564155E+03  0.18234674773E+04  0.10100000352E+00 0.  1.
       -3    1    3    3    0  502  0.75522095711E+03 -0.15440464145E+04 -0.11245921231E+04  0.20540558604E+04  0.10100000352E+00 0. -1.
</event>
<event>
 5   0  0.8845195E-07  0.3515787E+04  0.7818609E-02  0.8110059E-01
       -2   -1    0    0    0  501  0.00000000000E+00  0.00000000000E+00  0.30417558381E+04  0.30417558381E+04  0.25500000920E-02 0.  1.
        2   -1    0    0  501    0  0.00000000000E+00  0.00000000000E+00 -0.10159229487E+04  0.10159229487E+04  0.25500000920E-02 0. -1.
    10030    2    1    2    0    0  0.00000000000E+00  0.00000000000E+00  0.20258328894E+04  0.40576787868E+04  0.35157870017E+04 0.  0.
        5    1    3    3  502    0  0.13194417897E+04  0.10980693184E+04  0.14500939050E+04  0.22471042005E+04  0.46999998093E+01 0. -1.
       -5    1    3    3    0  502 -0.13194417897E+04 -0.10980693184E+04  0.57573898448E+03  0.18105745864E+04  0.46999998093E+01 0.  1.
</event>
<event>
 5   0  0.9311672E-07  0.3510292E+04  0.7818609E-02  0.8111355E-01
       -2   -1    0    0    0  501  0.00000000000E+00  0.00000000000E+00  0.27260937277E+04  0.27260937277E+04  0.25500000920E-02 0. -1.
        2   -1    0    0  501    0  0.00000000000E+00  0.00000000000E+00 -0.11300186048E+04  0.11300186048E+04  0.25500000920E-02 0.  1.
    10030    2    1    2    0    0  0.00000000000E+00  0.00000000000E+00  0.15960751230E+04  0.38561123325E+04  0.35102915153E+04 0.  0.
        4    1    3    3  502    0  0.57164855478E+02  0.11814186843E+04 -0.62644499427E+03  0.13384516697E+04  0.12699999809E+01 0.  1.
       -4    1    3    3    0  502 -0.57164855478E+02 -0.11814186843E+04  0.22225201172E+04  0.25176606628E+04  0.12699999809E+01 0. -1.
</event>
<event>
 5   0  0.2972541E-07  0.3485424E+04  0.7818609E-02  0.8117253E-01
        1   -1    0    0  501    0  0.00000000000E+00  0.00000000000E+00  0.19499935208E+04  0.19499935209E+04  0.50400001928E-02 0.  1.
       -1   -1    0    0    0  501  0.00000000000E+00  0.00000000000E+00 -0.15574642778E+04  0.15574642778E+04  0.50400001928E-02 0. -1.
    10030    2    1    2    0    0  0.00000000000E+00  0.00000000000E+00  0.39252924300E+03  0.35074577987E+04  0.34854240779E+04 0.  0.
        3    1    3    3  502    0 -0.12170825499E+04 -0.10734922764E+04 -0.44286424196E+03  0.16822022315E+04  0.10100000352E+00 0. -1.
       -3    1    3    3    0  502  0.12170825499E+04  0.10734922764E+04  0.83539348496E+03  0.18252555672E+04  0.10100000352E+00 0.  1.
</event>
<event>
 5   0  0.8845195E-07  0.3582571E+04  0.7818609E-02  0.8094496E-01
       -2   -1    0    0    0  501  0.00000000000E+00  0.00000000000E+00  0.13676660325E+04  0.13676660325E+04  0.25500000920E-02 0. -1.
        2   -1    0    0  501    0  0.00000000000E+00  0.00000000000E+00 -0.23461165144E+04  0.23461165144E+04  0.25500000920E-02 0.  1.
    10030    2    1    2    0    0  0.00000000000E+00  0.00000000000E+00 -0.97845048185E+03  0.37137825469E+04  0.35825710684E+04 0.  0.
        5    1    3    3  502    0  0.46104798387E+03 -0.80468657203E+03 -0.20778664352E+04  0.22754420966E+04  0.46999998093E+01 0.  1.
       -5    1    3    3    0  502 -0.46104798387E+03  0.80468657203E+03  0.10994159533E+04  0.14383404503E+04  0.46999998093E+01 0. -1.
</event>
<event>
 5   0  0.2907000E-07  0.3492801E+04  0.7818609E-02  0.8115498E-01
       -3   -1    0    0    0  501  0.00000000000E+00  0.00000000000E+00  0.25829514663E+04  0.25829514682E+04  0.10100000352E+00 0. -1.
        3   -1    0    0  501    0  0.00000000000E+00  0.00000000000E+00 -0.11807867510E+04  0.11807867553E+04  0.10100000352E+00 0.  1.
    10030    2    1    2    0    0  0.00000000000E+00  0.00000000000E+00  0.14021647153E+04  0.37637382235E+04  0.34928011003E+04 0.  0.
        2    1    3    3  502    0 -0.92910757474E+03  0.39527022510E+03 -0.83438344210E+03  0.13098378391E+04  0.25500000920E-02 0.  1.
       -2    1    3    3    0  502  0.92910757474E+03 -0.39527022510E+03  0.22365481574E+04  0.24539003844E+04  0.25500000920E-02 0. -1.
</event>
<event>
 5   0  0.2907000E-07  0.2935637E+04  0.7818609E-02  0.8262353E-01
        3   -1    0    0  501    0  0.00000000000E+00  0.00000000000E+00  0.14865017350E+04  0.14865017384E+04  0.10100000352E+00 0.  1.
       -3   -1    0    0    0  501  0.00000000000E+00  0.00000000000E+00 -0.14493696929E+04  0.14493696964E+04  0.10100000352E+00 0. -1.
    10030    2    1    2    0    0  0.00000000000E+00  0.00000000000E+00  0.37132042139E+02  0.29358714348E+04  0.29356366078E+04 0.  0.
        4    1    3    3  502    0 -0.12296925607E+04 -0.98413425930E+02  0.81402889479E+03  0.14779964989E+04  0.12699999809E+01 0.  1.
       -4    1    3    3    0  502  0.12296925607E+04  0.98413425930E+02 -0.77689685265E+03  0.14578749359E+04  0.12699999809E+01 0. -1.
</event>
<event>
 5   0  0.3061330E-07  0.3253141E+04  0.7818609E-02  0.8174922E-01
        1   -1    0    0  501    0  0.00000000000E+00  0.00000000000E+00  0.12863732336E+04  0.12863732336E+04  0.50400001928E-02 0.  1.
       -1   -1    0    0    0  501  0.00000000000E+00  0.00000000000E+00 -0.20567374418E+04  0.20567374418E+04  0.50400001928E-02 0. -1.
    10030    2    1    2    0    0  0.00000000000E+00  0.00000000000E+00 -0.77036420820E+03  0.33431106754E+04  0.32531412473E+04 0.  0.
        5    1    3    3  502    0 -0.11978385932E+04  0.10791925029E+04 -0.60615482679E+03  0.17224748235E+04  0.46999998093E+01 0.  1.
       -5    1    3    3    0  502  0.11978385932E+04 -0.10791925029E+04 -0.16420938141E+03  0.16206358519E+04  0.46999998093E+01 0. -1.
</event>
<event>
 5   0  0.8845195E-07  0.3492385E+04  0.7818609E-02  0.8115597E-01
       -2   -1    0    0    0  501  0.00000000000E+00  0.00000000000E+00  0.24558920068E+04  0.24558920068E+04  0.25500000920E-02 0. -1.
        2   -1    0    0  501    0  0.00000000000E+00  0.00000000000E+00 -0.12415809481E+04  0.12415809481E+04  0.25500000920E-02 0.  1.
    10030    2    1    2    0    0  0.00000000000E+00  0.00000000000E+00  0.12143110587E+04  0.36974729549E+04  0.34923852744E+04 0.  0.
        5    1    3    3  502    0 -0.93948036724E+03 -0.68512197622E+03 -0.77209487363E+03  0.13957679129E+04  0.46999998093E+01 0.  1.
       -5    1    3    3    0  502  0.93948036724E+03  0.68512197622E+03  0.19864059323E+04  0.23017050420E+04  0.46999998093E+01 0. -1.
</event>
<event>
 5   0  0.2972541E-07  0.3547022E+04  0.7818609E-02  0.8102736E-01
        1   -1    0    0  501    0  0.00000000000E+00  0.00000000000E+00  0.26379783647E+04  0.26379783647E+04  0.50400001928E-02 0. -1.
       -1   -1    0    0    0  501  0.00000000000E+00  0.00000000000E+00 -0.11923301701E+04  0.11923301701E+04  0.50400001928E-02 0.  1.
    10030    2    1    2    0    0  0.00000000000E+00  0.00000000000E+00  0.14456481946E+04  0.38303085348E+04  0.35470219578E+04 0.  0.
        3    1    3    3  502    0  0.78348270284E+03  0.16305914339E+03 -0.98626911594E+03  0.12701024404E+04  0.10100000352E+00 0.  1.
       -3    1    3    3    0  502 -0.78348270284E+03 -0.16305914339E+03  0.24319173106E+04  0.25602060944E+04  0.10100000352E+00 0. -1.
</event>
<event>
 5   0  0.2972541E-07  0.3500692E+04  0.7818609E-02  0.8113626E-01
       -1   -1    0    0    0  501  0.00000000000E+00  0.00000000000E+00  0.14162005835E+04  0.14162005835E+04  0.50400001928E-02 0. -1.
        1   -1    0    0  501    0  0.00000000000E+00  0.00000000000E+00 -0.21633314969E+04  0.21633314969E+04  0.50400001928E-02 0.  1.
    10030    2    1    2    0    0  0.00000000000E+00  0.00000000000E+00 -0.74713091341E+03  0.35795320803E+04  0.35006921190E+04 0.  0.
        3    1    3    3  502    0  0.11205707747E+04 -0.59212791969E+03  0.86085825444E+03  0.15321133375E+04  0.10100000352E+00 0. -1.
       -3    1    3    3    0  502 -0.11205707747E+04  0.59212791969E+03 -0.16079891678E+04  0.20474187428E+04  0.10100000352E+00 0.  1.
</event>
<event>
 5   0  0.8845195E-07  0.3519634E+04  0.7818609E-02  0.8109153E-01
       -2   -1    0    0    0  501  0.00000000000E+00  0.00000000000E+00  0.19054143134E+04  0.19054143134E+04  0.25500000920E-02 0.  1.
        2   -1    0    0  501    0  0.00000000000E+00  0.00000000000E+00 -0.16253454671E+04  0.16253454671E+04  0.25500000920E-02 0. -1.
    10030    2    1    2    0    0  0.00000000000E+00  0.00000000000E+00  0.28006884629E+03  0.35307597806E+04  0.35196343659E+04 0.  0.
        5    1    3    3  502    0 -0.31666838361E+03  0.21737831472E+03 -0.15827765271E+04  0.16287221437E+04  0.46999998093E+01 0. -1.
       -5    1    3    3    0  502  0.31666838361E+03 -0.21737831472E+03  0.18628453734E+04  0.19020376368E+04  0.46999998093E+01 0.  1.
</event>
<event>
 5   0  0.3026332E-07  0.3501944E+04  0.7818609E-02  0.8113330E-01
        1   -1    0    0  501    0  0.00000000000E+00  0.00000000000E+00  0.21073411687E+04  0.21073411687E+04  0.50400001928E-02 0.  1.
       -1   -1    0    0    0  501  0.00000000000E+00  0.00000000000E+00 -0.14548674850E+04  0.14548674850E+04  0.50400001928E-02 0. -1.
    10030    2    1    2    0    0  0.00000000000E+00  0.00000000000E+00  0.65247368370E+03  0.35622086537E+04  0.35019435439E+04 0.  0.
        1    1    3    3  502    0 -0.50463947851E+03 -0.67966144276E+03 -0.12328833241E+04  0.14955273220E+04  0.50400001928E-02 0. -1.
       -1    1    3    3    0  502  0.50463947851E+03  0.67966144276E+03  0.18853570078E+04  0.20666813317E+04  0.50400001928E-02 0.  1.
</event>
<event>
 5   0  0.2972541E-07  0.3493052E+04  0.7818609E-02  0.8115438E-01
       -1   -1    0    0    0  501  0.00000000000E+00  0.00000000000E+00  0.16483871743E+04  0.16483871743E+04  0.50400001928E-02 0. -1.
        1   -1    0    0  501    0  0.00000000000E+00  0.00000000000E+00 -0.18505081576E+04  0.18505081576E+04  0.50400001928E-02 0.  1.
    10030    2    1    2    0    0  0.00000000000E+00  0.00000000000E+00 -0.20212098328E+03  0.34988953320E+04  0.34930524834E+04 0.  0.
        3    1    3    3  502    0 -0.17102742423E+04 -0.15926027854E+03 -0.41774131377E+03  0.17677413939E+04  0.10100000352E+00 0.  1.
       -3    1    3    3    0  502  0.17102742423E+04  0.15926027854E+03  0.21562033049E+03  0.17311539381E+04  0.10100000352E+00 0. -1.
</event>
<event>
 5   0  0.2933506E-07  0.3542102E+04  0.7818609E-02  0.8103884E-01
       -1   -1    0    0    0  501  0.00000000000E+00  0.00000000000E+00  0.17782106676E+04  0.17782106676E+04  0.50400001928E-02 0.  1.
        1   -1    0    0  501    0  0.00000000000E+00  0.00000000000E+00 -0.17639202449E+04  0.17639202449E+04  0.50400001928E-02 0. -1.
    10030    2    1    2    0    0  0.00000000000E+00  0.00000000000E+00  0.14290422748E+02  0.35421309125E+04  0.35421020856E+04 0.  0.
        4    1    3    3  502    0  0.46137822863E+03  0.31563339322E+03  0.16876724626E+04  0.17778453990E+04  0.12699999809E+01 0.  1.
       -4    1    3    3    0  502 -0.46137822863E+03 -0.31563339322E+03 -0.16733820399E+04  0.17642855135E+04  0.12699999809E+01 0. -1.
</event>
<event>
 5   0  0.2936607E-07  0.3529511E+04  0.7818609E-02  0.8106832E-01
        1   -1    0    0  501    0  0.00000000000E+00  0.00000000000E+00  0.23730385053E+04  0.23730385053E+04  0.50400001928E-02 0. -1.
       -1   -1    0    0    0  501  0.00000000000E+00  0.00000000000E+00 -0.13123939552E+04  0.13123939552E+04  0.50400001928E-02 0.  1.
    10030    2    1    2    0    0  0.00000000000E+00  0.00000000000E+00  0.10606445501E+04  0.36854324605E+04  0.35295106685E+04 0.  0.
        2    1    3    3  502    0 -0.17570239948E+03 -0.12060304152E+04  0.18630208287E+04  0.22262585887E+04  0.25500000920E-02 0. -1.
       -2    1    3    3    0  502  0.17570239948E+03  0.12060304152E+04 -0.80237627859E+03  0.14591738718E+04  0.25500000920E-02 0.  1.
</event>
<event>
 5   0  0.8950809E-07  0.3483330E+04  0.7818609E-02  0.8117752E-01
        2   -1    0    0  501    0  0.00000000000E+00  0.00000000000E+00  0.21527350896E+04  0.21527350896E+04  0.25500000920E-02 0.  1.
       -2   -1    0    0    0  501  0.00000000000E+00  0.00000000000E+00 -0.14090900623E+04  0.14090900623E+04  0.25500000920E-02 0. -1.
    10030    2    1    2    0    0  0.00000000000E+00  0.00000000000E+00  0.74364502730E+03  0.35618251520E+04  0.34833303729E+04 0.  0.
        2    1    3    3  502    0  0.44794916185E+03 -0.15442570427E+04  0.10562405905E+04  0.19238067602E+04  0.25500000920E-02 0.  1.
       -2    1    3    3    0  502 -0.44794916185E+03  0.15442570427E+04 -0.31259556320E+03  0.16380183918E+04  0.25500000920E-02 0. -1.
</event>
<event>
 5   0  0.6188930E-07  0.3504063E+04  0.7818609E-02  0.8112828E-01
       -2   -1    0    0    0  501  0.00000000000E+00  0.00000000000E+00  0.18874077161E+04  0.18874077161E+04  0.25500000920E-02 0. -1.
        2   -1    0    0  501    0  0.00000000000E+00  0.00000000000E+00 -0.16263650693E+04  0.16263650693E+04  0.25500000920E-02 0.  1.
    10030    2    1    2    0    0  0.00000000000E+00  0.00000000000E+00  0.26104264683E+03  0.35137727853E+04  0.35040627739E+04 0.  0.
        3    1    3    3  502    0 -0.13409244264E+04 -0.79245891526E+03  0.93495657842E+03  0.18166489103E+04  0.10100000352E+00 0. -1.
       -3    1    3    3    0  502  0.13409244264E+04  0.79245891526E+03 -0.67391393158E+03  0.16971238750E+04  0.10100000352E+00 0.  1.
</event>
<event>
 5   0  0.9311672E-07  0.3498278E+04  0.7818609E-02  0.8114198E-01
       -2   -1    0    0    0  501  0.00000000000E+00  0.00000000000E+00  0.24548398000E+04  0.24548398000E+04  0.25500000920E-02 0. -1.
        2   -1    0    0  501    0  0.00000000000E+00  0.00000000000E+00 -0.12463082899E+04  0.12463082899E+04  0.25500000920E-02 0.  1.
    10030    2    1    2    0    0  0.00000000000E+00  0.00000000000E+00  0.12085315101E+04  0.37011480899E+04  0.34982779724E+04 0.  0.
        4    1    3    3  502    0  0.14275939871E+04 -0.99179015692E+03  0.80999890699E+03  0.19177518478E+04  0.12699999809E+01 0.  1.
       -4    1    3    3    0  502 -0.14275939871E+04  0.99179015692E+03  0.39853260316E+03  0.17833962421E+04  0.12699999809E+01 0. -1.
</event>
<event>
 5   0  0.2972541E-07  0.3491863E+04  0.7818609E-02  0.8115721E-01
       -1   -1    0    0    0  501  0.00000000000E+00  0.00000000000E+00  0.13979328285E+04  0.13979328285E+04  0.50400001928E-02 0. -1.
        1   -1    0    0  501    0  0.00000000000E+00  0.00000000000E+00 -0.21805597498E+04  0.21805597498E+04  0.50400001928E-02 0.  1.
    10030    2    1    2    0    0  0.00000000000E+00  0.00000000000E+00 -0.78262692129E+03  0.35784925783E+04  0.34918625739E+04 0.  0.
        3    1    3    3  502    0  0.78815827674E+03 -0.10068886725E+04  0.82698492902E+03  0.15228008244E+04  0.10100000352E+00 0. -1.
       -3    1    3    3    0  502 -0.78815827674E+03  0.10068886725E+04 -0.16096118503E+04  0.20556917538E+04  0.10100000352E+00 0.  1.
</event>
<event>
 5   0  0.9128871E-07  0.3455471E+04  0.7818609E-02  0.8124425E-01
        2   -1    0    0  501    0  0.00000000000E+00  0.00000000000E+00  0.27413577896E+04  0.27413577896E+04  0.25500000920E-02 0. -1.
       -2   -1    0    0    0  501  0.00000000000E+00  0.00000000000E+00 -0.10889017098E+04  0.10889017098E+04  0.25500000920E-02 0.  1.
    10030    2    1    2    0    0  0.00000000000E+00  0.00000000000E+00  0.16524560799E+04  0.38302594994E+04  0.34554705522E+04 0.  0.
        1    1    3    3  502    0  0.13442200867E+04  0.13261987972E+03  0.20203634776E+04  0.24303053832E+04  0.50400001928E-02 0. -1.
       -1    1    3    3    0  502 -0.13442200867E+04 -0.13261987972E+03 -0.36790739774E+03  0.13999541162E+04  0.50400001928E-02 0.  1.
</event>
<event>
 5   0  0.6188930E-07  0.3488082E+04  0.7818609E-02  0.8116620E-01
        2   -1    0    0  501    0  0.00000000000E+00  0.00000000000E+00  0.12284948775E+04  0.12284948775E+04  0.25500000920E-02 0. -1.
       -2   -1    0    0    0  501  0.00000000000E+00  0.00000000000E+00 -0.24759391297E+04  0.24759391297E+04  0.25500000920E-02 0.  1.
    10030    2    1    2    0    0  0.00000000000E+00  0.00000000000E+00 -0.12474442522E+04  0.37044340073E+04  0.34880817295E+04 0.  0.
        3    1    3    3  502    0  0.28718301978E+03  0.17053274247E+04 -0.86370905545E+03  0.19330310538E+04  0.10100000352E+00 0. -1.
       -3    1    3    3    0  502 -0.28718301978E+03 -0.17053274247E+04 -0.38373519676E+03  0.17714029535E+04  0.10100000352E+00 0.  1.
</event>
<event>
 5   0  0.2933506E-07  0.2878895E+04  0.7818609E-02  0.8279185E-01
        1   -1    0    0  501    0  0.00000000000E+00  0.00000000000E+00  0.10941508398E+04  0.10941508398E+04  0.50400001928E-02 0.  1.
       -1   -1    0    0    0  501  0.00000000000E+00  0.00000000000E+00 -0.18937139577E+04  0.18937139577E+04  0.50400001928E-02 0. -1.
    10030    2    1    2    0    0  0.00000000000E+00  0.00000000000E+00 -0.79956311796E+03  0.29878647975E+04  0.28788947304E+04 0.  0.
        4    1    3    3  502    0  0.10837665946E+04 -0.47471543532E+02  0.58218353159E+03  0.12311550903E+04  0.12699999809E+01 0.  1.
       -4    1    3    3    0  502 -0.10837665946E+04  0.47471543532E+02 -0.13817466496E+04  0.17567097072E+04  0.12699999809E+01 0. -1.
</event>
<event>
 5   0  0.2936607E-07  0.3523539E+04  0.7818609E-02  0.8108234E-01
        1   -1    0    0  501    0  0.00000000000E+00  0.00000000000E+00  0.18649915439E+04  0.18649915439E+04  0.50400001928E-02 0. -1.
       -1   -1    0    0    0  501  0.00000000000E+00  0.00000000000E+00 -0.16642607155E+04  0.16642607155E+04  0.50400001928E-02 0.  1.
    10030    2    1    2    0    0  0.00000000000E+00  0.00000000000E+00  0.20073082842E+03  0.35292522594E+04  0.35235392215E+04 0.  0.
        2    1    3    3  502    0 -0.11015838299E+04 -0.93155432703E+03  0.11132180024E+04  0.18222334426E+04  0.25500000920E-02 0. -1.
       -2    1    3    3    0  502  0.11015838299E+04  0.93155432703E+03 -0.91248717393E+03  0.17070188168E+04  0.25500000920E-02 0.  1.
</event>
<event>
 5   0  0.8845195E-07  0.3355078E+04  0.7818609E-02  0.8149021E-01
       -2   -1    0    0    0  501  0.00000000000E+00  0.00000000000E+00  0.11277291349E+04  0.11277291349E+04  0.25500000920E-02 0.  1.
        2   -1    0    0  501    0  0.00000000000E+00  0.00000000000E+00 -0.24954012805E+04  0.24954012805E+04  0.25500000920E-02 0. -1.
    10030    2    1    2    0    0  0.00000000000E+00  0.00000000000E+00 -0.13676721456E+04  0.36231304154E+04  0.33550777799E+04 0.  0.
        5    1    3    3  502    0  0.60318369333E+03 -0.23601788323E+03  0.98723921108E+03  0.11807617706E+04  0.46999998093E+01 0.  1.
       -5    1    3    3    0  502 -0.60318369333E+03  0.23601788323E+03 -0.23549113567E+04  0.24423686448E+04  0.46999998093E+01 0. -1.
</event>
<event>
 5   0  0.2972541E-07  0.3499497E+04  0.7818609E-02  0.8113909E-01
       -1   -1    0    0    0  501  0.00000000000E+00  0.00000000000E+00  0.15308472855E+04  0.15308472855E+04  0.50400001928E-02 0. -1.
        1   -1    0    0  501    0  0.00000000000E+00  0.00000000000E+00 -0.19999508625E+04  0.19999508625E+04  0.50400001928E-02 0.  1.
    10030    2    1    2    0    0  0.00000000000E+00  0.00000000000E+00 -0.46910357694E+03  0.35307981480E+04  0.34994967347E+04 0.  0.
        3    1    3    3  502    0  0.86503870382E+03  0.69147952295E+02  0.12984284564E+04  0.15617265654E+04  0.10100000352E+00 0. -1.
       -3    1    3    3    0  502 -0.86503870382E+03 -0.69147952295E+02 -0.17675320334E+04  0.19690715826E+04  0.10100000352E+00 0.  1.
</event>
<event>
 5   0  0.2936607E-07  0.3303832E+04  0.7818609E-02  0.8161921E-01
        1   -1    0    0  501    0  0.00000000000E+00  0.00000000000E+00  0.26340113078E+04  0.26340113078E+04  0.50400001928E-02 0. -1.
       -1   -1    0    0    0  501  0.00000000000E+00  0.00000000000E+00 -0.10359965023E+04  0.10359965023E+04  0.50400001928E-02 0.  1.
    10030    2    1    2    0    0  0.00000000000E+00  0.00000000000E+00  0.15980148055E+04  0.36700078102E+04  0.33038320187E+04 0.  0.
        2    1    3    3  502    0  0.67037503366E+03 -0.88732832952E+03  0.21558952651E+04  0.24258274144E+04  0.25500000920E-02 0. -1.
       -2    1    3    3    0  502 -0.67037503366E+03  0.88732832952E+03 -0.55788045957E+03  0.12441803958E+04  0.25500000920E-02 0.  1.
</event>
<event>
 5   0  0.8950809E-07  0.3500775E+04  0.7818609E-02  0.8113606E-01
       -2   -1    0    0    0  501  0.00000000000E+00  0.00000000000E+00  0.12740807161E+04  0.12740807161E+04  0.25500000920E-02 0.  1.
        2   -1    0    0  501    0  0.00000000000E+00  0.00000000000E+00 -0.24047591150E+04  0.24047591150E+04  0.25500000920E-02 0. -1.
    10030    2    1    2    0    0  0.00000000000E+00  0.00000000000E+00 -0.11306783989E+04  0.36788398311E+04  0.35007754657E+04 0.  0.
        2    1    3    3  502    0  0.10640671312E+04  0.13845765208E+04 -0.69216860635E+03  0.18784004848E+04  0.25500000920E-02 0. -1.
       -2    1    3    3    0  502 -0.10640671312E+04 -0.13845765208E+04 -0.43850979258E+03  0.18004393463E+04  0.25500000920E-02 0.  1.
</event>
<event>
 5   0  0.8950809E-07  0.3495995E+04  0.7818609E-02  0.8114740E-01
        2   -1    0    0  501    0  0.00000000000E+00  0.00000000000E+00  0.18839440777E+04  0.18839440777E+04  0.25500000920E-02 0. -1.
       -2   -1    0    0    0  501  0.00000000000E+00  0.00000000000E+00 -0.16218605229E+04  0.16218605229E+04  0.25500000920E-02 0.  1.
    10030    2    1    2    0    0  0.00000000000E+00  0.00000000000E+00  0.26208355477E+03  0.35058046005E+04  0.34959945806E+04 0.  0.
        2    1    3    3  502    0  0.26218557407E+03  0.96857519334E+02 -0.15993063867E+04  0.16235466032E+04  0.25500000920E-02 0.  1.
       -2    1    3    3    0  502 -0.26218557407E+03 -0.96857519334E+02  0.18613899415E+04  0.18822579973E+04  0.25500000920E-02 0. -1.
</event>
<event>
 5   0  0.6188930E-07  0.3534647E+04  0.7818609E-02  0.8105628E-01
       -2   -1    0    0    0  501  0.00000000000E+00  0.00000000000E+00  0.11931448387E+04  0.11931448387E+04  0.25500000920E-02 0.  1.
        2   -1    0    0  501    0  0.00000000000E+00  0.00000000000E+00 -0.26178142891E+04  0.26178142891E+04  0.25500000920E-02 0. -1.
    10030    2    1    2    0    0  0.00000000000E+00  0.00000000000E+00 -0.14246694505E+04  0.38109591278E+04  0.35346465779E+04 0.  0.
        3    1    3    3  502    0  0.43088072571E+02  0.15468415807E+04  0.20813435206E+03  0.15613761163E+04  0.10100000352E+00 0.  1.
       -3    1    3    3    0  502 -0.43088072571E+02 -0.15468415807E+04 -0.16328038025E+04  0.22495830115E+04  0.10100000352E+00 0. -1.
</event>
<event>
 5   0  0.2907000E-07  0.3523830E+04  0.7818609E-02  0.8108166E-01
       -3   -1    0    0    0  501  0.00000000000E+00  0.00000000000E+00  0.14709958383E+04  0.14709958418E+04  0.10100000352E+00 0. -1.
        3   -1    0    0  501    0  0.00000000000E+00  0.00000000000E+00 -0.21103692686E+04  0.21103692710E+04  0.10100000352E+00 0.  1.
    10030    2    1    2    0    0  0.00000000000E+00  0.00000000000E+00 -0.63937343029E+03  0.35813651128E+04  0.35238299743E+04 0.  0.
        4    1    3    3  502    0 -0.90225484824E+03  0.26286263041E+03  0.11950102281E+04  0.15202669607E+04  0.12699999809E+01 0. -1.
       -4    1    3    3    0  502  0.90225484824E+03 -0.26286263041E+03 -0.18343836584E+04  0.20610981521E+04  0.12699999809E+01 0.  1.
</event>
<event>
 5   0  0.2933506E-07  0.3416004E+04  0.7818609E-02  0.8133989E-01
        1   -1    0    0  501    0  0.00000000000E+00  0.00000000000E+00  0.19045679294E+04  0.19045679294E+04  0.50400001928E-02 0.  1.
       -1   -1    0    0    0  501  0.00000000000E+00  0.00000000000E+00 -0.15317236027E+04  0.15317236027E+04  0.50400001928E-02 0. -1.
    10030    2    1    2    0    0  0.00000000000E+00  0.00000000000E+00  0.37284432666E+03  0.34362915321E+04  0.34160044792E+04 0.  0.
        4    1    3    3  502    0 -0.12199698241E+04  0.12647651819E+02  0.13888383509E+04  0.18486102653E+04  0.12699999809E+01 0.  1.
       -4    1    3    3    0  502  0.12199698241E+04 -0.12647651819E+02 -0.10159940243E+04  0.15876812669E+04  0.12699999809E+01 0. -1.
</event>
<event>
 5   0  0.2936607E-07  0.3465971E+04  0.7818609E-02  0.8121902E-01
        1   -1    0    0  501    0  0.00000000000E+00  0.00000000000E+00  0.25384498500E+04  0.25384498500E+04  0.50400001928E-02 0. -1.
       -1   -1    0    0    0  501  0.00000000000E+00  0.00000000000E+00 -0.11830996556E+04  0.11830996556E+04  0.50400001928E-02 0.  1.
    10030    2    1    2    0    0  0.00000000000E+00  0.00000000000E+00  0.13553501944E+04  0.37215495056E+04  0.34659712309E+04 0.  0.
        2    1    3    3  502    0  0.14664683276E+04  0.60011459241E+03  0.14312628359E+04  0.21352236850E+04  0.25500000920E-02 0.  1.
       -2    1    3    3    0  502 -0.14664683276E+04 -0.60011459241E+03 -0.75912641517E+02  0.15863258206E+04  0.25500000920E-02 0. -1.
</event>
<event>
 5   0  0.2936607E-07  0.3567173E+04  0.7818609E-02  0.8098053E-01
        1   -1    0    0  501    0  0.00000000000E+00  0.00000000000E+00  0.28378725072E+04  0.28378725072E+04  0.50400001928E-02 0.  1.
       -1   -1    0    0    0  501  0.00000000000E+00  0.00000000000E+00 -0.11209738391E+04  0.11209738392E+04  0.50400001928E-02 0. -1.
    10030    2    1    2    0    0  0.00000000000E+00  0.00000000000E+00  0.17168986681E+04  0.39588463464E+04  0.35671730205E+04 0.  0.
        2    1    3    3  502    0  0.81979765939E+03 -0.35399442048E+03 -0.85503221592E+03  0.12363091613E+04  0.25500000920E-02 0. -1.
       -2    1    3    3    0  502 -0.81979765939E+03  0.35399442048E+03  0.25719308840E+04  0.27225371851E+04  0.25500000920E-02 0.  1.
</event>
<event>
 5   0  0.6188930E-07  0.3213207E+04  0.7818609E-02  0.8185338E-01
        2   -1    0    0  501    0  0.00000000000E+00  0.00000000000E+00  0.23215475902E+04  0.23215475902E+04  0.25500000920E-02 0.  1.
       -2   -1    0    0    0  501  0.00000000000E+00  0.00000000000E+00 -0.11118335387E+04  0.11118335387E+04  0.25500000920E-02 0. -1.
    10030    2    1    2    0    0  0.00000000000E+00  0.00000000000E+00  0.12097140515E+04  0.34333811289E+04  0.32132067922E+04 0.  0.
        3    1    3    3  502    0 -0.13826379524E+04 -0.15341462369E+03  0.14636392149E+04  0.20192730167E+04  0.10100000352E+00 0.  1.
       -3    1    3    3    0  502  0.13826379524E+04  0.15341462369E+03 -0.25392516343E+03  0.14141081122E+04  0.10100000352E+00 0. -1.
</event>
<event>
 5   0  0.8950809E-07  0.3474536E+04  0.7818609E-02  0.8119851E-01
       -2   -1    0    0    0  501  0.00000000000E+00  0.00000000000E+00  0.25000845568E+04  0.25000845568E+04  0.25500000920E-02 0.  1.
        2   -1    0    0  501    0  0.00000000000E+00  0.00000000000E+00 -0.12071993738E+04  0.12071993738E+04  0.25500000920E-02 0. -1.
    10030    2    1    2    0    0  0.00000000000E+00  0.00000000000E+00  0.12928851830E+04  0.37072839306E+04  0.34745362345E+04 0.  0.
        2    1    3    3  502    0 -0.31112535471E+03  0.41077813175E+03  0.24166641512E+04  0.24709923674E+04  0.25500000920E-02 0.  1.
       -2    1    3    3    0  502  0.31112535471E+03 -0.41077813175E+03 -0.11237789682E+04  0.12362915632E+04  0.25500000920E-02 0. -1.
</event>
<event>
 5   0  0.8950809E-07  0.3336036E+04  0.7818609E-02  0.8153786E-01
        2   -1    0    0  501    0  0.00000000000E+00  0.00000000000E+00  0.28759822186E+04  0.28759822186E+04  0.25500000920E-02 0.  1.
       -2   -1    0    0    0  501  0.00000000000E+00  0.00000000000E+00 -0.96742051846E+03  0.96742051846E+03  0.25500000920E-02 0. -1.
    10030    2    1    2    0    0  0.00000000000E+00  0.00000000000E+00  0.19085617002E+04  0.38434027371E+04  0.33360360963E+04 0.  0.
        2    1    3    3  502    0 -0.39099743539E+03 -0.29428650246E+03  0.27914168709E+04  0.28339886533E+04  0.25500000920E-02 0.  1.
       -2    1    3    3    0  502  0.39099743539E+03  0.29428650246E+03 -0.88285517073E+03  0.10094140838E+04  0.25500000920E-02 0. -1.
</event>
<event>
 5   0  0.2936607E-07  0.3490326E+04  0.7818609E-02  0.8116086E-01
        1   -1    0    0  501    0  0.00000000000E+00  0.00000000000E+00  0.26419697602E+04  0.26419697602E+04  0.50400001928E-02 0. -1.
       -1   -1    0    0    0  501  0.00000000000E+00  0.00000000000E+00 -0.11527738285E+04  0.11527738285E+04  0.50400001928E-02 0.  1.
    10030    2    1    2    0    0  0.00000000000E+00  0.00000000000E+00  0.14891959316E+04  0.37947435887E+04  0.34903258274E+04 0.  0.
        2    1    3    3  502    0 -0.29218928224E+03 -0.15715519157E+04  0.15059946804E+04  0.21961716640E+04  0.25500000920E-02 0. -1.
       -2    1    3    3    0  502  0.29218928224E+03  0.15715519157E+04 -0.16798748748E+02  0.15985719247E+04  0.25500000920E-02 0.  1.
</event>
<event>
 5   0  0.3061330E-07  0.2953543E+04  0.7818609E-02  0.8257123E-01
       -1   -1    0    0    0  501  0.00000000000E+00  0.00000000000E+00  0.16857000989E+04  0.16857000989E+04  0.50400001928E-02 0.  1.
        1   -1    0    0  501    0  0.00000000000E+00  0.00000000000E+00 -0.12937380391E+04  0.12937380391E+04  0.50400001928E-02 0. -1.
    10030    2    1    2    0    0  0.00000000000E+00  0.00000000000E+00  0.39196205978E+03  0.29794381379E+04  0.29535431877E+04 0.  0.
        5    1    3    3  502    0  0.91883711758E+03  0.88971288197E+03 -0.54872001387E+03  0.13917494044E+04  0.46999998093E+01 0.  1.
       -5    1    3    3    0  502 -0.91883711758E+03 -0.88971288197E+03  0.94068207365E+03  0.15876887336E+04  0.46999998093E+01 0. -1.
</event>
<event>
 5   0  0.9128871E-07  0.3490369E+04  0.7818609E-02  0.8116076E-01
       -2   -1    0    0    0  501  0.00000000000E+00  0.00000000000E+00  0.11034998128E+04  0.11034998128E+04  0.25500000920E-02 0. -1.
        2   -1    0    0  501    0  0.00000000000E+00  0.00000000000E+00 -0.27600082795E+04  0.27600082795E+04  0.25500000920E-02 0.  1.
    10030    2    1    2    0    0  0.00000000000E+00  0.00000000000E+00 -0.16565084667E+04  0.38635080923E+04  0.34903688171E+04 0.  0.
        1    1    3    3  502    0 -0.53381513948E+03  0.96645472749E+02 -0.26643062415E+04  0.27189753031E+04  0.50400001928E-02 0.  1.
       -1    1    3    3    0  502  0.53381513948E+03 -0.96645472749E+02  0.10077977748E+04  0.11445327892E+04  0.50400001928E-02 0. -1.
</event>
<event>
 5   0  0.6188930E-07  0.3506586E+04  0.7818609E-02  0.8112231E-01
        2   -1    0    0  501    0  0.00000000000E+00  0.00000000000E+00  0.18458395138E+04  0.18458395138E+04  0.25500000920E-02 0. -1.
       -2   -1    0    0    0  501  0.00000000000E+00  0.00000000000E+00 -0.16653864992E+04  0.16653864992E+04  0.25500000920E-02 0.  1.
    10030    2    1    2    0    0  0.00000000000E+00  0.00000000000E+00  0.18045301467E+03  0.35112260130E+04  0.35065859214E+04 0.  0.
        3    1    3    3  502    0 -0.45818276958E+03  0.16123862854E+04 -0.42456974892E+03  0.17291559980E+04  0.10100000352E+00 0.  1.
       -3    1    3    3    0  502  0.45818276958E+03 -0.16123862854E+04  0.60502276359E+03  0.17820700150E+04  0.10100000352E+00 0. -1.
</event>
<event>
 5   0  0.8845195E-07  0.3513926E+04  0.7818609E-02  0.8110498E-01
        2   -1    0    0  501    0  0.00000000000E+00  0.00000000000E+00  0.20327503282E+04  0.20327503282E+04  0.25500000920E-02 0. -1.
       -2   -1    0    0    0  501  0.00000000000E+00  0.00000000000E+00 -0.15185924785E+04  0.15185924785E+04  0.25500000920E-02 0.  1.
    10030    2    1    2    0    0  0.00000000000E+00  0.00000000000E+00  0.51415784971E+03  0.35513428068E+04  0.35139262139E+04 0.  0.
        5    1    3    3  502    0  0.55598950074E+03  0.12683441865E+02 -0.14272843128E+04  0.15318119318E+04  0.46999998093E+01 0.  1.
       -5    1    3    3    0  502 -0.55598950074E+03 -0.12683441865E+02  0.19414421625E+04  0.20195308750E+04  0.46999998093E+01 0. -1.
</event>
<event>
 5   0  0.6188930E-07  0.3510109E+04  0.7818609E-02  0.8111398E-01
       -2   -1    0    0    0  501  0.00000000000E+00  0.00000000000E+00  0.14179348933E+04  0.14179348933E+04  0.25500000920E-02 0. -1.
        2   -1    0    0  501    0  0.00000000000E+00  0.00000000000E+00 -0.21723254035E+04  0.21723254035E+04  0.25500000920E-02 0.  1.
    10030    2    1    2    0    0  0.00000000000E+00  0.00000000000E+00 -0.75439051028E+03  0.35902602968E+04  0.35101088241E+04 0.  0.
        3    1    3    3  502    0  0.12604243606E+04 -0.85935870366E+03  0.51040410738E+03  0.16086265301E+04  0.10100000352E+00 0. -1.
       -3    1    3    3    0  502 -0.12604243606E+04  0.85935870366E+03 -0.12647946177E+04  0.19816337667E+04  0.10100000352E+00 0.  1.
</event>
<event>
 5   0  0.8950809E-07  0.3490255E+04  0.7818609E-02  0.8116103E-01
        2   -1    0    0  501    0  0.00000000000E+00  0.00000000000E+00  0.23680653303E+04  0.23680653303E+04  0.25500000920E-02 0. -1.
       -2   -1    0    0    0  501  0.00000000000E+00  0.00000000000E+00 -0.12860581644E+04  0.12860581644E+04  0.25500000920E-02 0.  1.
    10030    2    1    2    0    0  0.00000000000E+00  0.00000000000E+00  0.10820071658E+04  0.36541234947E+04  0.34902548628E+04 0.  0.
        2    1    3    3  502    0  0.15674879651E+01 -0.51885335225E+02  0.23672568853E+04  0.23678259450E+04  0.25500000920E-02 0. -1.
       -2    1    3    3    0  502 -0.15674879651E+01  0.51885335225E+02 -0.12852497194E+04  0.12862975497E+04  0.25500000920E-02 0.  1.
</event>
<event>
 5   0  0.6188930E-07  0.3496630E+04  0.7818609E-02  0.8114589E-01
        2   -1    0    0  501    0  0.00000000000E+00  0.00000000000E+00  0.20694139731E+04  0.20694139731E+04  0.25500000920E-02 0.  1.
       -2   -1    0    0    0  501  0.00000000000E+00  0.00000000000E+00 -0.14770388839E+04  0.14770388839E+04  0.25500000920E-02 0. -1.
    10030    2    1    2    0    0  0.00000000000E+00  0.00000000000E+00  0.59237508915E+03  0.35464528570E+04  0.34966297517E+04 0.  0.
        3    1    3    3  502    0 -0.36419600340E+03 -0.13005932944E+04 -0.82977639980E+03  0.15851531567E+04  0.10100000352E+00 0. -1.
       -3    1    3    3    0  502  0.36419600340E+03  0.13005932944E+04  0.14221514890E+04  0.19612997002E+04  0.10100000352E+00 0.  1.
</event>
<event>
 5   0  0.2972541E-07  0.3625321E+04  0.7818609E-02  0.8084716E-01
        1   -1    0    0  501    0  0.00000000000E+00  0.00000000000E+00  0.16863772530E+04  0.16863772530E+04  0.50400001928E-02 0. -1.
       -1   -1    0    0    0  501  0.00000000000E+00  0.00000000000E+00 -0.19484005042E+04  0.19484005042E+04  0.50400001928E-02 0.  1.
    10030    2    1    2    0    0  0.00000000000E+00  0.00000000000E+00 -0.26202325116E+03  0.36347777572E+04  0.36253211113E+04 0.  0.
        3    1    3    3  502    0  0.74762085953E+02  0.66767619693E+03  0.15569349162E+04  0.16957084705E+04  0.10100000352E+00 0. -1.
       -3    1    3    3    0  502 -0.74762085953E+02 -0.66767619693E+03 -0.18189581674E+04  0.19390692866E+04  0.10100000352E+00 0.  1.
</event>
<event>
 5   0  0.3061330E-07  0.3519308E+04  0.7818609E-02  0.8109229E-01
       -1   -1    0    0    0  501  0.00000000000E+00  0.00000000000E+00  0.14978121388E+04  0.14978121388E+04  0.50400001928E-02 0. -1.
        1   -1    0    0  501    0  0.00000000000E+00  0.00000000000E+00 -0.20672700990E+04  0.20672700990E+04  0.50400001928E-02 0.  1.
    10030    2    1    2    0    0  0.00000000000E+00  0.00000000000E+00 -0.56945796019E+03  0.35650822379E+04  0.35193080278E+04 0.  0.
        5    1    3    3  502    0  0.10463292008E+04 -0.10995203826E+04 -0.11865952106E+04  0.19265980774E+04  0.46999998093E+01 0.  1.
       -5    1    3    3    0  502 -0.10463292008E+04  0.10995203826E+04  0.61713725044E+03  0.16384841604E+04  0.46999998093E+01 0. -1.
</event>
<event>
 5   0  0.9128871E-07  0.3493055E+04  0.7818609E-02  0.8115438E-01
       -2   -1    0    0    0  501  0.00000000000E+00  0.00000000000E+00  0.24072094551E+04  0.24072094551E+04  0.25500000920E-02 0. -1.
        2   -1    0    0  501    0  0.00000000000E+00  0.00000000000E+00 -0.12671764158E+04  0.12671764158E+04  0.25500000920E-02 0.  1.
    10030    2    1    2    0    0  0.00000000000E+00  0.00000000000E+00  0.11400330393E+04  0.36743858709E+04  0.34930554243E+04 0.  0.
        1    1    3    3  502    0 -0.41986700897E+03 -0.51613985327E+03  0.22686732886E+04  0.23642265424E+04  0.50400001928E-02 0. -1.
       -1    1    3    3    0  502  0.41986700897E+03  0.51613985327E+03 -0.11286402494E+04  0.13101593284E+04  0.50400001928E-02 0.  1.
</event>
<event>
 5   0  0.2936607E-07  0.3423838E+04  0.7818609E-02  0.8132080E-01
        1   -1    0    0  501    0  0.00000000000E+00  0.00000000000E+00  0.20300479432E+04  0.20300479432E+04  0.50400001928E-02 0.  1.
       -1   -1    0    0    0  501  0.00000000000E+00  0.00000000000E+00 -0.14436443946E+04  0.14436443946E+04  0.50400001928E-02 0. -1.
    10030    2    1    2    0    0  0.00000000000E+00  0.00000000000E+00  0.58640354861E+03  0.34736923379E+04  0.34238383923E+04 0.  0.
        2    1    3    3  502    0  0.81006682352E+03  0.68198993504E+03  0.16579082178E+04  0.19672260136E+04  0.25500000920E-02 0.  1.
       -2    1    3    3    0  502 -0.81006682352E+03 -0.68198993504E+03 -0.10715046692E+04  0.15064663243E+04  0.25500000920E-02 0. -1.
</event>
<event>
 5   0  0.8950809E-07  0.3479319E+04  0.7818609E-02  0.8118709E-01
        2   -1    0    0  501    0  0.00000000000E+00  0.00000000000E+00  0.23523625373E+04  0.23523625373E+04  0.25500000920E-02 0. -1.
       -2   -1    0    0    0  501  0.00000000000E+00  0.00000000000E+00 -0.12865430466E+04  0.12865430466E+04  0.25500000920E-02 0.  1.
    10030    2    1    2    0    0  0.00000000000E+00  0.00000000000E+00  0.10658194907E+04  0.36389055839E+04  0.34793192814E+04 0.  0.
        2    1    3    3  502    0 -0.12759629176E+04 -0.98318812638E+03 -0.15424596020E+03  0.16181878986E+04  0.25500000920E-02 0.  1.
       -2    1    3    3    0  502  0.12759629176E+04  0.98318812638E+03  0.12200654509E+04  0.20207176853E+04  0.25500000920E-02 0. -1.
</event>
<event>
 5   0  0.3026332E-07  0.3511049E+04  0.7818609E-02  0.8111177E-01
       -1   -1    0    0    0  501  0.00000000000E+00  0.00000000000E+00  0.10443789659E+04  0.10443789659E+04  0.50400001928E-02 0.  1.
        1   -1    0    0  501    0  0.00000000000E+00  0.00000000000E+00 -0.29509074682E+04  0.29509074682E+04  0.50400001928E-02 0. -1.
    10030    2    1    2    0    0  0.00000000000E+00  0.00000000000E+00 -0.19065285023E+04  0.39952864341E+04  0.35110486696E+04 0.  0.
        1    1    3    3  502    0  0.10883519915E+04 -0.11566365900E+04 -0.10206834891E+03  0.15914572588E+04  0.50400001928E-02 0.  1.
       -1    1    3    3    0  502 -0.10883519915E+04  0.11566365900E+04 -0.18044601534E+04  0.24038291753E+04  0.50400001928E-02 0. -1.
</event>
<event>
 5   0  0.9311672E-07  0.3444748E+04  0.7818609E-02  0.8127010E-01
        2   -1    0    0  501    0  0.00000000000E+00  0.00000000000E+00  0.14416632120E+04  0.14416632120E+04  0.25500000920E-02 0.  1.
       -2   -1    0    0    0  501  0.00000000000E+00  0.00000000000E+00 -0.20577432672E+04  0.20577432672E+04  0.25500000920E-02 0. -1.
    10030    2    1    2    0    0  0.00000000000E+00  0.00000000000E+00 -0.61608005522E+03  0.34994064792E+04  0.34447483322E+04 0.  0.
        4    1    3    3  502    0 -0.11091820362E+04 -0.12968177605E+04 -0.70774569677E+02  0.17079320086E+04  0.12699999809E+01 0.  1.
       -4    1    3    3    0  502  0.11091820362E+04  0.12968177605E+04 -0.54530548555E+03  0.17914744706E+04  0.12699999809E+01 0. -1.
</event>
<event>
 5   0  0.2936607E-07  0.3491572E+04  0.7818609E-02  0.8115790E-01
       -1   -1    0    0    0  501  0.00000000000E+00  0.00000000000E+00  0.18953024235E+04  0.18953024235E+04  0.50400001928E-02 0.  1.
        1   -1    0    0  501    0  0.00000000000E+00  0.00000000000E+00 -0.16080646003E+04  0.16080646003E+04  0.50400001928E-02 0. -1.
    10030    2    1    2    0    0  0.00000000000E+00  0.00000000000E+00  0.28723782319E+03  0.35033670238E+04  0.34915719864E+04 0.  0.
        2    1    3    3  502    0  0.28840881206E+02  0.10298614124E+04 -0.12705116509E+04  0.16357402545E+04  0.25500000920E-02 0. -1.
       -2    1    3    3    0  502 -0.28840881206E+02 -0.10298614124E+04  0.15577494741E+04  0.18676267693E+04  0.25500000920E-02 0.  1.
</event>
<event>
 5   0  0.8845195E-07  0.3449546E+04  0.7818609E-02  0.8125852E-01
        2   -1    0    0  501    0  0.00000000000E+00  0.00000000000E+00  0.18643324297E+04  0.18643324297E+04  0.25500000920E-02 0. -1.
       -2   -1    0    0    0  501  0.00000000000E+00  0.00000000000E+00 -0.15956604227E+04  0.15956604227E+04  0.25500000920E-02 0.  1.
    10030    2    1    2    0    0  0.00000000000E+00  0.00000000000E+00  0.26867200706E+03  0.34599928524E+04  0.34495457515E+04 0.  0.
        5    1    3    3  502    0 -0.22420427007E+03  0.53560114689E+03 -0.14946772291E+04  0.16035018716E+04  0.46999998093E+01 0.  1.
       -5    1    3    3    0  502  0.22420427007E+03 -0.53560114689E+03  0.17633492361E+04  0.18564909808E+04  0.46999998093E+01 0. -1.
</event>
<event>
 5   0  0.2936607E-07  0.3550372E+04  0.7818609E-02  0.8101955E-01
       -1   -1    0    0    0  501  0.00000000000E+00  0.00000000000E+00  0.13754707357E+04  0.13754707357E+04  0.50400001928E-02 0.  1.
        1   -1    0    0  501    0  0.00000000000E+00  0.00000000000E+00 -0.22910593654E+04  0.22910593654E+04  0.50400001928E-02 0. -1.
    10030    2    1    2    0    0  0.00000000000E+00  0.00000000000E+00 -0.91558862972E+03  0.36665301012E+04  0.35503718740E+04 0.  0.
        2    1    3    3  502    0  0.11937534433E+04 -0.11829779104E+04  0.13257416102E+03  0.16858410151E+04  0.25500000920E-02 0.  1.
       -2    1    3    3    0  502 -0.11937534433E+04  0.11829779104E+04 -0.10481627907E+04  0.19806890861E+04  0.25500000920E-02 0. -1.
</event>
<event>
 5   0  0.2972541E-07  0.3486062E+04  0.7818609E-02  0.8117101E-01
       -1   -1    0    0    0  501  0.00000000000E+00  0.00000000000E+00  0.13166122563E+04  0.13166122563E+04  0.50400001928E-02 0. -1.
        1   -1    0    0  501    0  0.00000000000E+00  0.00000000000E+00 -0.23075565966E+04  0.23075565966E+04  0.50400001928E-02 0.  1.
    10030    2    1    2    0    0  0.00000000000E+00  0.00000000000E+00 -0.99094434025E+03  0.36241688529E+04  0.34860621321E+04 0.  0.
        3    1    3    3  502    0  0.62813277693E+03  0.14888466543E+04 -0.11747662229E+04  0.19978215221E+04  0.10100000352E+00 0.  1.
       -3    1    3    3    0  502 -0.62813277693E+03 -0.14888466543E+04  0.18382188263E+03  0.16263473308E+04  0.10100000352E+00 0. -1.
</event>
<event>
 5   0  0.9128871E-07  0.3454805E+04  0.7818609E-02  0.8124585E-01
       -2   -1    0    0    0  501  0.00000000000E+00  0.00000000000E+00  0.16290649742E+04  0.16290649742E+04  0.25500000920E-02 0. -1.
        2   -1    0    0  501    0  0.00000000000E+00  0.00000000000E+00 -0.18316756035E+04  0.18316756035E+04  0.25500000920E-02 0.  1.
    10030    2    1    2    0    0  0.00000000000E+00  0.00000000000E+00 -0.20261062923E+03  0.34607405777E+04  0.34548045211E+04 0.  0.
        1    1    3    3  502    0  0.12759532186E+04  0.11281294241E+04 -0.39022063532E+03  0.17472849676E+04  0.50400001928E-02 0. -1.
       -1    1    3    3    0  502 -0.12759532186E+04 -0.11281294241E+04  0.18761000610E+03  0.17134556102E+04  0.50400001928E-02 0.  1.
</event>
<event>
 5   0  0.2972541E-07  0.3485732E+04  0.7818609E-02  0.8117180E-01
        1   -1    0    0  501    0  0.00000000000E+00  0.00000000000E+00  0.21164920615E+04  0.21164920615E+04  0.50400001928E-02 0. -1.
       -1   -1    0    0    0  501  0.00000000000E+00  0.00000000000E+00 -0.14351967707E+04  0.14351967707E+04  0.50400001928E-02 0.  1.
    10030    2    1    2    0    0  0.00000000000E+00  0.00000000000E+00  0.68129529078E+03  0.35516888321E+04  0.34857323889E+04 0.  0.
        3    1    3    3  502    0 -0.52774010270E+03 -0.10112575654E+04 -0.10020234615E+04  0.15182893358E+04  0.10100000352E+00 0.  1.
       -3    1    3    3    0  502  0.52774010270E+03  0.10112575654E+04  0.16833187523E+04  0.20333994963E+04  0.10100000352E+00 0. -1.
</event>
<event>
 5   0  0.9128871E-07  0.3499439E+04  0.7818609E-02  0.8113923E-01
        2   -1    0    0  501    0  0.00000000000E+00  0.00000000000E+00  0.23311920400E+04  0.23311920400E+04  0.25500000920E-02 0. -1.
       -2   -1    0    0    0  501  0.00000000000E+00  0.00000000000E+00 -0.13132846108E+04  0.13132846108E+04  0.25500000920E-02 0.  1.
    10030    2    1    2    0    0  0.00000000000E+00  0.00000000000E+00  0.10179074292E+04  0.36444766509E+04  0.34994391728E+04 0.  0.
        1    1    3    3  502    0 -0.48936295909E+03  0.10530124293E+04 -0.85419013216E+03  0.14415103412E+04  0.50400001928E-02 0.  1.
       -1    1    3    3    0  502  0.48936295909E+03 -0.10530124293E+04  0.18720975614E+04  0.22029663096E+04  0.50400001928E-02 0. -1.
</event>
<event>
 5   0  0.3026332E-07  0.3507641E+04  0.7818609E-02  0.8111982E-01
        1   -1    0    0  501    0  0.00000000000E+00  0.00000000000E+00  0.19071290320E+04  0.19071290320E+04  0.50400001928E-02 0. -1.
       -1   -1    0    0    0  501  0.00000000000E+00  0.00000000000E+00 -0.16128356517E+04  0.16128356517E+04  0.50400001928E-02 0.  1.
    10030    2    1    2    0    0  0.00000000000E+00  0.00000000000E+00  0.29429338028E+03  0.35199646837E+04  0.35076406289E+04 0.  0.
        1    1    3    3  502    0 -0.12224699257E+04  0.30539742375E+03 -0.10770514985E+04  0.16576309107E+04  0.50400001928E-02 0.  1.
       -1    1    3    3    0  502  0.12224699257E+04 -0.30539742375E+03  0.13713448788E+04  0.18623337731E+04  0.50400001928E-02 0. -1.
</event>
<event>
 5   0  0.2972541E-07  0.3030751E+04  0.7818609E-02  0.8235004E-01
        1   -1    0    0  501    0  0.00000000000E+00  0.00000000000E+00  0.16856752048E+04  0.16856752048E+04  0.50400001928E-02 0.  1.
       -1   -1    0    0    0  501  0.00000000000E+00  0.00000000000E+00 -0.13622808837E+04  0.13622808837E+04  0.50400001928E-02 0. -1.
    10030    2    1    2    0    0  0.00000000000E+00  0.00000000000E+00  0.32339432102E+03  0.30479560885E+04  0.30307511331E+04 0.  0.
        3    1    3    3  502    0 -0.82811069832E+03 -0.81121883932E+03  0.11432087396E+04  0.16281184129E+04  0.10100000352E+00 0.  1.
       -3    1    3    3    0  502  0.82811069832E+03  0.81121883932E+03 -0.81981441859E+03  0.14198376756E+04  0.10100000352E+00 0. -1.
</event>
<event>
 5   0  0.9311672E-07  0.3426994E+04  0.7818609E-02  0.8131313E-01
       -2   -1    0    0    0  501  0.00000000000E+00  0.00000000000E+00  0.14978869741E+04  0.14978869741E+04  0.25500000920E-02 0.  1.
        2   -1    0    0  501    0  0.00000000000E+00  0.00000000000E+00 -0.19601423238E+04  0.19601423238E+04  0.25500000920E-02 0. -1.
    10030    2    1    2    0    0  0.00000000000E+00  0.00000000000E+00 -0.46225534973E+03  0.34580292980E+04  0.34269938163E+04 0.  0.
        4    1    3    3  502    0  0.12005868172E+04  0.10171666706E+03 -0.14604857378E+04  0.18933502553E+04  0.12699999809E+01 0. -1.
       -4    1    3    3    0  502 -0.12005868172E+04 -0.10171666706E+03  0.99823038808E+03  0.15646790427E+04  0.12699999809E+01 0.  1.
</event>
<event>
 5   0  0.8950809E-07  0.3489712E+04  0.7818609E-02  0.8116232E-01
       -2   -1    0    0    0  501  0.00000000000E+00  0.00000000000E+00  0.12121697388E+04  0.12121697388E+04  0.25500000920E-02 0. -1.
        2   -1    0    0  501    0  0.00000000000E+00  0.00000000000E+00 -0.25116308520E+04  0.25116308520E+04  0.25500000920E-02 0.  1.
    10030    2    1    2    0    0  0.00000000000E+00  0.00000000000E+00 -0.12994611131E+04  0.37238005908E+04  0.34897122597E+04 0.  0.
        2    1    3    3  502    0 -0.42591728101E+03 -0.60143567005E+03 -0.23374012955E+04  0.24508315347E+04  0.25500000920E-02 0.  1.
       -2    1    3    3    0  502  0.42591728101E+03  0.60143567005E+03  0.10379401824E+04  0.12729690560E+04  0.25500000920E-02 0. -1.
</event>
<event>
 5   0  0.2933506E-07  0.3435012E+04  0.7818609E-02  0.8129366E-01
       -1   -1    0    0    0  501  0.00000000000E+00  0.00000000000E+00  0.38204733044E+04  0.38204733044E+04  0.50400001928E-02 0. -1.
        1   -1    0    0  501    0  0.00000000000E+00  0.00000000000E+00 -0.77211017462E+03  0.77211017463E+03  0.50400001928E-02 0.  1.
    10030    2    1    2    0    0  0.00000000000E+00  0.00000000000E+00  0.30483631298E+04  0.45925834790E+04  0.34350116799E+04 0.  0.
        4    1    3    3  502    0  0.45119318869E+03 -0.26951633550E+03 -0.66195806877E+03  0.84522449464E+03  0.12699999809E+01 0.  1.
       -4    1    3    3    0  502 -0.45119318869E+03  0.26951633550E+03  0.37103211985E+04  0.37473589844E+04  0.12699999809E+01 0. -1.
</event>
<event>
 5   0  0.3061330E-07  0.3496590E+04  0.7818609E-02  0.8114599E-01
       -1   -1    0    0    0  501  0.00000000000E+00  0.00000000000E+00  0.16075112065E+04  0.16075112065E+04  0.50400001928E-02 0.  1.
        1   -1    0    0  501    0  0.00000000000E+00  0.00000000000E+00 -0.19014081667E+04  0.19014081667E+04  0.50400001928E-02 0. -1.
    10030    2    1    2    0    0  0.00000000000E+00  0.00000000000E+00 -0.29389696021E+03  0.35089193733E+04  0.34965897307E+04 0.  0.
        5    1    3    3  502    0  0.36970875012E+03  0.13280925059E+04 -0.12259134929E+04  0.18448306823E+04  0.46999998093E+01 0. -1.
       -5    1    3    3    0  502 -0.36970875012E+03 -0.13280925059E+04  0.93201653267E+03  0.16640886910E+04  0.46999998093E+01 0.  1.
</event>
<event>
 5   0  0.6188930E-07  0.3439617E+04  0.7818609E-02  0.8128251E-01
        2   -1    0    0  501    0  0.00000000000E+00  0.00000000000E+00  0.14925032646E+04  0.14925032646E+04  0.25500000920E-02 0. -1.
       -2   -1    0    0    0  501  0.00000000000E+00  0.00000000000E+00 -0.19817315547E+04  0.19817315547E+04  0.25500000920E-02 0.  1.
    10030    2    1    2    0    0  0.00000000000E+00  0.00000000000E+00 -0.48922829011E+03  0.34742348192E+04  0.34396167315E+04 0.  0.
        3    1    3    3  502    0  0.66237330730E+03  0.34012734473E+02 -0.18473562929E+04  0.19628093508E+04  0.10100000352E+00 0.  1.
       -3    1    3    3    0  502 -0.66237330730E+03 -0.34012734473E+02  0.13581280028E+04  0.15114254684E+04  0.10100000352E+00 0. -1.
</event>
<event>
 5   0  0.2933506E-07  0.3467920E+04  0.7818609E-02  0.8121435E-01
        1   -1    0    0  501    0  0.00000000000E+00  0.00000000000E+00  0.26512233917E+04  0.26512233917E+04  0.50400001928E-02 0.  1.
       -1   -1    0    0    0  501  0.00000000000E+00  0.00000000000E+00 -0.11340487546E+04  0.11340487547E+04  0.50400001928E-02 0. -1.
    10030    2    1    2    0    0  0.00000000000E+00  0.00000000000E+00  0.15171746370E+04  0.37852721463E+04  0.34679195986E+04 0.  0.
        4    1    3    3  502    0  0.11734139312E+04  0.12765805862E+04  0.75036645061E+03  0.18893410677E+04  0.12699999809E+01 0. -1.
       -4    1    3    3    0  502 -0.11734139312E+04 -0.12765805862E+04  0.76680818641E+03  0.18959310786E+04  0.12699999809E+01 0.  1.
</event>
<event>
 5   0  0.9311672E-07  0.3995382E+04  0.7818609E-02  0.8005479E-01
       -2   -1    0    0    0  501  0.00000000000E+00  0.00000000000E+00  0.20711247484E+04  0.20711247484E+04  0.25500000920E-02 0.  1.
        2   -1    0    0  501    0  0.00000000000E+00  0.00000000000E+00 -0.19268611569E+04  0.19268611569E+04  0.25500000920E-02 0. -1.
    10030    2    1    2    0    0  0.00000000000E+00  0.00000000000E+00  0.14426359150E+03  0.39979859052E+04  0.39953822489E+04 0.  0.
        4    1    3    3  502    0  0.66803859526E+03 -0.18034309085E+04 -0.46871057995E+03  0.19794771601E+04  0.12699999809E+01 0. -1.
       -4    1    3    3    0  502 -0.66803859526E+03  0.18034309085E+04  0.61297417144E+03  0.20185087452E+04  0.12699999809E+01 0.  1.
</event>
<event>
 5   0  0.2936607E-07  0.3495235E+04  0.7818609E-02  0.8114920E-01
       -1   -1    0    0    0  501  0.00000000000E+00  0.00000000000E+00  0.14747500904E+04  0.14747500904E+04  0.50400001928E-02 0. -1.
        1   -1    0    0  501    0  0.00000000000E+00  0.00000000000E+00 -0.20709719755E+04  0.20709719755E+04  0.50400001928E-02 0.  1.
    10030    2    1    2    0    0  0.00000000000E+00  0.00000000000E+00 -0.59622188513E+03  0.35457220659E+04  0.34952345318E+04 0.  0.
        2    1    3    3  502    0 -0.97318965643E+03 -0.14320981282E+04 -0.53852138659E+03  0.18132866404E+04  0.25500000920E-02 0.  1.
       -2    1    3    3    0  502  0.97318965643E+03  0.14320981282E+04 -0.57700498537E+02  0.17324354256E+04  0.25500000920E-02 0. -1.
</event>
<event>
 5   0  0.2936607E-07  0.3522046E+04  0.7818609E-02  0.8108585E-01
       -1   -1    0    0    0  501  0.00000000000E+00  0.00000000000E+00  0.16607633820E+04  0.16607633820E+04  0.50400001928E-02 0.  1.
        1   -1    0    0  501    0  0.00000000000E+00  0.00000000000E+00 -0.18673353373E+04  0.18673353373E+04  0.50400001928E-02 0. -1.
    10030    2    1    2    0    0  0.00000000000E+00  0.00000000000E+00 -0.20657195528E+03  0.35280987194E+04  0.35220460816E+04 0.  0.
        2    1    3    3  502    0  0.67134541480E+03  0.31134678354E+02 -0.17338203598E+04  0.18595179682E+04  0.25500000920E-02 0. -1.
       -2    1    3    3    0  502 -0.67134541480E+03 -0.31134678354E+02  0.15272484045E+04  0.16685807512E+04  0.25500000920E-02 0.  1.
</event>
<event>
 5   0  0.8950809E-07  0.3502743E+04  0.7818609E-02  0.8113140E-01
        2   -1    0    0  501    0  0.00000000000E+00  0.00000000000E+00  0.22270679825E+04  0.22270679825E+04  0.25500000920E-02 0.  1.
       -2   -1    0    0    0  501  0.00000000000E+00  0.00000000000E+00 -0.13772825120E+04  0.13772825120E+04  0.25500000920E-02 0. -1.
    10030    2    1    2    0    0  0.00000000000E+00  0.00000000000E+00  0.84978547054E+03  0.36043504945E+04  0.35027428026E+04 0.  0.
        2    1    3    3  502    0  0.16498672767E+04 -0.47048382410E+03  0.78707539080E+03  0.18875658214E+04  0.25500000920E-02 0. -1.
       -2    1    3    3    0  502 -0.16498672767E+04  0.47048382410E+03  0.62710079736E+02  0.17167846730E+04  0.25500000920E-02 0.  1.
</event>
<event>
 5   0  0.3061330E-07  0.3533695E+04  0.7818609E-02  0.8105851E-01
       -1   -1    0    0    0  501  0.00000000000E+00  0.00000000000E+00  0.21384714815E+04  0.21384714815E+04  0.50400001928E-02 0.  1.
        1   -1    0    0  501    0  0.00000000000E+00  0.00000000000E+00 -0.14598043398E+04  0.14598043398E+04  0.50400001928E-02 0. -1.
    10030    2    1    2    0    0  0.00000000000E+00  0.00000000000E+00  0.67866714177E+03  0.35982758213E+04  0.35336949213E+04 0.  0.
        5    1    3    3  502    0  0.16369833076E+04  0.51358307964E+03  0.76924125675E+03  0.18802223619E+04  0.46999998093E+01 0.  1.
       -5    1    3    3    0  502 -0.16369833076E+04 -0.51358307964E+03 -0.90574114979E+02  0.17180534594E+04  0.46999998093E+01 0. -1.
</event>
<event>
 5   0  0.2933506E-07  0.3490146E+04  0.7818609E-02  0.8116129E-01
       -1   -1    0    0    0  501  0.00000000000E+00  0.00000000000E+00  0.13119918363E+04  0.13119918363E+04  0.50400001928E-02 0. -1.
        1   -1    0    0  501    0  0.00000000000E+00  0.00000000000E+00 -0.23211116372E+04  0.23211116372E+04  0.50400001928E-02 0.  1.
    10030    2    1    2    0    0  0.00000000000E+00  0.00000000000E+00 -0.10091198009E+04  0.36331034735E+04  0.34901458532E+04 0.  0.
        4    1    3    3  502    0 -0.93477808226E+03 -0.13901939633E+04 -0.10132781829E+04  0.19578517839E+04  0.12699999809E+01 0.  1.
       -4    1    3    3    0  502  0.93477808226E+03  0.13901939633E+04  0.41583820249E+01  0.16752516897E+04  0.12699999809E+01 0. -1.
</event>
<event>
 5   0  0.2972541E-07  0.3483274E+04  0.7818609E-02  0.8117765E-01
        1   -1    0    0  501    0  0.00000000000E+00  0.00000000000E+00  0.17947211586E+04  0.17947211586E+04  0.50400001928E-02 0.  1.
       -1   -1    0    0    0  501  0.00000000000E+00  0.00000000000E+00 -0.16901227731E+04  0.16901227731E+04  0.50400001928E-02 0. -1.
    10030    2    1    2    0    0  0.00000000000E+00  0.00000000000E+00  0.10459838552E+03  0.34848439317E+04  0.34832738058E+04 0.  0.
        3    1    3    3  502    0 -0.16279947626E+04 -0.61875975046E+03  0.44018053998E+02  0.17421734056E+04  0.10100000352E+00 0. -1.
       -3    1    3    3    0  502  0.16279947626E+04  0.61875975046E+03  0.60580331524E+02  0.17426705261E+04  0.10100000352E+00 0.  1.
</event>
<event>
 5   0  0.8950809E-07  0.3504514E+04  0.7818609E-02  0.8112721E-01
       -2   -1    0    0    0  501  0.00000000000E+00  0.00000000000E+00  0.29536737822E+04  0.29536737822E+04  0.25500000920E-02 0.  1.
        2   -1    0    0  501    0  0.00000000000E+00  0.00000000000E+00 -0.10395205717E+04  0.10395205717E+04  0.25500000920E-02 0. -1.
    10030    2    1    2    0    0  0.00000000000E+00  0.00000000000E+00  0.19141532105E+04  0.39931943539E+04  0.35045140369E+04 0.  0.
        2    1    3    3  502    0  0.57687146116E+02 -0.14595263529E+04 -0.14580760246E+03  0.14679253519E+04  0.25500000920E-02 0. -1.
       -2    1    3    3    0  502 -0.57687146116E+02  0.14595263529E+04  0.20599608130E+04  0.25252690020E+04  0.25500000920E-02 0.  1.
</event>
<event>
 5   0  0.8950809E-07  0.3492779E+04  0.7818609E-02  0.8115503E-01
       -2   -1    0    0    0  501  0.00000000000E+00  0.00000000000E+00  0.13124431224E+04  0.13124431224E+04  0.25500000920E-02 0.  1.
        2   -1    0    0  501    0  0.00000000000E+00  0.00000000000E+00 -0.23238163510E+04  0.23238163510E+04  0.25500000920E-02 0. -1.
    10030    2    1    2    0    0  0.00000000000E+00  0.00000000000E+00 -0.10113732286E+04  0.36362594734E+04  0.34927792874E+04 0.  0.
        2    1    3    3  502    0 -0.85378329476E+02  0.74765355941E+03  0.11349963853E+04  0.13617973780E+04  0.25500000920E-02 0.  1.
       -2    1    3    3    0  502  0.85378329476E+02 -0.74765355941E+03 -0.21463696139E+04  0.22744620954E+04  0.25500000920E-02 0. -1.
</event>
<event>
 5   0  0.2933506E-07  0.3508943E+04  0.7818609E-02  0.8111674E-01
        1   -1    0    0  501    0  0.00000000000E+00  0.00000000000E+00  0.14235824750E+04  0.14235824750E+04  0.50400001928E-02 0.  1.
       -1   -1    0    0    0  501  0.00000000000E+00  0.00000000000E+00 -0.21622706046E+04  0.21622706046E+04  0.50400001928E-02 0. -1.
    10030    2    1    2    0    0  0.00000000000E+00  0.00000000000E+00 -0.73868812959E+03  0.35858530796E+04  0.35089431679E+04 0.  0.
        4    1    3    3  502    0  0.19433224912E+03 -0.16243935603E+04 -0.10170737640E+04  0.19263592905E+04  0.12699999809E+01 0.  1.
       -4    1    3    3    0  502 -0.19433224912E+03  0.16243935603E+04  0.27838563439E+03  0.16594937891E+04  0.12699999809E+01 0. -1.
</event>
<event>
 5   0  0.6188930E-07  0.3495714E+04  0.7818609E-02  0.8114806E-01
        2   -1    0    0  501    0  0.00000000000E+00  0.00000000000E+00  0.19028623575E+04  0.19028623575E+04  0.25500000920E-02 0.  1.
       -2   -1    0    0    0  501  0.00000000000E+00  0.00000000000E+00 -0.16054785718E+04  0.16054785718E+04  0.25500000920E-02 0. -1.
    10030    2    1    2    0    0  0.00000000000E+00  0.00000000000E+00  0.29738378575E+03  0.35083409293E+04  0.34957143705E+04 0.  0.
        3    1    3    3  502    0  0.20596481529E+03  0.11708733079E+03  0.18866725709E+04  0.19014900337E+04  0.10100000352E+00 0.  1.
       -3    1    3    3    0  502 -0.20596481529E+03 -0.11708733079E+03 -0.15892887851E+04  0.16068508957E+04  0.10100000352E+00 0. -1.
</event>
<event>
 5   0  0.6188930E-07  0.3381927E+04  0.7818609E-02  0.8142356E-01
       -2   -1    0    0    0  501  0.00000000000E+00  0.00000000000E+00  0.20916408296E+04  0.20916408296E+04  0.25500000920E-02 0.  1.
        2   -1    0    0  501    0  0.00000000000E+00  0.00000000000E+00 -0.13670406446E+04  0.13670406446E+04  0.25500000920E-02 0. -1.
    10030    2    1    2    0    0  0.00000000000E+00  0.00000000000E+00  0.72460018495E+03  0.34586814742E+04  0.33819272777E+04 0.  0.
        3    1    3    3  502    0 -0.33770432218E+03 -0.15918639976E+04 -0.10778707642E+03  0.16308566032E+04  0.10100000352E+00 0. -1.
       -3    1    3    3    0  502  0.33770432218E+03  0.15918639976E+04  0.83238726137E+03  0.18278248710E+04  0.10100000352E+00 0.  1.
</event>
<event>
 5   0  0.9311672E-07  0.3508091E+04  0.7818609E-02  0.8111875E-01
        2   -1    0    0  501    0  0.00000000000E+00  0.00000000000E+00  0.25661885736E+04  0.25661885736E+04  0.25500000920E-02 0.  1.
       -2   -1    0    0    0  501  0.00000000000E+00  0.00000000000E+00 -0.11989282206E+04  0.11989282206E+04  0.25500000920E-02 0. -1.
    10030    2    1    2    0    0  0.00000000000E+00  0.00000000000E+00  0.13672603529E+04  0.37651167942E+04  0.35080911621E+04 0.  0.
        4    1    3    3  502    0  0.10117920281E+04  0.13328375940E+04  0.11927654607E+03  0.16776196433E+04  0.12699999809E+01 0. -1.
       -4    1    3    3    0  502 -0.10117920281E+04 -0.13328375940E+04  0.12479838069E+04  0.20874971510E+04  0.12699999809E+01 0.  1.
</event>
<event>
 5   0  0.2936607E-07  0.2989570E+04  0.7818609E-02  0.8246716E-01
        1   -1    0    0  501    0  0.00000000000E+00  0.00000000000E+00  0.17803949172E+04  0.17803949172E+04  0.50400001928E-02 0.  1.
       -1   -1    0    0    0  501  0.00000000000E+00  0.00000000000E+00 -0.12549924225E+04  0.12549924225E+04  0.50400001928E-02 0. -1.
    10030    2    1    2    0    0  0.00000000000E+00  0.00000000000E+00  0.52540249472E+03  0.30353873397E+04  0.29895699558E+04 0.  0.
        2    1    3    3  502    0  0.22260122762E+03  0.13435673741E+04 -0.36290547955E+03  0.14094058969E+04  0.25500000920E-02 0. -1.
       -2    1    3    3    0  502 -0.22260122762E+03 -0.13435673741E+04  0.88830797427E+03  0.16259814428E+04  0.25500000920E-02 0.  1.
</event>
<event>
 5   0  0.2933506E-07  0.3538806E+04  0.7818609E-02  0.8104654E-01
        1   -1    0    0  501    0  0.00000000000E+00  0.00000000000E+00  0.17182695376E+04  0.17182695376E+04  0.50400001928E-02 0.  1.
       -1   -1    0    0    0  501  0.00000000000E+00  0.00000000000E+00 -0.18220584631E+04  0.18220584632E+04  0.50400001928E-02 0. -1.
    10030    2    1    2    0    0  0.00000000000E+00  0.00000000000E+00 -0.10378892559E+03  0.35403280007E+04  0.35388063258E+04 0.  0.
        4    1    3    3  502    0 -0.33215775072E+03  0.67054475429E+03 -0.16559637476E+04  0.18171891990E+04  0.12699999809E+01 0. -1.
       -4    1    3    3    0  502  0.33215775072E+03 -0.67054475429E+03  0.15521748220E+04  0.17231388017E+04  0.12699999809E+01 0.  1.
</event>
<event>
 5   0  0.6188930E-07  0.3537918E+04  0.7818609E-02  0.8104862E-01
       -2   -1    0    0    0  501  0.00000000000E+00  0.00000000000E+00  0.11663760098E+04  0.11663760098E+04  0.25500000920E-02 0.  1.
        2   -1    0    0  501    0  0.00000000000E+00  0.00000000000E+00 -0.26828537935E+04  0.26828537935E+04  0.25500000920E-02 0. -1.
    10030    2    1    2    0    0  0.00000000000E+00  0.00000000000E+00 -0.15164777837E+04  0.38492298033E+04  0.35379182029E+04 0.  0.
        3    1    3    3  502    0  0.16787182895E+04 -0.31160060904E+03 -0.12615767311E+04  0.21229144810E+04  0.10100000352E+00 0. -1.
       -3    1    3    3    0  502 -0.16787182895E+04  0.31160060904E+03 -0.25490105256E+03  0.17263153223E+04  0.10100000352E+00 0.  1.
</event>
<event>
 5   0  0.2933506E-07  0.3509609E+04  0.7818609E-02  0.8111517E-01
       -1   -1    0    0    0  501  0.00000000000E+00  0.00000000000E+00  0.90891814568E+03  0.90891814569E+03  0.50400001928E-02 0. -1.
        1   -1    0    0  501    0  0.00000000000E+00  0.00000000000E+00 -0.33879159808E+04  0.33879159808E+04  0.50400001928E-02 0.  1.
    10030    2    1    2    0    0  0.00000000000E+00  0.00000000000E+00 -0.24789978351E+04  0.42968341265E+04  0.35096087024E+04 0.  0.
        4    1    3    3  502    0 -0.14697977659E+04  0.90803055251E+03 -0.86311351452E+03  0.19312668145E+04  0.12699999809E+01 0. -1.
       -4    1    3    3    0  502  0.14697977659E+04 -0.90803055251E+03 -0.16158843206E+04  0.23655673120E+04  0.12699999809E+01 0.  1.
</event>
<event>
 5   0  0.6188930E-07  0.3508322E+04  0.7818609E-02  0.8111821E-01
        2   -1    0    0  501    0  0.00000000000E+00  0.00000000000E+00  0.20969415483E+04  0.20969415483E+04  0.25500000920E-02 0.  1.
       -2   -1    0    0    0  501  0.00000000000E+00  0.00000000000E+00 -0.14674136123E+04  0.14674136123E+04  0.25500000920E-02 0. -1.
    10030    2    1    2    0    0  0.00000000000E+00  0.00000000000E+00  0.62952793599E+03  0.35643551605E+04  0.35083218621E+04 0.  0.
        3    1    3    3  502    0  0.43165213443E+02  0.17458569387E+04  0.14720295188E+03  0.17525833519E+04  0.10100000352E+00 0. -1.
       -3    1    3    3    0  502 -0.43165213443E+02 -0.17458569387E+04  0.48232498411E+03  0.18117718086E+04  0.10100000352E+00 0.  1.
</event>
<event>
 5   0  0.6188930E-07  0.3464042E+04  0.7818609E-02  0.8122365E-01
        2   -1    0    0  501    0  0.00000000000E+00  0.00000000000E+00  0.16668019813E+04  0.16668019813E+04  0.25500000920E-02 0. -1.
       -2   -1    0    0    0  501  0.00000000000E+00  0.00000000000E+00 -0.17997915905E+04  0.17997915905E+04  0.25500000920E-02 0.  1.
    10030    2    1    2    0    0  0.00000000000E+00  0.00000000000E+00 -0.13298960918E+03  0.34665935718E+04  0.34640416793E+04 0.  0.
        3    1    3    3  502    0  0.59545263646E+03 -0.78961310533E+03 -0.14894577288E+04  0.17878861917E+04  0.10100000352E+00 0.  1.
       -3    1    3    3    0  502 -0.59545263646E+03  0.78961310533E+03  0.13564681196E+04  0.16787073801E+04  0.10100000352E+00 0. -1.
</event>
<event>
 5   0  0.2933506E-07  0.3501912E+04  0.7818609E-02  0.8113337E-01
       -1   -1    0    0    0  501  0.00000000000E+00  0.00000000000E+00  0.13790708913E+04  0.13790708913E+04  0.50400001928E-02 0. -1.
        1   -1    0    0  501    0  0.00000000000E+00  0.00000000000E+00 -0.22231253104E+04  0.22231253104E+04  0.50400001928E-02 0.  1.
    10030    2    1    2    0    0  0.00000000000E+00  0.00000000000E+00 -0.84405441902E+03  0.36021962017E+04  0.35019122795E+04 0.  0.
        4    1    3    3  502    0 -0.19426547715E+03 -0.13572105774E+04 -0.15422907983E+04  0.20635944724E+04  0.12699999809E+01 0.  1.
       -4    1    3    3    0  502  0.19426547715E+03  0.13572105774E+04  0.69823637929E+03  0.15386017293E+04  0.12699999809E+01 0. -1.
</event>
<event>
 5   0  0.2972541E-07  0.3520637E+04  0.7818609E-02  0.8108917E-01
       -1   -1    0    0    0  501  0.00000000000E+00  0.00000000000E+00  0.16296547122E+04  0.16296547123E+04  0.50400001928E-02 0.  1.
        1   -1    0    0  501    0  0.00000000000E+00  0.00000000000E+00 -0.19014591235E+04  0.19014591235E+04  0.50400001928E-02 0. -1.
    10030    2    1    2    0    0  0.00000000000E+00  0.00000000000E+00 -0.27180441124E+03  0.35311138357E+04  0.35206373405E+04 0.  0.
        3    1    3    3  502    0  0.15249899373E+04 -0.81792533494E+03 -0.45954749202E+03  0.17904692318E+04  0.10100000352E+00 0. -1.
       -3    1    3    3    0  502 -0.15249899373E+04  0.81792533494E+03  0.18774308078E+03  0.17406446039E+04  0.10100000352E+00 0.  1.
</event>
<event>
 5   0  0.2936607E-07  0.3270988E+04  0.7818609E-02  0.8170317E-01
        1   -1    0    0  501    0  0.00000000000E+00  0.00000000000E+00  0.11222553764E+04  0.11222553764E+04  0.50400001928E-02 0.  1.
       -1   -1    0    0    0  501  0.00000000000E+00  0.00000000000E+00 -0.23834514882E+04  0.23834514882E+04  0.50400001928E-02 0. -1.
    10030    2    1    2    0    0  0.00000000000E+00  0.00000000000E+00 -0.12611961118E+04  0.35057068646E+04  0.32709883809E+04 0.  0.
        2    1    3    3  502    0  0.72747310252E+03 -0.78103945026E+03 -0.19587136095E+04  0.22306498474E+04  0.25500000920E-02 0. -1.
       -2    1    3    3    0  502 -0.72747310252E+03  0.78103945026E+03  0.69751749761E+03  0.12750570173E+04  0.25500000920E-02 0.  1.
</event>
<event>
 5   0  0.8845195E-07  0.3071025E+04  0.7818609E-02  0.8223735E-01
        2   -1    0    0  501    0  0.00000000000E+00  0.00000000000E+00  0.21010292807E+04  0.21010292807E+04  0.25500000920E-02 0.  1.
       -2   -1    0    0    0  501  0.00000000000E+00  0.00000000000E+00 -0.11222113190E+04  0.11222113190E+04  0.25500000920E-02 0. -1.
    10030    2    1    2    0    0  0.00000000000E+00  0.00000000000E+00  0.97881796163E+03  0.32232405997E+04  0.30710251320E+04 0.  0.
        5    1    3    3  502    0 -0.64644244764E+03  0.74773962294E+03  0.17227146065E+04  0.19861445283E+04  0.46999998093E+01 0.  1.
       -5    1    3    3    0  502  0.64644244764E+03 -0.74773962294E+03 -0.74389664483E+03  0.12370960715E+04  0.46999998093E+01 0. -1.
</event>
<event>
 5   0  0.2933506E-07  0.3506131E+04  0.7818609E-02  0.8112338E-01
        1   -1    0    0  501    0  0.00000000000E+00  0.00000000000E+00  0.20556908891E+04  0.20556908891E+04  0.50400001928E-02 0. -1.
       -1   -1    0    0    0  501  0.00000000000E+00  0.00000000000E+00 -0.14949910481E+04  0.14949910481E+04  0.50400001928E-02 0.  1.
    10030    2    1    2    0    0  0.00000000000E+00  0.00000000000E+00  0.56069984105E+03  0.35506819372E+04  0.35061314732E+04 0.  0.
        4    1    3    3  502    0 -0.37856031021E+02  0.84518886902E+03  0.18352618356E+04  0.20208822136E+04  0.12699999809E+01 0. -1.
       -4    1    3    3    0  502  0.37856031021E+02 -0.84518886902E+03 -0.12745619945E+04  0.15297997235E+04  0.12699999809E+01 0.  1.
</event>
<event>
 5   0  0.3061330E-07  0.3482444E+04  0.7818609E-02  0.8117963E-01
       -1   -1    0    0    0  501  0.00000000000E+00  0.00000000000E+00  0.14505947289E+04  0.14505947289E+04  0.50400001928E-02 0.  1.
        1   -1    0    0  501    0  0.00000000000E+00  0.00000000000E+00 -0.20900771577E+04  0.20900771577E+04  0.50400001928E-02 0. -1.
    10030    2    1    2    0    0  0.00000000000E+00  0.00000000000E+00 -0.63948242885E+03  0.35406718866E+04  0.34824444909E+04 0.  0.
        5    1    3    3  502    0  0.11097590837E+04 -0.94713258802E+03 -0.12860039626E+04  0.19448531166E+04  0.46999998093E+01 0. -1.
       -5    1    3    3    0  502 -0.11097590837E+04  0.94713258802E+03  0.64652153378E+03  0.15958187701E+04  0.46999998093E+01 0.  1.
</event>
<event>
 5   0  0.2936607E-07  0.3477941E+04  0.7818609E-02  0.8119038E-01
        1   -1    0    0  501    0  0.00000000000E+00  0.00000000000E+00  0.15991176752E+04  0.15991176752E+04  0.50400001928E-02 0.  1.
       -1   -1    0    0    0  501  0.00000000000E+00  0.00000000000E+00 -0.18910543604E+04  0.18910543604E+04  0.50400001928E-02 0. -1.
    10030    2    1    2    0    0  0.00000000000E+00  0.00000000000E+00 -0.29193668524E+03  0.34901720356E+04  0.34779410303E+04 0.  0.
        2    1    3    3  502    0 -0.83416668986E+03 -0.37412750524E+03 -0.16304314777E+04  0.18692544664E+04  0.25500000920E-02 0. -1.
       -2    1    3    3    0  502  0.83416668986E+03  0.37412750524E+03  0.13384947925E+04  0.16209175692E+04  0.25500000920E-02 0.  1.
</event>
<event>
 5   0  0.3061330E-07  0.3465462E+04  0.7818609E-02  0.8122024E-01
       -1   -1    0    0    0  501  0.00000000000E+00  0.00000000000E+00  0.11655940225E+04  0.11655940225E+04  0.50400001928E-02 0.  1.
        1   -1    0    0  501    0  0.00000000000E+00  0.00000000000E+00 -0.25758172833E+04  0.25758172834E+04  0.50400001928E-02 0. -1.
    10030    2    1    2    0    0  0.00000000000E+00  0.00000000000E+00 -0.14102232609E+04  0.37414113058E+04  0.34654622944E+04 0.  0.
        5    1    3    3  502    0  0.30703964251E+03 -0.15013777021E+04 -0.15781610782E+04  0.21997779036E+04  0.46999998093E+01 0. -1.
       -5    1    3    3    0  502 -0.30703964251E+03  0.15013777021E+04  0.16793781729E+03  0.15416334022E+04  0.46999998093E+01 0.  1.
</event>
<event>
 5   0  0.8950809E-07  0.3488871E+04  0.7818609E-02  0.8116432E-01
       -2   -1    0    0    0  501  0.00000000000E+00  0.00000000000E+00  0.98783319792E+03  0.98783319792E+03  0.25500000920E-02 0.  1.
        2   -1    0    0  501    0  0.00000000000E+00  0.00000000000E+00 -0.30805353780E+04  0.30805353780E+04  0.25500000920E-02 0. -1.
    10030    2    1    2    0    0  0.00000000000E+00  0.00000000000E+00 -0.20927021800E+04  0.40683685759E+04  0.34888709427E+04 0.  0.
        2    1    3    3  502    0  0.11634826868E+04 -0.85697418206E+03 -0.21858859453E+04  0.26203423588E+04  0.25500000920E-02 0. -1.
       -2    1    3    3    0  502 -0.11634826868E+04  0.85697418206E+03  0.93183765286E+02  0.14480262171E+04  0.25500000920E-02 0.  1.
</event>
<event>
 5   0  0.9311672E-07  0.3504176E+04  0.7818609E-02  0.8112801E-01
       -2   -1    0    0    0  501  0.00000000000E+00  0.00000000000E+00  0.11498432931E+04  0.11498432931E+04  0.25500000920E-02 0.  1.
        2   -1    0    0  501    0  0.00000000000E+00  0.00000000000E+00 -0.26697663371E+04  0.26697663371E+04  0.25500000920E-02 0. -1.
    10030    2    1    2    0    0  0.00000000000E+00  0.00000000000E+00 -0.15199230440E+04  0.38196096303E+04  0.35041763181E+04 0.  0.
        4    1    3    3  502    0  0.11936712024E+04  0.12497298768E+04 -0.10742486151E+04  0.20348679083E+04  0.12699999809E+01 0. -1.
       -4    1    3    3    0  502 -0.11936712024E+04 -0.12497298768E+04 -0.44567442893E+03  0.17847417219E+04  0.12699999809E+01 0.  1.
</event>
<event>
 5   0  0.6188930E-07  0.3513630E+04  0.7818609E-02  0.8110567E-01
       -2   -1    0    0    0  501  0.00000000000E+00  0.00000000000E+00  0.19224007179E+04  0.19224007179E+04  0.25500000920E-02 0.  1.
        2   -1    0    0  501    0  0.00000000000E+00  0.00000000000E+00 -0.16054919492E+04  0.16054919492E+04  0.25500000920E-02 0. -1.
    10030    2    1    2    0    0  0.00000000000E+00  0.00000000000E+00  0.31690876868E+03  0.35278926671E+04  0.35136299610E+04 0.  0.
        3    1    3    3  502    0  0.10530815863E+04  0.13991224540E+04  0.30000322632E+03  0.17766615926E+04  0.10100000352E+00 0.  1.
       -3    1    3    3    0  502 -0.10530815863E+04 -0.13991224540E+04  0.16905542358E+02  0.17512310745E+04  0.10100000352E+00 0. -1.
</event>
<event>
 5   0  0.2933506E-07  0.3547444E+04  0.7818609E-02  0.8102637E-01
        1   -1    0    0  501    0  0.00000000000E+00  0.00000000000E+00  0.20296916945E+04  0.20296916945E+04  0.50400001928E-02 0. -1.
       -1   -1    0    0    0  501  0.00000000000E+00  0.00000000000E+00 -0.15500337043E+04  0.15500337043E+04  0.50400001928E-02 0.  1.
    10030    2    1    2    0    0  0.00000000000E+00  0.00000000000E+00  0.47965799021E+03  0.35797253988E+04  0.35474444524E+04 0.  0.
        4    1    3    3  502    0 -0.10056315119E+04 -0.20899360256E+03  0.16990570045E+04  0.19853889748E+04  0.12699999809E+01 0. -1.
       -4    1    3    3    0  502  0.10056315119E+04  0.20899360256E+03 -0.12193990143E+04  0.15943364240E+04  0.12699999809E+01 0.  1.
</event>
<event>
 5   0  0.3026332E-07  0.3572193E+04  0.7818609E-02  0.8096891E-01
       -1   -1    0    0    0  501  0.00000000000E+00  0.00000000000E+00  0.16194557076E+04  0.16194557076E+04  0.50400001928E-02 0. -1.
        1   -1    0    0  501    0  0.00000000000E+00  0.00000000000E+00 -0.19698842575E+04  0.19698842575E+04  0.50400001928E-02 0.  1.
    10030    2    1    2    0    0  0.00000000000E+00  0.00000000000E+00 -0.35042854995E+03  0.35893399651E+04  0.35721927743E+04 0.  0.
        1    1    3    3  502    0 -0.40537037240E+03  0.13724358636E+04  0.89866987429E+03  0.16898262874E+04  0.50400001928E-02 0. -1.
       -1    1    3    3    0  502  0.40537037240E+03 -0.13724358636E+04 -0.12490984242E+04  0.18995136778E+04  0.50400001928E-02 0.  1.
</event>
<event>
 5   0  0.3061330E-07  0.3143528E+04  0.7818609E-02  0.8203893E-01
       -1   -1    0    0    0  501  0.00000000000E+00  0.00000000000E+00  0.20451013765E+04  0.20451013765E+04  0.50400001928E-02 0. -1.
        1   -1    0    0  501    0  0.00000000000E+00  0.00000000000E+00 -0.12079802673E+04  0.12079802673E+04  0.50400001928E-02 0.  1.
    10030    2    1    2    0    0  0.00000000000E+00  0.00000000000E+00  0.83712110926E+03  0.32530816438E+04  0.31435280227E+04 0.  0.
        5    1    3    3  502    0  0.14370820559E+04 -0.63176819130E+03  0.33784132022E+03  0.16057692021E+04  0.46999998093E+01 0.  1.
       -5    1    3    3    0  502 -0.14370820559E+04  0.63176819130E+03  0.49927978904E+03  0.16473124417E+04  0.46999998093E+01 0. -1.
</event>
<event>
 5   0  0.3061330E-07  0.3461304E+04  0.7818609E-02  0.8123022E-01
       -1   -1    0    0    0  501  0.00000000000E+00  0.00000000000E+00  0.12696115380E+04  0.12696115381E+04  0.50400001928E-02 0.  1.
        1   -1    0    0  501    0  0.00000000000E+00  0.00000000000E+00 -0.23591121429E+04  0.23591121429E+04  0.50400001928E-02 0. -1.
    10030    2    1    2    0    0  0.00000000000E+00  0.00000000000E+00 -0.10895006049E+04  0.36287236810E+04  0.34613037984E+04 0.  0.
        5    1    3    3  502    0  0.25936893801E+03 -0.16736609635E+04 -0.91794705659E+03  0.19264117305E+04  0.46999998093E+01 0.  1.
       -5    1    3    3    0  502 -0.25936893801E+03  0.16736609635E+04 -0.17155354828E+03  0.17023119505E+04  0.46999998093E+01 0. -1.
</event>
<event>
 5   0  0.8950809E-07  0.3495698E+04  0.7818609E-02  0.8114810E-01
        2   -1    0    0  501    0  0.00000000000E+00  0.00000000000E+00  0.28423636311E+04  0.28423636311E+04  0.25500000920E-02 0.  1.
       -2   -1    0    0    0  501  0.00000000000E+00  0.00000000000E+00 -0.10748009991E+04  0.10748009991E+04  0.25500000920E-02 0. -1.
    10030    2    1    2    0    0  0.00000000000E+00  0.00000000000E+00  0.17675626320E+04  0.39171646301E+04  0.34956975100E+04 0.  0.
        2    1    3    3  502    0 -0.27670990733E+03  0.17180881661E+04  0.70109119357E+03  0.18761460980E+04  0.25500000920E-02 0.  1.
       -2    1    3    3    0  502  0.27670990733E+03 -0.17180881661E+04  0.10664714384E+04  0.20410185321E+04  0.25500000920E-02 0. -1.
</event>
<event>
 5   0  0.8950809E-07  0.3503169E+04  0.7818609E-02  0.8113039E-01
        2   -1    0    0  501    0  0.00000000000E+00  0.00000000000E+00  0.25137491385E+04  0.25137491385E+04  0.25500000920E-02 0.  1.
       -2   -1    0    0    0  501  0.00000000000E+00  0.00000000000E+00 -0.12205072845E+04  0.12205072845E+04  0.25500000920E-02 0. -1.
    10030    2    1    2    0    0  0.00000000000E+00  0.00000000000E+00  0.12932418540E+04  0.37342564230E+04  0.35031694991E+04 0.  0.
        2    1    3    3  502    0 -0.61882274876E+03  0.14817742062E+03  0.23861868073E+04  0.24695719511E+04  0.25500000920E-02 0.  1.
       -2    1    3    3    0  502  0.61882274876E+03 -0.14817742062E+03 -0.10929449533E+04  0.12646844718E+04  0.25500000920E-02 0. -1.
</event>
<event>
 5   0  0.3026332E-07  0.3506356E+04  0.7818609E-02  0.8112285E-01
        1   -1    0    0  501    0  0.00000000000E+00  0.00000000000E+00  0.12146230056E+04  0.12146230057E+04  0.50400001928E-02 0. -1.
       -1   -1    0    0    0  501  0.00000000000E+00  0.00000000000E+00 -0.25305236835E+04  0.25305236835E+04  0.50400001928E-02 0.  1.
    10030    2    1    2    0    0  0.00000000000E+00  0.00000000000E+00 -0.13159006779E+04  0.37451466892E+04  0.35063555338E+04 0.  0.
        1    1    3    3  502    0 -0.16839150317E+04  0.42377133785E+03 -0.91624634085E+03  0.19633286373E+04  0.50400001928E-02 0. -1.
       -1    1    3    3    0  502  0.16839150317E+04 -0.42377133785E+03 -0.39965433705E+03  0.17818180519E+04  0.50400001928E-02 0.  1.
</event>
<event>
 5   0  0.2933506E-07  0.3300847E+04  0.7818609E-02  0.8162680E-01
        1   -1    0    0  501    0  0.00000000000E+00  0.00000000000E+00  0.23804922595E+04  0.23804922595E+04  0.50400001928E-02 0.  1.
       -1   -1    0    0    0  501  0.00000000000E+00  0.00000000000E+00 -0.11442582790E+04  0.11442582791E+04  0.50400001928E-02 0. -1.
    10030    2    1    2    0    0  0.00000000000E+00  0.00000000000E+00  0.12362339805E+04  0.35247505386E+04  0.33008471496E+04 0.  0.
        4    1    3    3  502    0  0.12561284218E+04 -0.22175310420E+03  0.17364708130E+04  0.21546149421E+04  0.12699999809E+01 0.  1.
       -4    1    3    3    0  502 -0.12561284218E+04  0.22175310420E+03 -0.50023683252E+03  0.13701355965E+04  0.12699999809E+01 0. -1.
</event>
<event>
 5   0  0.9128871E-07  0.3415999E+04  0.7818609E-02  0.8133991E-01
       -2   -1    0    0    0  501  0.00000000000E+00  0.00000000000E+00  0.13309946725E+04  0.13309946725E+04  0.25500000920E-02 0.  1.
        2   -1    0    0  501    0  0.00000000000E+00  0.00000000000E+00 -0.21917911430E+04  0.21917911430E+04  0.25500000920E-02 0. -1.
    10030    2    1    2    0    0  0.00000000000E+00  0.00000000000E+00 -0.86079647052E+03  0.35227858155E+04  0.34159990249E+04 0.  0.
        1    1    3    3  502    0 -0.12027344818E+04  0.96145671697E+03 -0.11926200102E+04  0.19476426112E+04  0.50400001928E-02 0. -1.
       -1    1    3    3    0  502  0.12027344818E+04 -0.96145671697E+03  0.33182353972E+03  0.15751432042E+04  0.50400001928E-02 0.  1.
</event>
<event>
 5   0  0.8845195E-07  0.3425095E+04  0.7818609E-02  0.8131775E-01
       -2   -1    0    0    0  501  0.00000000000E+00  0.00000000000E+00  0.13230155760E+04  0.13230155760E+04  0.25500000920E-02 0. -1.
        2   -1    0    0  501    0  0.00000000000E+00  0.00000000000E+00 -0.22167681705E+04  0.22167681705E+04  0.25500000920E-02 0.  1.
    10030    2    1    2    0    0  0.00000000000E+00  0.00000000000E+00 -0.89375259449E+03  0.35397837464E+04  0.34250949288E+04 0.  0.
        5    1    3    3  502    0 -0.16571533988E+04  0.35787607880E+03 -0.19677284894E+03  0.17067437767E+04  0.46999998093E+01 0.  1.
       -5    1    3    3    0  502  0.16571533988E+04 -0.35787607880E+03 -0.69697974555E+03  0.18330399698E+04  0.46999998093E+01 0. -1.
</event>
<event>
 5   0  0.2936607E-07  0.3493482E+04  0.7818609E-02  0.8115336E-01
       -1   -1    0    0    0  501  0.00000000000E+00  0.00000000000E+00  0.13519090080E+04  0.13519090080E+04  0.50400001928E-02 0.  1.
        1   -1    0    0  501    0  0.00000000000E+00  0.00000000000E+00 -0.22568853439E+04  0.22568853439E+04  0.50400001928E-02 0. -1.
    10030    2    1    2    0    0  0.00000000000E+00  0.00000000000E+00 -0.90497633593E+03  0.36087943519E+04  0.34934817168E+04 0.  0.
        2    1    3    3  502    0  0.12107025921E+04  0.42411250549E+03 -0.16771283142E+04  0.21114998380E+04  0.25500000920E-02 0. -1.
       -2    1    3    3    0  502 -0.12107025921E+04 -0.42411250549E+03  0.77215197825E+03  0.14972945139E+04  0.25500000920E-02 0.  1.
</event>
<event>
 5   0  0.2936607E-07  0.3487301E+04  0.7818609E-02  0.8116806E-01
       -1   -1    0    0    0  501  0.00000000000E+00  0.00000000000E+00  0.11739321898E+04  0.11739321898E+04  0.50400001928E-02 0. -1.
        1   -1    0    0  501    0  0.00000000000E+00  0.00000000000E+00 -0.25898572109E+04  0.25898572109E+04  0.50400001928E-02 0.  1.
    10030    2    1    2    0    0  0.00000000000E+00  0.00000000000E+00 -0.14159250211E+04  0.37637894007E+04  0.34873008168E+04 0.  0.
        2    1    3    3  502    0  0.32262062742E+03 -0.41239064221E+03  0.10870813832E+04  0.12066051735E+04  0.25500000920E-02 0. -1.
       -2    1    3    3    0  502 -0.32262062742E+03  0.41239064221E+03 -0.25030064044E+04  0.25571842271E+04  0.25500000920E-02 0.  1.
</event>
<event>
 5   0  0.2972541E-07  0.3533346E+04  0.7818609E-02  0.8105933E-01
        1   -1    0    0  501    0  0.00000000000E+00  0.00000000000E+00  0.13037153701E+04  0.13037153701E+04  0.50400001928E-02 0.  1.
       -1   -1    0    0    0  501  0.00000000000E+00  0.00000000000E+00 -0.23940291860E+04  0.23940291860E+04  0.50400001928E-02 0. -1.
    10030    2    1    2    0    0  0.00000000000E+00  0.00000000000E+00 -0.10903138159E+04  0.36977445562E+04  0.35333455231E+04 0.  0.
        3    1    3    3  502    0  0.11862003361E+04 -0.21344435536E+03 -0.18969626325E+04  0.22474645647E+04  0.10100000352E+00 0. -1.
       -3    1    3    3    0  502 -0.11862003361E+04  0.21344435536E+03  0.80664881659E+03  0.14502799915E+04  0.10100000352E+00 0.  1.
</event>
<event>
 5   0  0.6188930E-07  0.3457821E+04  0.7818609E-02  0.8123859E-01
        2   -1    0    0  501    0  0.00000000000E+00  0.00000000000E+00  0.15182594032E+04  0.15182594032E+04  0.25500000920E-02 0.  1.
       -2   -1    0    0    0  501  0.00000000000E+00  0.00000000000E+00 -0.19687885004E+04  0.19687885004E+04  0.25500000920E-02 0. -1.
    10030    2    1    2    0    0  0.00000000000E+00  0.00000000000E+00 -0.45052909714E+03  0.34870479036E+04  0.34578210790E+04 0.  0.
        3    1    3    3  502    0 -0.20893444625E+03  0.92154960466E+03 -0.16853365690E+04  0.19321663070E+04  0.10100000352E+00 0. -1.
       -3    1    3    3    0  502  0.20893444625E+03 -0.92154960466E+03  0.12348074719E+04  0.15548815966E+04  0.10100000352E+00 0.  1.
</event>
<event>
 5   0  0.2972541E-07  0.3490680E+04  0.7818609E-02  0.8116002E-01
       -1   -1    0    0    0  501  0.00000000000E+00  0.00000000000E+00  0.14053108702E+04  0.14053108702E+04  0.50400001928E-02 0. -1.
        1   -1    0    0  501    0  0.00000000000E+00  0.00000000000E+00 -0.21676425423E+04  0.21676425423E+04  0.50400001928E-02 0.  1.
    10030    2    1    2    0    0  0.00000000000E+00  0.00000000000E+00 -0.76233167214E+03  0.35729534125E+04  0.34906799495E+04 0.  0.
        3    1    3    3  502    0 -0.43916136332E+03  0.42269334018E+03  0.12928253873E+04  0.14293109722E+04  0.10100000352E+00 0. -1.
       -3    1    3    3    0  502  0.43916136332E+03 -0.42269334018E+03 -0.20551570595E+04  0.21436424404E+04  0.10100000352E+00 0.  1.
</event>
<event>
 5   0  0.2936607E-07  0.3476755E+04  0.7818609E-02  0.8119321E-01
       -1   -1    0    0    0  501  0.00000000000E+00  0.00000000000E+00  0.14259273065E+04  0.14259273065E+04  0.50400001928E-02 0. -1.
        1   -1    0    0  501    0  0.00000000000E+00  0.00000000000E+00 -0.21192919869E+04  0.21192919869E+04  0.50400001928E-02 0.  1.
    10030    2    1    2    0    0  0.00000000000E+00  0.00000000000E+00 -0.69336468044E+03  0.35452192934E+04  0.34767549897E+04 0.  0.
        2    1    3    3  502    0 -0.51644035163E+03 -0.11798958269E+04 -0.15371881655E+04  0.20054456500E+04  0.25500000920E-02 0.  1.
       -2    1    3    3    0  502  0.51644035163E+03  0.11798958269E+04  0.84382348504E+03  0.15397736434E+04  0.25500000920E-02 0. -1.
</event>
<event>
 5   0  0.6188930E-07  0.3519039E+04  0.7818609E-02  0.8109293E-01
        2   -1    0    0  501    0  0.00000000000E+00  0.00000000000E+00  0.23598130264E+04  0.23598130264E+04  0.25500000920E-02 0. -1.
       -2   -1    0    0    0  501  0.00000000000E+00  0.00000000000E+00 -0.13119298872E+04  0.13119298872E+04  0.25500000920E-02 0.  1.
    10030    2    1    2    0    0  0.00000000000E+00  0.00000000000E+00  0.10478831393E+04  0.36717429136E+04  0.35190392084E+04 0.  0.
        3    1    3    3  502    0 -0.46554242564E+03  0.14769763522E+04  0.13954846300E+04  0.20846021821E+04  0.10100000352E+00 0. -1.
       -3    1    3    3    0  502  0.46554242564E+03 -0.14769763522E+04 -0.34760149075E+03  0.15871407315E+04  0.10100000352E+00 0.  1.
</event>
<event>
 5   0  0.6188930E-07  0.3509017E+04  0.7818609E-02  0.8111656E-01
       -2   -1    0    0    0  501  0.00000000000E+00  0.00000000000E+00  0.14779861056E+04  0.14779861056E+04  0.25500000920E-02 0. -1.
        2   -1    0    0  501    0  0.00000000000E+00  0.00000000000E+00 -0.20827667077E+04  0.20827667077E+04  0.25500000920E-02 0.  1.
    10030    2    1    2    0    0  0.00000000000E+00  0.00000000000E+00 -0.60478060212E+03  0.35607528133E+04  0.35090171018E+04 0.  0.
        3    1    3    3  502    0  0.10922737231E+04  0.13188865417E+04 -0.68982661355E+03  0.18461810212E+04  0.10100000352E+00 0.  1.
       -3    1    3    3    0  502 -0.10922737231E+04 -0.13188865417E+04  0.85046011429E+02  0.17145717921E+04  0.10100000352E+00 0. -1.
</event>
<event>
 5   0  0.8845195E-07  0.3502962E+04  0.7818609E-02  0.8113088E-01
        2   -1    0    0  501    0  0.00000000000E+00  0.00000000000E+00  0.20684356772E+04  0.20684356772E+04  0.25500000920E-02 0. -1.
       -2   -1    0    0    0  501  0.00000000000E+00  0.00000000000E+00 -0.14830946571E+04  0.14830946571E+04  0.25500000920E-02 0.  1.
    10030    2    1    2    0    0  0.00000000000E+00  0.00000000000E+00  0.58534102012E+03  0.35515303343E+04  0.35029621187E+04 0.  0.
        5    1    3    3  502    0 -0.14586426406E+04 -0.76357876859E+03 -0.31308549047E+03  0.16759282512E+04  0.46999998093E+01 0.  1.
       -5    1    3    3    0  502  0.14586426406E+04  0.76357876859E+03  0.89842651059E+03  0.18756020830E+04  0.46999998093E+01 0. -1.
</event>
<event>
 5   0  0.8845195E-07  0.3477262E+04  0.7818609E-02  0.8119200E-01
        2   -1    0    0  501    0  0.00000000000E+00  0.00000000000E+00  0.14212470995E+04  0.14212470995E+04  0.25500000920E-02 0.  1.
       -2   -1    0    0    0  501  0.00000000000E+00  0.00000000000E+00 -0.21268908110E+04  0.21268908110E+04  0.25500000920E-02 0. -1.
    10030    2    1    2    0    0  0.00000000000E+00  0.00000000000E+00 -0.70564371156E+03  0.35481379105E+04  0.34772617941E+04 0.  0.
        5    1    3    3  502    0  0.62309624137E+03  0.81929352388E+03 -0.17825686988E+04  0.20584129955E+04  0.46999998093E+01 0. -1.
       -5    1    3    3    0  502 -0.62309624137E+03 -0.81929352388E+03  0.10769249872E+04  0.14897249150E+04  0.46999998093E+01 0.  1.
</event>
<event>
 5   0  0.8950809E-07  0.3499527E+04  0.7818609E-02  0.8113902E-01
        2   -1    0    0  501    0  0.00000000000E+00  0.00000000000E+00  0.22324007432E+04  0.22324007432E+04  0.25500000920E-02 0.  1.
       -2   -1    0    0    0  501  0.00000000000E+00  0.00000000000E+00 -0.13714703705E+04  0.13714703705E+04  0.25500000920E-02 0. -1.
    10030    2    1    2    0    0  0.00000000000E+00  0.00000000000E+00  0.86093037268E+03  0.36038711138E+04  0.34995265248E+04 0.  0.
        2    1    3    3  502    0 -0.23841278325E+03  0.14900669275E+04  0.13426127833E+04  0.20198389019E+04  0.25500000920E-02 0.  1.
       -2    1    3    3    0  502  0.23841278325E+03 -0.14900669275E+04 -0.48168241061E+03  0.15840322119E+04  0.25500000920E-02 0. -1.
</event>
<event>
 5   0  0.9311672E-07  0.3504393E+04  0.7818609E-02  0.8112750E-01
       -2   -1    0    0    0  501  0.00000000000E+00  0.00000000000E+00  0.20920194502E+04  0.20920194502E+04  0.25500000920E-02 0.  1.
        2   -1    0    0  501    0  0.00000000000E+00  0.00000000000E+00 -0.14675732433E+04  0.14675732433E+04  0.25500000920E-02 0. -1.
    10030    2    1    2    0    0  0.00000000000E+00  0.00000000000E+00  0.62444620692E+03  0.35595926934E+04  0.35043925405E+04 0.  0.
        4    1    3    3  502    0 -0.16275452715E+04  0.58651099245E+03  0.59461559859E+03  0.18293354198E+04  0.12699999809E+01 0. -1.
       -4    1    3    3    0  502  0.16275452715E+04 -0.58651099245E+03  0.29830608325E+02  0.17302572737E+04  0.12699999809E+01 0.  1.
</event>
<event>
 5   0  0.6188930E-07  0.3501926E+04  0.7818609E-02  0.8113334E-01
        2   -1    0    0  501    0  0.00000000000E+00  0.00000000000E+00  0.18602132049E+04  0.18602132049E+04  0.25500000920E-02 0.  1.
       -2   -1    0    0    0  501  0.00000000000E+00  0.00000000000E+00 -0.16481288639E+04  0.16481288639E+04  0.25500000920E-02 0. -1.
    10030    2    1    2    0    0  0.00000000000E+00  0.00000000000E+00  0.21208434097E+03  0.35083420688E+04  0.35019257993E+04 0.  0.
        3    1    3    3  502    0  0.27692531252E+03  0.30041083014E+03 -0.15997038346E+04  0.16510562268E+04  0.10100000352E+00 0. -1.
       -3    1    3    3    0  502 -0.27692531252E+03 -0.30041083014E+03  0.18117881755E+04  0.18572858420E+04  0.10100000352E+00 0.  1.
</event>
<event>
 5   0  0.6188930E-07  0.3499890E+04  0.7818609E-02  0.8113816E-01
       -2   -1    0    0    0  501  0.00000000000E+00  0.00000000000E+00  0.19559619896E+04  0.19559619896E+04  0.25500000920E-02 0.  1.
        2   -1    0    0  501    0  0.00000000000E+00  0.00000000000E+00 -0.15656275745E+04  0.15656275745E+04  0.25500000920E-02 0. -1.
    10030    2    1    2    0    0  0.00000000000E+00  0.00000000000E+00  0.39033441504E+03  0.35215895641E+04  0.34998902986E+04 0.  0.
        3    1    3    3  502    0  0.11179350822E+04  0.11144359775E+04  0.95520569219E+03  0.18450377558E+04  0.10100000352E+00 0.  1.
       -3    1    3    3    0  502 -0.11179350822E+04 -0.11144359775E+04 -0.56487127715E+03  0.16765518083E+04  0.10100000352E+00 0. -1.
</event>
<event>
 5   0  0.9128871E-07  0.3542111E+04  0.7818609E-02  0.8103882E-01
       -2   -1    0    0    0  501  0.00000000000E+00  0.00000000000E+00  0.13883314916E+04  0.13883314916E+04  0.25500000920E-02 0. -1.
        2   -1    0    0  501    0  0.00000000000E+00  0.00000000000E+00 -0.22592862498E+04  0.22592862498E+04  0.25500000920E-02 0.  1.
    10030    2    1    2    0    0  0.00000000000E+00  0.00000000000E+00 -0.87095475827E+03  0.36476177414E+04  0.35421113755E+04 0.  0.
        1    1    3    3  502    0 -0.45150948219E+03 -0.78091786492E+03  0.11340415019E+04  0.14490492236E+04  0.50400001928E-02 0. -1.
       -1    1    3    3    0  502  0.45150948219E+03  0.78091786492E+03 -0.20049962602E+04  0.21985685178E+04  0.50400001928E-02 0.  1.
</event>
<event>
 5   0  0.3061330E-07  0.3540928E+04  0.7818609E-02  0.8104158E-01
        1   -1    0    0  501    0  0.00000000000E+00  0.00000000000E+00  0.27846493470E+04  0.27846493470E+04  0.50400001928E-02 0.  1.
       -1   -1    0    0    0  501  0.00000000000E+00  0.00000000000E+00 -0.11256508351E+04  0.11256508351E+04  0.50400001928E-02 0. -1.
    10030    2    1    2    0    0  0.00000000000E+00  0.00000000000E+00  0.16589985119E+04  0.39103001821E+04  0.35409280495E+04 0.  0.
        5    1    3    3  502    0 -0.12540451024E+04  0.11904783613E+04  0.12495063313E+04  0.21333438564E+04  0.46999998093E+01 0.  1.
       -5    1    3    3    0  502  0.12540451024E+04 -0.11904783613E+04  0.40949218060E+03  0.17769563257E+04  0.46999998093E+01 0. -1.
</event>
<event>
 5   0  0.9128871E-07  0.3482438E+04  0.7818609E-02  0.8117964E-01
       -2   -1    0    0    0  501  0.00000000000E+00  0.00000000000E+00  0.16411110502E+04  0.16411110502E+04  0.25500000920E-02 0. -1.
        2   -1    0    0  501    0  0.00000000000E+00  0.00000000000E+00 -0.18474340162E+04  0.18474340162E+04  0.25500000920E-02 0.  1.
    10030    2    1    2    0    0  0.00000000000E+00  0.00000000000E+00 -0.20632296609E+03  0.34885450664E+04  0.34824384437E+04 0.  0.
        1    1    3    3  502    0 -0.11938945752E+04 -0.65715563600E+03 -0.11888546540E+04  0.18084836674E+04  0.50400001928E-02 0.  1.
       -1    1    3    3    0  502  0.11938945752E+04  0.65715563600E+03  0.98253168794E+03  0.16800613990E+04  0.50400001928E-02 0. -1.
</event>
<event>
 5   0  0.8845195E-07  0.3478611E+04  0.7818609E-02  0.8118878E-01
        2   -1    0    0  501    0  0.00000000000E+00  0.00000000000E+00  0.15348584242E+04  0.15348584242E+04  0.25500000920E-02 0.  1.
       -2   -1    0    0    0  501  0.00000000000E+00  0.00000000000E+00 -0.19709857515E+04  0.19709857515E+04  0.25500000920E-02 0. -1.
    10030    2    1    2    0    0  0.00000000000E+00  0.00000000000E+00 -0.43612732732E+03  0.35058441757E+04  0.34786112658E+04 0.  0.
        5    1    3    3  502    0  0.12132531324E+04 -0.73868969452E+03  0.79354552348E+03  0.16270778150E+04  0.46999998093E+01 0.  1.
       -5    1    3    3    0  502 -0.12132531324E+04  0.73868969452E+03 -0.12296728508E+04  0.18787663607E+04  0.46999998093E+01 0. -1.
</event>
<event>
 5   0  0.6188930E-07  0.3491578E+04  0.7818609E-02  0.8115789E-01
       -2   -1    0    0    0  501  0.00000000000E+00  0.00000000000E+00  0.11107445134E+04  0.11107445134E+04  0.25500000920E-02 0. -1.
        2   -1    0    0  501    0  0.00000000000E+00  0.00000000000E+00 -0.27439069064E+04  0.27439069064E+04  0.25500000920E-02 0.  1.
    10030    2    1    2    0    0  0.00000000000E+00  0.00000000000E+00 -0.16331623931E+04  0.38546514198E+04  0.34915781770E+04 0.  0.
        3    1    3    3  502    0 -0.29046694151E+03  0.16815592199E+04 -0.12233621168E+04  0.20996731491E+04  0.10100000352E+00 0.  1.
       -3    1    3    3    0  502  0.29046694151E+03 -0.16815592199E+04 -0.40980027630E+03  0.17549782707E+04  0.10100000352E+00 0. -1.
</event>
<event>
 5   0  0.2933506E-07  0.3483570E+04  0.7818609E-02  0.8117695E-01
        1   -1    0    0  501    0  0.00000000000E+00  0.00000000000E+00  0.29205448723E+04  0.29205448723E+04  0.50400001928E-02 0.  1.
       -1   -1    0    0    0  501  0.00000000000E+00  0.00000000000E+00 -0.10387838968E+04  0.10387838968E+04  0.50400001928E-02 0. -1.
    10030    2    1    2    0    0  0.00000000000E+00  0.00000000000E+00  0.18817609755E+04  0.39593287691E+04  0.34835699983E+04 0.  0.
        4    1    3    3  502    0 -0.13296468312E+04  0.67163800742E+03  0.19667935456E+04  0.24672528798E+04  0.12699999809E+01 0. -1.
       -4    1    3    3    0  502  0.13296468312E+04 -0.67163800742E+03 -0.85032570098E+02  0.14920758894E+04  0.12699999809E+01 0.  1.
</event>
<event>
 5   0  0.3026332E-07  0.3492313E+04  0.7818609E-02  0.8115614E-01
        1   -1    0    0  501    0  0.00000000000E+00  0.00000000000E+00  0.15785358471E+04  0.15785358471E+04  0.50400001928E-02 0. -1.
       -1   -1    0    0    0  501  0.00000000000E+00  0.00000000000E+00 -0.19315765593E+04  0.19315765593E+04  0.50400001928E-02 0.  1.
    10030    2    1    2    0    0  0.00000000000E+00  0.00000000000E+00 -0.35304071219E+03  0.35101124063E+04  0.34923131819E+04 0.  0.
        1    1    3    3  502    0 -0.15075869179E+04  0.51481813852E+03  0.54211098886E+03  0.16827775715E+04  0.50400001928E-02 0. -1.
       -1    1    3    3    0  502  0.15075869179E+04 -0.51481813852E+03 -0.89515170106E+03  0.18273348349E+04  0.50400001928E-02 0.  1.
</event>
<event>
 5   0  0.3061330E-07  0.3134712E+04  0.7818609E-02  0.8206276E-01
       -1   -1    0    0    0  501  0.00000000000E+00  0.00000000000E+00  0.13631470019E+04  0.13631470020E+04  0.50400001928E-02 0.  1.
        1   -1    0    0  501    0  0.00000000000E+00  0.00000000000E+00 -0.18021569261E+04  0.18021569261E+04  0.50400001928E-02 0. -1.
    10030    2    1    2    0    0  0.00000000000E+00  0.00000000000E+00 -0.43900992411E+03  0.31653039280E+04  0.31347119873E+04 0.  0.
        5    1    3    3  502    0 -0.11597598893E+04 -0.42912425433E+03 -0.11919150748E+04  0.17175197996E+04  0.46999998093E+01 0. -1.
       -5    1    3    3    0  502  0.11597598893E+04  0.42912425433E+03  0.75290515069E+03  0.14477841284E+04  0.46999998093E+01 0.  1.
</event>
<event>
 5   0  0.9311672E-07  0.3290754E+04  0.7818609E-02  0.8165252E-01
        2   -1    0    0  501    0  0.00000000000E+00  0.00000000000E+00  0.11751523654E+04  0.11751523654E+04  0.25500000920E-02 0. -1.
       -2   -1    0    0    0  501  0.00000000000E+00  0.00000000000E+00 -0.23037564027E+04  0.23037564027E+04  0.25500000920E-02 0.  1.
    10030    2    1    2    0    0  0.00000000000E+00  0.00000000000E+00 -0.11286040373E+04  0.34789087682E+04  0.32907535830E+04 0.  0.
        4    1    3    3  502    0 -0.80172581166E+03  0.56786649332E+03  0.83102197031E+03  0.12867928191E+04  0.12699999809E+01 0. -1.
       -4    1    3    3    0  502  0.80172581166E+03 -0.56786649332E+03 -0.19596260076E+04  0.21921159490E+04  0.12699999809E+01 0.  1.
</event>
<event>
 5   0  0.2936607E-07  0.3461365E+04  0.7818609E-02  0.8123008E-01
       -1   -1    0    0    0  501  0.00000000000E+00  0.00000000000E+00  0.13353172383E+04  0.13353172383E+04  0.50400001928E-02 0. -1.
        1   -1    0    0  501    0  0.00000000000E+00  0.00000000000E+00 -0.22431082417E+04  0.22431082417E+04  0.50400001928E-02 0.  1.
    10030    2    1    2    0    0  0.00000000000E+00  0.00000000000E+00 -0.90779100340E+03  0.35784254801E+04  0.34613645302E+04 0.  0.
        2    1    3    3  502    0 -0.15409892437E+04 -0.41031959768E+03  0.24134400938E+03  0.16128412669E+04  0.25500000920E-02 0. -1.
       -2    1    3    3    0  502  0.15409892437E+04  0.41031959768E+03 -0.11491350128E+04  0.19655842132E+04  0.25500000920E-02 0.  1.
</event>
<event>
 5   0  0.8950809E-07  0.3492991E+04  0.7818609E-02  0.8115453E-01
        2   -1    0    0  501    0  0.00000000000E+00  0.00000000000E+00  0.18735979142E+04  0.18735979142E+04  0.25500000920E-02 0.  1.
       -2   -1    0    0    0  501  0.00000000000E+00  0.00000000000E+00 -0.16280155811E+04  0.16280155811E+04  0.25500000920E-02 0. -1.
    10030    2    1    2    0    0  0.00000000000E+00  0.00000000000E+00  0.24558233311E+03  0.35016134952E+04  0.34929910374E+04 0.  0.
        2    1    3    3  502    0  0.13421175768E+04 -0.10669951053E+04 -0.21042739173E+03  0.17274367809E+04  0.25500000920E-02 0. -1.
       -2    1    3    3    0  502 -0.13421175768E+04  0.10669951053E+04  0.45600972484E+03  0.17741767144E+04  0.25500000920E-02 0.  1.
</event>
<event>
 5   0  0.2907000E-07  0.3508929E+04  0.7818609E-02  0.8111677E-01
       -3   -1    0    0    0  501  0.00000000000E+00  0.00000000000E+00  0.21028107585E+04  0.21028107609E+04  0.10100000352E+00 0. -1.
        3   -1    0    0  501    0  0.00000000000E+00  0.00000000000E+00 -0.14638242754E+04  0.14638242789E+04  0.10100000352E+00 0.  1.
    10030    2    1    2    0    0  0.00000000000E+00  0.00000000000E+00  0.63898648310E+03  0.35666350398E+04  0.35089288652E+04 0.  0.
        5    1    3    3  502    0  0.31188353478E+03 -0.15990534957E+04 -0.34227441405E+03  0.16647574255E+04  0.46999998093E+01 0. -1.
       -5    1    3    3    0  502 -0.31188353478E+03  0.15990534957E+04  0.98126089715E+03  0.19018776142E+04  0.46999998093E+01 0.  1.
</event>
<event>
 5   0  0.9128871E-07  0.3501291E+04  0.7818609E-02  0.8113484E-01
       -2   -1    0    0    0  501  0.00000000000E+00  0.00000000000E+00  0.16417953505E+04  0.16417953505E+04  0.25500000920E-02 0.  1.
        2   -1    0    0  501    0  0.00000000000E+00  0.00000000000E+00 -0.18667122974E+04  0.18667122974E+04  0.25500000920E-02 0. -1.
    10030    2    1    2    0    0  0.00000000000E+00  0.00000000000E+00 -0.22491694690E+03  0.35085076479E+04  0.35012909451E+04 0.  0.
        1    1    3    3  502    0 -0.50842941016E+03 -0.63266444258E+03  0.14418655873E+04  0.16546120796E+04  0.50400001928E-02 0.  1.
       -1    1    3    3    0  502  0.50842941016E+03  0.63266444258E+03 -0.16667825342E+04  0.18538955683E+04  0.50400001928E-02 0. -1.
</event>
<event>
 5   0  0.8845195E-07  0.3640698E+04  0.7818609E-02  0.8081232E-01
       -2   -1    0    0    0  501  0.00000000000E+00  0.00000000000E+00  0.11331173085E+04  0.11331173085E+04  0.25500000920E-02 0.  1.
        2   -1    0    0  501    0  0.00000000000E+00  0.00000000000E+00 -0.29243842273E+04  0.29243842273E+04  0.25500000920E-02 0. -1.
    10030    2    1    2    0    0  0.00000000000E+00  0.00000000000E+00 -0.17912669188E+04  0.40575015358E+04  0.36406979466E+04 0.  0.
        5    1    3    3  502    0 -0.15403300856E+04 -0.96096279832E+03 -0.74785591077E+03  0.19635113510E+04  0.46999998093E+01 0. -1.
       -5    1    3    3    0  502  0.15403300856E+04  0.96096279832E+03 -0.10434110080E+04  0.20939901848E+04  0.46999998093E+01 0.  1.
</event>
<event>
 5   0  0.8845195E-07  0.3494152E+04  0.7818609E-02  0.8115177E-01
        2   -1    0    0  501    0  0.00000000000E+00  0.00000000000E+00  0.21570672746E+04  0.21570672746E+04  0.25500000920E-02 0. -1.
       -2   -1    0    0    0  501  0.00000000000E+00  0.00000000000E+00 -0.14150111294E+04  0.14150111294E+04  0.25500000920E-02 0.  1.
    10030    2    1    2    0    0  0.00000000000E+00  0.00000000000E+00  0.74205614522E+03  0.35720784040E+04  0.34941518000E+04 0.  0.
        5    1    3    3  502    0  0.15410857015E+04  0.51140094384E+03 -0.28815940170E+03  0.16491009658E+04  0.46999998093E+01 0. -1.
       -5    1    3    3    0  502 -0.15410857015E+04 -0.51140094384E+03  0.10302155469E+04  0.19229774382E+04  0.46999998093E+01 0.  1.
</event>
<event>
 5   0  0.2933506E-07  0.3363013E+04  0.7818609E-02  0.8147044E-01
        1   -1    0    0  501    0  0.00000000000E+00  0.00000000000E+00  0.15140926674E+04  0.15140926674E+04  0.50400001928E-02 0. -1.
       -1   -1    0    0    0  501  0.00000000000E+00  0.00000000000E+00 -0.18674308231E+04  0.18674308231E+04  0.50400001928E-02 0.  1.
    10030    2    1    2    0    0  0.00000000000E+00  0.00000000000E+00 -0.35333815572E+03  0.33815234904E+04  0.33630125281E+04 0.  0.
        4    1    3    3  502    0  0.16287233114E+04  0.64504591982E+02 -0.59193289374E+03  0.17341530010E+04  0.12699999809E+01 0.  1.
       -4    1    3    3    0  502 -0.16287233114E+04 -0.64504591982E+02  0.23859473802E+03  0.16473704894E+04  0.12699999809E+01 0. -1.
</event>
<event>
 5   0  0.9311672E-07  0.3420847E+04  0.7818609E-02  0.8132809E-01
        2   -1    0    0  501    0  0.00000000000E+00  0.00000000000E+00  0.16549185447E+04  0.16549185447E+04  0.25500000920E-02 0.  1.
       -2   -1    0    0    0  501  0.00000000000E+00  0.00000000000E+00 -0.17677902444E+04  0.17677902444E+04  0.25500000920E-02 0. -1.
    10030    2    1    2    0    0  0.00000000000E+00  0.00000000000E+00 -0.11287169970E+03  0.34227087891E+04  0.34208471808E+04 0.  0.
        4    1    3    3  502    0 -0.34357065131E+03  0.49096844219E+03  0.15464523272E+04  0.16584954678E+04  0.12699999809E+01 0.  1.
       -4    1    3    3    0  502  0.34357065131E+03 -0.49096844219E+03 -0.16593240269E+04  0.17642133212E+04  0.12699999809E+01 0. -1.
</event>
<event>
 5   0  0.6188930E-07  0.3505218E+04  0.7818609E-02  0.8112554E-01
       -2   -1    0    0    0  501  0.00000000000E+00  0.00000000000E+00  0.15792757765E+04  0.15792757765E+04  0.25500000920E-02 0.  1.
        2   -1    0    0  501    0  0.00000000000E+00  0.00000000000E+00 -0.19449668819E+04  0.19449668819E+04  0.25500000920E-02 0. -1.
    10030    2    1    2    0    0  0.00000000000E+00  0.00000000000E+00 -0.36569110537E+03  0.35242426585E+04  0.35052184427E+04 0.  0.
        3    1    3    3  502    0  0.15511758497E+04  0.42356884610E+03  0.51813421006E+03  0.16893845488E+04  0.10100000352E+00 0.  1.
       -3    1    3    3    0  502 -0.15511758497E+04 -0.42356884610E+03 -0.88382531543E+03  0.18348581096E+04  0.10100000352E+00 0. -1.
</event>
<event>
 5   0  0.3026332E-07  0.3480689E+04  0.7818609E-02  0.8118382E-01
       -1   -1    0    0    0  501  0.00000000000E+00  0.00000000000E+00  0.27394120387E+04  0.27394120388E+04  0.50400001928E-02 0.  1.
        1   -1    0    0  501    0  0.00000000000E+00  0.00000000000E+00 -0.11056380978E+04  0.11056380978E+04  0.50400001928E-02 0. -1.
    10030    2    1    2    0    0  0.00000000000E+00  0.00000000000E+00  0.16337739409E+04  0.38450501366E+04  0.34806886191E+04 0.  0.
        1    1    3    3  502    0  0.55515934266E+03 -0.16469623557E+04  0.91637830346E+03  0.19647992498E+04  0.50400001928E-02 0.  1.
       -1    1    3    3    0  502 -0.55515934266E+03  0.16469623557E+04  0.71739563746E+03  0.18802508868E+04  0.50400001928E-02 0. -1.
</event>
<event>
 5   0  0.3026332E-07  0.3486167E+04  0.7818609E-02  0.8117076E-01
        1   -1    0    0  501    0  0.00000000000E+00  0.00000000000E+00  0.21218088655E+04  0.21218088655E+04  0.50400001928E-02 0. -1.
       -1   -1    0    0    0  501  0.00000000000E+00  0.00000000000E+00 -0.14319575461E+04  0.14319575461E+04  0.50400001928E-02 0.  1.
    10030    2    1    2    0    0  0.00000000000E+00  0.00000000000E+00  0.68985131944E+03  0.35537664116E+04  0.34861670737E+04 0.  0.
        1    1    3    3  502    0  0.29250255333E+03  0.12643401341E+04  0.15312032744E+04  0.20071614748E+04  0.50400001928E-02 0. -1.
       -1    1    3    3    0  502 -0.29250255333E+03 -0.12643401341E+04 -0.84135195494E+03  0.15466049368E+04  0.50400001928E-02 0.  1.
</event>
<event>
 5   0  0.2936607E-07  0.3471521E+04  0.7818609E-02  0.8120572E-01
       -1   -1    0    0    0  501  0.00000000000E+00  0.00000000000E+00  0.19638321819E+04  0.19638321819E+04  0.50400001928E-02 0. -1.
        1   -1    0    0  501    0  0.00000000000E+00  0.00000000000E+00 -0.15341763392E+04  0.15341763392E+04  0.50400001928E-02 0.  1.
    10030    2    1    2    0    0  0.00000000000E+00  0.00000000000E+00  0.42965584270E+03  0.34980085212E+04  0.34715212042E+04 0.  0.
        2    1    3    3  502    0 -0.15718207601E+04  0.51883759934E+03 -0.31170272165E+03  0.16843311857E+04  0.25500000920E-02 0.  1.
       -2    1    3    3    0  502  0.15718207601E+04 -0.51883759934E+03  0.74135856435E+03  0.18136773355E+04  0.25500000920E-02 0. -1.
</event>
<event>
 5   0  0.2936607E-07  0.3505929E+04  0.7818609E-02  0.8112386E-01
        1   -1    0    0  501    0  0.00000000000E+00  0.00000000000E+00  0.13650357176E+04  0.13650357176E+04  0.50400001928E-02 0.  1.
       -1   -1    0    0    0  501  0.00000000000E+00  0.00000000000E+00 -0.22511386034E+04  0.22511386035E+04  0.50400001928E-02 0. -1.
    10030    2    1    2    0    0  0.00000000000E+00  0.00000000000E+00 -0.88610288590E+03  0.36161743210E+04  0.35059290346E+04 0.  0.
        2    1    3    3  502    0  0.13950912767E+04  0.10206240639E+04 -0.14245730753E+03  0.17344299451E+04  0.25500000920E-02 0.  1.
       -2    1    3    3    0  502 -0.13950912767E+04 -0.10206240639E+04 -0.74364557837E+03  0.18817443759E+04  0.25500000920E-02 0. -1.
</event>
<event>
 5   0  0.6188930E-07  0.3500095E+04  0.7818609E-02  0.8113767E-01
       -2   -1    0    0    0  501  0.00000000000E+00  0.00000000000E+00  0.13208581462E+04  0.13208581462E+04  0.25500000920E-02 0.  1.
        2   -1    0    0  501    0  0.00000000000E+00  0.00000000000E+00 -0.23186940756E+04  0.23186940756E+04  0.25500000920E-02 0. -1.
    10030    2    1    2    0    0  0.00000000000E+00  0.00000000000E+00 -0.99783592942E+03  0.36395522219E+04  0.35000948321E+04 0.  0.
        3    1    3    3  502    0 -0.71769939525E+03  0.14776620075E+04 -0.11263571459E+04  0.19917976456E+04  0.10100000352E+00 0. -1.
       -3    1    3    3    0  502  0.71769939525E+03 -0.14776620075E+04  0.12852121652E+03  0.16477545763E+04  0.10100000352E+00 0.  1.
</event>
<event>
 5   0  0.3061330E-07  0.3247430E+04  0.7818609E-02  0.8176402E-01
        1   -1    0    0  501    0  0.00000000000E+00  0.00000000000E+00  0.12430058156E+04  0.12430058156E+04  0.50400001928E-02 0. -1.
       -1   -1    0    0    0  501  0.00000000000E+00  0.00000000000E+00 -0.21210288489E+04  0.21210288489E+04  0.50400001928E-02 0.  1.
    10030    2    1    2    0    0  0.00000000000E+00  0.00000000000E+00 -0.87802303335E+03  0.33640346645E+04  0.32474304884E+04 0.  0.
        5    1    3    3  502    0  0.12996856908E+04  0.93139367975E+03 -0.14646734386E+03  0.16056624347E+04  0.46999998093E+01 0. -1.
       -5    1    3    3    0  502 -0.12996856908E+04 -0.93139367975E+03 -0.73155568950E+03  0.17583722298E+04  0.46999998093E+01 0.  1.
</event>
<event>
 5   0  0.3026332E-07  0.3493713E+04  0.7818609E-02  0.8115281E-01
       -1   -1    0    0    0  501  0.00000000000E+00  0.00000000000E+00  0.14178248243E+04  0.14178248243E+04  0.50400001928E-02 0.  1.
        1   -1    0    0  501    0  0.00000000000E+00  0.00000000000E+00 -0.21522458497E+04  0.21522458497E+04  0.50400001928E-02 0. -1.
    10030    2    1    2    0    0  0.00000000000E+00  0.00000000000E+00 -0.73442102546E+03  0.35700706740E+04  0.34937129783E+04 0.  0.
        1    1    3    3  502    0  0.14486411093E+04 -0.97283289764E+03 -0.28455581491E+03  0.17680319347E+04  0.50400001928E-02 0.  1.
       -1    1    3    3    0  502 -0.14486411093E+04  0.97283289764E+03 -0.44986521055E+03  0.18020387393E+04  0.50400001928E-02 0. -1.
</event>
<event>
 5   0  0.2972541E-07  0.3278055E+04  0.7818609E-02  0.8168502E-01
        1   -1    0    0  501    0  0.00000000000E+00  0.00000000000E+00  0.24658665346E+04  0.24658665346E+04  0.50400001928E-02 0. -1.
       -1   -1    0    0    0  501  0.00000000000E+00  0.00000000000E+00 -0.10894392434E+04  0.10894392434E+04  0.50400001928E-02 0.  1.
    10030    2    1    2    0    0  0.00000000000E+00  0.00000000000E+00  0.13764272911E+04  0.35553057780E+04  0.32780553820E+04 0.  0.
        3    1    3    3  502    0 -0.41545272314E+03  0.14955794765E+04  0.11733741051E+03  0.15566396544E+04  0.10100000352E+00 0.  1.
       -3    1    3    3    0  502  0.41545272314E+03 -0.14955794765E+04  0.12590898806E+04  0.19986661235E+04  0.10100000352E+00 0. -1.
</event>
<event>
 5   0  0.2933506E-07  0.3458448E+04  0.7818609E-02  0.8123708E-01
       -1   -1    0    0    0  501  0.00000000000E+00  0.00000000000E+00  0.14917384275E+04  0.14917384275E+04  0.50400001928E-02 0. -1.
        1   -1    0    0  501    0  0.00000000000E+00  0.00000000000E+00 -0.20045171048E+04  0.20045171048E+04  0.50400001928E-02 0.  1.
    10030    2    1    2    0    0  0.00000000000E+00  0.00000000000E+00 -0.51277867727E+03  0.34962555323E+04  0.34584477407E+04 0.  0.
        4    1    3    3  502    0 -0.12940065370E+04  0.23321547948E+03  0.87899632192E+03  0.15816063115E+04  0.12699999809E+01 0. -1.
       -4    1    3    3    0  502  0.12940065370E+04 -0.23321547948E+03 -0.13917749992E+04  0.19146492209E+04  0.12699999809E+01 0.  1.
</event>
<event>
 5   0  0.8950809E-07  0.3397612E+04  0.7818609E-02  0.8138493E-01
        2   -1    0    0  501    0  0.00000000000E+00  0.00000000000E+00  0.24906078875E+04  0.24906078875E+04  0.25500000920E-02 0. -1.
       -2   -1    0    0    0  501  0.00000000000E+00  0.00000000000E+00 -0.11587300502E+04  0.11587300502E+04  0.25500000920E-02 0.  1.
    10030    2    1    2    0    0  0.00000000000E+00  0.00000000000E+00  0.13318778373E+04  0.36493379377E+04  0.33976122218E+04 0.  0.
        2    1    3    3  502    0 -0.74161338536E+03 -0.51711703686E+03 -0.87886164106E+03  0.12608720107E+04  0.25500000920E-02 0.  1.
       -2    1    3    3    0  502  0.74161338536E+03  0.51711703686E+03  0.22107394784E+04  0.23884659270E+04  0.25500000920E-02 0. -1.
</event>
<event>
 5   0  0.9128871E-07  0.3497844E+04  0.7818609E-02  0.8114301E-01
       -2   -1    0    0    0  501  0.00000000000E+00  0.00000000000E+00  0.22265304786E+04  0.22265304786E+04  0.25500000920E-02 0.  1.
        2   -1    0    0  501    0  0.00000000000E+00  0.00000000000E+00 -0.13737646545E+04  0.13737646545E+04  0.25500000920E-02 0. -1.
    10030    2    1    2    0    0  0.00000000000E+00  0.00000000000E+00  0.85276582408E+03  0.36002951330E+04  0.34978444068E+04 0.  0.
        1    1    3    3  502    0 -0.98525496727E+03 -0.12322052582E+03  0.19082806175E+04  0.21511498236E+04  0.50400001928E-02 0.  1.
       -1    1    3    3    0  502  0.98525496727E+03  0.12322052582E+03 -0.10555147935E+04  0.14491453094E+04  0.50400001928E-02 0. -1.
</event>
<event>
 5   0  0.3061330E-07  0.3474642E+04  0.7818609E-02  0.8119826E-01
        1   -1    0    0  501    0  0.00000000000E+00  0.00000000000E+00  0.20252469880E+04  0.20252469880E+04  0.50400001928E-02 0. -1.
       -1   -1    0    0    0  501  0.00000000000E+00  0.00000000000E+00 -0.14903289237E+04  0.14903289237E+04  0.50400001928E-02 0.  1.
    10030    2    1    2    0    0  0.00000000000E+00  0.00000000000E+00  0.53491806433E+03  0.35155759117E+04  0.34746419464E+04 0.  0.
        5    1    3    3  502    0  0.14595583051E+02 -0.17366026681E+04  0.21935722305E+03  0.17504689483E+04  0.46999998093E+01 0. -1.
       -5    1    3    3    0  502 -0.14595583051E+02  0.17366026681E+04  0.31556084128E+03  0.17651069634E+04  0.46999998093E+01 0.  1.
</event>
<event>
 5   0  0.2936607E-07  0.3494801E+04  0.7818609E-02  0.8115023E-01
        1   -1    0    0  501    0  0.00000000000E+00  0.00000000000E+00  0.18594363437E+04  0.18594363437E+04  0.50400001928E-02 0. -1.
       -1   -1    0    0    0  501  0.00000000000E+00  0.00000000000E+00 -0.16421154275E+04  0.16421154275E+04  0.50400001928E-02 0.  1.
    10030    2    1    2    0    0  0.00000000000E+00  0.00000000000E+00  0.21732091623E+03  0.35015517712E+04  0.34948013428E+04 0.  0.
        2    1    3    3  502    0  0.32915598355E+03 -0.23622890482E+03 -0.15944055150E+04  0.16450765038E+04  0.25500000920E-02 0.  1.
       -2    1    3    3    0  502 -0.32915598355E+03  0.23622890482E+03  0.18117264312E+04  0.18564752674E+04  0.25500000920E-02 0. -1.
</event>
<event>
 5   0  0.2972541E-07  0.3562131E+04  0.7818609E-02  0.8099221E-01
       -1   -1    0    0    0  501  0.00000000000E+00  0.00000000000E+00  0.14578868969E+04  0.14578868969E+04  0.50400001928E-02 0. -1.
        1   -1    0    0  501    0  0.00000000000E+00  0.00000000000E+00 -0.21758853212E+04  0.21758853212E+04  0.50400001928E-02 0.  1.
    10030    2    1    2    0    0  0.00000000000E+00  0.00000000000E+00 -0.71799842430E+03  0.36337722181E+04  0.35621312154E+04 0.  0.
        3    1    3    3  502    0 -0.12776498704E+02 -0.23966827237E+03  0.14413148309E+04  0.14611613777E+04  0.10100000352E+00 0. -1.
       -3    1    3    3    0  502  0.12776498704E+02  0.23966827237E+03 -0.21593132552E+04  0.21726108404E+04  0.10100000352E+00 0.  1.
</event>
<event>
 5   0  0.8950809E-07  0.3501518E+04  0.7818609E-02  0.8113430E-01
       -2   -1    0    0    0  501  0.00000000000E+00  0.00000000000E+00  0.15700797469E+04  0.15700797469E+04  0.25500000920E-02 0. -1.
        2   -1    0    0  501    0  0.00000000000E+00  0.00000000000E+00 -0.19522301419E+04  0.19522301419E+04  0.25500000920E-02 0.  1.
    10030    2    1    2    0    0  0.00000000000E+00  0.00000000000E+00 -0.38215039498E+03  0.35223098888E+04  0.35015179606E+04 0.  0.
        2    1    3    3  502    0  0.11014635124E+04  0.11607259984E+04  0.52353049141E+03  0.16836243310E+04  0.25500000920E-02 0.  1.
       -2    1    3    3    0  502 -0.11014635124E+04 -0.11607259984E+04 -0.90568088639E+03  0.18386855578E+04  0.25500000920E-02 0. -1.
</event>
<event>
 5   0  0.9128871E-07  0.3552550E+04  0.7818609E-02  0.8101448E-01
        2   -1    0    0  501    0  0.00000000000E+00  0.00000000000E+00  0.20134925019E+04  0.20134925019E+04  0.25500000920E-02 0. -1.
       -2   -1    0    0    0  501  0.00000000000E+00  0.00000000000E+00 -0.15670050649E+04  0.15670050649E+04  0.25500000920E-02 0.  1.
    10030    2    1    2    0    0  0.00000000000E+00  0.00000000000E+00  0.44648743704E+03  0.35804975669E+04  0.35525500411E+04 0.  0.
        1    1    3    3  502    0 -0.58814889161E+03 -0.12885947419E+04 -0.85698904126E+03  0.16555439422E+04  0.50400001928E-02 0.  1.
       -1    1    3    3    0  502  0.58814889161E+03  0.12885947419E+04  0.13034764783E+04  0.19249536247E+04  0.50400001928E-02 0. -1.
</event>
<event>
 5   0  0.2933506E-07  0.2901793E+04  0.7818609E-02  0.8272344E-01
        1   -1    0    0  501    0  0.00000000000E+00  0.00000000000E+00  0.14589958827E+04  0.14589958827E+04  0.50400001928E-02 0. -1.
       -1   -1    0    0    0  501  0.00000000000E+00  0.00000000000E+00 -0.14428417976E+04  0.14428417977E+04  0.50400001928E-02 0.  1.
    10030    2    1    2    0    0  0.00000000000E+00  0.00000000000E+00  0.16154085025E+02  0.29018376803E+04  0.29017927163E+04 0.  0.
        4    1    3    3  502    0  0.96716890407E+03  0.75496797000E+03  0.78249610857E+03  0.14552299123E+04  0.12699999809E+01 0. -1.
       -4    1    3    3    0  502 -0.96716890407E+03 -0.75496797000E+03 -0.76634202354E+03  0.14466077681E+04  0.12699999809E+01 0.  1.
</event>
<event>
 5   0  0.8950809E-07  0.3483509E+04  0.7818609E-02  0.8117709E-01
        2   -1    0    0  501    0  0.00000000000E+00  0.00000000000E+00  0.24955668478E+04  0.24955668478E+04  0.25500000920E-02 0. -1.
       -2   -1    0    0    0  501  0.00000000000E+00  0.00000000000E+00 -0.12156393939E+04  0.12156393939E+04  0.25500000920E-02 0.  1.
    10030    2    1    2    0    0  0.00000000000E+00  0.00000000000E+00  0.12799274539E+04  0.37112062417E+04  0.34835093629E+04 0.  0.
        2    1    3    3  502    0 -0.92923283346E+03 -0.25763602640E+03  0.21852411627E+04  0.23885411699E+04  0.25500000920E-02 0. -1.
       -2    1    3    3    0  502  0.92923283346E+03  0.25763602640E+03 -0.90531370881E+03  0.13226650718E+04  0.25500000920E-02 0.  1.
</event>
<event>
 5   0  0.2936607E-07  0.3084298E+04  0.7818609E-02  0.8220060E-01
       -1   -1    0    0    0  501  0.00000000000E+00  0.00000000000E+00  0.86225335984E+03  0.86225335985E+03  0.50400001928E-02 0.  1.
        1   -1    0    0  501    0  0.00000000000E+00  0.00000000000E+00 -0.27581497396E+04  0.27581497396E+04  0.50400001928E-02 0. -1.
    10030    2    1    2    0    0  0.00000000000E+00  0.00000000000E+00 -0.18958963798E+04  0.36204030995E+04  0.30842982216E+04 0.  0.
        2    1    3    3  502    0 -0.12536858756E+04  0.61105792632E+03 -0.17545160234E+03  0.14056682855E+04  0.25500000920E-02 0.  1.
       -2    1    3    3    0  502  0.12536858756E+04 -0.61105792632E+03 -0.17204447774E+04  0.22147348140E+04  0.25500000920E-02 0. -1.
</event>
<event>
 5   0  0.3061330E-07  0.3507987E+04  0.7818609E-02  0.8111900E-01
        1   -1    0    0  501    0  0.00000000000E+00  0.00000000000E+00  0.13739970693E+04  0.13739970693E+04  0.50400001928E-02 0.  1.
       -1   -1    0    0    0  501  0.00000000000E+00  0.00000000000E+00 -0.22390828068E+04  0.22390828068E+04  0.50400001928E-02 0. -1.
    10030    2    1    2    0    0  0.00000000000E+00  0.00000000000E+00 -0.86508573753E+03  0.36130798761E+04  0.35079870094E+04 0.  0.
        5    1    3    3  502    0  0.86448413884E+03 -0.23031443782E+03  0.11213269852E+04  0.14344942887E+04  0.46999998093E+01 0.  1.
       -5    1    3    3    0  502 -0.86448413884E+03  0.23031443782E+03 -0.19864127228E+04  0.21785855874E+04  0.46999998093E+01 0. -1.
</event>
<event>
 5   0  0.3026332E-07  0.3492248E+04  0.7818609E-02  0.8115629E-01
       -1   -1    0    0    0  501  0.00000000000E+00  0.00000000000E+00  0.31333178081E+04  0.31333178081E+04  0.50400001928E-02 0.  1.
        1   -1    0    0  501    0  0.00000000000E+00  0.00000000000E+00 -0.97307381826E+03  0.97307381828E+03  0.50400001928E-02 0. -1.
    10030    2    1    2    0    0  0.00000000000E+00  0.00000000000E+00  0.21602439898E+04  0.41063916264E+04  0.34922482864E+04 0.  0.
        1    1    3    3  502    0 -0.42935218977E+03  0.55114752553E+03 -0.80156202968E+03  0.10633007971E+04  0.50400001928E-02 0. -1.
       -1    1    3    3    0  502  0.42935218977E+03 -0.55114752553E+03  0.29618060195E+04  0.30430908292E+04  0.50400001928E-02 0.  1.
</event>
<event>
 5   0  0.8845195E-07  0.2889386E+04  0.7818609E-02  0.8276042E-01
       -2   -1    0    0    0  501  0.00000000000E+00  0.00000000000E+00  0.16708321661E+04  0.16708321661E+04  0.25500000920E-02 0.  1.
        2   -1    0    0  501    0  0.00000000000E+00  0.00000000000E+00 -0.12491607857E+04  0.12491607857E+04  0.25500000920E-02 0. -1.
    10030    2    1    2    0    0  0.00000000000E+00  0.00000000000E+00  0.42167138046E+03  0.29199929518E+04  0.28893861087E+04 0.  0.
        5    1    3    3  502    0 -0.11711374365E+04  0.24184110438E+03 -0.60834685985E+03  0.13416996709E+04  0.46999998093E+01 0. -1.
       -5    1    3    3    0  502  0.11711374365E+04 -0.24184110438E+03  0.10300182403E+04  0.15782932809E+04  0.46999998093E+01 0.  1.
</event>
<event>
 5   0  0.8950809E-07  0.3548379E+04  0.7818609E-02  0.8102419E-01
        2   -1    0    0  501    0  0.00000000000E+00  0.00000000000E+00  0.18859162175E+04  0.18859162175E+04  0.25500000920E-02 0. -1.
       -2   -1    0    0    0  501  0.00000000000E+00  0.00000000000E+00 -0.16690819311E+04  0.16690819311E+04  0.25500000920E-02 0.  1.
    10030    2    1    2    0    0  0.00000000000E+00  0.00000000000E+00  0.21683428644E+03  0.35549981486E+04  0.35483791693E+04 0.  0.
        2    1    3    3  502    0  0.52903504557E+03  0.15561863321E+04  0.77761123079E+03  0.18183160358E+04  0.25500000920E-02 0. -1.
       -2    1    3    3    0  502 -0.52903504557E+03 -0.15561863321E+04 -0.56077694435E+03  0.17366821128E+04  0.25500000920E-02 0.  1.
</event>
<event>
 5   0  0.3061330E-07  0.3444332E+04  0.7818609E-02  0.8127111E-01
        1   -1    0    0  501    0  0.00000000000E+00  0.00000000000E+00  0.18953047835E+04  0.18953047835E+04  0.50400001928E-02 0.  1.
       -1   -1    0    0    0  501  0.00000000000E+00  0.00000000000E+00 -0.15648433878E+04  0.15648433878E+04  0.50400001928E-02 0. -1.
    10030    2    1    2    0    0  0.00000000000E+00  0.00000000000E+00  0.33046139569E+03  0.34601481712E+04  0.34443316671E+04 0.  0.
        5    1    3    3  502    0 -0.53605944016E+03 -0.11987782565E+03 -0.14744723710E+04  0.15734742703E+04  0.46999998093E+01 0. -1.
       -5    1    3    3    0  502  0.53605944016E+03  0.11987782565E+03  0.18049337667E+04  0.18866739009E+04  0.46999998093E+01 0.  1.
</event>
<event>
 5   0  0.3061330E-07  0.3457618E+04  0.7818609E-02  0.8123908E-01
        1   -1    0    0  501    0  0.00000000000E+00  0.00000000000E+00  0.21874601355E+04  0.21874601355E+04  0.50400001928E-02 0. -1.
       -1   -1    0    0    0  501  0.00000000000E+00  0.00000000000E+00 -0.13663243891E+04  0.13663243891E+04  0.50400001928E-02 0.  1.
    10030    2    1    2    0    0  0.00000000000E+00  0.00000000000E+00  0.82113574640E+03  0.35537845247E+04  0.34576177541E+04 0.  0.
        5    1    3    3  502    0  0.96168122242E+02 -0.16968216997E+04  0.85048189855E+02  0.17016778406E+04  0.46999998093E+01 0.  1.
       -5    1    3    3    0  502 -0.96168122242E+02  0.16968216997E+04  0.73608755655E+03  0.18521066841E+04  0.46999998093E+01 0. -1.
</event>
<event>
 5   0  0.8845195E-07  0.3503948E+04  0.7818609E-02  0.8112855E-01
        2   -1    0    0  501    0  0.00000000000E+00  0.00000000000E+00  0.13649312287E+04  0.13649312287E+04  0.25500000920E-02 0. -1.
       -2   -1    0    0    0  501  0.00000000000E+00  0.00000000000E+00 -0.22487670278E+04  0.22487670278E+04  0.25500000920E-02 0.  1.
    10030    2    1    2    0    0  0.00000000000E+00  0.00000000000E+00 -0.88383579908E+03  0.36136982564E+04  0.35039476835E+04 0.  0.
        5    1    3    3  502    0 -0.42334765040E+03 -0.12111754727E+04  0.78843711486E+03  0.15059297569E+04  0.46999998093E+01 0.  1.
       -5    1    3    3    0  502  0.42334765040E+03  0.12111754727E+04 -0.16722729139E+04  0.21077684995E+04  0.46999998093E+01 0. -1.
</event>
<event>
 5   0  0.2933506E-07  0.3491102E+04  0.7818609E-02  0.8115902E-01
       -1   -1    0    0    0  501  0.00000000000E+00  0.00000000000E+00  0.24094162732E+04  0.24094162732E+04  0.50400001928E-02 0.  1.
        1   -1    0    0  501    0  0.00000000000E+00  0.00000000000E+00 -0.12646004935E+04  0.12646004935E+04  0.50400001928E-02 0. -1.
    10030    2    1    2    0    0  0.00000000000E+00  0.00000000000E+00  0.11448157796E+04  0.36740167667E+04  0.34911024094E+04 0.  0.
        4    1    3    3  502    0 -0.44425560831E+03 -0.17281208582E+03  0.23395910449E+04  0.23876588811E+04  0.12699999809E+01 0.  1.
       -4    1    3    3    0  502  0.44425560831E+03  0.17281208582E+03 -0.11947752652E+04  0.12863578856E+04  0.12699999809E+01 0. -1.
</event>
<event>
 5   0  0.8950809E-07  0.3519335E+04  0.7818609E-02  0.8109223E-01
       -2   -1    0    0    0  501  0.00000000000E+00  0.00000000000E+00  0.12128766346E+04  0.12128766346E+04  0.25500000920E-02 0. -1.
        2   -1    0    0  501    0  0.00000000000E+00  0.00000000000E+00 -0.25529627239E+04  0.25529627239E+04  0.25500000920E-02 0.  1.
    10030    2    1    2    0    0  0.00000000000E+00  0.00000000000E+00 -0.13400860894E+04  0.37658393585E+04  0.35193345034E+04 0.  0.
        2    1    3    3  502    0 -0.14409773739E+04  0.84206302934E+03 -0.73362929733E+02  0.16705891346E+04  0.25500000920E-02 0. -1.
       -2    1    3    3    0  502  0.14409773739E+04 -0.84206302934E+03 -0.12667231596E+04  0.20952502238E+04  0.25500000920E-02 0.  1.
</event>
<event>
 5   0  0.3026332E-07  0.3481446E+04  0.7818609E-02  0.8118201E-01
       -1   -1    0    0    0  501  0.00000000000E+00  0.00000000000E+00  0.23383576036E+04  0.23383576036E+04  0.50400001928E-02 0. -1.
        1   -1    0    0  501    0  0.00000000000E+00  0.00000000000E+00 -0.12958312058E+04  0.12958312059E+04  0.50400001928E-02 0.  1.
    10030    2    1    2    0    0  0.00000000000E+00  0.00000000000E+00  0.10425263977E+04  0.36341888094E+04  0.34814461094E+04 0.  0.
        1    1    3    3  502    0  0.13030153823E+04 -0.11534081363E+04  0.47555468469E+03  0.18039821711E+04  0.50400001928E-02 0.  1.
       -1    1    3    3    0  502 -0.13030153823E+04  0.11534081363E+04  0.56697171306E+03  0.18302066383E+04  0.50400001928E-02 0. -1.
</event>
<event>
 5   0  0.2907000E-07  0.3525723E+04  0.7818609E-02  0.8107721E-01
       -3   -1    0    0    0  501  0.00000000000E+00  0.00000000000E+00  0.13300927634E+04  0.13300927672E+04  0.10100000352E+00 0.  1.
        3   -1    0    0  501    0  0.00000000000E+00  0.00000000000E+00 -0.23364389412E+04  0.23364389434E+04  0.10100000352E+00 0. -1.
    10030    2    1    2    0    0  0.00000000000E+00  0.00000000000E+00 -0.10063461778E+04  0.36665317106E+04  0.35257229266E+04 0.  0.
        3    1    3    3  502    0  0.10676909636E+04  0.17990614636E+03  0.94355548530E+03  0.14361849391E+04  0.10100000352E+00 0.  1.
       -3    1    3    3    0  502 -0.10676909636E+04 -0.17990614636E+03 -0.19499016631E+04  0.22303467715E+04  0.10100000352E+00 0. -1.
</event>
<event>
 5   0  0.8845195E-07  0.3546339E+04  0.7818609E-02  0.8102895E-01
       -2   -1    0    0    0  501  0.00000000000E+00  0.00000000000E+00  0.21464516783E+04  0.21464516783E+04  0.25500000920E-02 0. -1.
        2   -1    0    0  501    0  0.00000000000E+00  0.00000000000E+00 -0.14648035284E+04  0.14648035284E+04  0.25500000920E-02 0.  1.
    10030    2    1    2    0    0  0.00000000000E+00  0.00000000000E+00  0.68164814990E+03  0.36112552067E+04  0.35463389527E+04 0.  0.
        5    1    3    3  502    0  0.16699531661E+04  0.24525500468E+03  0.89410620006E+03  0.19100632401E+04  0.46999998093E+01 0.  1.
       -5    1    3    3    0  502 -0.16699531661E+04 -0.24525500468E+03 -0.21245805016E+03  0.17011919666E+04  0.46999998093E+01 0. -1.
</event>
<event>
 5   0  0.2972541E-07  0.3488966E+04  0.7818609E-02  0.8116410E-01
        1   -1    0    0  501    0  0.00000000000E+00  0.00000000000E+00  0.26798213436E+04  0.26798213436E+04  0.50400001928E-02 0.  1.
       -1   -1    0    0    0  501  0.00000000000E+00  0.00000000000E+00 -0.11356062242E+04  0.11356062242E+04  0.50400001928E-02 0. -1.
    10030    2    1    2    0    0  0.00000000000E+00  0.00000000000E+00  0.15442151194E+04  0.38154275678E+04  0.34889664932E+04 0.  0.
        3    1    3    3  502    0  0.12033242065E+04 -0.11962479874E+04  0.12152710016E+04  0.20870749892E+04  0.10100000352E+00 0.  1.
       -3    1    3    3    0  502 -0.12033242065E+04  0.11962479874E+04  0.32894411789E+03  0.17283525786E+04  0.10100000352E+00 0. -1.
</event>
<event>
 5   0  0.3061330E-07  0.3524887E+04  0.7818609E-02  0.8107917E-01
       -1   -1    0    0    0  501  0.00000000000E+00  0.00000000000E+00  0.12147885735E+04  0.12147885735E+04  0.50400001928E-02 0. -1.
        1   -1    0    0  501    0  0.00000000000E+00  0.00000000000E+00 -0.25569942386E+04  0.25569942386E+04  0.50400001928E-02 0.  1.
    10030    2    1    2    0    0  0.00000000000E+00  0.00000000000E+00 -0.13422056651E+04  0.37717828121E+04  0.35248871662E+04 0.  0.
        5    1    3    3  502    0 -0.57427493953E+03  0.34430246024E+03 -0.24155854343E+04  0.25066732875E+04  0.46999998093E+01 0.  1.
       -5    1    3    3    0  502  0.57427493953E+03 -0.34430246024E+03  0.10733797692E+04  0.12651095246E+04  0.46999998093E+01 0. -1.
</event>
<event>
 5   0  0.2972541E-07  0.2996818E+04  0.7818609E-02  0.8244640E-01
       -1   -1    0    0    0  501  0.00000000000E+00  0.00000000000E+00  0.10241846208E+04  0.10241846208E+04  0.50400001928E-02 0. -1.
        1   -1    0    0  501    0  0.00000000000E+00  0.00000000000E+00 -0.21922110948E+04  0.21922110948E+04  0.50400001928E-02 0.  1.
    10030    2    1    2    0    0  0.00000000000E+00  0.00000000000E+00 -0.11680264741E+04  0.32163957156E+04  0.29968175713E+04 0.  0.
        3    1    3    3  502    0 -0.12352629844E+04  0.70928516479E+03 -0.84891945233E+02  0.14269431447E+04  0.10100000352E+00 0.  1.
       -3    1    3    3    0  502  0.12352629844E+04 -0.70928516479E+03 -0.10831345288E+04  0.17894525709E+04  0.10100000352E+00 0. -1.
</event>
<event>
 5   0  0.8950809E-07  0.3473975E+04  0.7818609E-02  0.8119985E-01
        2   -1    0    0  501    0  0.00000000000E+00  0.00000000000E+00  0.15939811634E+04  0.15939811634E+04  0.25500000920E-02 0. -1.
       -2   -1    0    0    0  501  0.00000000000E+00  0.00000000000E+00 -0.18928239953E+04  0.18928239953E+04  0.25500000920E-02 0.  1.
    10030    2    1    2    0    0  0.00000000000E+00  0.00000000000E+00 -0.29884283195E+03  0.34868051587E+04  0.34739751260E+04 0.  0.
        2    1    3    3  502    0  0.24642161425E+03 -0.12570548568E+04  0.10280331586E+04  0.16424867428E+04  0.25500000920E-02 0. -1.
       -2    1    3    3    0  502 -0.24642161425E+03  0.12570548568E+04 -0.13268759905E+04  0.18443184159E+04  0.25500000920E-02 0.  1.
</event>
<event>
 5   0  0.3061330E-07  0.3508451E+04  0.7818609E-02  0.8111790E-01
        1   -1    0    0  501    0  0.00000000000E+00  0.00000000000E+00  0.14910335289E+04  0.14910335289E+04  0.50400001928E-02 0. -1.
       -1   -1    0    0    0  501  0.00000000000E+00  0.00000000000E+00 -0.20638750027E+04  0.20638750028E+04  0.50400001928E-02 0.  1.
    10030    2    1    2    0    0  0.00000000000E+00  0.00000000000E+00 -0.57284147385E+03  0.35549085317E+04  0.35084508425E+04 0.  0.
        5    1    3    3  502    0  0.13450077530E+04  0.22519764983E+03 -0.14044468855E+04  0.19576141043E+04  0.46999998093E+01 0.  1.
       -5    1    3    3    0  502 -0.13450077530E+04 -0.22519764983E+03  0.83160541163E+03  0.15972944274E+04  0.46999998093E+01 0. -1.
</event>
<event>
 5   0  0.3026332E-07  0.3500239E+04  0.7818609E-02  0.8113733E-01
       -1   -1    0    0    0  501  0.00000000000E+00  0.00000000000E+00  0.17775179162E+04  0.17775179162E+04  0.50400001928E-02 0.  1.
        1   -1    0    0  501    0  0.00000000000E+00  0.00000000000E+00 -0.17231431269E+04  0.17231431269E+04  0.50400001928E-02 0. -1.
    10030    2    1    2    0    0  0.00000000000E+00  0.00000000000E+00  0.54374789280E+02  0.35006610431E+04  0.35002387234E+04 0.  0.
        1    1    3    3  502    0  0.83065676638E+03 -0.15285284009E+04 -0.16395877818E+03  0.17473615015E+04  0.50400001928E-02 0. -1.
       -1    1    3    3    0  502 -0.83065676638E+03  0.15285284009E+04  0.21833356746E+03  0.17532995416E+04  0.50400001928E-02 0.  1.
</event>
<event>
 5   0  0.8950809E-07  0.3492221E+04  0.7818609E-02  0.8115636E-01
        2   -1    0    0  501    0  0.00000000000E+00  0.00000000000E+00  0.20225298842E+04  0.20225298842E+04  0.25500000920E-02 0.  1.
       -2   -1    0    0    0  501  0.00000000000E+00  0.00000000000E+00 -0.15074693536E+04  0.15074693536E+04  0.25500000920E-02 0. -1.
    10030    2    1    2    0    0  0.00000000000E+00  0.00000000000E+00  0.51506053063E+03  0.35299992378E+04  0.34922209650E+04 0.  0.
        2    1    3    3  502    0 -0.53463530234E+03 -0.16581306154E+04  0.13934766376E+03  0.17477556510E+04  0.25500000920E-02 0. -1.
       -2    1    3    3    0  502  0.53463530234E+03  0.16581306154E+04  0.37571286687E+03  0.17822435868E+04  0.25500000920E-02 0.  1.
</event>
<event>
 5   0  0.8845195E-07  0.3472982E+04  0.7818609E-02  0.8120223E-01
        2   -1    0    0  501    0  0.00000000000E+00  0.00000000000E+00  0.27563448283E+04  0.27563448283E+04  0.25500000920E-02 0.  1.
       -2   -1    0    0    0  501  0.00000000000E+00  0.00000000000E+00 -0.10939850957E+04  0.10939850957E+04  0.25500000920E-02 0. -1.
    10030    2    1    2    0    0  0.00000000000E+00  0.00000000000E+00  0.16623597326E+04  0.38503299241E+04  0.34729815207E+04 0.  0.
        5    1    3    3  502    0  0.28838447364E+03  0.13520169279E+04 -0.33383554940E+03  0.14221756720E+04  0.46999998093E+01 0. -1.
       -5    1    3    3    0  502 -0.28838447364E+03 -0.13520169279E+04  0.19961952820E+04  0.24281542521E+04  0.46999998093E+01 0.  1.
</event>
<event>
 5   0  0.2907000E-07  0.3007547E+04  0.7818609E-02  0.8241579E-01
        4   -1    0    0  501    0  0.00000000000E+00  0.00000000000E+00  0.11910916643E+04  0.11910923414E+04  0.12699999809E+01 0.  1.
       -4   -1    0    0    0  501  0.00000000000E+00  0.00000000000E+00 -0.18985385351E+04  0.18985389599E+04  0.12699999809E+01 0. -1.
    10030    2    1    2    0    0  0.00000000000E+00  0.00000000000E+00 -0.70744687082E+03  0.30896313013E+04  0.30075472570E+04 0.  0.
        3    1    3    3  502    0  0.88773495550E+03  0.11992047371E+04 -0.54637782831E+03  0.15889285995E+04  0.10100000352E+00 0.  1.
       -3    1    3    3    0  502 -0.88773495550E+03 -0.11992047371E+04 -0.16106904251E+03  0.15007027019E+04  0.10100000352E+00 0. -1.
</event>
<event>
 5   0  0.2936607E-07  0.3499488E+04  0.7818609E-02  0.8113911E-01
       -1   -1    0    0    0  501  0.00000000000E+00  0.00000000000E+00  0.12942710917E+04  0.12942710917E+04  0.50400001928E-02 0. -1.
        1   -1    0    0  501    0  0.00000000000E+00  0.00000000000E+00 -0.23655048393E+04  0.23655048393E+04  0.50400001928E-02 0.  1.
    10030    2    1    2    0    0  0.00000000000E+00  0.00000000000E+00 -0.10712337476E+04  0.36597759310E+04  0.34994882659E+04 0.  0.
        2    1    3    3  502    0 -0.15813898019E+04 -0.45628520492E+03 -0.11566290607E+04  0.20116611737E+04  0.25500000920E-02 0.  1.
       -2    1    3    3    0  502  0.15813898019E+04  0.45628520492E+03  0.85395313181E+02  0.16481147573E+04  0.25500000920E-02 0. -1.
</event>
<event>
 5   0  0.2933506E-07  0.3484650E+04  0.7818609E-02  0.8117437E-01
       -1   -1    0    0    0  501  0.00000000000E+00  0.00000000000E+00  0.13621336316E+04  0.13621336317E+04  0.50400001928E-02 0.  1.
        1   -1    0    0  501    0  0.00000000000E+00  0.00000000000E+00 -0.22286331297E+04  0.22286331297E+04  0.50400001928E-02 0. -1.
    10030    2    1    2    0    0  0.00000000000E+00  0.00000000000E+00 -0.86649949808E+03  0.35907667614E+04  0.34846498468E+04 0.  0.
        4    1    3    3  502    0 -0.10438944853E+04 -0.10592327902E+04 -0.13686401369E+04  0.20211054494E+04  0.12699999809E+01 0. -1.
       -4    1    3    3    0  502  0.10438944853E+04  0.10592327902E+04  0.50214063881E+03  0.15696613120E+04  0.12699999809E+01 0.  1.
</event>
<event>
 5   0  0.3061330E-07  0.3506538E+04  0.7818609E-02  0.8112242E-01
       -1   -1    0    0    0  501  0.00000000000E+00  0.00000000000E+00  0.23080151163E+04  0.23080151163E+04  0.50400001928E-02 0.  1.
        1   -1    0    0  501    0  0.00000000000E+00  0.00000000000E+00 -0.13318595213E+04  0.13318595213E+04  0.50400001928E-02 0. -1.
    10030    2    1    2    0    0  0.00000000000E+00  0.00000000000E+00  0.97615559498E+03  0.36398746376E+04  0.35065378412E+04 0.  0.
        5    1    3    3  502    0 -0.11628098670E+04 -0.55808692808E+03  0.17208139073E+04  0.21505372352E+04  0.46999998093E+01 0.  1.
       -5    1    3    3    0  502  0.11628098670E+04  0.55808692808E+03 -0.74465831237E+03  0.14893374024E+04  0.46999998093E+01 0. -1.
</event>
<event>
 5   0  0.2972541E-07  0.3489308E+04  0.7818609E-02  0.8116328E-01
       -1   -1    0    0    0  501  0.00000000000E+00  0.00000000000E+00  0.17226682604E+04  0.17226682604E+04  0.50400001928E-02 0.  1.
        1   -1    0    0  501    0  0.00000000000E+00  0.00000000000E+00 -0.17669204122E+04  0.17669204122E+04  0.50400001928E-02 0. -1.
    10030    2    1    2    0    0  0.00000000000E+00  0.00000000000E+00 -0.44252151772E+02  0.34895886726E+04  0.34893080763E+04 0.  0.
        3    1    3    3  502    0  0.43412837962E+03 -0.12190724697E+04 -0.11923537411E+04  0.17596342206E+04  0.10100000352E+00 0. -1.
       -3    1    3    3    0  502 -0.43412837962E+03  0.12190724697E+04  0.11481015894E+04  0.17299544520E+04  0.10100000352E+00 0.  1.
</event>
<event>
 5   0  0.6188930E-07  0.3593376E+04  0.7818609E-02  0.8092011E-01
        2   -1    0    0  501    0  0.00000000000E+00  0.00000000000E+00  0.15526894022E+04  0.15526894022E+04  0.25500000920E-02 0.  1.
       -2   -1    0    0    0  501  0.00000000000E+00  0.00000000000E+00 -0.20790301686E+04  0.20790301686E+04  0.25500000920E-02 0. -1.
    10030    2    1    2    0    0  0.00000000000E+00  0.00000000000E+00 -0.52634076644E+03  0.36317195708E+04  0.35933761894E+04 0.  0.
        3    1    3    3  502    0 -0.81781324339E+02  0.17770751647E+04 -0.51765830364E+03  0.18527424148E+04  0.10100000352E+00 0.  1.
       -3    1    3    3    0  502  0.81781324339E+02 -0.17770751647E+04 -0.86824627968E+01  0.17789771560E+04  0.10100000352E+00 0. -1.
</event>
<event>
 5   0  0.3061330E-07  0.3406553E+04  0.7818609E-02  0.8136300E-01
       -1   -1    0    0    0  501  0.00000000000E+00  0.00000000000E+00  0.17232599855E+04  0.17232599855E+04  0.50400001928E-02 0.  1.
        1   -1    0    0  501    0  0.00000000000E+00  0.00000000000E+00 -0.16835249534E+04  0.16835249534E+04  0.50400001928E-02 0. -1.
    10030    2    1    2    0    0  0.00000000000E+00  0.00000000000E+00  0.39735032151E+02  0.34067849389E+04  0.34065532063E+04 0.  0.
        5    1    3    3  502    0 -0.32824088591E+03  0.13756059312E+04  0.96919250716E+03  0.17144649204E+04  0.46999998093E+01 0.  1.
       -5    1    3    3    0  502  0.32824088591E+03 -0.13756059312E+04 -0.92945747501E+03  0.16923200185E+04  0.46999998093E+01 0. -1.
</event>
<event>
 5   0  0.9128871E-07  0.3537615E+04  0.7818609E-02  0.8104933E-01
        2   -1    0    0  501    0  0.00000000000E+00  0.00000000000E+00  0.18006430708E+04  0.18006430708E+04  0.25500000920E-02 0.  1.
       -2   -1    0    0    0  501  0.00000000000E+00  0.00000000000E+00 -0.17375351542E+04  0.17375351542E+04  0.25500000920E-02 0. -1.
    10030    2    1    2    0    0  0.00000000000E+00  0.00000000000E+00  0.63107916606E+02  0.35381782250E+04  0.35376153752E+04 0.  0.
        1    1    3    3  502    0 -0.57611243045E+02 -0.15729005011E+04 -0.77563429366E+03  0.17546918816E+04  0.50400001928E-02 0. -1.
       -1    1    3    3    0  502  0.57611243045E+02  0.15729005011E+04  0.83874221027E+03  0.17834863434E+04  0.50400001928E-02 0.  1.
</event>
<event>
 5   0  0.2972541E-07  0.3466849E+04  0.7818609E-02  0.8121692E-01
       -1   -1    0    0    0  501  0.00000000000E+00  0.00000000000E+00  0.14234553561E+04  0.14234553562E+04  0.50400001928E-02 0.  1.
        1   -1    0    0  501    0  0.00000000000E+00  0.00000000000E+00 -0.21108919440E+04  0.21108919440E+04  0.50400001928E-02 0. -1.
    10030    2    1    2    0    0  0.00000000000E+00  0.00000000000E+00 -0.68743658782E+03  0.35343473001E+04  0.34668489693E+04 0.  0.
        3    1    3    3  502    0 -0.68059902733E+02 -0.15482046627E+04 -0.11354929296E+04  0.19211751693E+04  0.10100000352E+00 0. -1.
       -3    1    3    3    0  502  0.68059902733E+02  0.15482046627E+04  0.44805634179E+03  0.16131721308E+04  0.10100000352E+00 0.  1.
</event>
<event>
 5   0  0.2936607E-07  0.3541057E+04  0.7818609E-02  0.8104128E-01
       -1   -1    0    0    0  501  0.00000000000E+00  0.00000000000E+00  0.19165696173E+04  0.19165696173E+04  0.50400001928E-02 0.  1.
        1   -1    0    0  501    0  0.00000000000E+00  0.00000000000E+00 -0.16356160014E+04  0.16356160014E+04  0.50400001928E-02 0. -1.
    10030    2    1    2    0    0  0.00000000000E+00  0.00000000000E+00  0.28095361585E+03  0.35521856187E+04  0.35410574319E+04 0.  0.
        2    1    3    3  502    0 -0.10446564955E+04 -0.81344076923E+02 -0.12911900746E+04  0.16628577393E+04  0.25500000920E-02 0. -1.
       -2    1    3    3    0  502  0.10446564955E+04  0.81344076923E+02  0.15721436905E+04  0.18893278794E+04  0.25500000920E-02 0.  1.
</event>
<event>
 5   0  0.3061330E-07  0.3486440E+04  0.7818609E-02  0.8117011E-01
        1   -1    0    0  501    0  0.00000000000E+00  0.00000000000E+00  0.19307276624E+04  0.19307276624E+04  0.50400001928E-02 0.  1.
       -1   -1    0    0    0  501  0.00000000000E+00  0.00000000000E+00 -0.15739223334E+04  0.15739223334E+04  0.50400001928E-02 0. -1.
    10030    2    1    2    0    0  0.00000000000E+00  0.00000000000E+00  0.35680532902E+03  0.35046499959E+04  0.34864396669E+04 0.  0.
        5    1    3    3  502    0 -0.60926356318E+03 -0.41777386798E+03  0.17655912543E+04  0.19139152702E+04  0.46999998093E+01 0.  1.
       -5    1    3    3    0  502  0.60926356318E+03  0.41777386798E+03 -0.14087859253E+04  0.15907347257E+04  0.46999998093E+01 0. -1.
</event>
<event>
 5   0  0.9128871E-07  0.3499291E+04  0.7818609E-02  0.8113958E-01
       -2   -1    0    0    0  501  0.00000000000E+00  0.00000000000E+00  0.12423239418E+04  0.12423239418E+04  0.25500000920E-02 0. -1.
        2   -1    0    0  501    0  0.00000000000E+00  0.00000000000E+00 -0.24641399529E+04  0.24641399529E+04  0.25500000920E-02 0.  1.
    10030    2    1    2    0    0  0.00000000000E+00  0.00000000000E+00 -0.12218160110E+04  0.37064638947E+04  0.34992913908E+04 0.  0.
        1    1    3    3  502    0 -0.69266151209E+03  0.98157186374E+03 -0.19582209743E+04  0.22973664658E+04  0.50400001928E-02 0.  1.
       -1    1    3    3    0  502  0.69266151209E+03 -0.98157186374E+03  0.73640496330E+03  0.14090974289E+04  0.50400001928E-02 0. -1.
</event>
<event>
 5   0  0.6188930E-07  0.3593349E+04  0.7818609E-02  0.8092017E-01
        2   -1    0    0  501    0  0.00000000000E+00  0.00000000000E+00  0.29601418959E+04  0.29601418959E+04  0.25500000920E-02 0. -1.
       -2   -1    0    0    0  501  0.00000000000E+00  0.00000000000E+00 -0.10905017655E+04  0.10905017656E+04  0.25500000920E-02 0.  1.
    10030    2    1    2    0    0  0.00000000000E+00  0.00000000000E+00  0.18696401304E+04  0.40506436615E+04  0.35933493923E+04 0.  0.
        3    1    3    3  502    0  0.95470106145E+03 -0.17684054558E+03 -0.76928929608E+03  0.12387625788E+04  0.10100000352E+00 0.  1.
       -3    1    3    3    0  502 -0.95470106145E+03  0.17684054558E+03  0.26389294264E+04  0.28118810827E+04  0.10100000352E+00 0. -1.
</event>
<event>
 5   0  0.9128871E-07  0.3561104E+04  0.7818609E-02  0.8099460E-01
       -2   -1    0    0    0  501  0.00000000000E+00  0.00000000000E+00  0.16484230924E+04  0.16484230924E+04  0.25500000920E-02 0. -1.
        2   -1    0    0  501    0  0.00000000000E+00  0.00000000000E+00 -0.19232719036E+04  0.19232719036E+04  0.25500000920E-02 0.  1.
    10030    2    1    2    0    0  0.00000000000E+00  0.00000000000E+00 -0.27484881121E+03  0.35716949960E+04  0.35611042213E+04 0.  0.
        1    1    3    3  502    0 -0.11897578720E+04 -0.56761154189E+03  0.10630727128E+04  0.16934669318E+04  0.50400001928E-02 0. -1.
       -1    1    3    3    0  502  0.11897578720E+04  0.56761154189E+03 -0.13379215240E+04  0.18782280641E+04  0.50400001928E-02 0.  1.
</event>
<event>
 5   0  0.6188930E-07  0.3410455E+04  0.7818609E-02  0.8135345E-01
        2   -1    0    0  501    0  0.00000000000E+00  0.00000000000E+00  0.19625699576E+04  0.19625699576E+04  0.25500000920E-02 0. -1.
       -2   -1    0    0    0  501  0.00000000000E+00  0.00000000000E+00 -0.14816293492E+04  0.14816293492E+04  0.25500000920E-02 0.  1.
    10030    2    1    2    0    0  0.00000000000E+00  0.00000000000E+00  0.48094060841E+03  0.34441993068E+04  0.34104552476E+04 0.  0.
        3    1    3    3  502    0 -0.13971103309E+04 -0.96967820386E+02  0.12229688512E+04  0.18592936445E+04  0.10100000352E+00 0. -1.
       -3    1    3    3    0  502  0.13971103309E+04  0.96967820386E+02 -0.74202824282E+03  0.15849056623E+04  0.10100000352E+00 0.  1.
</event>
<event>
 5   0  0.8950809E-07  0.3550258E+04  0.7818609E-02  0.8101982E-01
        2   -1    0    0  501    0  0.00000000000E+00  0.00000000000E+00  0.21375657205E+04  0.21375657205E+04  0.25500000920E-02 0. -1.
       -2   -1    0    0    0  501  0.00000000000E+00  0.00000000000E+00 -0.14741458254E+04  0.14741458254E+04  0.25500000920E-02 0.  1.
    10030    2    1    2    0    0  0.00000000000E+00  0.00000000000E+00  0.66341989504E+03  0.36117115459E+04  0.35502583474E+04 0.  0.
        2    1    3    3  502    0 -0.12546449123E+04 -0.11758432612E+04 -0.11676359602E+03  0.17234775798E+04  0.25500000920E-02 0.  1.
       -2    1    3    3    0  502  0.12546449123E+04  0.11758432612E+04  0.78018349107E+03  0.18882339661E+04  0.25500000920E-02 0. -1.
</event>
<event>
 5   0  0.9128871E-07  0.3512211E+04  0.7818609E-02  0.8110902E-01
       -2   -1    0    0    0  501  0.00000000000E+00  0.00000000000E+00  0.16316053293E+04  0.16316053293E+04  0.25500000920E-02 0. -1.
        2   -1    0    0  501    0  0.00000000000E+00  0.00000000000E+00 -0.18901051749E+04  0.18901051749E+04  0.25500000920E-02 0.  1.
    10030    2    1    2    0    0  0.00000000000E+00  0.00000000000E+00 -0.25849984568E+03  0.35217105042E+04  0.35122105155E+04 0.  0.
        1    1    3    3  502    0  0.54024007187E+03  0.67430309599E+03 -0.16622284561E+04  0.18733786165E+04  0.50400001928E-02 0.  1.
       -1    1    3    3    0  502 -0.54024007187E+03 -0.67430309599E+03  0.14037286104E+04  0.16483318877E+04  0.50400001928E-02 0. -1.
</event>
<event>
 5   0  0.3061330E-07  0.3450163E+04  0.7818609E-02  0.8125703E-01
       -1   -1    0    0    0  501  0.00000000000E+00  0.00000000000E+00  0.19404300061E+04  0.19404300061E+04  0.50400001928E-02 0. -1.
        1   -1    0    0  501    0  0.00000000000E+00  0.00000000000E+00 -0.15336323100E+04  0.15336323100E+04  0.50400001928E-02 0.  1.
    10030    2    1    2    0    0  0.00000000000E+00  0.00000000000E+00  0.40679769603E+03  0.34740623161E+04  0.34501629832E+04 0.  0.
        5    1    3    3  502    0  0.14474870922E+04 -0.89841189326E+03  0.47642511827E+03  0.17690013554E+04  0.46999998093E+01 0. -1.
       -5    1    3    3    0  502 -0.14474870922E+04  0.89841189326E+03 -0.69627422232E+02  0.17050609607E+04  0.46999998093E+01 0.  1.
</event>
<event>
 5   0  0.2972541E-07  0.3470059E+04  0.7818609E-02  0.8120922E-01
       -1   -1    0    0    0  501  0.00000000000E+00  0.00000000000E+00  0.14554756146E+04  0.14554756146E+04  0.50400001928E-02 0.  1.
        1   -1    0    0  501    0  0.00000000000E+00  0.00000000000E+00 -0.20682772159E+04  0.20682772159E+04  0.50400001928E-02 0. -1.
    10030    2    1    2    0    0  0.00000000000E+00  0.00000000000E+00 -0.61280160127E+03  0.35237528305E+04  0.34700588191E+04 0.  0.
        3    1    3    3  502    0 -0.12691021238E+04 -0.99357409073E+02 -0.15035553359E+04  0.19700687180E+04  0.10100000352E+00 0. -1.
       -3    1    3    3    0  502  0.12691021238E+04  0.99357409073E+02  0.89075373458E+03  0.15536841125E+04  0.10100000352E+00 0.  1.
</event>
<event>
 5   0  0.8950809E-07  0.3518717E+04  0.7818609E-02  0.8109369E-01
       -2   -1    0    0    0  501  0.00000000000E+00  0.00000000000E+00  0.15136762080E+04  0.15136762080E+04  0.25500000920E-02 0.  1.
        2   -1    0    0  501    0  0.00000000000E+00  0.00000000000E+00 -0.20449168719E+04  0.20449168719E+04  0.25500000920E-02 0. -1.
    10030    2    1    2    0    0  0.00000000000E+00  0.00000000000E+00 -0.53124066389E+03  0.35585930799E+04  0.35187168209E+04 0.  0.
        2    1    3    3  502    0 -0.99403945989E+03 -0.14248339296E+04  0.15151251277E+02  0.17373818622E+04  0.25500000920E-02 0.  1.
       -2    1    3    3    0  502  0.99403945989E+03  0.14248339296E+04 -0.54639191516E+03  0.18212112177E+04  0.25500000920E-02 0. -1.
</event>
<event>
 5   0  0.2972541E-07  0.3499218E+04  0.7818609E-02  0.8113975E-01
       -1   -1    0    0    0  501  0.00000000000E+00  0.00000000000E+00  0.34442068090E+04  0.34442068090E+04  0.50400001928E-02 0.  1.
        1   -1    0    0  501    0  0.00000000000E+00  0.00000000000E+00 -0.88877704415E+03  0.88877704416E+03  0.50400001928E-02 0. -1.
    10030    2    1    2    0    0  0.00000000000E+00  0.00000000000E+00  0.25554297649E+04  0.43329838532E+04  0.34992181682E+04 0.  0.
        3    1    3    3  502    0 -0.61996619727E+03  0.72928726041E+03 -0.53579942503E+03  0.10969498749E+04  0.10100000352E+00 0. -1.
       -3    1    3    3    0  502  0.61996619727E+03 -0.72928726041E+03  0.30912291899E+04  0.32360339783E+04  0.10100000352E+00 0.  1.
</event>
<event>
 5   0  0.2972541E-07  0.3480326E+04  0.7818609E-02  0.8118468E-01
        1   -1    0    0  501    0  0.00000000000E+00  0.00000000000E+00  0.13748328473E+04  0.13748328474E+04  0.50400001928E-02 0.  1.
       -1   -1    0    0    0  501  0.00000000000E+00  0.00000000000E+00 -0.22025712552E+04  0.22025712552E+04  0.50400001928E-02 0. -1.
    10030    2    1    2    0    0  0.00000000000E+00  0.00000000000E+00 -0.82773840783E+03  0.35774041025E+04  0.34803260251E+04 0.  0.
        3    1    3    3  502    0 -0.58513472779E+03 -0.58005332612E+03 -0.19893728674E+04  0.21532414929E+04  0.10100000352E+00 0. -1.
       -3    1    3    3    0  502  0.58513472779E+03  0.58005332612E+03  0.11616344596E+04  0.14241626097E+04  0.10100000352E+00 0.  1.
</event>
<event>
 5   0  0.8845195E-07  0.3512627E+04  0.7818609E-02  0.8110804E-01
        2   -1    0    0  501    0  0.00000000000E+00  0.00000000000E+00  0.15770328529E+04  0.15770328529E+04  0.25500000920E-02 0.  1.
       -2   -1    0    0    0  501  0.00000000000E+00  0.00000000000E+00 -0.19559751085E+04  0.19559751085E+04  0.25500000920E-02 0. -1.
    10030    2    1    2    0    0  0.00000000000E+00  0.00000000000E+00 -0.37894225559E+03  0.35330079615E+04  0.35126269404E+04 0.  0.
        5    1    3    3  502    0  0.16247162038E+04 -0.51660977440E+03 -0.61385115075E+03  0.18120219996E+04  0.46999998093E+01 0. -1.
       -5    1    3    3    0  502 -0.16247162038E+04  0.51660977440E+03  0.23490889516E+03  0.17209859618E+04  0.46999998093E+01 0.  1.
</event>
<event>
 5   0  0.6188930E-07  0.3513839E+04  0.7818609E-02  0.8110518E-01
        2   -1    0    0  501    0  0.00000000000E+00  0.00000000000E+00  0.21015377426E+04  0.21015377426E+04  0.25500000920E-02 0. -1.
       -2   -1    0    0    0  501  0.00000000000E+00  0.00000000000E+00 -0.14688130238E+04  0.14688130238E+04  0.25500000920E-02 0.  1.
    10030    2    1    2    0    0  0.00000000000E+00  0.00000000000E+00  0.63272471874E+03  0.35703507664E+04  0.35138389299E+04 0.  0.
        3    1    3    3  502    0 -0.35782650943E+02  0.13047216771E+03 -0.14635124356E+04  0.14697523750E+04  0.10100000352E+00 0.  1.
       -3    1    3    3    0  502  0.35782650943E+02 -0.13047216771E+03  0.20962371543E+04  0.21005983914E+04  0.10100000352E+00 0. -1.
</event>
<event>
 5   0  0.3061330E-07  0.3504351E+04  0.7818609E-02  0.8112760E-01
        1   -1    0    0  501    0  0.00000000000E+00  0.00000000000E+00  0.15191065947E+04  0.15191065947E+04  0.50400001928E-02 0.  1.
       -1   -1    0    0    0  501  0.00000000000E+00  0.00000000000E+00 -0.20210026934E+04  0.20210026934E+04  0.50400001928E-02 0. -1.
    10030    2    1    2    0    0  0.00000000000E+00  0.00000000000E+00 -0.50189609876E+03  0.35401092881E+04  0.35043507355E+04 0.  0.
        5    1    3    3  502    0  0.92783834013E+03  0.51718494177E+03  0.11567313897E+04  0.15704820430E+04  0.46999998093E+01 0.  1.
       -5    1    3    3    0  502 -0.92783834013E+03 -0.51718494177E+03 -0.16586274884E+04  0.19696272451E+04  0.46999998093E+01 0. -1.
</event>
<event>
 5   0  0.8950809E-07  0.3475489E+04  0.7818609E-02  0.8119623E-01
        2   -1    0    0  501    0  0.00000000000E+00  0.00000000000E+00  0.19676322969E+04  0.19676322969E+04  0.25500000920E-02 0.  1.
       -2   -1    0    0    0  501  0.00000000000E+00  0.00000000000E+00 -0.15347153306E+04  0.15347153306E+04  0.25500000920E-02 0. -1.
    10030    2    1    2    0    0  0.00000000000E+00  0.00000000000E+00  0.43291696635E+03  0.35023476275E+04  0.34754887145E+04 0.  0.
        2    1    3    3  502    0 -0.11478629087E+04 -0.12585789950E+02 -0.10982338776E+04  0.15886677781E+04  0.25500000920E-02 0. -1.
       -2    1    3    3    0  502  0.11478629087E+04  0.12585789950E+02  0.15311508440E+04  0.19136798494E+04  0.25500000920E-02 0.  1.
</event>
<event>
 5   0  0.3026332E-07  0.3310685E+04  0.7818609E-02  0.8160182E-01
        1   -1    0    0  501    0  0.00000000000E+00  0.00000000000E+00  0.19418672721E+04  0.19418672721E+04  0.50400001928E-02 0.  1.
       -1   -1    0    0    0  501  0.00000000000E+00  0.00000000000E+00 -0.14110944077E+04  0.14110944077E+04  0.50400001928E-02 0. -1.
    10030    2    1    2    0    0  0.00000000000E+00  0.00000000000E+00  0.53077286436E+03  0.33529616798E+04  0.33106845505E+04 0.  0.
        1    1    3    3  502    0  0.12488977630E+04 -0.70102736068E+03  0.11060300300E+04  0.18095544784E+04  0.50400001928E-02 0.  1.
       -1    1    3    3    0  502 -0.12488977630E+04  0.70102736068E+03 -0.57525716564E+03  0.15434072015E+04  0.50400001928E-02 0. -1.
</event>
<event>
 5   0  0.3061330E-07  0.3562589E+04  0.7818609E-02  0.8099115E-01
       -1   -1    0    0    0  501  0.00000000000E+00  0.00000000000E+00  0.11942167294E+04  0.11942167294E+04  0.50400001928E-02 0.  1.
        1   -1    0    0  501    0  0.00000000000E+00  0.00000000000E+00 -0.26569805115E+04  0.26569805115E+04  0.50400001928E-02 0. -1.
    10030    2    1    2    0    0  0.00000000000E+00  0.00000000000E+00 -0.14627637821E+04  0.38511972409E+04  0.35625892699E+04 0.  0.
        5    1    3    3  502    0 -0.61480017027E+03  0.12722904590E+04 -0.19038107823E+04  0.23709111848E+04  0.46999998093E+01 0. -1.
       -5    1    3    3    0  502  0.61480017027E+03 -0.12722904590E+04  0.44104700023E+03  0.14802860561E+04  0.46999998093E+01 0.  1.
</event>
<event>
 5   0  0.6188930E-07  0.3504133E+04  0.7818609E-02  0.8112811E-01
       -2   -1    0    0    0  501  0.00000000000E+00  0.00000000000E+00  0.13967500776E+04  0.13967500776E+04  0.25500000920E-02 0. -1.
        2   -1    0    0  501    0  0.00000000000E+00  0.00000000000E+00 -0.21977706184E+04  0.21977706184E+04  0.25500000920E-02 0.  1.
    10030    2    1    2    0    0  0.00000000000E+00  0.00000000000E+00 -0.80102054081E+03  0.35945206960E+04  0.35041325784E+04 0.  0.
        3    1    3    3  502    0  0.17316290298E+04  0.21964509220E+03 -0.24509912620E+03  0.17626277699E+04  0.10100000352E+00 0. -1.
       -3    1    3    3    0  502 -0.17316290298E+04 -0.21964509220E+03 -0.55592141462E+03  0.18318929261E+04  0.10100000352E+00 0.  1.
</event>
<event>
 5   0  0.8845195E-07  0.3492126E+04  0.7818609E-02  0.8115658E-01
        2   -1    0    0  501    0  0.00000000000E+00  0.00000000000E+00  0.19647632829E+04  0.19647632829E+04  0.25500000920E-02 0.  1.
       -2   -1    0    0    0  501  0.00000000000E+00  0.00000000000E+00 -0.15517069076E+04  0.15517069076E+04  0.25500000920E-02 0. -1.
    10030    2    1    2    0    0  0.00000000000E+00  0.00000000000E+00  0.41305637533E+03  0.35164701906E+04  0.34921264341E+04 0.  0.
        5    1    3    3  502    0  0.16655274365E+04  0.22219995375E+03 -0.27150230183E+03  0.17020840317E+04  0.46999998093E+01 0. -1.
       -5    1    3    3    0  502 -0.16655274365E+04 -0.22219995375E+03  0.68455867715E+03  0.18143861589E+04  0.46999998093E+01 0.  1.
</event>
<event>
 5   0  0.2972541E-07  0.3504261E+04  0.7818609E-02  0.8112781E-01
       -1   -1    0    0    0  501  0.00000000000E+00  0.00000000000E+00  0.13183881997E+04  0.13183881998E+04  0.50400001928E-02 0.  1.
        1   -1    0    0  501    0  0.00000000000E+00  0.00000000000E+00 -0.23285722406E+04  0.23285722406E+04  0.50400001928E-02 0. -1.
    10030    2    1    2    0    0  0.00000000000E+00  0.00000000000E+00 -0.10101840409E+04  0.36469604404E+04  0.35042614995E+04 0.  0.
        3    1    3    3  502    0 -0.92418626850E+03  0.71531726716E+03  0.85350333086E+03  0.14471582490E+04  0.10100000352E+00 0.  1.
       -3    1    3    3    0  502  0.92418626850E+03 -0.71531726716E+03 -0.18636873717E+04  0.21998021914E+04  0.10100000352E+00 0. -1.
</event>
<event>
 5   0  0.3061330E-07  0.3513099E+04  0.7818609E-02  0.8110693E-01
       -1   -1    0    0    0  501  0.00000000000E+00  0.00000000000E+00  0.20010236968E+04  0.20010236968E+04  0.50400001928E-02 0. -1.
        1   -1    0    0  501    0  0.00000000000E+00  0.00000000000E+00 -0.15419437067E+04  0.15419437067E+04  0.50400001928E-02 0.  1.
    10030    2    1    2    0    0  0.00000000000E+00  0.00000000000E+00  0.45907999015E+03  0.35429674035E+04  0.35130988578E+04 0.  0.
        5    1    3    3  502    0  0.71877720042E+03 -0.10521289608E+04 -0.98980020728E+03  0.16134876989E+04  0.46999998093E+01 0.  1.
       -5    1    3    3    0  502 -0.71877720042E+03  0.10521289608E+04  0.14488801974E+04  0.19294797046E+04  0.46999998093E+01 0. -1.
</event>
<event>
 5   0  0.2936607E-07  0.3506028E+04  0.7818609E-02  0.8112363E-01
       -1   -1    0    0    0  501  0.00000000000E+00  0.00000000000E+00  0.18728785262E+04  0.18728785262E+04  0.50400001928E-02 0. -1.
        1   -1    0    0  501    0  0.00000000000E+00  0.00000000000E+00 -0.16408210008E+04  0.16408210008E+04  0.50400001928E-02 0.  1.
    10030    2    1    2    0    0  0.00000000000E+00  0.00000000000E+00  0.23205752542E+03  0.35136995270E+04  0.35060281902E+04 0.  0.
        2    1    3    3  502    0 -0.56682786479E+03 -0.78574883062E+02 -0.15445791550E+04  0.16471771631E+04  0.25500000920E-02 0.  1.
       -2    1    3    3    0  502  0.56682786479E+03  0.78574883062E+02  0.17766366804E+04  0.18665223639E+04  0.25500000920E-02 0. -1.
</event>
<event>
 5   0  0.9311672E-07  0.3503343E+04  0.7818609E-02  0.8112998E-01
        2   -1    0    0  501    0  0.00000000000E+00  0.00000000000E+00  0.10254978472E+04  0.10254978472E+04  0.25500000920E-02 0. -1.
       -2   -1    0    0    0  501  0.00000000000E+00  0.00000000000E+00 -0.29920612931E+04  0.29920612931E+04  0.25500000920E-02 0.  1.
    10030    2    1    2    0    0  0.00000000000E+00  0.00000000000E+00 -0.19665634458E+04  0.40175591403E+04  0.35033426409E+04 0.  0.
        4    1    3    3  502    0 -0.16355349586E+04 -0.50381964185E+03 -0.55489886123E+03  0.17990895452E+04  0.12699999809E+01 0. -1.
       -4    1    3    3    0  502  0.16355349586E+04  0.50381964185E+03 -0.14116645846E+04  0.22184695952E+04  0.12699999809E+01 0.  1.
</event>
<event>
 5   0  0.2933506E-07  0.3410782E+04  0.7818609E-02  0.8135265E-01
        1   -1    0    0  501    0  0.00000000000E+00  0.00000000000E+00  0.19763694018E+04  0.19763694019E+04  0.50400001928E-02 0.  1.
       -1   -1    0    0    0  501  0.00000000000E+00  0.00000000000E+00 -0.14715660364E+04  0.14715660364E+04  0.50400001928E-02 0. -1.
    10030    2    1    2    0    0  0.00000000000E+00  0.00000000000E+00  0.50480336550E+03  0.34479354382E+04  0.34107817796E+04 0.  0.
        4    1    3    3  502    0  0.11893496893E+04 -0.92590576810E+03  0.10589031824E+04  0.18420455308E+04  0.12699999809E+01 0.  1.
       -4    1    3    3    0  502 -0.11893496893E+04  0.92590576810E+03 -0.55409981690E+03  0.16058899074E+04  0.12699999809E+01 0. -1.
</event>
<event>
 5   0  0.2972541E-07  0.3362640E+04  0.7818609E-02  0.8147137E-01
        1   -1    0    0  501    0  0.00000000000E+00  0.00000000000E+00  0.31755286490E+04  0.31755286490E+04  0.50400001928E-02 0.  1.
       -1   -1    0    0    0  501  0.00000000000E+00  0.00000000000E+00 -0.89019430638E+03  0.89019430640E+03  0.50400001928E-02 0. -1.
    10030    2    1    2    0    0  0.00000000000E+00  0.00000000000E+00  0.22853343426E+04  0.40657229554E+04  0.33626403454E+04 0.  0.
        3    1    3    3  502    0  0.16556864182E+04  0.22384243543E+03  0.91506788534E+03  0.19049283966E+04  0.10100000352E+00 0. -1.
       -3    1    3    3    0  502 -0.16556864182E+04 -0.22384243543E+03  0.13702664573E+04  0.21607945588E+04  0.10100000352E+00 0.  1.
</event>
<event>
 5   0  0.8845195E-07  0.3519375E+04  0.7818609E-02  0.8109214E-01
       -2   -1    0    0    0  501  0.00000000000E+00  0.00000000000E+00  0.18829719279E+04  0.18829719279E+04  0.25500000920E-02 0.  1.
        2   -1    0    0  501    0  0.00000000000E+00  0.00000000000E+00 -0.16444748090E+04  0.16444748090E+04  0.25500000920E-02 0. -1.
    10030    2    1    2    0    0  0.00000000000E+00  0.00000000000E+00  0.23849711884E+03  0.35274467369E+04  0.35193748885E+04 0.  0.
        5    1    3    3  502    0 -0.25051533023E+03  0.62387035261E+03  0.17491719214E+04  0.18739254650E+04  0.46999998093E+01 0.  1.
       -5    1    3    3    0  502  0.25051533023E+03 -0.62387035261E+03 -0.15106748026E+04  0.16535212719E+04  0.46999998093E+01 0. -1.
</event>
<event>
 5   0  0.9128871E-07  0.3034537E+04  0.7818609E-02  0.8233937E-01
       -2   -1    0    0    0  501  0.00000000000E+00  0.00000000000E+00  0.99899884346E+03  0.99899884346E+03  0.25500000920E-02 0.  1.
        2   -1    0    0  501    0  0.00000000000E+00  0.00000000000E+00 -0.23044106879E+04  0.23044106879E+04  0.25500000920E-02 0. -1.
    10030    2    1    2    0    0  0.00000000000E+00  0.00000000000E+00 -0.13054118445E+04  0.33034095314E+04  0.30345369413E+04 0.  0.
        1    1    3    3  502    0 -0.12056108947E+04  0.21779584799E+03  0.32168355645E+03  0.12666542430E+04  0.50400001928E-02 0.  1.
       -1    1    3    3    0  502  0.12056108947E+04 -0.21779584799E+03 -0.16270954009E+04  0.20367552883E+04  0.50400001928E-02 0. -1.
</event>
<event>
 5   0  0.6188930E-07  0.3434567E+04  0.7818609E-02  0.8129474E-01
        2   -1    0    0  501    0  0.00000000000E+00  0.00000000000E+00  0.24505048932E+04  0.24505048932E+04  0.25500000920E-02 0. -1.
       -2   -1    0    0    0  501  0.00000000000E+00  0.00000000000E+00 -0.12034510461E+04  0.12034510461E+04  0.25500000920E-02 0.  1.
    10030    2    1    2    0    0  0.00000000000E+00  0.00000000000E+00  0.12470538471E+04  0.36539559393E+04  0.34345670337E+04 0.  0.
        3    1    3    3  502    0  0.69588069200E+03  0.15645495207E+04  0.76222938809E+03  0.18743155525E+04  0.10100000352E+00 0.  1.
       -3    1    3    3    0  502 -0.69588069200E+03 -0.15645495207E+04  0.48482445896E+03  0.17796403868E+04  0.10100000352E+00 0. -1.
</event>
<event>
 5   0  0.6188930E-07  0.3540459E+04  0.7818609E-02  0.8104268E-01
       -2   -1    0    0    0  501  0.00000000000E+00  0.00000000000E+00  0.17491320717E+04  0.17491320717E+04  0.25500000920E-02 0. -1.
        2   -1    0    0  501    0  0.00000000000E+00  0.00000000000E+00 -0.17915813032E+04  0.17915813032E+04  0.25500000920E-02 0.  1.
    10030    2    1    2    0    0  0.00000000000E+00  0.00000000000E+00 -0.42449231519E+02  0.35407133750E+04  0.35404589062E+04 0.  0.
        3    1    3    3  502    0  0.93594679642E+03  0.10081561937E+03  0.14780669525E+04  0.17523818423E+04  0.10100000352E+00 0. -1.
       -3    1    3    3    0  502 -0.93594679642E+03 -0.10081561937E+03 -0.15205161840E+04  0.17883315327E+04  0.10100000352E+00 0.  1.
</event>
<event>
 5   0  0.2933506E-07  0.3499983E+04  0.7818609E-02  0.8113794E-01
       -1   -1    0    0    0  501  0.00000000000E+00  0.00000000000E+00  0.26181638976E+04  0.26181638976E+04  0.50400001928E-02 0.  1.
        1   -1    0    0  501    0  0.00000000000E+00  0.00000000000E+00 -0.11697013771E+04  0.11697013771E+04  0.50400001928E-02 0. -1.
    10030    2    1    2    0    0  0.00000000000E+00  0.00000000000E+00  0.14484625205E+04  0.37878652747E+04  0.34999828093E+04 0.  0.
        4    1    3    3  502    0 -0.12737189848E+04 -0.11172936615E+04  0.25030457623E+03  0.17127052204E+04  0.12699999809E+01 0.  1.
       -4    1    3    3    0  502  0.12737189848E+04  0.11172936615E+04  0.11981579443E+04  0.20751600542E+04  0.12699999809E+01 0. -1.
</event>
<event>
 5   0  0.9128871E-07  0.3455005E+04  0.7818609E-02  0.8124537E-01
       -2   -1    0    0    0  501  0.00000000000E+00  0.00000000000E+00  0.14073778148E+04  0.14073778148E+04  0.25500000920E-02 0.  1.
        2   -1    0    0  501    0  0.00000000000E+00  0.00000000000E+00 -0.21204432798E+04  0.21204432798E+04  0.25500000920E-02 0. -1.
    10030    2    1    2    0    0  0.00000000000E+00  0.00000000000E+00 -0.71306546502E+03  0.35278210946E+04  0.34550049664E+04 0.  0.
        1    1    3    3  502    0  0.18902405577E+03 -0.40814179702E+03 -0.20596044150E+04  0.21081461445E+04  0.50400001928E-02 0. -1.
       -1    1    3    3    0  502 -0.18902405577E+03  0.40814179702E+03  0.13465389500E+04  0.14196749501E+04  0.50400001928E-02 0.  1.
</event>
<event>
 5   0  0.2936607E-07  0.3505859E+04  0.7818609E-02  0.8112403E-01
        1   -1    0    0  501    0  0.00000000000E+00  0.00000000000E+00  0.22158055814E+04  0.22158055814E+04  0.50400001928E-02 0.  1.
       -1   -1    0    0    0  501  0.00000000000E+00  0.00000000000E+00 -0.13867471889E+04  0.13867471889E+04  0.50400001928E-02 0. -1.
    10030    2    1    2    0    0  0.00000000000E+00  0.00000000000E+00  0.82905839251E+03  0.36025527703E+04  0.35058591877E+04 0.  0.
        2    1    3    3  502    0  0.80087704308E+03  0.72757246741E+03  0.18316952171E+04  0.21274099515E+04  0.25500000920E-02 0.  1.
       -2    1    3    3    0  502 -0.80087704308E+03 -0.72757246741E+03 -0.10026368246E+04  0.14751428187E+04  0.25500000920E-02 0. -1.
</event>
<event>
 5   0  0.3026332E-07  0.3492375E+04  0.7818609E-02  0.8115599E-01
       -1   -1    0    0    0  501  0.00000000000E+00  0.00000000000E+00  0.17265459253E+04  0.17265459253E+04  0.50400001928E-02 0.  1.
        1   -1    0    0  501    0  0.00000000000E+00  0.00000000000E+00 -0.17660523447E+04  0.17660523447E+04  0.50400001928E-02 0. -1.
    10030    2    1    2    0    0  0.00000000000E+00  0.00000000000E+00 -0.39506419325E+02  0.34925982700E+04  0.34923748250E+04 0.  0.
        1    1    3    3  502    0  0.63421646447E+03 -0.70393500424E+02  0.16057691047E+04  0.17279120887E+04  0.50400001928E-02 0.  1.
       -1    1    3    3    0  502 -0.63421646447E+03  0.70393500424E+02 -0.16452755240E+04  0.17646861813E+04  0.50400001928E-02 0. -1.
</event>
<event>
 5   0  0.3061330E-07  0.3441479E+04  0.7818609E-02  0.8127800E-01
        1   -1    0    0  501    0  0.00000000000E+00  0.00000000000E+00  0.29202321502E+04  0.29202321502E+04  0.50400001928E-02 0.  1.
       -1   -1    0    0    0  501  0.00000000000E+00  0.00000000000E+00 -0.10139414157E+04  0.10139414157E+04  0.50400001928E-02 0. -1.
    10030    2    1    2    0    0  0.00000000000E+00  0.00000000000E+00  0.19062907345E+04  0.39341735659E+04  0.34414789383E+04 0.  0.
        5    1    3    3  502    0 -0.54878737340E+03 -0.14786560641E+04  0.17396310580E+04  0.23481758122E+04  0.46999998093E+01 0.  1.
       -5    1    3    3    0  502  0.54878737340E+03  0.14786560641E+04  0.16665967643E+03  0.15859977537E+04  0.46999998093E+01 0. -1.
</event>
<event>
 5   0  0.8950809E-07  0.3529428E+04  0.7818609E-02  0.8106851E-01
        2   -1    0    0  501    0  0.00000000000E+00  0.00000000000E+00  0.16269730050E+04  0.16269730050E+04  0.25500000920E-02 0.  1.
       -2   -1    0    0    0  501  0.00000000000E+00  0.00000000000E+00 -0.19141165110E+04  0.19141165110E+04  0.25500000920E-02 0. -1.
    10030    2    1    2    0    0  0.00000000000E+00  0.00000000000E+00 -0.28714350604E+03  0.35410895160E+04  0.35294282211E+04 0.  0.
        2    1    3    3  502    0 -0.35676128767E+03 -0.16649630935E+04  0.32146282283E+03  0.17328355564E+04  0.25500000920E-02 0.  1.
       -2    1    3    3    0  502  0.35676128767E+03  0.16649630935E+04 -0.60860632887E+03  0.18082539596E+04  0.25500000920E-02 0. -1.
</event>
<event>
 5   0  0.9128871E-07  0.3475634E+04  0.7818609E-02  0.8119589E-01
       -2   -1    0    0    0  501  0.00000000000E+00  0.00000000000E+00  0.14322128900E+04  0.14322128900E+04  0.25500000920E-02 0.  1.
        2   -1    0    0  501    0  0.00000000000E+00  0.00000000000E+00 -0.21086304569E+04  0.21086304569E+04  0.25500000920E-02 0. -1.
    10030    2    1    2    0    0  0.00000000000E+00  0.00000000000E+00 -0.67641756687E+03  0.35408433469E+04  0.34756338821E+04 0.  0.
        1    1    3    3  502    0  0.54939225327E+03  0.10314102068E+04 -0.16485634633E+04  0.20207425257E+04  0.50400001928E-02 0. -1.
       -1    1    3    3    0  502 -0.54939225327E+03 -0.10314102068E+04  0.97214589640E+03  0.15201008212E+04  0.50400001928E-02 0.  1.
</event>
<event>
 5   0  0.6188930E-07  0.3507696E+04  0.7818609E-02  0.8111969E-01
       -2   -1    0    0    0  501  0.00000000000E+00  0.00000000000E+00  0.13512654074E+04  0.13512654074E+04  0.25500000920E-02 0.  1.
        2   -1    0    0  501    0  0.00000000000E+00  0.00000000000E+00 -0.22763715559E+04  0.22763715559E+04  0.25500000920E-02 0. -1.
    10030    2    1    2    0    0  0.00000000000E+00  0.00000000000E+00 -0.92510614850E+03  0.36276369633E+04  0.35076956184E+04 0.  0.
        3    1    3    3  502    0 -0.14029245169E+04 -0.10398594487E+04 -0.29427079194E+03  0.17709037756E+04  0.10100000352E+00 0. -1.
       -3    1    3    3    0  502  0.14029245169E+04  0.10398594487E+04 -0.63083535657E+03  0.18567331877E+04  0.10100000352E+00 0.  1.
</event>
<event>
 5   0  0.3061330E-07  0.3536860E+04  0.7818609E-02  0.8105110E-01
        1   -1    0    0  501    0  0.00000000000E+00  0.00000000000E+00  0.30175581831E+04  0.30175581831E+04  0.50400001928E-02 0.  1.
       -1   -1    0    0    0  501  0.00000000000E+00  0.00000000000E+00 -0.10363825074E+04  0.10363825074E+04  0.50400001928E-02 0. -1.
    10030    2    1    2    0    0  0.00000000000E+00  0.00000000000E+00  0.19811756756E+04  0.40539406905E+04  0.35368599159E+04 0.  0.
        5    1    3    3  502    0  0.69371357784E+03  0.11794993920E+04  0.22745672170E+04  0.26544557744E+04  0.46999998093E+01 0.  1.
       -5    1    3    3    0  502 -0.69371357784E+03 -0.11794993920E+04 -0.29339154136E+03  0.13994849161E+04  0.46999998093E+01 0. -1.
</event>
<event>
 5   0  0.8845195E-07  0.3287852E+04  0.7818609E-02  0.8165993E-01
        2   -1    0    0  501    0  0.00000000000E+00  0.00000000000E+00  0.20434642361E+04  0.20434642361E+04  0.25500000920E-02 0.  1.
       -2   -1    0    0    0  501  0.00000000000E+00  0.00000000000E+00 -0.13225056417E+04  0.13225056417E+04  0.25500000920E-02 0. -1.
    10030    2    1    2    0    0  0.00000000000E+00  0.00000000000E+00  0.72095859439E+03  0.33659698778E+04  0.32878521748E+04 0.  0.
        5    1    3    3  502    0  0.80287317278E+03 -0.10017451214E+04 -0.69074388612E+03  0.14578229749E+04  0.46999998093E+01 0. -1.
       -5    1    3    3    0  502 -0.80287317278E+03  0.10017451214E+04  0.14117024805E+04  0.19081469030E+04  0.46999998093E+01 0.  1.
</event>
<event>
 5   0  0.9311672E-07  0.3555269E+04  0.7818609E-02  0.8100815E-01
       -2   -1    0    0    0  501  0.00000000000E+00  0.00000000000E+00  0.21114951956E+04  0.21114951956E+04  0.25500000920E-02 0.  1.
        2   -1    0    0  501    0  0.00000000000E+00  0.00000000000E+00 -0.14965627929E+04  0.14965627929E+04  0.25500000920E-02 0. -1.
    10030    2    1    2    0    0  0.00000000000E+00  0.00000000000E+00  0.61493240273E+03  0.36080579886E+04  0.35552694116E+04 0.  0.
        4    1    3    3  502    0 -0.19474450315E+03  0.86889760555E+03  0.18688404333E+04  0.20701387994E+04  0.12699999809E+01 0.  1.
       -4    1    3    3    0  502  0.19474450315E+03 -0.86889760555E+03 -0.12539080306E+04  0.15379191892E+04  0.12699999809E+01 0. -1.
</event>
<event>
 5   0  0.9128871E-07  0.3513878E+04  0.7818609E-02  0.8110509E-01
        2   -1    0    0  501    0  0.00000000000E+00  0.00000000000E+00  0.18727970337E+04  0.18727970337E+04  0.25500000920E-02 0.  1.
       -2   -1    0    0    0  501  0.00000000000E+00  0.00000000000E+00 -0.16482486371E+04  0.16482486371E+04  0.25500000920E-02 0. -1.
    10030    2    1    2    0    0  0.00000000000E+00  0.00000000000E+00  0.22454839663E+03  0.35210456709E+04  0.35138782896E+04 0.  0.
        1    1    3    3  502    0  0.20203628269E+03 -0.12868553439E+04 -0.10691216501E+04  0.16851814260E+04  0.50400001928E-02 0. -1.
       -1    1    3    3    0  502 -0.20203628269E+03  0.12868553439E+04  0.12936700468E+04  0.18358642449E+04  0.50400001928E-02 0.  1.
</event>
<event>
 5   0  0.2933506E-07  0.3121943E+04  0.7818609E-02  0.8209741E-01
       -1   -1    0    0    0  501  0.00000000000E+00  0.00000000000E+00  0.10311577981E+04  0.10311577982E+04  0.50400001928E-02 0.  1.
        1   -1    0    0  501    0  0.00000000000E+00  0.00000000000E+00 -0.23630061981E+04  0.23630061981E+04  0.50400001928E-02 0. -1.
    10030    2    1    2    0    0  0.00000000000E+00  0.00000000000E+00 -0.13318483999E+04  0.33941639963E+04  0.31219431566E+04 0.  0.
        4    1    3    3  502    0  0.42435240014E+03 -0.10675981271E+04  0.48300581877E+03  0.12462491542E+04  0.12699999809E+01 0.  1.
       -4    1    3    3    0  502 -0.42435240014E+03  0.10675981271E+04 -0.18148542187E+04  0.21479148420E+04  0.12699999809E+01 0. -1.
</event>
<event>
 5   0  0.2972541E-07  0.3477806E+04  0.7818609E-02  0.8119070E-01
        1   -1    0    0  501    0  0.00000000000E+00  0.00000000000E+00  0.17152498935E+04  0.17152498935E+04  0.50400001928E-02 0.  1.
       -1   -1    0    0    0  501  0.00000000000E+00  0.00000000000E+00 -0.17628826627E+04  0.17628826627E+04  0.50400001928E-02 0. -1.
    10030    2    1    2    0    0  0.00000000000E+00  0.00000000000E+00 -0.47632769165E+02  0.34781325562E+04  0.34778063772E+04 0.  0.
        3    1    3    3  502    0 -0.42934534291E+03  0.87565995747E+03  0.14159944739E+04  0.17193481744E+04  0.10100000352E+00 0.  1.
       -3    1    3    3    0  502  0.42934534291E+03 -0.87565995747E+03 -0.14636272431E+04  0.17587843817E+04  0.10100000352E+00 0. -1.
</event>
<event>
 5   0  0.6188930E-07  0.3470592E+04  0.7818609E-02  0.8120795E-01
        2   -1    0    0  501    0  0.00000000000E+00  0.00000000000E+00  0.24274478890E+04  0.24274478890E+04  0.25500000920E-02 0.  1.
       -2   -1    0    0    0  501  0.00000000000E+00  0.00000000000E+00 -0.12405010005E+04  0.12405010006E+04  0.25500000920E-02 0. -1.
    10030    2    1    2    0    0  0.00000000000E+00  0.00000000000E+00  0.11869468885E+04  0.36679488896E+04  0.34705916125E+04 0.  0.
        3    1    3    3  502    0  0.28703564669E+02 -0.99016138992E+03 -0.91233123673E+03  0.13466966134E+04  0.10100000352E+00 0. -1.
       -3    1    3    3    0  502 -0.28703564669E+02  0.99016138992E+03  0.20992781252E+04  0.23212522762E+04  0.10100000352E+00 0.  1.
</event>
<event>
 5   0  0.8845195E-07  0.3286374E+04  0.7818609E-02  0.8166371E-01
       -2   -1    0    0    0  501  0.00000000000E+00  0.00000000000E+00  0.18653201240E+04  0.18653201240E+04  0.25500000920E-02 0.  1.
        2   -1    0    0  501    0  0.00000000000E+00  0.00000000000E+00 -0.14475071389E+04  0.14475071389E+04  0.25500000920E-02 0. -1.
    10030    2    1    2    0    0  0.00000000000E+00  0.00000000000E+00  0.41781298511E+03  0.33128272629E+04  0.32863744131E+04 0.  0.
        5    1    3    3  502    0 -0.85700268931E+03 -0.12099628736E+03  0.16169129346E+04  0.18339910684E+04  0.46999998093E+01 0.  1.
       -5    1    3    3    0  502  0.85700268931E+03  0.12099628736E+03 -0.11990999495E+04  0.14788361944E+04  0.46999998093E+01 0. -1.
</event>
<event>
 5   0  0.8845195E-07  0.3506235E+04  0.7818609E-02  0.8112314E-01
        2   -1    0    0  501    0  0.00000000000E+00  0.00000000000E+00  0.27397893581E+04  0.27397893581E+04  0.25500000920E-02 0. -1.
       -2   -1    0    0    0  501  0.00000000000E+00  0.00000000000E+00 -0.11217727998E+04  0.11217727998E+04  0.25500000920E-02 0.  1.
    10030    2    1    2    0    0  0.00000000000E+00  0.00000000000E+00  0.16180165583E+04  0.38615621579E+04  0.35062351199E+04 0.  0.
        5    1    3    3  502    0 -0.23815637217E+03 -0.12318740085E+04 -0.53947948395E+03  0.13657570187E+04  0.46999998093E+01 0.  1.
       -5    1    3    3    0  502  0.23815637217E+03  0.12318740085E+04  0.21574960423E+04  0.24958051392E+04  0.46999998093E+01 0. -1.
</event>
<event>
 5   0  0.9311672E-07  0.3664958E+04  0.7818609E-02  0.8075772E-01
        2   -1    0    0  501    0  0.00000000000E+00  0.00000000000E+00  0.20701795919E+04  0.20701795919E+04  0.25500000920E-02 0.  1.
       -2   -1    0    0    0  501  0.00000000000E+00  0.00000000000E+00 -0.16220711086E+04  0.16220711087E+04  0.25500000920E-02 0. -1.
    10030    2    1    2    0    0  0.00000000000E+00  0.00000000000E+00  0.44810848327E+03  0.36922507006E+04  0.36649575745E+04 0.  0.
        4    1    3    3  502    0  0.19140412643E+03 -0.17905597413E+04 -0.11793978038E+03  0.18046193869E+04  0.12699999809E+01 0. -1.
       -4    1    3    3    0  502 -0.19140412643E+03  0.17905597413E+04  0.56604826365E+03  0.18876313137E+04  0.12699999809E+01 0.  1.
</event>
<event>
 5   0  0.9311672E-07  0.3527187E+04  0.7818609E-02  0.8107377E-01
        2   -1    0    0  501    0  0.00000000000E+00  0.00000000000E+00  0.22632870726E+04  0.22632870726E+04  0.25500000920E-02 0. -1.
       -2   -1    0    0    0  501  0.00000000000E+00  0.00000000000E+00 -0.13742234950E+04  0.13742234950E+04  0.25500000920E-02 0.  1.
    10030    2    1    2    0    0  0.00000000000E+00  0.00000000000E+00  0.88906357759E+03  0.36375105676E+04  0.35271871349E+04 0.  0.
        4    1    3    3  502    0  0.32161911920E+03  0.12075234476E+04  0.17279277325E+04  0.21324370087E+04  0.12699999809E+01 0. -1.
       -4    1    3    3    0  502 -0.32161911920E+03 -0.12075234476E+04 -0.83886415494E+03  0.15050735589E+04  0.12699999809E+01 0.  1.
</event>
<event>
 5   0  0.2972541E-07  0.3462965E+04  0.7818609E-02  0.8122623E-01
        1   -1    0    0  501    0  0.00000000000E+00  0.00000000000E+00  0.17533997884E+04  0.17533997884E+04  0.50400001928E-02 0.  1.
       -1   -1    0    0    0  501  0.00000000000E+00  0.00000000000E+00 -0.17098391409E+04  0.17098391409E+04  0.50400001928E-02 0. -1.
    10030    2    1    2    0    0  0.00000000000E+00  0.00000000000E+00  0.43560647483E+02  0.34632389293E+04  0.34629649654E+04 0.  0.
        3    1    3    3  502    0  0.12224607322E+04 -0.10982044073E+04 -0.52376115070E+03  0.17247576395E+04  0.10100000352E+00 0.  1.
       -3    1    3    3    0  502 -0.12224607322E+04  0.10982044073E+04  0.56732179818E+03  0.17384812898E+04  0.10100000352E+00 0. -1.
</event>
<event>
 5   0  0.6188930E-07  0.3565072E+04  0.7818609E-02  0.8098539E-01
       -2   -1    0    0    0  501  0.00000000000E+00  0.00000000000E+00  0.13502581097E+04  0.13502581097E+04  0.25500000920E-02 0. -1.
        2   -1    0    0  501    0  0.00000000000E+00  0.00000000000E+00 -0.23532058398E+04  0.23532058398E+04  0.25500000920E-02 0.  1.
    10030    2    1    2    0    0  0.00000000000E+00  0.00000000000E+00 -0.10029477301E+04  0.37034639496E+04  0.35650723802E+04 0.  0.
        3    1    3    3  502    0  0.14371272747E+04  0.97157994757E+00  0.59402414961E+03  0.15550564132E+04  0.10100000352E+00 0.  1.
       -3    1    3    3    0  502 -0.14371272747E+04 -0.97157994757E+00 -0.15969718797E+04  0.21484075364E+04  0.10100000352E+00 0. -1.
</event>
<event>
 5   0  0.8950809E-07  0.3247453E+04  0.7818609E-02  0.8176396E-01
        2   -1    0    0  501    0  0.00000000000E+00  0.00000000000E+00  0.23774399866E+04  0.23774399866E+04  0.25500000920E-02 0.  1.
       -2   -1    0    0    0  501  0.00000000000E+00  0.00000000000E+00 -0.11089608168E+04  0.11089608168E+04  0.25500000920E-02 0. -1.
    10030    2    1    2    0    0  0.00000000000E+00  0.00000000000E+00  0.12684791698E+04  0.34864008034E+04  0.32474530262E+04 0.  0.
        2    1    3    3  502    0 -0.13664441428E+04 -0.28270071889E+03  0.15256333694E+04  0.20675218184E+04  0.25500000920E-02 0.  1.
       -2    1    3    3    0  502  0.13664441428E+04  0.28270071889E+03 -0.25715419959E+03  0.14188789850E+04  0.25500000920E-02 0. -1.
</event>
<event>
 5   0  0.3026332E-07  0.3499583E+04  0.7818609E-02  0.8113889E-01
       -1   -1    0    0    0  501  0.00000000000E+00  0.00000000000E+00  0.11131029388E+04  0.11131029388E+04  0.50400001928E-02 0. -1.
        1   -1    0    0  501    0  0.00000000000E+00  0.00000000000E+00 -0.27506624013E+04  0.27506624013E+04  0.50400001928E-02 0.  1.
    10030    2    1    2    0    0  0.00000000000E+00  0.00000000000E+00 -0.16375594625E+04  0.38637653401E+04  0.34995830624E+04 0.  0.
        1    1    3    3  502    0  0.45031498682E+03  0.11081353209E+03  0.10440185755E+04  0.11423826033E+04  0.50400001928E-02 0. -1.
       -1    1    3    3    0  502 -0.45031498682E+03 -0.11081353209E+03 -0.26815780381E+04  0.27213827369E+04  0.50400001928E-02 0.  1.
</event>
<event>
 5   0  0.8845195E-07  0.3502543E+04  0.7818609E-02  0.8113187E-01
       -2   -1    0    0    0  501  0.00000000000E+00  0.00000000000E+00  0.12667874513E+04  0.12667874514E+04  0.25500000920E-02 0.  1.
        2   -1    0    0  501    0  0.00000000000E+00  0.00000000000E+00 -0.24210472799E+04  0.24210472799E+04  0.25500000920E-02 0. -1.
    10030    2    1    2    0    0  0.00000000000E+00  0.00000000000E+00 -0.11542598285E+04  0.36878347313E+04  0.35025432550E+04 0.  0.
        5    1    3    3  502    0  0.15948096273E+04  0.20746479457E+03 -0.13069594889E+04  0.20723476021E+04  0.46999998093E+01 0.  1.
       -5    1    3    3    0  502 -0.15948096273E+04 -0.20746479457E+03  0.15269966033E+03  0.16154871292E+04  0.46999998093E+01 0. -1.
</event>
<event>
 5   0  0.8950809E-07  0.3511686E+04  0.7818609E-02  0.8111026E-01
       -2   -1    0    0    0  501  0.00000000000E+00  0.00000000000E+00  0.19467078426E+04  0.19467078426E+04  0.25500000920E-02 0. -1.
        2   -1    0    0  501    0  0.00000000000E+00  0.00000000000E+00 -0.15836913259E+04  0.15836913259E+04  0.25500000920E-02 0.  1.
    10030    2    1    2    0    0  0.00000000000E+00  0.00000000000E+00  0.36301651670E+03  0.35303991685E+04  0.35116858199E+04 0.  0.
        2    1    3    3  502    0  0.11440608266E+04 -0.80562281794E+03 -0.88484244133E+03  0.16555511003E+04  0.25500000920E-02 0.  1.
       -2    1    3    3    0  502 -0.11440608266E+04  0.80562281794E+03  0.12478589580E+04  0.18748480682E+04  0.25500000920E-02 0. -1.
</event>
<event>
 5   0  0.3026332E-07  0.3487066E+04  0.7818609E-02  0.8116862E-01
        1   -1    0    0  501    0  0.00000000000E+00  0.00000000000E+00  0.20826918067E+04  0.20826918067E+04  0.50400001928E-02 0. -1.
       -1   -1    0    0    0  501  0.00000000000E+00  0.00000000000E+00 -0.14596048521E+04  0.14596048521E+04  0.50400001928E-02 0.  1.
    10030    2    1    2    0    0  0.00000000000E+00  0.00000000000E+00  0.62308695460E+03  0.35422966588E+04  0.34870658534E+04 0.  0.
        1    1    3    3  502    0  0.16700110985E+04  0.44772615971E+03  0.53985034788E+03  0.18113073128E+04  0.50400001928E-02 0. -1.
       -1    1    3    3    0  502 -0.16700110985E+04 -0.44772615971E+03  0.83236606717E+02  0.17309893460E+04  0.50400001928E-02 0.  1.
</event>
<event>
 5   0  0.6188930E-07  0.3449405E+04  0.7818609E-02  0.8125886E-01
        2   -1    0    0  501    0  0.00000000000E+00  0.00000000000E+00  0.23776999746E+04  0.23776999746E+04  0.25500000920E-02 0. -1.
       -2   -1    0    0    0  501  0.00000000000E+00  0.00000000000E+00 -0.12510402008E+04  0.12510402008E+04  0.25500000920E-02 0.  1.
    10030    2    1    2    0    0  0.00000000000E+00  0.00000000000E+00  0.11266597738E+04  0.36287401754E+04  0.34494047334E+04 0.  0.
        3    1    3    3  502    0  0.11956286321E+04  0.85624323079E+03  0.15112413797E+04  0.21086798747E+04  0.10100000352E+00 0. -1.
       -3    1    3    3    0  502 -0.11956286321E+04 -0.85624323079E+03 -0.38458160581E+03  0.15200603007E+04  0.10100000352E+00 0.  1.
</event>
<event>
 5   0  0.8845195E-07  0.3492290E+04  0.7818609E-02  0.8115620E-01
        2   -1    0    0  501    0  0.00000000000E+00  0.00000000000E+00  0.14969654289E+04  0.14969654289E+04  0.25500000920E-02 0.  1.
       -2   -1    0    0    0  501  0.00000000000E+00  0.00000000000E+00 -0.20368021728E+04  0.20368021728E+04  0.25500000920E-02 0. -1.
    10030    2    1    2    0    0  0.00000000000E+00  0.00000000000E+00 -0.53983674389E+03  0.35337676017E+04  0.34922900442E+04 0.  0.
        5    1    3    3  502    0 -0.13134184120E+04 -0.10544583312E+03 -0.14293074700E+04  0.19439981180E+04  0.46999998093E+01 0. -1.
       -5    1    3    3    0  502  0.13134184120E+04  0.10544583312E+03  0.88947072613E+03  0.15897694837E+04  0.46999998093E+01 0.  1.
</event>
<event>
 5   0  0.6188930E-07  0.3489160E+04  0.7818609E-02  0.8116364E-01
        2   -1    0    0  501    0  0.00000000000E+00  0.00000000000E+00  0.23545540326E+04  0.23545540326E+04  0.25500000920E-02 0. -1.
       -2   -1    0    0    0  501  0.00000000000E+00  0.00000000000E+00 -0.12926267377E+04  0.12926267377E+04  0.25500000920E-02 0.  1.
    10030    2    1    2    0    0  0.00000000000E+00  0.00000000000E+00  0.10619272949E+04  0.36471807704E+04  0.34891600697E+04 0.  0.
        3    1    3    3  502    0 -0.50791216601E+03  0.13244290252E+04 -0.53064688275E+03  0.15144877469E+04  0.10100000352E+00 0.  1.
       -3    1    3    3    0  502  0.50791216601E+03 -0.13244290252E+04  0.15925741776E+04  0.21326930235E+04  0.10100000352E+00 0. -1.
</event>
<event>
 5   0  0.8845195E-07  0.3449896E+04  0.7818609E-02  0.8125768E-01
        2   -1    0    0  501    0  0.00000000000E+00  0.00000000000E+00  0.22224719714E+04  0.22224719714E+04  0.25500000920E-02 0.  1.
       -2   -1    0    0    0  501  0.00000000000E+00  0.00000000000E+00 -0.13388003521E+04  0.13388003521E+04  0.25500000920E-02 0. -1.
    10030    2    1    2    0    0  0.00000000000E+00  0.00000000000E+00  0.88367161922E+03  0.35612723235E+04  0.34498963798E+04 0.  0.
        5    1    3    3  502    0  0.44475548868E+03 -0.15900009399E+04  0.95747552698E+03  0.19085837441E+04  0.46999998093E+01 0. -1.
       -5    1    3    3    0  502 -0.44475548868E+03  0.15900009399E+04 -0.73803907765E+02  0.16526885794E+04  0.46999998093E+01 0.  1.
</event>
<event>
 5   0  0.3061330E-07  0.3015931E+04  0.7818609E-02  0.8239196E-01
        1   -1    0    0  501    0  0.00000000000E+00  0.00000000000E+00  0.14627920400E+04  0.14627920400E+04  0.50400001928E-02 0. -1.
       -1   -1    0    0    0  501  0.00000000000E+00  0.00000000000E+00 -0.15545341292E+04  0.15545341292E+04  0.50400001928E-02 0.  1.
    10030    2    1    2    0    0  0.00000000000E+00  0.00000000000E+00 -0.91742089212E+02  0.30173261693E+04  0.30159311333E+04 0.  0.
        5    1    3    3  502    0 -0.62278973130E+03  0.12335488435E+04 -0.64982921886E+03  0.15270264904E+04  0.46999998093E+01 0.  1.
       -5    1    3    3    0  502  0.62278973130E+03 -0.12335488435E+04  0.55808712965E+03  0.14902996789E+04  0.46999998093E+01 0. -1.
</event>
<event>
 5   0  0.8950809E-07  0.3439996E+04  0.7818609E-02  0.8128159E-01
        2   -1    0    0  501    0  0.00000000000E+00  0.00000000000E+00  0.16883729522E+04  0.16883729522E+04  0.25500000920E-02 0. -1.
       -2   -1    0    0    0  501  0.00000000000E+00  0.00000000000E+00 -0.17522155128E+04  0.17522155128E+04  0.25500000920E-02 0.  1.
    10030    2    1    2    0    0  0.00000000000E+00  0.00000000000E+00 -0.63842560611E+02  0.34405884650E+04  0.34399960920E+04 0.  0.
        2    1    3    3  502    0 -0.16146394524E+04 -0.45032525097E+02 -0.62304318031E+03  0.17312629188E+04  0.25500000920E-02 0.  1.
       -2    1    3    3    0  502  0.16146394524E+04  0.45032525097E+02  0.55920061969E+03  0.17093255461E+04  0.25500000920E-02 0. -1.
</event>
<event>
 5   0  0.9128871E-07  0.3518217E+04  0.7818609E-02  0.8109486E-01
        2   -1    0    0  501    0  0.00000000000E+00  0.00000000000E+00  0.20473501099E+04  0.20473501099E+04  0.25500000920E-02 0.  1.
       -2   -1    0    0    0  501  0.00000000000E+00  0.00000000000E+00 -0.15114474654E+04  0.15114474654E+04  0.25500000920E-02 0. -1.
    10030    2    1    2    0    0  0.00000000000E+00  0.00000000000E+00  0.53590264452E+03  0.35587975754E+04  0.35182166701E+04 0.  0.
        1    1    3    3  502    0 -0.99209751651E+03  0.33447538358E+03 -0.11619774426E+04  0.15640725180E+04  0.50400001928E-02 0. -1.
       -1    1    3    3    0  502  0.99209751651E+03 -0.33447538358E+03  0.16978800871E+04  0.19947250574E+04  0.50400001928E-02 0.  1.
</event>
<event>
 5   0  0.2936607E-07  0.3503649E+04  0.7818609E-02  0.8112926E-01
        1   -1    0    0  501    0  0.00000000000E+00  0.00000000000E+00  0.17945351763E+04  0.17945351763E+04  0.50400001928E-02 0. -1.
       -1   -1    0    0    0  501  0.00000000000E+00  0.00000000000E+00 -0.17101306652E+04  0.17101306652E+04  0.50400001928E-02 0.  1.
    10030    2    1    2    0    0  0.00000000000E+00  0.00000000000E+00  0.84404511066E+02  0.35046658415E+04  0.35036493174E+04 0.  0.
        2    1    3    3  502    0 -0.34667488081E+03  0.21722540158E+03  0.17460811197E+04  0.17933682345E+04  0.25500000920E-02 0. -1.
       -2    1    3    3    0  502  0.34667488081E+03 -0.21722540158E+03 -0.16616766086E+04  0.17112976070E+04  0.25500000920E-02 0.  1.
</event>
<event>
 5   0  0.3026332E-07  0.3485972E+04  0.7818609E-02  0.8117122E-01
        1   -1    0    0  501    0  0.00000000000E+00  0.00000000000E+00  0.15229903693E+04  0.15229903693E+04  0.50400001928E-02 0. -1.
       -1   -1    0    0    0  501  0.00000000000E+00  0.00000000000E+00 -0.19947603865E+04  0.19947603865E+04  0.50400001928E-02 0.  1.
    10030    2    1    2    0    0  0.00000000000E+00  0.00000000000E+00 -0.47177001726E+03  0.35177507558E+04  0.34859723795E+04 0.  0.
        1    1    3    3  502    0  0.17670749610E+03  0.85882404389E+03 -0.17560025952E+04  0.19627402762E+04  0.50400001928E-02 0.  1.
       -1    1    3    3    0  502 -0.17670749610E+03 -0.85882404389E+03  0.12842325779E+04  0.15550104796E+04  0.50400001928E-02 0. -1.
</event>
<event>
 5   0  0.8950809E-07  0.3373681E+04  0.7818609E-02  0.8144396E-01
       -2   -1    0    0    0  501  0.00000000000E+00  0.00000000000E+00  0.21728568766E+04  0.21728568766E+04  0.25500000920E-02 0.  1.
        2   -1    0    0  501    0  0.00000000000E+00  0.00000000000E+00 -0.13095343428E+04  0.13095343428E+04  0.25500000920E-02 0. -1.
    10030    2    1    2    0    0  0.00000000000E+00  0.00000000000E+00  0.86332253379E+03  0.34823912194E+04  0.33736808989E+04 0.  0.
        2    1    3    3  502    0 -0.10666335728E+04 -0.79970857060E+03  0.14984974944E+04  0.20056758754E+04  0.25500000920E-02 0.  1.
       -2    1    3    3    0  502  0.10666335728E+04  0.79970857060E+03 -0.63517496063E+03  0.14767153440E+04  0.25500000920E-02 0. -1.
</event>
<event>
 5   0  0.3026332E-07  0.3521513E+04  0.7818609E-02  0.8108710E-01
       -1   -1    0    0    0  501  0.00000000000E+00  0.00000000000E+00  0.15992874244E+04  0.15992874244E+04  0.50400001928E-02 0.  1.
        1   -1    0    0  501    0  0.00000000000E+00  0.00000000000E+00 -0.19385283808E+04  0.19385283808E+04  0.50400001928E-02 0. -1.
    10030    2    1    2    0    0  0.00000000000E+00  0.00000000000E+00 -0.33924095644E+03  0.35378158053E+04  0.35215133459E+04 0.  0.
        1    1    3    3  502    0  0.28444785684E+03  0.64432643479E+03 -0.17908436035E+04  0.19243668959E+04  0.50400001928E-02 0. -1.
       -1    1    3    3    0  502 -0.28444785684E+03 -0.64432643479E+03  0.14516026471E+04  0.16134489093E+04  0.50400001928E-02 0.  1.
</event>
<event>
 5   0  0.2933506E-07  0.3484391E+04  0.7818609E-02  0.8117499E-01
       -1   -1    0    0    0  501  0.00000000000E+00  0.00000000000E+00  0.14188267762E+04  0.14188267762E+04  0.50400001928E-02 0.  1.
        1   -1    0    0  501    0  0.00000000000E+00  0.00000000000E+00 -0.21392640024E+04  0.21392640024E+04  0.50400001928E-02 0. -1.
    10030    2    1    2    0    0  0.00000000000E+00  0.00000000000E+00 -0.72043722620E+03  0.35580907786E+04  0.34843909355E+04 0.  0.
        4    1    3    3  502    0  0.14615093754E+04 -0.90727454514E+03 -0.64189112539E+03  0.18360780442E+04  0.12699999809E+01 0.  1.
       -4    1    3    3    0  502 -0.14615093754E+04  0.90727454514E+03 -0.78546100810E+02  0.17220127344E+04  0.12699999809E+01 0. -1.
</event>
<event>
 5   0  0.2936607E-07  0.3512621E+04  0.7818609E-02  0.8110805E-01
        1   -1    0    0  501    0  0.00000000000E+00  0.00000000000E+00  0.15756940652E+04  0.15756940652E+04  0.50400001928E-02 0.  1.
       -1   -1    0    0    0  501  0.00000000000E+00  0.00000000000E+00 -0.19576301018E+04  0.19576301018E+04  0.50400001928E-02 0. -1.
    10030    2    1    2    0    0  0.00000000000E+00  0.00000000000E+00 -0.38193603660E+03  0.35333241671E+04  0.35126207500E+04 0.  0.
        2    1    3    3  502    0 -0.16271072441E+04 -0.66116261237E+03 -0.18746186116E+03  0.17662830841E+04  0.25500000920E-02 0. -1.
       -2    1    3    3    0  502  0.16271072441E+04  0.66116261237E+03 -0.19447417543E+03  0.17670410829E+04  0.25500000920E-02 0.  1.
</event>
<event>
 5   0  0.9311672E-07  0.3434927E+04  0.7818609E-02  0.8129387E-01
       -2   -1    0    0    0  501  0.00000000000E+00  0.00000000000E+00  0.24359600773E+04  0.24359600773E+04  0.25500000920E-02 0.  1.
        2   -1    0    0  501    0  0.00000000000E+00  0.00000000000E+00 -0.12108904785E+04  0.12108904786E+04  0.25500000920E-02 0. -1.
    10030    2    1    2    0    0  0.00000000000E+00  0.00000000000E+00  0.12250695988E+04  0.36468505559E+04  0.34349269942E+04 0.  0.
        4    1    3    3  502    0  0.22063146852E+03 -0.33198131626E+03  0.23861687322E+04  0.24192339016E+04  0.12699999809E+01 0.  1.
       -4    1    3    3    0  502 -0.22063146852E+03  0.33198131626E+03 -0.11610991334E+04  0.12276166543E+04  0.12699999809E+01 0. -1.
</event>
<event>
 5   0  0.8845195E-07  0.3465789E+04  0.7818609E-02  0.8121946E-01
        2   -1    0    0  501    0  0.00000000000E+00  0.00000000000E+00  0.25788139416E+04  0.25788139416E+04  0.25500000920E-02 0.  1.
       -2   -1    0    0    0  501  0.00000000000E+00  0.00000000000E+00 -0.11644588554E+04  0.11644588554E+04  0.25500000920E-02 0. -1.
    10030    2    1    2    0    0  0.00000000000E+00  0.00000000000E+00  0.14143550863E+04  0.37432727970E+04  0.34657886437E+04 0.  0.
        5    1    3    3  502    0  0.16235620962E+04 -0.58902461524E+03  0.55444581960E+03  0.18139283709E+04  0.46999998093E+01 0.  1.
       -5    1    3    3    0  502 -0.16235620962E+04  0.58902461524E+03  0.85990926667E+03  0.19293444261E+04  0.46999998093E+01 0. -1.
</event>
<event>
 5   0  0.9311672E-07  0.3515653E+04  0.7818609E-02  0.8110090E-01
       -2   -1    0    0    0  501  0.00000000000E+00  0.00000000000E+00  0.16063395996E+04  0.16063395996E+04  0.25500000920E-02 0.  1.
        2   -1    0    0  501    0  0.00000000000E+00  0.00000000000E+00 -0.19235991233E+04  0.19235991233E+04  0.25500000920E-02 0. -1.
    10030    2    1    2    0    0  0.00000000000E+00  0.00000000000E+00 -0.31725952376E+03  0.35299387229E+04  0.35156526822E+04 0.  0.
        4    1    3    3  502    0 -0.11633555857E+04 -0.11045399959E+04 -0.88026233650E+03  0.18298273731E+04  0.12699999809E+01 0. -1.
       -4    1    3    3    0  502  0.11633555857E+04  0.11045399959E+04  0.56300281274E+03  0.17001113497E+04  0.12699999809E+01 0.  1.
</event>
<event>
 5   0  0.9128871E-07  0.3510298E+04  0.7818609E-02  0.8111354E-01
       -2   -1    0    0    0  501  0.00000000000E+00  0.00000000000E+00  0.16000735679E+04  0.16000735679E+04  0.25500000920E-02 0. -1.
        2   -1    0    0  501    0  0.00000000000E+00  0.00000000000E+00 -0.19252540198E+04  0.19252540198E+04  0.25500000920E-02 0.  1.
    10030    2    1    2    0    0  0.00000000000E+00  0.00000000000E+00 -0.32518045184E+03  0.35253275877E+04  0.35102980321E+04 0.  0.
        1    1    3    3  502    0 -0.71606812246E+03  0.11104276853E+04  0.99766790051E+03  0.16556401904E+04  0.50400001928E-02 0. -1.
       -1    1    3    3    0  502  0.71606812246E+03 -0.11104276853E+04 -0.13228483523E+04  0.18696873973E+04  0.50400001928E-02 0.  1.
</event>
<event>
 5   0  0.8845195E-07  0.3526244E+04  0.7818609E-02  0.8107599E-01
       -2   -1    0    0    0  501  0.00000000000E+00  0.00000000000E+00  0.14204155654E+04  0.14204155654E+04  0.25500000920E-02 0. -1.
        2   -1    0    0  501    0  0.00000000000E+00  0.00000000000E+00 -0.21885135785E+04  0.21885135785E+04  0.25500000920E-02 0.  1.
    10030    2    1    2    0    0  0.00000000000E+00  0.00000000000E+00 -0.76809801317E+03  0.36089291439E+04  0.35262437533E+04 0.  0.
        5    1    3    3  502    0  0.99269410866E+02  0.13322351798E+04 -0.15616250728E+04  0.20550912262E+04  0.46999998093E+01 0. -1.
       -5    1    3    3    0  502 -0.99269410866E+02 -0.13322351798E+04  0.79352705961E+03  0.15538379177E+04  0.46999998093E+01 0.  1.
</event>
<event>
 5   0  0.6188930E-07  0.3496179E+04  0.7818609E-02  0.8114696E-01
        2   -1    0    0  501    0  0.00000000000E+00  0.00000000000E+00  0.25181538688E+04  0.25181538688E+04  0.25500000920E-02 0. -1.
       -2   -1    0    0    0  501  0.00000000000E+00  0.00000000000E+00 -0.12135149117E+04  0.12135149117E+04  0.25500000920E-02 0.  1.
    10030    2    1    2    0    0  0.00000000000E+00  0.00000000000E+00  0.13046389571E+04  0.37316687806E+04  0.34961792116E+04 0.  0.
        3    1    3    3  502    0  0.12363329980E+04  0.25751386167E+03 -0.63780679708E+03  0.14147898047E+04  0.10100000352E+00 0.  1.
       -3    1    3    3    0  502 -0.12363329980E+04 -0.25751386167E+03  0.19424457542E+04  0.23168789759E+04  0.10100000352E+00 0. -1.
</event>
<event>
 5   0  0.9311672E-07  0.3480670E+04  0.7818609E-02  0.8118386E-01
       -2   -1    0    0    0  501  0.00000000000E+00  0.00000000000E+00  0.13398060100E+04  0.13398060100E+04  0.25500000920E-02 0. -1.
        2   -1    0    0  501    0  0.00000000000E+00  0.00000000000E+00 -0.22605999977E+04  0.22605999977E+04  0.25500000920E-02 0.  1.
    10030    2    1    2    0    0  0.00000000000E+00  0.00000000000E+00 -0.92079398768E+03  0.36004060077E+04  0.34806697419E+04 0.  0.
        4    1    3    3  502    0 -0.11379584489E+04  0.12194494160E+04 -0.97423222268E+03  0.19316149580E+04  0.12699999809E+01 0.  1.
       -4    1    3    3    0  502  0.11379584489E+04 -0.12194494160E+04  0.53438235003E+02  0.16687910497E+04  0.12699999809E+01 0. -1.
</event>
<event>
 5   0  0.3026332E-07  0.3530803E+04  0.7818609E-02  0.8106529E-01
        1   -1    0    0  501    0  0.00000000000E+00  0.00000000000E+00  0.18569016424E+04  0.18569016424E+04  0.50400001928E-02 0. -1.
       -1   -1    0    0    0  501  0.00000000000E+00  0.00000000000E+00 -0.16784097016E+04  0.16784097016E+04  0.50400001928E-02 0.  1.
    10030    2    1    2    0    0  0.00000000000E+00  0.00000000000E+00  0.17849194084E+03  0.35353113440E+04  0.35308025895E+04 0.  0.
        1    1    3    3  502    0  0.11207561406E+04  0.91535451997E+03  0.11018105544E+04  0.18187783597E+04  0.50400001928E-02 0. -1.
       -1    1    3    3    0  502 -0.11207561406E+04 -0.91535451997E+03 -0.92331861359E+03  0.17165329843E+04  0.50400001928E-02 0.  1.
</event>
<event>
 5   0  0.2936607E-07  0.3485460E+04  0.7818609E-02  0.8117244E-01
        1   -1    0    0  501    0  0.00000000000E+00  0.00000000000E+00  0.22139557934E+04  0.22139557934E+04  0.50400001928E-02 0.  1.
       -1   -1    0    0    0  501  0.00000000000E+00  0.00000000000E+00 -0.13718018333E+04  0.13718018333E+04  0.50400001928E-02 0. -1.
    10030    2    1    2    0    0  0.00000000000E+00  0.00000000000E+00  0.84215396012E+03  0.35857576268E+04  0.34854604381E+04 0.  0.
        2    1    3    3  502    0 -0.16839822622E+04 -0.19149555439E+02 -0.40091991384E+02  0.16845682927E+04  0.25500000920E-02 0. -1.
       -2    1    3    3    0  502  0.16839822622E+04  0.19149555439E+02  0.88224595150E+03  0.19011893341E+04  0.25500000920E-02 0.  1.
</event>
<event>
 5   0  0.2972541E-07  0.3471884E+04  0.7818609E-02  0.8120485E-01
       -1   -1    0    0    0  501  0.00000000000E+00  0.00000000000E+00  0.13703822455E+04  0.13703822455E+04  0.50400001928E-02 0.  1.
        1   -1    0    0  501    0  0.00000000000E+00  0.00000000000E+00 -0.21990179374E+04  0.21990179374E+04  0.50400001928E-02 0. -1.
    10030    2    1    2    0    0  0.00000000000E+00  0.00000000000E+00 -0.82863569191E+03  0.35694001830E+04  0.34718842948E+04 0.  0.
        3    1    3    3  502    0  0.15279743542E+03 -0.58342375880E+03  0.12592127657E+04  0.13961902228E+04  0.10100000352E+00 0.  1.
       -3    1    3    3    0  502 -0.15279743542E+03  0.58342375880E+03 -0.20878484577E+04  0.21732099602E+04  0.10100000352E+00 0. -1.
</event>
<event>
 5   0  0.9311672E-07  0.3508502E+04  0.7818609E-02  0.8111778E-01
       -2   -1    0    0    0  501  0.00000000000E+00  0.00000000000E+00  0.14945035502E+04  0.14945035502E+04  0.25500000920E-02 0.  1.
        2   -1    0    0  501    0  0.00000000000E+00  0.00000000000E+00 -0.20591435038E+04  0.20591435038E+04  0.25500000920E-02 0. -1.
    10030    2    1    2    0    0  0.00000000000E+00  0.00000000000E+00 -0.56463995363E+03  0.35536470540E+04  0.35085024024E+04 0.  0.
        4    1    3    3  502    0  0.16329215577E+04 -0.54518695628E+03 -0.62390414483E+03  0.18310979290E+04  0.12699999809E+01 0. -1.
       -4    1    3    3    0  502 -0.16329215577E+04  0.54518695628E+03  0.59264191209E+02  0.17225491250E+04  0.12699999809E+01 0.  1.
</event>
<event>
 5   0  0.2933506E-07  0.3520250E+04  0.7818609E-02  0.8109008E-01
        1   -1    0    0  501    0  0.00000000000E+00  0.00000000000E+00  0.12567965721E+04  0.12567965721E+04  0.50400001928E-02 0. -1.
       -1   -1    0    0    0  501  0.00000000000E+00  0.00000000000E+00 -0.24650287537E+04  0.24650287538E+04  0.50400001928E-02 0.  1.
    10030    2    1    2    0    0  0.00000000000E+00  0.00000000000E+00 -0.12082321817E+04  0.37218253258E+04  0.35202498137E+04 0.  0.
        4    1    3    3  502    0 -0.88049925804E+03 -0.28591679304E+03  0.97860529097E+03  0.13471070055E+04  0.12699999809E+01 0. -1.
       -4    1    3    3    0  502  0.88049925804E+03  0.28591679304E+03 -0.21868374727E+04  0.23747183203E+04  0.12699999809E+01 0.  1.
</event>
<event>
 5   0  0.3061330E-07  0.3511560E+04  0.7818609E-02  0.8111056E-01
        1   -1    0    0  501    0  0.00000000000E+00  0.00000000000E+00  0.26404251715E+04  0.26404251715E+04  0.50400001928E-02 0.  1.
       -1   -1    0    0    0  501  0.00000000000E+00  0.00000000000E+00 -0.11675252597E+04  0.11675252598E+04  0.50400001928E-02 0. -1.
    10030    2    1    2    0    0  0.00000000000E+00  0.00000000000E+00  0.14728999118E+04  0.38079504313E+04  0.35115598154E+04 0.  0.
        5    1    3    3  502    0  0.88166078987E+02  0.49945347464E+03 -0.10863539264E+04  0.11989220050E+04  0.46999998093E+01 0. -1.
       -5    1    3    3    0  502 -0.88166078987E+02 -0.49945347464E+03  0.25592538381E+04  0.26090284262E+04  0.46999998093E+01 0.  1.
</event>
<event>
 5   0  0.2933506E-07  0.3681024E+04  0.7818609E-02  0.8072180E-01
       -1   -1    0    0    0  501  0.00000000000E+00  0.00000000000E+00  0.17910518704E+04  0.17910518704E+04  0.50400001928E-02 0. -1.
        1   -1    0    0  501    0  0.00000000000E+00  0.00000000000E+00 -0.18913375200E+04  0.18913375200E+04  0.50400001928E-02 0.  1.
    10030    2    1    2    0    0  0.00000000000E+00  0.00000000000E+00 -0.10028564961E+03  0.36823893904E+04  0.36810235548E+04 0.  0.
        4    1    3    3  502    0 -0.51289138970E+03  0.13476810884E+04  0.10940385730E+04  0.18100342278E+04  0.12699999809E+01 0. -1.
       -4    1    3    3    0  502  0.51289138970E+03 -0.13476810884E+04 -0.11943242226E+04  0.18723551627E+04  0.12699999809E+01 0.  1.
</event>
<event>
 5   0  0.2936607E-07  0.3522569E+04  0.7818609E-02  0.8108462E-01
       -1   -1    0    0    0  501  0.00000000000E+00  0.00000000000E+00  0.15489162823E+04  0.15489162823E+04  0.50400001928E-02 0. -1.
        1   -1    0    0  501    0  0.00000000000E+00  0.00000000000E+00 -0.20027704890E+04  0.20027704890E+04  0.50400001928E-02 0.  1.
    10030    2    1    2    0    0  0.00000000000E+00  0.00000000000E+00 -0.45385420674E+03  0.35516867713E+04  0.35225694145E+04 0.  0.
        2    1    3    3  502    0 -0.46136584328E+03 -0.16802532725E+04  0.32129204226E+02  0.17427397359E+04  0.25500000920E-02 0.  1.
       -2    1    3    3    0  502  0.46136584328E+03  0.16802532725E+04 -0.48598341097E+03  0.18089470354E+04  0.25500000920E-02 0. -1.
</event>
<event>
 5   0  0.6188930E-07  0.3535632E+04  0.7818609E-02  0.8105397E-01
       -2   -1    0    0    0  501  0.00000000000E+00  0.00000000000E+00  0.19315819981E+04  0.19315819981E+04  0.25500000920E-02 0. -1.
        2   -1    0    0  501    0  0.00000000000E+00  0.00000000000E+00 -0.16179343406E+04  0.16179343407E+04  0.25500000920E-02 0.  1.
    10030    2    1    2    0    0  0.00000000000E+00  0.00000000000E+00  0.31364765747E+03  0.35495163388E+04  0.35356316814E+04 0.  0.
        3    1    3    3  502    0 -0.17297956910E+04  0.16693224956E+03  0.48230888614E+03  0.18035191655E+04  0.10100000352E+00 0. -1.
       -3    1    3    3    0  502  0.17297956910E+04 -0.16693224956E+03 -0.16866122867E+03  0.17459971732E+04  0.10100000352E+00 0.  1.
</event>
<event>
 5   0  0.9311672E-07  0.3541282E+04  0.7818609E-02  0.8104076E-01
        2   -1    0    0  501    0  0.00000000000E+00  0.00000000000E+00  0.26229211070E+04  0.26229211070E+04  0.25500000920E-02 0.  1.
       -2   -1    0    0    0  501  0.00000000000E+00  0.00000000000E+00 -0.11952967590E+04  0.11952967590E+04  0.25500000920E-02 0. -1.
    10030    2    1    2    0    0  0.00000000000E+00  0.00000000000E+00  0.14276243480E+04  0.38182178659E+04  0.35412817443E+04 0.  0.
        4    1    3    3  502    0  0.12037708038E+04 -0.12190750265E+04  0.11959499449E+04  0.20893793222E+04  0.12699999809E+01 0. -1.
       -4    1    3    3    0  502 -0.12037708038E+04  0.12190750265E+04  0.23167440310E+03  0.17288385438E+04  0.12699999809E+01 0.  1.
</event>
<event>
 5   0  0.2972541E-07  0.3645030E+04  0.7818609E-02  0.8080254E-01
       -1   -1    0    0    0  501  0.00000000000E+00  0.00000000000E+00  0.17087463393E+04  0.17087463394E+04  0.50400001928E-02 0. -1.
        1   -1    0    0  501    0  0.00000000000E+00  0.00000000000E+00 -0.19438578922E+04  0.19438578922E+04  0.50400001928E-02 0.  1.
    10030    2    1    2    0    0  0.00000000000E+00  0.00000000000E+00 -0.23511155286E+03  0.36526042316E+04  0.36450295239E+04 0.  0.
        3    1    3    3  502    0 -0.64909860181E+02  0.18213240901E+04 -0.12877351724E+03  0.18270241815E+04  0.10100000352E+00 0.  1.
       -3    1    3    3    0  502  0.64909860181E+02 -0.18213240901E+04 -0.10633803562E+03  0.18255800500E+04  0.10100000352E+00 0. -1.
</event>
<event>
 5   0  0.8845195E-07  0.3546490E+04  0.7818609E-02  0.8102860E-01
        2   -1    0    0  501    0  0.00000000000E+00  0.00000000000E+00  0.25891450375E+04  0.25891450375E+04  0.25500000920E-02 0.  1.
       -2   -1    0    0    0  501  0.00000000000E+00  0.00000000000E+00 -0.12144541193E+04  0.12144541193E+04  0.25500000920E-02 0. -1.
    10030    2    1    2    0    0  0.00000000000E+00  0.00000000000E+00  0.13746909182E+04  0.38035991568E+04  0.35464900148E+04 0.  0.
        5    1    3    3  502    0 -0.83559366157E+03  0.54158348353E+03 -0.88628414240E+03  0.13330608043E+04  0.46999998093E+01 0. -1.
       -5    1    3    3    0  502  0.83559366157E+03 -0.54158348353E+03  0.22609750606E+04  0.24705383525E+04  0.46999998093E+01 0.  1.
</event>
<event>
 5   0  0.9311672E-07  0.3408237E+04  0.7818609E-02  0.8135888E-01
       -2   -1    0    0    0  501  0.00000000000E+00  0.00000000000E+00  0.17045097050E+04  0.17045097050E+04  0.25500000920E-02 0. -1.
        2   -1    0    0  501    0  0.00000000000E+00  0.00000000000E+00 -0.17037272723E+04  0.17037272723E+04  0.25500000920E-02 0.  1.
    10030    2    1    2    0    0  0.00000000000E+00  0.00000000000E+00  0.78243271814E+00  0.34082369773E+04  0.34082368875E+04 0.  0.
        4    1    3    3  502    0  0.29336846069E+03  0.43234520217E+03 -0.16216540261E+04  0.17037461139E+04  0.12699999809E+01 0.  1.
       -4    1    3    3    0  502 -0.29336846069E+03 -0.43234520217E+03  0.16224364588E+04  0.17044908634E+04  0.12699999809E+01 0. -1.
</event>
<event>
 5   0  0.2933506E-07  0.3512569E+04  0.7818609E-02  0.8110818E-01
        1   -1    0    0  501    0  0.00000000000E+00  0.00000000000E+00  0.17044420246E+04  0.17044420246E+04  0.50400001928E-02 0.  1.
       -1   -1    0    0    0  501  0.00000000000E+00  0.00000000000E+00 -0.18097035524E+04  0.18097035524E+04  0.50400001928E-02 0. -1.
    10030    2    1    2    0    0  0.00000000000E+00  0.00000000000E+00 -0.10526152784E+03  0.35141455771E+04  0.35125687392E+04 0.  0.
        4    1    3    3  502    0 -0.16929523443E+04  0.42122630770E+03 -0.25524064376E+03  0.17631416963E+04  0.12699999809E+01 0.  1.
       -4    1    3    3    0  502  0.16929523443E+04 -0.42122630770E+03  0.14997911592E+03  0.17510038807E+04  0.12699999809E+01 0. -1.
</event>
<event>
 5   0  0.9128871E-07  0.3484745E+04  0.7818609E-02  0.8117415E-01
        2   -1    0    0  501    0  0.00000000000E+00  0.00000000000E+00  0.19057361330E+04  0.19057361330E+04  0.25500000920E-02 0.  1.
       -2   -1    0    0    0  501  0.00000000000E+00  0.00000000000E+00 -0.15930130609E+04  0.15930130609E+04  0.25500000920E-02 0. -1.
    10030    2    1    2    0    0  0.00000000000E+00  0.00000000000E+00  0.31272307206E+03  0.34987491939E+04  0.34847453568E+04 0.  0.
        1    1    3    3  502    0 -0.59652503217E+03 -0.12682064589E+04  0.11957379807E+04  0.18422755100E+04  0.50400001928E-02 0.  1.
       -1    1    3    3    0  502  0.59652503217E+03  0.12682064589E+04 -0.88301490862E+03  0.16564736839E+04  0.50400001928E-02 0. -1.
</event>
<event>
 5   0  0.2933506E-07  0.3449939E+04  0.7818609E-02  0.8125757E-01
       -1   -1    0    0    0  501  0.00000000000E+00  0.00000000000E+00  0.13439421176E+04  0.13439421176E+04  0.50400001928E-02 0. -1.
        1   -1    0    0  501    0  0.00000000000E+00  0.00000000000E+00 -0.22140233569E+04  0.22140233569E+04  0.50400001928E-02 0.  1.
    10030    2    1    2    0    0  0.00000000000E+00  0.00000000000E+00 -0.87008123933E+03  0.35579654746E+04  0.34499386886E+04 0.  0.
        4    1    3    3  502    0  0.63761835657E+03  0.42092391542E+03  0.11599248552E+04  0.13889425452E+04  0.12699999809E+01 0. -1.
       -4    1    3    3    0  502 -0.63761835657E+03 -0.42092391542E+03 -0.20300060946E+04  0.21690229294E+04  0.12699999809E+01 0.  1.
</event>
<event>
 5   0  0.3026332E-07  0.3497462E+04  0.7818609E-02  0.8114392E-01
        1   -1    0    0  501    0  0.00000000000E+00  0.00000000000E+00  0.13796691469E+04  0.13796691469E+04  0.50400001928E-02 0.  1.
       -1   -1    0    0    0  501  0.00000000000E+00  0.00000000000E+00 -0.22165169147E+04  0.22165169147E+04  0.50400001928E-02 0. -1.
    10030    2    1    2    0    0  0.00000000000E+00  0.00000000000E+00 -0.83684776780E+03  0.35961860616E+04  0.34974619374E+04 0.  0.
        1    1    3    3  502    0  0.86488928079E+03 -0.14523449431E+04  0.42241137377E+02  0.16908943241E+04  0.50400001928E-02 0.  1.
       -1    1    3    3    0  502 -0.86488928079E+03  0.14523449431E+04 -0.87908890518E+03  0.19052917375E+04  0.50400001928E-02 0. -1.
</event>
<event>
 5   0  0.6188930E-07  0.3498051E+04  0.7818609E-02  0.8114252E-01
       -2   -1    0    0    0  501  0.00000000000E+00  0.00000000000E+00  0.16161977183E+04  0.16161977183E+04  0.25500000920E-02 0.  1.
        2   -1    0    0  501    0  0.00000000000E+00  0.00000000000E+00 -0.18927702238E+04  0.18927702239E+04  0.25500000920E-02 0. -1.
    10030    2    1    2    0    0  0.00000000000E+00  0.00000000000E+00 -0.27657250558E+03  0.35089679421E+04  0.34980514101E+04 0.  0.
        3    1    3    3  502    0 -0.13087080270E+04  0.12777906538E+02  0.10255979378E+04  0.16627480612E+04  0.10100000352E+00 0.  1.
       -3    1    3    3    0  502  0.13087080270E+04 -0.12777906538E+02 -0.13021704434E+04  0.18462198809E+04  0.10100000352E+00 0. -1.
</event>
<event>
 5   0  0.3061330E-07  0.3489465E+04  0.7818609E-02  0.8116291E-01
        1   -1    0    0  501    0  0.00000000000E+00  0.00000000000E+00  0.27532798958E+04  0.27532798958E+04  0.50400001928E-02 0. -1.
       -1   -1    0    0    0  501  0.00000000000E+00  0.00000000000E+00 -0.11056235203E+04  0.11056235203E+04  0.50400001928E-02 0.  1.
    10030    2    1    2    0    0  0.00000000000E+00  0.00000000000E+00  0.16476563756E+04  0.38589034161E+04  0.34894647215E+04 0.  0.
        5    1    3    3  502    0 -0.12606725723E+04  0.33099432686E+03 -0.45880113441E+03  0.13818006911E+04  0.46999998093E+01 0. -1.
       -5    1    3    3    0  502  0.12606725723E+04 -0.33099432686E+03  0.21064575100E+04  0.24771027250E+04  0.46999998093E+01 0.  1.
</event>
<event>
 5   0  0.6188930E-07  0.3766640E+04  0.7818609E-02  0.8053352E-01
        2   -1    0    0  501    0  0.00000000000E+00  0.00000000000E+00  0.15821342363E+04  0.15821342363E+04  0.25500000920E-02 0.  1.
       -2   -1    0    0    0  501  0.00000000000E+00  0.00000000000E+00 -0.22418415237E+04  0.22418415237E+04  0.25500000920E-02 0. -1.
    10030    2    1    2    0    0  0.00000000000E+00  0.00000000000E+00 -0.65970728742E+03  0.38239757601E+04  0.37666400025E+04 0.  0.
        3    1    3    3  502    0  0.10178618872E+04 -0.23929994696E+03 -0.19200902305E+04  0.21863334122E+04  0.10100000352E+00 0. -1.
       -3    1    3    3    0  502 -0.10178618872E+04  0.23929994696E+03  0.12603829431E+04  0.16376423478E+04  0.10100000352E+00 0.  1.
</event>
<event>
 5   0  0.9311672E-07  0.3444460E+04  0.7818609E-02  0.8127080E-01
       -2   -1    0    0    0  501  0.00000000000E+00  0.00000000000E+00  0.11889493732E+04  0.11889493732E+04  0.25500000920E-02 0. -1.
        2   -1    0    0  501    0  0.00000000000E+00  0.00000000000E+00 -0.24947039314E+04  0.24947039314E+04  0.25500000920E-02 0.  1.
    10030    2    1    2    0    0  0.00000000000E+00  0.00000000000E+00 -0.13057545581E+04  0.36836533046E+04  0.34444602919E+04 0.  0.
        4    1    3    3  502    0  0.74698070037E+03  0.15067896828E+04 -0.10496964061E+04  0.19824882024E+04  0.12699999809E+01 0. -1.
       -4    1    3    3    0  502 -0.74698070037E+03 -0.15067896828E+04 -0.25605815208E+03  0.17011651022E+04  0.12699999809E+01 0.  1.
</event>
<event>
 5   0  0.6188930E-07  0.3498684E+04  0.7818609E-02  0.8114102E-01
       -2   -1    0    0    0  501  0.00000000000E+00  0.00000000000E+00  0.14700986010E+04  0.14700986010E+04  0.25500000920E-02 0.  1.
        2   -1    0    0  501    0  0.00000000000E+00  0.00000000000E+00 -0.20816273716E+04  0.20816273716E+04  0.25500000920E-02 0. -1.
    10030    2    1    2    0    0  0.00000000000E+00  0.00000000000E+00 -0.61152877060E+03  0.35517259726E+04  0.34986840308E+04 0.  0.
        3    1    3    3  502    0  0.13087341712E+04  0.10389231127E+04 -0.83135007814E+03  0.18663572347E+04  0.10100000352E+00 0. -1.
       -3    1    3    3    0  502 -0.13087341712E+04 -0.10389231127E+04  0.21982130754E+03  0.16853687378E+04  0.10100000352E+00 0.  1.
</event>
<event>
 5   0  0.9128871E-07  0.3477401E+04  0.7818609E-02  0.8119167E-01
        2   -1    0    0  501    0  0.00000000000E+00  0.00000000000E+00  0.18344068619E+04  0.18344068619E+04  0.25500000920E-02 0.  1.
       -2   -1    0    0    0  501  0.00000000000E+00  0.00000000000E+00 -0.16479875416E+04  0.16479875416E+04  0.25500000920E-02 0. -1.
    10030    2    1    2    0    0  0.00000000000E+00  0.00000000000E+00  0.18641932027E+03  0.34823944035E+04  0.34774011300E+04 0.  0.
        1    1    3    3  502    0 -0.15711120519E+04 -0.68615098016E+03 -0.19683254453E+03  0.17256706805E+04  0.50400001928E-02 0. -1.
       -1    1    3    3    0  502  0.15711120519E+04  0.68615098016E+03  0.38325186480E+03  0.17567237230E+04  0.50400001928E-02 0.  1.
</event>
<event>
 5   0  0.8845195E-07  0.3520482E+04  0.7818609E-02  0.8108953E-01
        2   -1    0    0  501    0  0.00000000000E+00  0.00000000000E+00  0.13469480505E+04  0.13469480505E+04  0.25500000920E-02 0. -1.
       -2   -1    0    0    0  501  0.00000000000E+00  0.00000000000E+00 -0.23003471084E+04  0.23003471084E+04  0.25500000920E-02 0.  1.
    10030    2    1    2    0    0  0.00000000000E+00  0.00000000000E+00 -0.95339905794E+03  0.36472951589E+04  0.35204818154E+04 0.  0.
        5    1    3    3  502    0  0.11358810218E+04 -0.82610232095E+03 -0.15759351416E+04  0.21109865942E+04  0.46999998093E+01 0.  1.
       -5    1    3    3    0  502 -0.11358810218E+04  0.82610232095E+03  0.62253608369E+03  0.15363085647E+04  0.46999998093E+01 0. -1.
</event>
<event>
 5   0  0.2936607E-07  0.3504155E+04  0.7818609E-02  0.8112806E-01
        1   -1    0    0  501    0  0.00000000000E+00  0.00000000000E+00  0.14040679875E+04  0.14040679875E+04  0.50400001928E-02 0.  1.
       -1   -1    0    0    0  501  0.00000000000E+00  0.00000000000E+00 -0.21863438965E+04  0.21863438965E+04  0.50400001928E-02 0. -1.
    10030    2    1    2    0    0  0.00000000000E+00  0.00000000000E+00 -0.78227590901E+03  0.35904118840E+04  0.35041549479E+04 0.  0.
        2    1    3    3  502    0  0.11424616291E+04  0.90133015292E+03 -0.13909448616E+04  0.20130430266E+04  0.25500000920E-02 0. -1.
       -2    1    3    3    0  502 -0.11424616291E+04 -0.90133015292E+03  0.60866895263E+03  0.15773688575E+04  0.25500000920E-02 0.  1.
</event>
<event>
 5   0  0.8845195E-07  0.3207441E+04  0.7818609E-02  0.8186855E-01
       -2   -1    0    0    0  501  0.00000000000E+00  0.00000000000E+00  0.19105556871E+04  0.19105556871E+04  0.25500000920E-02 0.  1.
        2   -1    0    0  501    0  0.00000000000E+00  0.00000000000E+00 -0.13461633891E+04  0.13461633891E+04  0.25500000920E-02 0. -1.
    10030    2    1    2    0    0  0.00000000000E+00  0.00000000000E+00  0.56439229799E+03  0.32567190762E+04  0.32074414220E+04 0.  0.
        5    1    3    3  502    0 -0.14857566966E+04 -0.18183788554E+03 -0.30228652075E+03  0.15270681742E+04  0.46999998093E+01 0. -1.
       -5    1    3    3    0  502  0.14857566966E+04  0.18183788554E+03  0.86667881874E+03  0.17296509020E+04  0.46999998093E+01 0.  1.
</event>
<event>
 5   0  0.2933506E-07  0.2915791E+04  0.7818609E-02  0.8268195E-01
       -1   -1    0    0    0  501  0.00000000000E+00  0.00000000000E+00  0.10367668747E+04  0.10367668747E+04  0.50400001928E-02 0. -1.
        1   -1    0    0  501    0  0.00000000000E+00  0.00000000000E+00 -0.20500837335E+04  0.20500837336E+04  0.50400001928E-02 0.  1.
    10030    2    1    2    0    0  0.00000000000E+00  0.00000000000E+00 -0.10133168588E+04  0.30868506083E+04  0.29157907369E+04 0.  0.
        4    1    3    3  502    0 -0.10481268888E+04  0.53688150985E+03 -0.14165241564E+04  0.18421058681E+04  0.12699999809E+01 0.  1.
       -4    1    3    3    0  502  0.10481268888E+04 -0.53688150985E+03  0.40320729759E+03  0.12447447402E+04  0.12699999809E+01 0. -1.
</event>
<event>
 5   0  0.2933506E-07  0.3642520E+04  0.7818609E-02  0.8080821E-01
       -1   -1    0    0    0  501  0.00000000000E+00  0.00000000000E+00  0.15374056828E+04  0.15374056828E+04  0.50400001928E-02 0. -1.
        1   -1    0    0  501    0  0.00000000000E+00  0.00000000000E+00 -0.21575231513E+04  0.21575231513E+04  0.50400001928E-02 0.  1.
    10030    2    1    2    0    0  0.00000000000E+00  0.00000000000E+00 -0.62011746853E+03  0.36949288341E+04  0.36425202010E+04 0.  0.
        4    1    3    3  502    0  0.25911093507E+03 -0.12089052338E+04  0.10464918807E+04  0.16197954223E+04  0.12699999809E+01 0. -1.
       -4    1    3    3    0  502 -0.25911093507E+03  0.12089052338E+04 -0.16666093492E+04  0.20751334118E+04  0.12699999809E+01 0.  1.
</event>
<event>
 5   0  0.2972541E-07  0.3443667E+04  0.7818609E-02  0.8127271E-01
        1   -1    0    0  501    0  0.00000000000E+00  0.00000000000E+00  0.11039404778E+04  0.11039404778E+04  0.50400001928E-02 0. -1.
       -1   -1    0    0    0  501  0.00000000000E+00  0.00000000000E+00 -0.26855713874E+04  0.26855713874E+04  0.50400001928E-02 0.  1.
    10030    2    1    2    0    0  0.00000000000E+00  0.00000000000E+00 -0.15816309096E+04  0.37895118653E+04  0.34436672085E+04 0.  0.
        3    1    3    3  502    0  0.10664290994E+04  0.86995883964E+03 -0.19294334858E+04  0.23699816440E+04  0.10100000352E+00 0.  1.
       -3    1    3    3    0  502 -0.10664290994E+04 -0.86995883964E+03  0.34780257621E+03  0.14195302212E+04  0.10100000352E+00 0. -1.
</event>
<event>
 5   0  0.9311672E-07  0.3465890E+04  0.7818609E-02  0.8121922E-01
       -2   -1    0    0    0  501  0.00000000000E+00  0.00000000000E+00  0.14850918617E+04  0.14850918617E+04  0.25500000920E-02 0.  1.
        2   -1    0    0  501    0  0.00000000000E+00  0.00000000000E+00 -0.20221628386E+04  0.20221628386E+04  0.25500000920E-02 0. -1.
    10030    2    1    2    0    0  0.00000000000E+00  0.00000000000E+00 -0.53707097694E+03  0.35072547003E+04  0.34658895393E+04 0.  0.
        4    1    3    3  502    0  0.14984134277E+03  0.10227677076E+03 -0.20125262996E+04  0.20206871815E+04  0.12699999809E+01 0. -1.
       -4    1    3    3    0  502 -0.14984134277E+03 -0.10227677076E+03  0.14754553227E+04  0.14865675188E+04  0.12699999809E+01 0.  1.
</event>
<event>
 5   0  0.2933506E-07  0.3504886E+04  0.7818609E-02  0.8112633E-01
       -1   -1    0    0    0  501  0.00000000000E+00  0.00000000000E+00  0.13724198575E+04  0.13724198575E+04  0.50400001928E-02 0.  1.
        1   -1    0    0  501    0  0.00000000000E+00  0.00000000000E+00 -0.22376940823E+04  0.22376940823E+04  0.50400001928E-02 0. -1.
    10030    2    1    2    0    0  0.00000000000E+00  0.00000000000E+00 -0.86527422483E+03  0.36101139398E+04  0.35048856149E+04 0.  0.
        4    1    3    3  502    0 -0.19306690722E+03  0.58427338606E+03  0.12574814454E+04  0.13999683634E+04  0.12699999809E+01 0.  1.
       -4    1    3    3    0  502  0.19306690722E+03 -0.58427338606E+03 -0.21227556702E+04  0.22101455763E+04  0.12699999809E+01 0. -1.
</event>
<event>
 5   0  0.8950809E-07  0.3412725E+04  0.7818609E-02  0.8134790E-01
       -2   -1    0    0    0  501  0.00000000000E+00  0.00000000000E+00  0.19553910831E+04  0.19553910831E+04  0.25500000920E-02 0.  1.
        2   -1    0    0  501    0  0.00000000000E+00  0.00000000000E+00 -0.14890491855E+04  0.14890491855E+04  0.25500000920E-02 0. -1.
    10030    2    1    2    0    0  0.00000000000E+00  0.00000000000E+00  0.46634189757E+03  0.34444402685E+04  0.34127253036E+04 0.  0.
        2    1    3    3  502    0  0.15999320447E+04  0.42989705786E+03  0.64572311503E+03  0.17780754678E+04  0.25500000920E-02 0. -1.
       -2    1    3    3    0  502 -0.15999320447E+04 -0.42989705786E+03 -0.17938121746E+03  0.16663648007E+04  0.25500000920E-02 0.  1.
</event>
<event>
 5   0  0.8845195E-07  0.3490681E+04  0.7818609E-02  0.8116002E-01
        2   -1    0    0  501    0  0.00000000000E+00  0.00000000000E+00  0.31128047696E+04  0.31128047696E+04  0.25500000920E-02 0.  1.
       -2   -1    0    0    0  501  0.00000000000E+00  0.00000000000E+00 -0.97860722892E+03  0.97860722893E+03  0.25500000920E-02 0. -1.
    10030    2    1    2    0    0  0.00000000000E+00  0.00000000000E+00  0.21341975407E+04  0.40914119985E+04  0.34906808790E+04 0.  0.
        5    1    3    3  502    0 -0.17035007956E+04  0.23842254450E+03  0.72052513987E+03  0.18649232792E+04  0.46999998093E+01 0. -1.
       -5    1    3    3    0  502  0.17035007956E+04 -0.23842254450E+03  0.14136724008E+04  0.22264887193E+04  0.46999998093E+01 0.  1.
</event>
<event>
 5   0  0.2972541E-07  0.3541507E+04  0.7818609E-02  0.8104023E-01
        1   -1    0    0  501    0  0.00000000000E+00  0.00000000000E+00  0.19635603739E+04  0.19635603739E+04  0.50400001928E-02 0. -1.
       -1   -1    0    0    0  501  0.00000000000E+00  0.00000000000E+00 -0.15968785917E+04  0.15968785917E+04  0.50400001928E-02 0.  1.
    10030    2    1    2    0    0  0.00000000000E+00  0.00000000000E+00  0.36668178215E+03  0.35604389656E+04  0.35415067554E+04 0.  0.
        3    1    3    3  502    0 -0.48542533013E+03  0.15309926123E+04 -0.56629349849E+03  0.17030162849E+04  0.10100000352E+00 0.  1.
       -3    1    3    3    0  502  0.48542533013E+03 -0.15309926123E+04  0.93297528065E+03  0.18574226807E+04  0.10100000352E+00 0. -1.
</event>
<event>
 5   0  0.3061330E-07  0.3426649E+04  0.7818609E-02  0.8131397E-01
       -1   -1    0    0    0  501  0.00000000000E+00  0.00000000000E+00  0.93712455675E+03  0.93712455677E+03  0.50400001928E-02 0.  1.
        1   -1    0    0  501    0  0.00000000000E+00  0.00000000000E+00 -0.31324332797E+04  0.31324332797E+04  0.50400001928E-02 0. -1.
    10030    2    1    2    0    0  0.00000000000E+00  0.00000000000E+00 -0.21953087229E+04  0.40695578365E+04  0.34266485952E+04 0.  0.
        5    1    3    3  502    0  0.88241764061E+03  0.21557764865E+03  0.62759615968E+03  0.11040985666E+04  0.46999998093E+01 0.  1.
       -5    1    3    3    0  502 -0.88241764061E+03 -0.21557764865E+03 -0.28229048826E+04  0.29654592699E+04  0.46999998093E+01 0. -1.
</event>
<event>
 5   0  0.2972541E-07  0.3439872E+04  0.7818609E-02  0.8128189E-01
       -1   -1    0    0    0  501  0.00000000000E+00  0.00000000000E+00  0.15987789396E+04  0.15987789396E+04  0.50400001928E-02 0.  1.
        1   -1    0    0  501    0  0.00000000000E+00  0.00000000000E+00 -0.18502746995E+04  0.18502746995E+04  0.50400001928E-02 0. -1.
    10030    2    1    2    0    0  0.00000000000E+00  0.00000000000E+00 -0.25149575995E+03  0.34490536391E+04  0.34398722197E+04 0.  0.
        3    1    3    3  502    0  0.11614256368E+04  0.37476442586E+03 -0.13409325189E+04  0.18131348310E+04  0.10100000352E+00 0. -1.
       -3    1    3    3    0  502 -0.11614256368E+04 -0.37476442586E+03  0.10894367590E+04  0.16359188081E+04  0.10100000352E+00 0.  1.
</event>
<event>
 5   0  0.8950809E-07  0.3474700E+04  0.7818609E-02  0.8119812E-01
       -2   -1    0    0    0  501  0.00000000000E+00  0.00000000000E+00  0.11200576468E+04  0.11200576468E+04  0.25500000920E-02 0.  1.
        2   -1    0    0  501    0  0.00000000000E+00  0.00000000000E+00 -0.26948477720E+04  0.26948477720E+04  0.25500000920E-02 0. -1.
    10030    2    1    2    0    0  0.00000000000E+00  0.00000000000E+00 -0.15747901252E+04  0.38149054188E+04  0.34746999029E+04 0.  0.
        2    1    3    3  502    0 -0.48974266838E+02 -0.14537295732E+04 -0.18304994661E+04  0.23380454329E+04  0.25500000920E-02 0. -1.
       -2    1    3    3    0  502  0.48974266838E+02  0.14537295732E+04  0.25570934090E+03  0.14768599858E+04  0.25500000920E-02 0.  1.
</event>
<event>
 5   0  0.2933506E-07  0.3514272E+04  0.7818609E-02  0.8110416E-01
       -1   -1    0    0    0  501  0.00000000000E+00  0.00000000000E+00  0.16224018280E+04  0.16224018280E+04  0.50400001928E-02 0.  1.
        1   -1    0    0  501    0  0.00000000000E+00  0.00000000000E+00 -0.19030596939E+04  0.19030596939E+04  0.50400001928E-02 0. -1.
    10030    2    1    2    0    0  0.00000000000E+00  0.00000000000E+00 -0.28065786589E+03  0.35254615218E+04  0.35142723435E+04 0.  0.
        4    1    3    3  502    0  0.98837796740E+03  0.32637464381E+02 -0.15973891617E+04  0.18787256205E+04  0.12699999809E+01 0. -1.
       -4    1    3    3    0  502 -0.98837796740E+03 -0.32637464381E+02  0.13167312958E+04  0.16467359013E+04  0.12699999809E+01 0.  1.
</event>
<event>
 5   0  0.6188930E-07  0.3512987E+04  0.7818609E-02  0.8110719E-01
       -2   -1    0    0    0  501  0.00000000000E+00  0.00000000000E+00  0.14391321652E+04  0.14391321652E+04  0.25500000920E-02 0. -1.
        2   -1    0    0  501    0  0.00000000000E+00  0.00000000000E+00 -0.21438402711E+04  0.21438402711E+04  0.25500000920E-02 0.  1.
    10030    2    1    2    0    0  0.00000000000E+00  0.00000000000E+00 -0.70470810585E+03  0.35829724363E+04  0.35129870431E+04 0.  0.
        3    1    3    3  502    0  0.29981869957E+03 -0.14438250963E+04  0.62098885787E+03  0.16000466659E+04  0.10100000352E+00 0. -1.
       -3    1    3    3    0  502 -0.29981869957E+03  0.14438250963E+04 -0.13256969637E+04  0.19829257704E+04  0.10100000352E+00 0.  1.
</event>
<event>
 5   0  0.8845195E-07  0.2886150E+04  0.7818609E-02  0.8277010E-01
       -2   -1    0    0    0  501  0.00000000000E+00  0.00000000000E+00  0.10483640269E+04  0.10483640269E+04  0.25500000920E-02 0.  1.
        2   -1    0    0  501    0  0.00000000000E+00  0.00000000000E+00 -0.19863960560E+04  0.19863960560E+04  0.25500000920E-02 0. -1.
    10030    2    1    2    0    0  0.00000000000E+00  0.00000000000E+00 -0.93803202910E+03  0.30347600828E+04  0.28861504938E+04 0.  0.
        5    1    3    3  502    0  0.61562875520E+03 -0.12965479209E+04 -0.31161239416E+03  0.14687272210E+04  0.46999998093E+01 0. -1.
       -5    1    3    3    0  502 -0.61562875520E+03  0.12965479209E+04 -0.62641963494E+03  0.15660328619E+04  0.46999998093E+01 0.  1.
</event>
<event>
 5   0  0.9128871E-07  0.3457906E+04  0.7818609E-02  0.8123839E-01
       -2   -1    0    0    0  501  0.00000000000E+00  0.00000000000E+00  0.10944577304E+04  0.10944577304E+04  0.25500000920E-02 0. -1.
        2   -1    0    0  501    0  0.00000000000E+00  0.00000000000E+00 -0.27312870559E+04  0.27312870559E+04  0.25500000920E-02 0.  1.
    10030    2    1    2    0    0  0.00000000000E+00  0.00000000000E+00 -0.16368293255E+04  0.38257447863E+04  0.34579058589E+04 0.  0.
        1    1    3    3  502    0  0.20919408025E+03 -0.10075683317E+04 -0.23555698818E+04  0.25705379932E+04  0.50400001928E-02 0.  1.
       -1    1    3    3    0  502 -0.20919408025E+03  0.10075683317E+04  0.71874055628E+03  0.12552067931E+04  0.50400001928E-02 0. -1.
</event>
<event>
 5   0  0.2933506E-07  0.3550695E+04  0.7818609E-02  0.8101880E-01
       -1   -1    0    0    0  501  0.00000000000E+00  0.00000000000E+00  0.11174995674E+04  0.11174995674E+04  0.50400001928E-02 0. -1.
        1   -1    0    0  501    0  0.00000000000E+00  0.00000000000E+00 -0.28204556831E+04  0.28204556832E+04  0.50400001928E-02 0.  1.
    10030    2    1    2    0    0  0.00000000000E+00  0.00000000000E+00 -0.17029561158E+04  0.39379552505E+04  0.35506945831E+04 0.  0.
        4    1    3    3  502    0 -0.11765727536E+03  0.15700130679E+04 -0.17613667369E+04  0.23624560657E+04  0.12699999809E+01 0.  1.
       -4    1    3    3    0  502  0.11765727536E+03 -0.15700130679E+04  0.58410621109E+02  0.15754991848E+04  0.12699999809E+01 0. -1.
</event>
<event>
 5   0  0.9128871E-07  0.3448133E+04  0.7818609E-02  0.8126193E-01
        2   -1    0    0  501    0  0.00000000000E+00  0.00000000000E+00  0.18008006857E+04  0.18008006857E+04  0.25500000920E-02 0.  1.
       -2   -1    0    0    0  501  0.00000000000E+00  0.00000000000E+00 -0.16506016926E+04  0.16506016926E+04  0.25500000920E-02 0. -1.
    10030    2    1    2    0    0  0.00000000000E+00  0.00000000000E+00  0.15019899314E+03  0.34514023783E+04  0.34481326308E+04 0.  0.
        1    1    3    3  502    0  0.81891948054E+03  0.70115450576E+03 -0.12715974084E+04  0.16670952959E+04  0.50400001928E-02 0. -1.
       -1    1    3    3    0  502 -0.81891948054E+03 -0.70115450576E+03  0.14217964016E+04  0.17843070824E+04  0.50400001928E-02 0.  1.
</event>
<event>
 5   0  0.2933506E-07  0.3498683E+04  0.7818609E-02  0.8114102E-01
        1   -1    0    0  501    0  0.00000000000E+00  0.00000000000E+00  0.24324311567E+04  0.24324311567E+04  0.50400001928E-02 0.  1.
       -1   -1    0    0    0  501  0.00000000000E+00  0.00000000000E+00 -0.12580807966E+04  0.12580807966E+04  0.50400001928E-02 0. -1.
    10030    2    1    2    0    0  0.00000000000E+00  0.00000000000E+00  0.11743503601E+04  0.36905119532E+04  0.34986825676E+04 0.  0.
        4    1    3    3  502    0 -0.90672925390E+03 -0.99002591589E+03  0.17702232248E+04  0.22217113072E+04  0.12699999809E+01 0.  1.
       -4    1    3    3    0  502  0.90672925390E+03  0.99002591589E+03 -0.59587286470E+03  0.14688006460E+04  0.12699999809E+01 0. -1.
</event>
<event>
 5   0  0.9311672E-07  0.3479576E+04  0.7818609E-02  0.8118647E-01
       -2   -1    0    0    0  501  0.00000000000E+00  0.00000000000E+00  0.19643367657E+04  0.19643367657E+04  0.25500000920E-02 0. -1.
        2   -1    0    0  501    0  0.00000000000E+00  0.00000000000E+00 -0.15409077547E+04  0.15409077547E+04  0.25500000920E-02 0.  1.
    10030    2    1    2    0    0  0.00000000000E+00  0.00000000000E+00  0.42342901104E+03  0.35052445204E+04  0.34795756954E+04 0.  0.
        4    1    3    3  502    0 -0.14960282529E+03  0.58540632868E+03  0.18552458544E+04  0.19511587245E+04  0.12699999809E+01 0. -1.
       -4    1    3    3    0  502  0.14960282529E+03 -0.58540632868E+03 -0.14318168434E+04  0.15540857959E+04  0.12699999809E+01 0.  1.
</event>
<event>
 5   0  0.3026332E-07  0.3422448E+04  0.7818609E-02  0.8132419E-01
       -1   -1    0    0    0  501  0.00000000000E+00  0.00000000000E+00  0.16741520960E+04  0.16741520960E+04  0.50400001928E-02 0.  1.
        1   -1    0    0  501    0  0.00000000000E+00  0.00000000000E+00 -0.17491165991E+04  0.17491165991E+04  0.50400001928E-02 0. -1.
    10030    2    1    2    0    0  0.00000000000E+00  0.00000000000E+00 -0.74964503058E+02  0.34232686951E+04  0.34224477910E+04 0.  0.
        1    1    3    3  502    0  0.65404332919E+03 -0.41570765229E+03  0.14885644270E+04  0.16782161905E+04  0.50400001928E-02 0.  1.
       -1    1    3    3    0  502 -0.65404332919E+03  0.41570765229E+03 -0.15635289301E+04  0.17450525046E+04  0.50400001928E-02 0. -1.
</event>
<event>
 5   0  0.6188930E-07  0.3446284E+04  0.7818609E-02  0.8126639E-01
        2   -1    0    0  501    0  0.00000000000E+00  0.00000000000E+00  0.20395097745E+04  0.20395097745E+04  0.25500000920E-02 0. -1.
       -2   -1    0    0    0  501  0.00000000000E+00  0.00000000000E+00 -0.14558492995E+04  0.14558492995E+04  0.25500000920E-02 0.  1.
    10030    2    1    2    0    0  0.00000000000E+00  0.00000000000E+00  0.58366047498E+03  0.34953590739E+04  0.34462843042E+04 0.  0.
        3    1    3    3  502    0 -0.55869354885E+03 -0.23819414665E+03  0.19273511123E+04  0.20207813472E+04  0.10100000352E+00 0. -1.
       -3    1    3    3    0  502  0.55869354885E+03  0.23819414665E+03 -0.13436906373E+04  0.14745777267E+04  0.10100000352E+00 0.  1.
</event>
<event>
 5   0  0.8845195E-07  0.3505314E+04  0.7818609E-02  0.8112532E-01
        2   -1    0    0  501    0  0.00000000000E+00  0.00000000000E+00  0.25188675127E+04  0.25188675127E+04  0.25500000920E-02 0.  1.
       -2   -1    0    0    0  501  0.00000000000E+00  0.00000000000E+00 -0.12195188410E+04  0.12195188410E+04  0.25500000920E-02 0. -1.
    10030    2    1    2    0    0  0.00000000000E+00  0.00000000000E+00  0.12993486718E+04  0.37383863537E+04  0.35053139030E+04 0.  0.
        5    1    3    3  502    0 -0.15269977245E+04  0.75309316169E+03  0.20619742520E+03  0.17150541767E+04  0.46999998093E+01 0.  1.
       -5    1    3    3    0  502  0.15269977245E+04 -0.75309316169E+03  0.10931512466E+04  0.20233321770E+04  0.46999998093E+01 0. -1.
</event>
<event>
 5   0  0.8950809E-07  0.3586068E+04  0.7818609E-02  0.8093690E-01
        2   -1    0    0  501    0  0.00000000000E+00  0.00000000000E+00  0.22298080275E+04  0.22298080275E+04  0.25500000920E-02 0.  1.
       -2   -1    0    0    0  501  0.00000000000E+00  0.00000000000E+00 -0.14418151166E+04  0.14418151166E+04  0.25500000920E-02 0. -1.
    10030    2    1    2    0    0  0.00000000000E+00  0.00000000000E+00  0.78799291095E+03  0.36716231441E+04  0.35860679978E+04 0.  0.
        2    1    3    3  502    0 -0.24972359355E+03 -0.14707083668E+04  0.14125294811E+04  0.20544061207E+04  0.25500000920E-02 0.  1.
       -2    1    3    3    0  502  0.24972359355E+03  0.14707083668E+04 -0.62453657019E+03  0.16172170235E+04  0.25500000920E-02 0. -1.
</event>
<event>
 5   0  0.8950809E-07  0.3458131E+04  0.7818609E-02  0.8123785E-01
       -2   -1    0    0    0  501  0.00000000000E+00  0.00000000000E+00  0.18283871946E+04  0.18283871946E+04  0.25500000920E-02 0.  1.
        2   -1    0    0  501    0  0.00000000000E+00  0.00000000000E+00 -0.16351388204E+04  0.16351388204E+04  0.25500000920E-02 0. -1.
    10030    2    1    2    0    0  0.00000000000E+00  0.00000000000E+00  0.19324837418E+03  0.34635260150E+04  0.34581306398E+04 0.  0.
        2    1    3    3  502    0 -0.67434640996E+03  0.12374614373E+04  0.10999920697E+04  0.17877461909E+04  0.25500000920E-02 0.  1.
       -2    1    3    3    0  502  0.67434640996E+03 -0.12374614373E+04 -0.90674369553E+03  0.16757798241E+04  0.25500000920E-02 0. -1.
</event>
<event>
 5   0  0.9128871E-07  0.3504580E+04  0.7818609E-02  0.8112705E-01
        2   -1    0    0  501    0  0.00000000000E+00  0.00000000000E+00  0.23879250976E+04  0.23879250976E+04  0.25500000920E-02 0. -1.
       -2   -1    0    0    0  501  0.00000000000E+00  0.00000000000E+00 -0.12858526546E+04  0.12858526546E+04  0.25500000920E-02 0.  1.
    10030    2    1    2    0    0  0.00000000000E+00  0.00000000000E+00  0.11020724430E+04  0.36737777522E+04  0.35045797612E+04 0.  0.
        1    1    3    3  502    0 -0.63862424972E+03  0.14761201369E+04  0.12801354318E+04  0.20556065564E+04  0.50400001928E-02 0. -1.
       -1    1    3    3    0  502  0.63862424972E+03 -0.14761201369E+04 -0.17806298886E+03  0.16181711958E+04  0.50400001928E-02 0.  1.
</event>
<event>
 5   0  0.2972541E-07  0.3503368E+04  0.7818609E-02  0.8112992E-01
        1   -1    0    0  501    0  0.00000000000E+00  0.00000000000E+00  0.24929822690E+04  0.24929822690E+04  0.50400001928E-02 0.  1.
       -1   -1    0    0    0  501  0.00000000000E+00  0.00000000000E+00 -0.12308138186E+04  0.12308138187E+04  0.50400001928E-02 0. -1.
    10030    2    1    2    0    0  0.00000000000E+00  0.00000000000E+00  0.12621684503E+04  0.37237960876E+04  0.35033681087E+04 0.  0.
        3    1    3    3  502    0 -0.46094042443E+03 -0.11100081487E+04 -0.72338176963E+03  0.14028062446E+04  0.10100000352E+00 0. -1.
       -3    1    3    3    0  502  0.46094042443E+03  0.11100081487E+04  0.19855502199E+04  0.23209898430E+04  0.10100000352E+00 0.  1.
</event>
<event>
 5   0  0.2972541E-07  0.3539727E+04  0.7818609E-02  0.8104439E-01
       -1   -1    0    0    0  501  0.00000000000E+00  0.00000000000E+00  0.13056454176E+04  0.13056454176E+04  0.50400001928E-02 0.  1.
        1   -1    0    0  501    0  0.00000000000E+00  0.00000000000E+00 -0.23991332214E+04  0.23991332214E+04  0.50400001928E-02 0. -1.
    10030    2    1    2    0    0  0.00000000000E+00  0.00000000000E+00 -0.10934878038E+04  0.37047786390E+04  0.35397272758E+04 0.  0.
        3    1    3    3  502    0 -0.60631384995E+03 -0.20522459138E+03  0.11802509970E+04  0.13426563386E+04  0.10100000352E+00 0.  1.
       -3    1    3    3    0  502  0.60631384995E+03  0.20522459138E+03 -0.22737388008E+04  0.23621223004E+04  0.10100000352E+00 0. -1.
</event>
<event>
 5   0  0.3061330E-07  0.3489817E+04  0.7818609E-02  0.8116208E-01
        1   -1    0    0  501    0  0.00000000000E+00  0.00000000000E+00  0.20934400504E+04  0.20934400504E+04  0.50400001928E-02 0.  1.
       -1   -1    0    0    0  501  0.00000000000E+00  0.00000000000E+00 -0.14544027729E+04  0.14544027729E+04  0.50400001928E-02 0. -1.
    10030    2    1    2    0    0  0.00000000000E+00  0.00000000000E+00  0.63903727748E+03  0.35478428233E+04  0.34898166223E+04 0.  0.
        5    1    3    3  502    0 -0.36872934196E+03  0.94855717146E+03  0.17604639743E+04  0.20334644157E+04  0.46999998093E+01 0.  1.
       -5    1    3    3    0  502  0.36872934196E+03 -0.94855717146E+03 -0.11214266968E+04  0.15143784076E+04  0.46999998093E+01 0. -1.
</event>
<event>
 5   0  0.6188930E-07  0.3521084E+04  0.7818609E-02  0.8108811E-01
       -2   -1    0    0    0  501  0.00000000000E+00  0.00000000000E+00  0.14410846050E+04  0.14410846050E+04  0.25500000920E-02 0.  1.
        2   -1    0    0  501    0  0.00000000000E+00  0.00000000000E+00 -0.21508166862E+04  0.21508166862E+04  0.25500000920E-02 0. -1.
    10030    2    1    2    0    0  0.00000000000E+00  0.00000000000E+00 -0.70973208122E+03  0.35919012912E+04  0.35210843867E+04 0.  0.
        3    1    3    3  502    0 -0.34676281384E+03 -0.13084002158E+04  0.79354351608E+03  0.15690337460E+04  0.10100000352E+00 0.  1.
       -3    1    3    3    0  502  0.34676281384E+03  0.13084002158E+04 -0.15032755973E+04  0.20228675452E+04  0.10100000352E+00 0. -1.
</event>
<event>
 5   0  0.2933506E-07  0.3601320E+04  0.7818609E-02  0.8090189E-01
        1   -1    0    0  501    0  0.00000000000E+00  0.00000000000E+00  0.22191475036E+04  0.22191475036E+04  0.50400001928E-02 0.  1.
       -1   -1    0    0    0  501  0.00000000000E+00  0.00000000000E+00 -0.14610910562E+04  0.14610910562E+04  0.50400001928E-02 0. -1.
    10030    2    1    2    0    0  0.00000000000E+00  0.00000000000E+00  0.75805644733E+03  0.36802385598E+04  0.36013200746E+04 0.  0.
        4    1    3    3  502    0  0.39684739089E+03  0.64955826654E+03  0.20466465757E+04  0.21836157199E+04  0.12699999809E+01 0.  1.
       -4    1    3    3    0  502 -0.39684739089E+03 -0.64955826654E+03 -0.12885901284E+04  0.14966228400E+04  0.12699999809E+01 0. -1.
</event>
<event>
 5   0  0.8950809E-07  0.3514987E+04  0.7818609E-02  0.8110247E-01
        2   -1    0    0  501    0  0.00000000000E+00  0.00000000000E+00  0.15558933361E+04  0.15558933361E+04  0.25500000920E-02 0.  1.
       -2   -1    0    0    0  501  0.00000000000E+00  0.00000000000E+00 -0.19852154529E+04  0.19852154529E+04  0.25500000920E-02 0. -1.
    10030    2    1    2    0    0  0.00000000000E+00  0.00000000000E+00 -0.42932211679E+03  0.35411087890E+04  0.35149870520E+04 0.  0.
        2    1    3    3  502    0 -0.61445415745E+03  0.49333467319E+03 -0.17972749069E+04  0.19624296426E+04  0.25500000920E-02 0. -1.
       -2    1    3    3    0  502  0.61445415745E+03 -0.49333467319E+03  0.13679527901E+04  0.15786791464E+04  0.25500000920E-02 0.  1.
</event>
<event>
 5   0  0.2933506E-07  0.3401268E+04  0.7818609E-02  0.8137595E-01
       -1   -1    0    0    0  501  0.00000000000E+00  0.00000000000E+00  0.18134450422E+04  0.18134450422E+04  0.50400001928E-02 0.  1.
        1   -1    0    0  501    0  0.00000000000E+00  0.00000000000E+00 -0.15948411017E+04  0.15948411017E+04  0.50400001928E-02 0. -1.
    10030    2    1    2    0    0  0.00000000000E+00  0.00000000000E+00  0.21860394046E+03  0.34082861439E+04  0.34012684040E+04 0.  0.
        4    1    3    3  502    0 -0.37893806972E+03 -0.14557909308E+03 -0.15455798846E+04  0.15980006651E+04  0.12699999809E+01 0. -1.
       -4    1    3    3    0  502  0.37893806972E+03  0.14557909308E+03  0.17641838251E+04  0.18102854788E+04  0.12699999809E+01 0.  1.
</event>
<event>
 5   0  0.2933506E-07  0.3449155E+04  0.7818609E-02  0.8125946E-01
        1   -1    0    0  501    0  0.00000000000E+00  0.00000000000E+00  0.19868859385E+04  0.19868859386E+04  0.50400001928E-02 0.  1.
       -1   -1    0    0    0  501  0.00000000000E+00  0.00000000000E+00 -0.14968989890E+04  0.14968989891E+04  0.50400001928E-02 0. -1.
    10030    2    1    2    0    0  0.00000000000E+00  0.00000000000E+00  0.48998694950E+03  0.34837849276E+04  0.34491549996E+04 0.  0.
        4    1    3    3  502    0  0.14366516383E+04  0.43674020191E+03 -0.61173015549E+03  0.16213961051E+04  0.12699999809E+01 0. -1.
       -4    1    3    3    0  502 -0.14366516383E+04 -0.43674020191E+03  0.11017171050E+04  0.18623888225E+04  0.12699999809E+01 0.  1.
</event>
<event>
 5   0  0.8845195E-07  0.3446383E+04  0.7818609E-02  0.8126615E-01
       -2   -1    0    0    0  501  0.00000000000E+00  0.00000000000E+00  0.19400642186E+04  0.19400642186E+04  0.25500000920E-02 0. -1.
        2   -1    0    0  501    0  0.00000000000E+00  0.00000000000E+00 -0.15305619322E+04  0.15305619322E+04  0.25500000920E-02 0.  1.
    10030    2    1    2    0    0  0.00000000000E+00  0.00000000000E+00  0.40950228637E+03  0.34706261508E+04  0.34463827060E+04 0.  0.
        5    1    3    3  502    0  0.61697443181E+03  0.83000186602E+03  0.15927814134E+04  0.18990880095E+04  0.46999998093E+01 0. -1.
       -5    1    3    3    0  502 -0.61697443181E+03 -0.83000186602E+03 -0.11832791270E+04  0.15715381413E+04  0.46999998093E+01 0.  1.
</event>
<event>
 5   0  0.2972541E-07  0.3669491E+04  0.7818609E-02  0.8074757E-01
        1   -1    0    0  501    0  0.00000000000E+00  0.00000000000E+00  0.29009124543E+04  0.29009124543E+04  0.50400001928E-02 0.  1.
       -1   -1    0    0    0  501  0.00000000000E+00  0.00000000000E+00 -0.11604247815E+04  0.11604247815E+04  0.50400001928E-02 0. -1.
    10030    2    1    2    0    0  0.00000000000E+00  0.00000000000E+00  0.17404876729E+04  0.40613372358E+04  0.36694908099E+04 0.  0.
        3    1    3    3  502    0 -0.15436021503E+04  0.17508311575E+03 -0.21017841330E+03  0.15676532370E+04  0.10100000352E+00 0. -1.
       -3    1    3    3    0  502  0.15436021503E+04 -0.17508311575E+03  0.19506660862E+04  0.24936839988E+04  0.10100000352E+00 0.  1.
</event>
<event>
 5   0  0.9311672E-07  0.3480714E+04  0.7818609E-02  0.8118376E-01
        2   -1    0    0  501    0  0.00000000000E+00  0.00000000000E+00  0.16002335123E+04  0.16002335123E+04  0.25500000920E-02 0.  1.
       -2   -1    0    0    0  501  0.00000000000E+00  0.00000000000E+00 -0.18927505536E+04  0.18927505536E+04  0.25500000920E-02 0. -1.
    10030    2    1    2    0    0  0.00000000000E+00  0.00000000000E+00 -0.29251704133E+03  0.34929840660E+04  0.34807142177E+04 0.  0.
        4    1    3    3  502    0  0.15715416683E+04 -0.24019126732E+03  0.56433801248E+03  0.16869837182E+04  0.12699999809E+01 0. -1.
       -4    1    3    3    0  502 -0.15715416683E+04  0.24019126732E+03 -0.85685505381E+03  0.18060003478E+04  0.12699999809E+01 0.  1.
</event>
<event>
 5   0  0.9311672E-07  0.3542318E+04  0.7818609E-02  0.8103834E-01
       -2   -1    0    0    0  501  0.00000000000E+00  0.00000000000E+00  0.12725051019E+04  0.12725051019E+04  0.25500000920E-02 0.  1.
        2   -1    0    0  501    0  0.00000000000E+00  0.00000000000E+00 -0.24652190478E+04  0.24652190478E+04  0.25500000920E-02 0. -1.
    10030    2    1    2    0    0  0.00000000000E+00  0.00000000000E+00 -0.11927139458E+04  0.37377241497E+04  0.35423177812E+04 0.  0.
        4    1    3    3  502    0  0.59827270934E+03 -0.11593951500E+04  0.66758384660E+03  0.14655364730E+04  0.12699999809E+01 0.  1.
       -4    1    3    3    0  502 -0.59827270934E+03  0.11593951500E+04 -0.18602977924E+04  0.22721876767E+04  0.12699999809E+01 0. -1.
</event>
<event>
 5   0  0.2936607E-07  0.3463509E+04  0.7818609E-02  0.8122493E-01
        1   -1    0    0  501    0  0.00000000000E+00  0.00000000000E+00  0.12108789906E+04  0.12108789906E+04  0.50400001928E-02 0. -1.
       -1   -1    0    0    0  501  0.00000000000E+00  0.00000000000E+00 -0.24766916983E+04  0.24766916983E+04  0.50400001928E-02 0.  1.
    10030    2    1    2    0    0  0.00000000000E+00  0.00000000000E+00 -0.12658127077E+04  0.36875706890E+04  0.34635091707E+04 0.  0.
        2    1    3    3  502    0  0.24178192473E+03  0.14955550162E+04 -0.15261256498E+04  0.21503959646E+04  0.25500000920E-02 0.  1.
       -2    1    3    3    0  502 -0.24178192473E+03 -0.14955550162E+04  0.26031294206E+03  0.15371747244E+04  0.25500000920E-02 0. -1.
</event>
<event>
 5   0  0.9311672E-07  0.3491408E+04  0.7818609E-02  0.8115829E-01
       -2   -1    0    0    0  501  0.00000000000E+00  0.00000000000E+00  0.19777376003E+04  0.19777376003E+04  0.25500000920E-02 0. -1.
        2   -1    0    0  501    0  0.00000000000E+00  0.00000000000E+00 -0.15408935098E+04  0.15408935098E+04  0.25500000920E-02 0.  1.
    10030    2    1    2    0    0  0.00000000000E+00  0.00000000000E+00  0.43684409057E+03  0.35186311101E+04  0.34914083304E+04 0.  0.
        4    1    3    3  502    0 -0.93138323078E+03  0.13903716410E+04 -0.28231559780E+03  0.16971481174E+04  0.12699999809E+01 0. -1.
       -4    1    3    3    0  502  0.93138323078E+03 -0.13903716410E+04  0.71915968836E+03  0.18214829927E+04  0.12699999809E+01 0.  1.
</event>
<event>
 5   0  0.9128871E-07  0.3516809E+04  0.7818609E-02  0.8109818E-01
        2   -1    0    0  501    0  0.00000000000E+00  0.00000000000E+00  0.23131467070E+04  0.23131467070E+04  0.25500000920E-02 0.  1.
       -2   -1    0    0    0  501  0.00000000000E+00  0.00000000000E+00 -0.13367013091E+04  0.13367013091E+04  0.25500000920E-02 0. -1.
    10030    2    1    2    0    0  0.00000000000E+00  0.00000000000E+00  0.97644539793E+03  0.36498480161E+04  0.35168089123E+04 0.  0.
        1    1    3    3  502    0  0.32504868097E+03  0.69366726360E+03  0.21308662656E+04  0.22643811427E+04  0.50400001928E-02 0.  1.
       -1    1    3    3    0  502 -0.32504868097E+03 -0.69366726360E+03 -0.11544208676E+04  0.13854668734E+04  0.50400001928E-02 0. -1.
</event>
<event>
 5   0  0.2907000E-07  0.3464544E+04  0.7818609E-02  0.8122244E-01
        3   -1    0    0  501    0  0.00000000000E+00  0.00000000000E+00  0.16086118987E+04  0.16086119019E+04  0.10100000352E+00 0.  1.
       -3   -1    0    0    0  501  0.00000000000E+00  0.00000000000E+00 -0.18654385240E+04  0.18654385267E+04  0.10100000352E+00 0. -1.
    10030    2    1    2    0    0  0.00000000000E+00  0.00000000000E+00 -0.25682662527E+03  0.34740504286E+04  0.34645441930E+04 0.  0.
        5    1    3    3  502    0  0.22786143876E+03 -0.17162766269E+04 -0.18529842553E+03  0.17412305682E+04  0.46999998093E+01 0. -1.
       -5    1    3    3    0  502 -0.22786143876E+03  0.17162766269E+04 -0.71528199741E+02  0.17328198604E+04  0.46999998093E+01 0.  1.
</event>
<event>
 5   0  0.9311672E-07  0.3492914E+04  0.7818609E-02  0.8115471E-01
        2   -1    0    0  501    0  0.00000000000E+00  0.00000000000E+00  0.18193837191E+04  0.18193837191E+04  0.25500000920E-02 0.  1.
       -2   -1    0    0    0  501  0.00000000000E+00  0.00000000000E+00 -0.16764530496E+04  0.16764530496E+04  0.25500000920E-02 0. -1.
    10030    2    1    2    0    0  0.00000000000E+00  0.00000000000E+00  0.14293066952E+03  0.34958367687E+04  0.34929136171E+04 0.  0.
        4    1    3    3  502    0 -0.12637607593E+04  0.92578193340E+03  0.84408698567E+03  0.17795077683E+04  0.12699999809E+01 0.  1.
       -4    1    3    3    0  502  0.12637607593E+04 -0.92578193340E+03 -0.70115631615E+03  0.17163290004E+04  0.12699999809E+01 0. -1.
</event>
<event>
 5   0  0.2972541E-07  0.3407025E+04  0.7818609E-02  0.8136184E-01
        1   -1    0    0  501    0  0.00000000000E+00  0.00000000000E+00  0.21055271616E+04  0.21055271616E+04  0.50400001928E-02 0.  1.
       -1   -1    0    0    0  501  0.00000000000E+00  0.00000000000E+00 -0.13782557725E+04  0.13782557725E+04  0.50400001928E-02 0. -1.
    10030    2    1    2    0    0  0.00000000000E+00  0.00000000000E+00  0.72727138906E+03  0.34837829341E+04  0.34070250745E+04 0.  0.
        3    1    3    3  502    0  0.33338785366E+03  0.16803515788E+02  0.20717570676E+04  0.20984773472E+04  0.10100000352E+00 0.  1.
       -3    1    3    3    0  502 -0.33338785366E+03 -0.16803515788E+02 -0.13444856786E+04  0.13853055869E+04  0.10100000352E+00 0. -1.
</event>
<event>
 5   0  0.8845195E-07  0.3479749E+04  0.7818609E-02  0.8118606E-01
       -2   -1    0    0    0  501  0.00000000000E+00  0.00000000000E+00  0.21954591554E+04  0.21954591554E+04  0.25500000920E-02 0.  1.
        2   -1    0    0  501    0  0.00000000000E+00  0.00000000000E+00 -0.13788289455E+04  0.13788289455E+04  0.25500000920E-02 0. -1.
    10030    2    1    2    0    0  0.00000000000E+00  0.00000000000E+00  0.81663020987E+03  0.35742881009E+04  0.34797486301E+04 0.  0.
        5    1    3    3  502    0  0.29266396804E+03 -0.13997486591E+04 -0.60966639806E+03  0.15545622258E+04  0.46999998093E+01 0. -1.
       -5    1    3    3    0  502 -0.29266396804E+03  0.13997486591E+04  0.14262966079E+04  0.20197258751E+04  0.46999998093E+01 0.  1.
</event>
<event>
 5   0  0.2972541E-07  0.3159165E+04  0.7818609E-02  0.8199686E-01
        1   -1    0    0  501    0  0.00000000000E+00  0.00000000000E+00  0.19625453101E+04  0.19625453101E+04  0.50400001928E-02 0.  1.
       -1   -1    0    0    0  501  0.00000000000E+00  0.00000000000E+00 -0.12713493477E+04  0.12713493477E+04  0.50400001928E-02 0. -1.
    10030    2    1    2    0    0  0.00000000000E+00  0.00000000000E+00  0.69119596243E+03  0.32338946578E+04  0.31591648895E+04 0.  0.
        3    1    3    3  502    0 -0.10358648300E+04 -0.11700764820E+04  0.10996656179E+03  0.15665846848E+04  0.10100000352E+00 0. -1.
       -3    1    3    3    0  502  0.10358648300E+04  0.11700764820E+04  0.58122940064E+03  0.16673099730E+04  0.10100000352E+00 0.  1.
</event>
<event>
 5   0  0.2972541E-07  0.3443363E+04  0.7818609E-02  0.8127345E-01
       -1   -1    0    0    0  501  0.00000000000E+00  0.00000000000E+00  0.16441768799E+04  0.16441768799E+04  0.50400001928E-02 0.  1.
        1   -1    0    0  501    0  0.00000000000E+00  0.00000000000E+00 -0.18028398080E+04  0.18028398080E+04  0.50400001928E-02 0. -1.
    10030    2    1    2    0    0  0.00000000000E+00  0.00000000000E+00 -0.15866292812E+03  0.34470166879E+04  0.34433631992E+04 0.  0.
        3    1    3    3  502    0  0.10507738575E+04  0.87764440874E+03  0.96571205190E+03  0.16754059762E+04  0.10100000352E+00 0.  1.
       -3    1    3    3    0  502 -0.10507738575E+04 -0.87764440874E+03 -0.11243749800E+04  0.17716107117E+04  0.10100000352E+00 0. -1.
</event>
<event>
 5   0  0.6188930E-07  0.3437828E+04  0.7818609E-02  0.8128684E-01
        2   -1    0    0  501    0  0.00000000000E+00  0.00000000000E+00  0.20372276176E+04  0.20372276176E+04  0.25500000920E-02 0.  1.
       -2   -1    0    0    0  501  0.00000000000E+00  0.00000000000E+00 -0.14503368020E+04  0.14503368020E+04  0.25500000920E-02 0. -1.
    10030    2    1    2    0    0  0.00000000000E+00  0.00000000000E+00  0.58689081564E+03  0.34875644196E+04  0.34378284936E+04 0.  0.
        3    1    3    3  502    0  0.81870234637E+03  0.76823040678E+02 -0.12378595107E+04  0.14860926923E+04  0.10100000352E+00 0. -1.
       -3    1    3    3    0  502 -0.81870234637E+03 -0.76823040678E+02  0.18247503264E+04  0.20014717273E+04  0.10100000352E+00 0.  1.
</event>
<event>
 5   0  0.2933506E-07  0.3452378E+04  0.7818609E-02  0.8125169E-01
        1   -1    0    0  501    0  0.00000000000E+00  0.00000000000E+00  0.24789577357E+04  0.24789577358E+04  0.50400001928E-02 0.  1.
       -1   -1    0    0    0  501  0.00000000000E+00  0.00000000000E+00 -0.12020086420E+04  0.12020086420E+04  0.50400001928E-02 0. -1.
    10030    2    1    2    0    0  0.00000000000E+00  0.00000000000E+00  0.12769490938E+04  0.36809663777E+04  0.34523780914E+04 0.  0.
        4    1    3    3  502    0  0.17197477567E+03  0.87764390947E+03 -0.93572967363E+03  0.12943823973E+04  0.12699999809E+01 0. -1.
       -4    1    3    3    0  502 -0.17197477567E+03 -0.87764390947E+03  0.22126787674E+04  0.23865839805E+04  0.12699999809E+01 0.  1.
</event>
<event>
 5   0  0.2933506E-07  0.3543349E+04  0.7818609E-02  0.8103593E-01
       -1   -1    0    0    0  501  0.00000000000E+00  0.00000000000E+00  0.15058402850E+04  0.15058402850E+04  0.50400001928E-02 0.  1.
        1   -1    0    0  501    0  0.00000000000E+00  0.00000000000E+00 -0.20844384685E+04  0.20844384685E+04  0.50400001928E-02 0. -1.
    10030    2    1    2    0    0  0.00000000000E+00  0.00000000000E+00 -0.57859818355E+03  0.35902787535E+04  0.35433494987E+04 0.  0.
        4    1    3    3  502    0 -0.78403092258E+03  0.10743895245E+04  0.89659180448E+03  0.16040248797E+04  0.12699999809E+01 0.  1.
       -4    1    3    3    0  502  0.78403092258E+03 -0.10743895245E+04 -0.14751899880E+04  0.19862538739E+04  0.12699999809E+01 0. -1.
</event>
<event>
 5   0  0.3061330E-07  0.3377736E+04  0.7818609E-02  0.8143392E-01
        1   -1    0    0  501    0  0.00000000000E+00  0.00000000000E+00  0.20852123968E+04  0.20852123968E+04  0.50400001928E-02 0.  1.
       -1   -1    0    0    0  501  0.00000000000E+00  0.00000000000E+00 -0.13678581783E+04  0.13678581783E+04  0.50400001928E-02 0. -1.
    10030    2    1    2    0    0  0.00000000000E+00  0.00000000000E+00  0.71735421847E+03  0.34530705750E+04  0.33777358277E+04 0.  0.
        5    1    3    3  502    0 -0.99795699252E+03  0.52443836194E+03 -0.92686637202E+03  0.14594715194E+04  0.46999998093E+01 0. -1.
       -5    1    3    3    0  502  0.99795699252E+03 -0.52443836194E+03  0.16442205905E+04  0.19935990556E+04  0.46999998093E+01 0.  1.
</event>
<event>
 5   0  0.2933506E-07  0.2958006E+04  0.7818609E-02  0.8255825E-01
        1   -1    0    0  501    0  0.00000000000E+00  0.00000000000E+00  0.17787254687E+04  0.17787254687E+04  0.50400001928E-02 0. -1.
       -1   -1    0    0    0  501  0.00000000000E+00  0.00000000000E+00 -0.12297850389E+04  0.12297850389E+04  0.50400001928E-02 0.  1.
    10030    2    1    2    0    0  0.00000000000E+00  0.00000000000E+00  0.54894042982E+03  0.30085105077E+04  0.29580060648E+04 0.  0.
        4    1    3    3  502    0 -0.77069062480E+03 -0.68352844837E+03  0.13538501570E+04  0.17012016457E+04  0.12699999809E+01 0. -1.
       -4    1    3    3    0  502  0.77069062480E+03  0.68352844837E+03 -0.80490972714E+03  0.13073088620E+04  0.12699999809E+01 0.  1.
</event>
<event>
 5   0  0.2933506E-07  0.3511513E+04  0.7818609E-02  0.8111067E-01
        1   -1    0    0  501    0  0.00000000000E+00  0.00000000000E+00  0.14188189534E+04  0.14188189534E+04  0.50400001928E-02 0.  1.
       -1   -1    0    0    0  501  0.00000000000E+00  0.00000000000E+00 -0.21727089814E+04  0.21727089814E+04  0.50400001928E-02 0. -1.
    10030    2    1    2    0    0  0.00000000000E+00  0.00000000000E+00 -0.75389002800E+03  0.35915279347E+04  0.35115128836E+04 0.  0.
        4    1    3    3  502    0  0.62977362176E+03  0.10796433729E+04  0.88421104914E+03  0.15310373671E+04  0.12699999809E+01 0.  1.
       -4    1    3    3    0  502 -0.62977362176E+03 -0.10796433729E+04 -0.16381010771E+04  0.20604905676E+04  0.12699999809E+01 0. -1.
</event>
<event>
 5   0  0.9311672E-07  0.3478625E+04  0.7818609E-02  0.8118874E-01
        2   -1    0    0  501    0  0.00000000000E+00  0.00000000000E+00  0.22197065156E+04  0.22197065156E+04  0.25500000920E-02 0.  1.
       -2   -1    0    0    0  501  0.00000000000E+00  0.00000000000E+00 -0.13628868002E+04  0.13628868002E+04  0.25500000920E-02 0. -1.
    10030    2    1    2    0    0  0.00000000000E+00  0.00000000000E+00  0.85681971537E+03  0.35825933158E+04  0.34786254241E+04 0.  0.
        4    1    3    3  502    0 -0.15895292719E+04 -0.31283294023E+03 -0.22354996858E+03  0.16353727269E+04  0.12699999809E+01 0. -1.
       -4    1    3    3    0  502  0.15895292719E+04  0.31283294023E+03  0.10803696840E+04  0.19472205888E+04  0.12699999809E+01 0.  1.
</event>
<event>
 5   0  0.2933506E-07  0.3367033E+04  0.7818609E-02  0.8146045E-01
        1   -1    0    0  501    0  0.00000000000E+00  0.00000000000E+00  0.18464364431E+04  0.18464364431E+04  0.50400001928E-02 0.  1.
       -1   -1    0    0    0  501  0.00000000000E+00  0.00000000000E+00 -0.15349713466E+04  0.15349713466E+04  0.50400001928E-02 0. -1.
    10030    2    1    2    0    0  0.00000000000E+00  0.00000000000E+00  0.31146509654E+03  0.33814077897E+04  0.33670325412E+04 0.  0.
        4    1    3    3  502    0  0.15109780141E+02  0.56284685555E+03 -0.14376099594E+04  0.15439394083E+04  0.12699999809E+01 0. -1.
       -4    1    3    3    0  502 -0.15109780141E+02 -0.56284685555E+03  0.17490750559E+04  0.18374683814E+04  0.12699999809E+01 0.  1.
</event>
<event>
 5   0  0.2933506E-07  0.3534206E+04  0.7818609E-02  0.8105731E-01
        1   -1    0    0  501    0  0.00000000000E+00  0.00000000000E+00  0.16250170930E+04  0.16250170930E+04  0.50400001928E-02 0.  1.
       -1   -1    0    0    0  501  0.00000000000E+00  0.00000000000E+00 -0.19216128225E+04  0.19216128225E+04  0.50400001928E-02 0. -1.
    10030    2    1    2    0    0  0.00000000000E+00  0.00000000000E+00 -0.29659572954E+03  0.35466299155E+04  0.35342063792E+04 0.  0.
        4    1    3    3  502    0  0.39549123958E+03 -0.16649621530E+04  0.29386394712E+03  0.17363380788E+04  0.12699999809E+01 0.  1.
       -4    1    3    3    0  502 -0.39549123958E+03  0.16649621530E+04 -0.59045967667E+03  0.18102918367E+04  0.12699999809E+01 0. -1.
</event>
<event>
 5   0  0.2972541E-07  0.3259468E+04  0.7818609E-02  0.8173286E-01
        1   -1    0    0  501    0  0.00000000000E+00  0.00000000000E+00  0.28239472498E+04  0.28239472498E+04  0.50400001928E-02 0.  1.
       -1   -1    0    0    0  501  0.00000000000E+00  0.00000000000E+00 -0.94053909290E+03  0.94053909291E+03  0.50400001928E-02 0. -1.
    10030    2    1    2    0    0  0.00000000000E+00  0.00000000000E+00  0.18834081569E+04  0.37644863427E+04  0.32594679227E+04 0.  0.
        3    1    3    3  502    0 -0.10058614102E+04 -0.75771142546E+03  0.21364653550E+04  0.24799935492E+04  0.10100000352E+00 0.  1.
       -3    1    3    3    0  502  0.10058614102E+04  0.75771142546E+03 -0.25305719809E+03  0.12844927935E+04  0.10100000352E+00 0. -1.
</event>
<event>
 5   0  0.2972541E-07  0.3492911E+04  0.7818609E-02  0.8115472E-01
        1   -1    0    0  501    0  0.00000000000E+00  0.00000000000E+00  0.18406950611E+04  0.18406950611E+04  0.50400001928E-02 0. -1.
       -1   -1    0    0    0  501  0.00000000000E+00  0.00000000000E+00 -0.16570403698E+04  0.16570403698E+04  0.50400001928E-02 0.  1.
    10030    2    1    2    0    0  0.00000000000E+00  0.00000000000E+00  0.18365469128E+03  0.34977354309E+04  0.34929105484E+04 0.  0.
        3    1    3    3  502    0  0.90694380616E+02 -0.15035728109E+04  0.97687474319E+03  0.17953386707E+04  0.10100000352E+00 0. -1.
       -3    1    3    3    0  502 -0.90694380616E+02  0.15035728109E+04 -0.79322005192E+03  0.17023967602E+04  0.10100000352E+00 0.  1.
</event>
<event>
 5   0  0.9311672E-07  0.3407381E+04  0.7818609E-02  0.8136097E-01
        2   -1    0    0  501    0  0.00000000000E+00  0.00000000000E+00  0.14032775377E+04  0.14032775377E+04  0.25500000920E-02 0.  1.
       -2   -1    0    0    0  501  0.00000000000E+00  0.00000000000E+00 -0.20684162756E+04  0.20684162756E+04  0.25500000920E-02 0. -1.
    10030    2    1    2    0    0  0.00000000000E+00  0.00000000000E+00 -0.66513873791E+03  0.34716938134E+04  0.34073814569E+04 0.  0.
        4    1    3    3  502    0  0.11130734415E+04 -0.41318876921E+03 -0.15774750853E+04  0.19743572885E+04  0.12699999809E+01 0. -1.
       -4    1    3    3    0  502 -0.11130734415E+04  0.41318876921E+03  0.91233634735E+03  0.14973365249E+04  0.12699999809E+01 0.  1.
</event>
<event>
 5   0  0.2936607E-07  0.3569632E+04  0.7818609E-02  0.8097483E-01
        1   -1    0    0  501    0  0.00000000000E+00  0.00000000000E+00  0.25278047169E+04  0.25278047169E+04  0.50400001928E-02 0.  1.
       -1   -1    0    0    0  501  0.00000000000E+00  0.00000000000E+00 -0.12602115566E+04  0.12602115566E+04  0.50400001928E-02 0. -1.
    10030    2    1    2    0    0  0.00000000000E+00  0.00000000000E+00  0.12675931603E+04  0.37880162735E+04  0.35696323156E+04 0.  0.
        2    1    3    3  502    0  0.30139485968E+03  0.11159903621E+03  0.24968447306E+04  0.25174445009E+04  0.25500000920E-02 0.  1.
       -2    1    3    3    0  502 -0.30139485968E+03 -0.11159903621E+03 -0.12292515703E+04  0.12705717726E+04  0.25500000920E-02 0. -1.
</event>
<event>
 5   0  0.2933506E-07  0.3517305E+04  0.7818609E-02  0.8109701E-01
       -1   -1    0    0    0  501  0.00000000000E+00  0.00000000000E+00  0.14031945139E+04  0.14031945139E+04  0.50400001928E-02 0. -1.
        1   -1    0    0  501    0  0.00000000000E+00  0.00000000000E+00 -0.22041553678E+04  0.22041553678E+04  0.50400001928E-02 0.  1.
    10030    2    1    2    0    0  0.00000000000E+00  0.00000000000E+00 -0.80096085396E+03  0.36073498817E+04  0.35173050592E+04 0.  0.
        4    1    3    3  502    0  0.91333777111E+03 -0.12823359156E+03 -0.19362216965E+04  0.21446644980E+04  0.12699999809E+01 0.  1.
       -4    1    3    3    0  502 -0.91333777111E+03  0.12823359156E+03  0.11352608425E+04  0.14626853837E+04  0.12699999809E+01 0. -1.
</event>
<event>
 5   0  0.9311672E-07  0.3079059E+04  0.7818609E-02  0.8221509E-01
       -2   -1    0    0    0  501  0.00000000000E+00  0.00000000000E+00  0.10261248654E+04  0.10261248654E+04  0.25500000920E-02 0.  1.
        2   -1    0    0  501    0  0.00000000000E+00  0.00000000000E+00 -0.23098069547E+04  0.23098069547E+04  0.25500000920E-02 0. -1.
    10030    2    1    2    0    0  0.00000000000E+00  0.00000000000E+00 -0.12836820892E+04  0.33359318201E+04  0.30790585253E+04 0.  0.
        4    1    3    3  502    0 -0.50130631717E+03 -0.11633582647E+04 -0.15897231093E+04  0.20327153398E+04  0.12699999809E+01 0. -1.
       -4    1    3    3    0  502  0.50130631717E+03  0.11633582647E+04  0.30604102008E+03  0.13032164803E+04  0.12699999809E+01 0.  1.
</event>
<event>
 5   0  0.6188930E-07  0.3535257E+04  0.7818609E-02  0.8105485E-01
       -2   -1    0    0    0  501  0.00000000000E+00  0.00000000000E+00  0.16940167863E+04  0.16940167863E+04  0.25500000920E-02 0. -1.
        2   -1    0    0  501    0  0.00000000000E+00  0.00000000000E+00 -0.18444389826E+04  0.18444389826E+04  0.25500000920E-02 0.  1.
    10030    2    1    2    0    0  0.00000000000E+00  0.00000000000E+00 -0.15042219627E+03  0.35384557688E+04  0.35352570474E+04 0.  0.
        3    1    3    3  502    0  0.54241622015E+03 -0.14888442590E+04  0.70884818086E+03  0.17358969835E+04  0.10100000352E+00 0.  1.
       -3    1    3    3    0  502 -0.54241622015E+03  0.14888442590E+04 -0.85927037713E+03  0.18025587854E+04  0.10100000352E+00 0. -1.
</event>
<event>
 5   0  0.2936607E-07  0.3511785E+04  0.7818609E-02  0.8111003E-01
       -1   -1    0    0    0  501  0.00000000000E+00  0.00000000000E+00  0.11432907651E+04  0.11432907651E+04  0.50400001928E-02 0. -1.
        1   -1    0    0  501    0  0.00000000000E+00  0.00000000000E+00 -0.26967411857E+04  0.26967411857E+04  0.50400001928E-02 0.  1.
    10030    2    1    2    0    0  0.00000000000E+00  0.00000000000E+00 -0.15534504206E+04  0.38400319508E+04  0.35117854681E+04 0.  0.
        2    1    3    3  502    0  0.11240718530E+04 -0.11612156125E+04 -0.26123532248E+02  0.16163668112E+04  0.25500000920E-02 0. -1.
       -2    1    3    3    0  502 -0.11240718530E+04  0.11612156125E+04 -0.15273268883E+04  0.22236651396E+04  0.25500000920E-02 0.  1.
</event>
<event>
 5   0  0.9311672E-07  0.3566469E+04  0.7818609E-02  0.8098216E-01
        2   -1    0    0  501    0  0.00000000000E+00  0.00000000000E+00  0.23425904804E+04  0.23425904804E+04  0.25500000920E-02 0.  1.
       -2   -1    0    0    0  501  0.00000000000E+00  0.00000000000E+00 -0.13574395006E+04  0.13574395007E+04  0.25500000920E-02 0. -1.
    10030    2    1    2    0    0  0.00000000000E+00  0.00000000000E+00  0.98515097975E+03  0.37000299810E+04  0.35664687588E+04 0.  0.
        4    1    3    3  502    0  0.63142037382E+03  0.15681965594E+04  0.10812683304E+04  0.20067573228E+04  0.12699999809E+01 0.  1.
       -4    1    3    3    0  502 -0.63142037382E+03 -0.15681965594E+04 -0.96117350635E+02  0.16932726583E+04  0.12699999809E+01 0. -1.
</event>
<event>
 5   0  0.6188930E-07  0.3504250E+04  0.7818609E-02  0.8112784E-01
       -2   -1    0    0    0  501  0.00000000000E+00  0.00000000000E+00  0.12152008675E+04  0.12152008675E+04  0.25500000920E-02 0. -1.
        2   -1    0    0  501    0  0.00000000000E+00  0.00000000000E+00 -0.25262832233E+04  0.25262832233E+04  0.25500000920E-02 0.  1.
    10030    2    1    2    0    0  0.00000000000E+00  0.00000000000E+00 -0.13110823557E+04  0.37414840908E+04  0.35042497425E+04 0.  0.
        3    1    3    3  502    0  0.39465550617E+03 -0.51839088349E+03 -0.23921396299E+04  0.24792769300E+04  0.10100000352E+00 0.  1.
       -3    1    3    3    0  502 -0.39465550617E+03  0.51839088349E+03  0.10810572741E+04  0.12622071608E+04  0.10100000352E+00 0. -1.
</event>
<event>
 5   0  0.3061330E-07  0.3479529E+04  0.7818609E-02  0.8118658E-01
       -1   -1    0    0    0  501  0.00000000000E+00  0.00000000000E+00  0.11557997001E+04  0.11557997001E+04  0.50400001928E-02 0.  1.
        1   -1    0    0  501    0  0.00000000000E+00  0.00000000000E+00 -0.26187760155E+04  0.26187760155E+04  0.50400001928E-02 0. -1.
    10030    2    1    2    0    0  0.00000000000E+00  0.00000000000E+00 -0.14629763153E+04  0.37745757156E+04  0.34795290103E+04 0.  0.
        5    1    3    3  502    0  0.16451212729E+04 -0.54517329916E+02 -0.13426065412E+04  0.21241493724E+04  0.46999998093E+01 0. -1.
       -5    1    3    3    0  502 -0.16451212729E+04  0.54517329916E+02 -0.12036977412E+03  0.16504263432E+04  0.46999998093E+01 0.  1.
</event>
<event>
 5   0  0.8950809E-07  0.3582987E+04  0.7818609E-02  0.8094400E-01
       -2   -1    0    0    0  501  0.00000000000E+00  0.00000000000E+00  0.11177933319E+04  0.11177933319E+04  0.25500000920E-02 0.  1.
        2   -1    0    0  501    0  0.00000000000E+00  0.00000000000E+00 -0.28712370741E+04  0.28712370741E+04  0.25500000920E-02 0. -1.
    10030    2    1    2    0    0  0.00000000000E+00  0.00000000000E+00 -0.17534437422E+04  0.39890304059E+04  0.35829873880E+04 0.  0.
        2    1    3    3  502    0 -0.11089413280E+04 -0.11679680214E+04 -0.32406867533E+01  0.16105622217E+04  0.25500000920E-02 0.  1.
       -2    1    3    3    0  502  0.11089413280E+04  0.11679680214E+04 -0.17502030555E+04  0.23784681842E+04  0.25500000920E-02 0. -1.
</event>
<event>
 5   0  0.3061330E-07  0.3472171E+04  0.7818609E-02  0.8120417E-01
        1   -1    0    0  501    0  0.00000000000E+00  0.00000000000E+00  0.20598702519E+04  0.20598702520E+04  0.50400001928E-02 0.  1.
       -1   -1    0    0    0  501  0.00000000000E+00  0.00000000000E+00 -0.14631954411E+04  0.14631954411E+04  0.50400001928E-02 0. -1.
    10030    2    1    2    0    0  0.00000000000E+00  0.00000000000E+00  0.59667481083E+03  0.35230656931E+04  0.34721709416E+04 0.  0.
        5    1    3    3  502    0  0.41908500091E+03  0.12028192152E+04  0.14952744085E+04  0.19642489529E+04  0.46999998093E+01 0.  1.
       -5    1    3    3    0  502 -0.41908500091E+03 -0.12028192152E+04 -0.89859959770E+03  0.15588167401E+04  0.46999998093E+01 0. -1.
</event>
<event>
 5   0  0.8950809E-07  0.3504169E+04  0.7818609E-02  0.8112803E-01
       -2   -1    0    0    0  501  0.00000000000E+00  0.00000000000E+00  0.13700888991E+04  0.13700888991E+04  0.25500000920E-02 0. -1.
        2   -1    0    0  501    0  0.00000000000E+00  0.00000000000E+00 -0.22405842088E+04  0.22405842088E+04  0.25500000920E-02 0.  1.
    10030    2    1    2    0    0  0.00000000000E+00  0.00000000000E+00 -0.87049530963E+03  0.36106731079E+04  0.35041686900E+04 0.  0.
        2    1    3    3  502    0 -0.37672747150E+02 -0.17042118451E+04 -0.85257908680E+03  0.19059507728E+04  0.25500000920E-02 0.  1.
       -2    1    3    3    0  502  0.37672747150E+02  0.17042118451E+04 -0.17916222823E+02  0.17047223352E+04  0.25500000920E-02 0. -1.
</event>
<event>
 5   0  0.2972541E-07  0.3495271E+04  0.7818609E-02  0.8114911E-01
        1   -1    0    0  501    0  0.00000000000E+00  0.00000000000E+00  0.22039197643E+04  0.22039197643E+04  0.50400001928E-02 0. -1.
       -1   -1    0    0    0  501  0.00000000000E+00  0.00000000000E+00 -0.13858175070E+04  0.13858175070E+04  0.50400001928E-02 0.  1.
    10030    2    1    2    0    0  0.00000000000E+00  0.00000000000E+00  0.81810225735E+03  0.35897372713E+04  0.34952714306E+04 0.  0.
        3    1    3    3  502    0  0.11221617511E+04  0.45443401813E+02  0.17842389875E+04  0.21082743828E+04  0.10100000352E+00 0. -1.
       -3    1    3    3    0  502 -0.11221617511E+04 -0.45443401813E+02 -0.96613673017E+03  0.14814628885E+04  0.10100000352E+00 0.  1.
</event>
<event>
 5   0  0.6188930E-07  0.3498981E+04  0.7818609E-02  0.8114032E-01
        2   -1    0    0  501    0  0.00000000000E+00  0.00000000000E+00  0.10489902748E+04  0.10489902748E+04  0.25500000920E-02 0. -1.
       -2   -1    0    0    0  501  0.00000000000E+00  0.00000000000E+00 -0.29177738930E+04  0.29177738930E+04  0.25500000920E-02 0.  1.
    10030    2    1    2    0    0  0.00000000000E+00  0.00000000000E+00 -0.18687836182E+04  0.39667641678E+04  0.34989806732E+04 0.  0.
        3    1    3    3  502    0  0.51804893636E+03 -0.57109519854E+03 -0.27147536624E+04  0.28221289630E+04  0.10100000352E+00 0.  1.
       -3    1    3    3    0  502 -0.51804893636E+03  0.57109519854E+03  0.84597004416E+03  0.11446352048E+04  0.10100000352E+00 0. -1.
</event>
<event>
 5   0  0.2936607E-07  0.3490404E+04  0.7818609E-02  0.8116068E-01
       -1   -1    0    0    0  501  0.00000000000E+00  0.00000000000E+00  0.12283105908E+04  0.12283105908E+04  0.50400001928E-02 0. -1.
        1   -1    0    0  501    0  0.00000000000E+00  0.00000000000E+00 -0.24796092266E+04  0.24796092266E+04  0.50400001928E-02 0.  1.
    10030    2    1    2    0    0  0.00000000000E+00  0.00000000000E+00 -0.12512986358E+04  0.37079198174E+04  0.34904041452E+04 0.  0.
        2    1    3    3  502    0  0.58763791169E+03  0.15735552668E+04 -0.12249188525E+03  0.16841611428E+04  0.25500000920E-02 0. -1.
       -2    1    3    3    0  502 -0.58763791169E+03 -0.15735552668E+04 -0.11288067505E+04  0.20237586746E+04  0.25500000920E-02 0.  1.
</event>
<event>
 5   0  0.3026332E-07  0.3507010E+04  0.7818609E-02  0.8112131E-01
        1   -1    0    0  501    0  0.00000000000E+00  0.00000000000E+00  0.24611785537E+04  0.24611785537E+04  0.50400001928E-02 0.  1.
       -1   -1    0    0    0  501  0.00000000000E+00  0.00000000000E+00 -0.12493121927E+04  0.12493121927E+04  0.50400001928E-02 0. -1.
    10030    2    1    2    0    0  0.00000000000E+00  0.00000000000E+00  0.12118663610E+04  0.37104907465E+04  0.35070103368E+04 0.  0.
        1    1    3    3  502    0 -0.47190406415E+02  0.58345106601E+03 -0.11428889732E+04  0.12840705923E+04  0.50400001928E-02 0. -1.
       -1    1    3    3    0  502  0.47190406415E+02 -0.58345106601E+03  0.23547553342E+04  0.24264201542E+04  0.50400001928E-02 0.  1.
</event>
<event>
 5   0  0.8950809E-07  0.3521036E+04  0.7818609E-02  0.8108823E-01
       -2   -1    0    0    0  501  0.00000000000E+00  0.00000000000E+00  0.16159440925E+04  0.16159440925E+04  0.25500000920E-02 0. -1.
        2   -1    0    0  501    0  0.00000000000E+00  0.00000000000E+00 -0.19180270475E+04  0.19180270475E+04  0.25500000920E-02 0.  1.
    10030    2    1    2    0    0  0.00000000000E+00  0.00000000000E+00 -0.30208295498E+03  0.35339711400E+04  0.35210364819E+04 0.  0.
        2    1    3    3  502    0  0.13871209222E+04  0.53010520000E+03 -0.11001943210E+04  0.18481189139E+04  0.25500000920E-02 0.  1.
       -2    1    3    3    0  502 -0.13871209222E+04 -0.53010520000E+03  0.79811136602E+03  0.16858522261E+04  0.25500000920E-02 0. -1.
</event>
<event>
 5   0  0.2972541E-07  0.3321459E+04  0.7818609E-02  0.8157456E-01
       -1   -1    0    0    0  501  0.00000000000E+00  0.00000000000E+00  0.16502918804E+04  0.16502918804E+04  0.50400001928E-02 0.  1.
        1   -1    0    0  501    0  0.00000000000E+00  0.00000000000E+00 -0.16712336347E+04  0.16712336347E+04  0.50400001928E-02 0. -1.
    10030    2    1    2    0    0  0.00000000000E+00  0.00000000000E+00 -0.20941754342E+02  0.33215255151E+04  0.33214594970E+04 0.  0.
        3    1    3    3  502    0  0.10118147909E+04  0.21952222420E+03  0.12880402453E+04  0.16525758263E+04  0.10100000352E+00 0.  1.
       -3    1    3    3    0  502 -0.10118147909E+04 -0.21952222420E+03 -0.13089819997E+04  0.16689496888E+04  0.10100000352E+00 0. -1.
</event>
<event>
 5   0  0.9311672E-07  0.3519125E+04  0.7818609E-02  0.8109273E-01
       -2   -1    0    0    0  501  0.00000000000E+00  0.00000000000E+00  0.13682047038E+04  0.13682047038E+04  0.25500000920E-02 0.  1.
        2   -1    0    0  501    0  0.00000000000E+00  0.00000000000E+00 -0.22628626975E+04  0.22628626975E+04  0.25500000920E-02 0. -1.
    10030    2    1    2    0    0  0.00000000000E+00  0.00000000000E+00 -0.89465799369E+03  0.36310674013E+04  0.35191245427E+04 0.  0.
        4    1    3    3  502    0 -0.93846279129E+03  0.13471284481E+04 -0.11003841972E+04  0.19764398449E+04  0.12699999809E+01 0. -1.
       -4    1    3    3    0  502  0.93846279129E+03 -0.13471284481E+04  0.20572620349E+03  0.16546275563E+04  0.12699999809E+01 0.  1.
</event>
<event>
 5   0  0.6188930E-07  0.3492854E+04  0.7818609E-02  0.8115485E-01
       -2   -1    0    0    0  501  0.00000000000E+00  0.00000000000E+00  0.17532258331E+04  0.17532258331E+04  0.25500000920E-02 0. -1.
        2   -1    0    0  501    0  0.00000000000E+00  0.00000000000E+00 -0.17396550219E+04  0.17396550219E+04  0.25500000920E-02 0.  1.
    10030    2    1    2    0    0  0.00000000000E+00  0.00000000000E+00  0.13570811158E+02  0.34928808550E+04  0.34928544917E+04 0.  0.
        3    1    3    3  502    0  0.21724572054E+03 -0.10085089560E+04  0.14159525614E+04  0.17519154329E+04  0.10100000352E+00 0. -1.
       -3    1    3    3    0  502 -0.21724572054E+03  0.10085089560E+04 -0.14023817502E+04  0.17409654222E+04  0.10100000352E+00 0.  1.
</event>
<event>
 5   0  0.8845195E-07  0.3293382E+04  0.7818609E-02  0.8164581E-01
        2   -1    0    0  501    0  0.00000000000E+00  0.00000000000E+00  0.27753235384E+04  0.27753235384E+04  0.25500000920E-02 0.  1.
       -2   -1    0    0    0  501  0.00000000000E+00  0.00000000000E+00 -0.97703623046E+03  0.97703623046E+03  0.25500000920E-02 0. -1.
    10030    2    1    2    0    0  0.00000000000E+00  0.00000000000E+00  0.17982873079E+04  0.37523597688E+04  0.32933822421E+04 0.  0.
        5    1    3    3  502    0 -0.17143879474E+03 -0.10202381637E+04  0.23588157608E+04  0.25757156393E+04  0.46999998093E+01 0.  1.
       -5    1    3    3    0  502  0.17143879474E+03  0.10202381637E+04 -0.56052845289E+03  0.11766441295E+04  0.46999998093E+01 0. -1.
</event>
<event>
 5   0  0.2933506E-07  0.3491936E+04  0.7818609E-02  0.8115704E-01
       -1   -1    0    0    0  501  0.00000000000E+00  0.00000000000E+00  0.13073509637E+04  0.13073509637E+04  0.50400001928E-02 0.  1.
        1   -1    0    0  501    0  0.00000000000E+00  0.00000000000E+00 -0.23317414376E+04  0.23317414376E+04  0.50400001928E-02 0. -1.
    10030    2    1    2    0    0  0.00000000000E+00  0.00000000000E+00 -0.10243904739E+04  0.36390924013E+04  0.34919360908E+04 0.  0.
        4    1    3    3  502    0 -0.66322293150E+03  0.60156335067E+03 -0.20742470744E+04  0.22592577676E+04  0.12699999809E+01 0. -1.
       -4    1    3    3    0  502  0.66322293150E+03 -0.60156335067E+03  0.10498566005E+04  0.13798346337E+04  0.12699999809E+01 0.  1.
</event>
<event>
 5   0  0.3026332E-07  0.3671326E+04  0.7818609E-02  0.8074346E-01
        1   -1    0    0  501    0  0.00000000000E+00  0.00000000000E+00  0.20804735306E+04  0.20804735306E+04  0.50400001928E-02 0. -1.
       -1   -1    0    0    0  501  0.00000000000E+00  0.00000000000E+00 -0.16196596374E+04  0.16196596374E+04  0.50400001928E-02 0.  1.
    10030    2    1    2    0    0  0.00000000000E+00  0.00000000000E+00  0.46081389321E+03  0.37001331681E+04  0.36713261933E+04 0.  0.
        1    1    3    3  502    0  0.90948283974E+03 -0.15401893590E+04 -0.18552569827E+03  0.17982664102E+04  0.50400001928E-02 0.  1.
       -1    1    3    3    0  502 -0.90948283974E+03  0.15401893590E+04  0.64633959148E+03  0.19018667579E+04  0.50400001928E-02 0. -1.
</event>
<event>
 5   0  0.2972541E-07  0.3502766E+04  0.7818609E-02  0.8113135E-01
        1   -1    0    0  501    0  0.00000000000E+00  0.00000000000E+00  0.17909235509E+04  0.17909235510E+04  0.50400001928E-02 0.  1.
       -1   -1    0    0    0  501  0.00000000000E+00  0.00000000000E+00 -0.17127151443E+04  0.17127151443E+04  0.50400001928E-02 0. -1.
    10030    2    1    2    0    0  0.00000000000E+00  0.00000000000E+00  0.78208406615E+02  0.35036386953E+04  0.35027657005E+04 0.  0.
        3    1    3    3  502    0  0.14511835276E+03 -0.25916257795E+03  0.17655463415E+04  0.17903570796E+04  0.10100000352E+00 0.  1.
       -3    1    3    3    0  502 -0.14511835276E+03  0.25916257795E+03 -0.16873379349E+04  0.17132816157E+04  0.10100000352E+00 0. -1.
</event>
<event>
 5   0  0.9311672E-07  0.3484265E+04  0.7818609E-02  0.8117529E-01
        2   -1    0    0  501    0  0.00000000000E+00  0.00000000000E+00  0.18668228585E+04  0.18668228585E+04  0.25500000920E-02 0. -1.
       -2   -1    0    0    0  501  0.00000000000E+00  0.00000000000E+00 -0.16257704846E+04  0.16257704846E+04  0.25500000920E-02 0.  1.
    10030    2    1    2    0    0  0.00000000000E+00  0.00000000000E+00  0.24105237391E+03  0.34925933430E+04  0.34842649171E+04 0.  0.
        4    1    3    3  502    0 -0.74162409333E+03 -0.15738678980E+04  0.20994386409E+03  0.17524681153E+04  0.12699999809E+01 0. -1.
       -4    1    3    3    0  502  0.74162409333E+03  0.15738678980E+04  0.31108509822E+02  0.17401252278E+04  0.12699999809E+01 0.  1.
</event>
<event>
 5   0  0.9128871E-07  0.3505398E+04  0.7818609E-02  0.8112512E-01
        2   -1    0    0  501    0  0.00000000000E+00  0.00000000000E+00  0.21500846417E+04  0.21500846417E+04  0.25500000920E-02 0.  1.
       -2   -1    0    0    0  501  0.00000000000E+00  0.00000000000E+00 -0.14287596126E+04  0.14287596126E+04  0.25500000920E-02 0. -1.
    10030    2    1    2    0    0  0.00000000000E+00  0.00000000000E+00  0.72132502913E+03  0.35788442543E+04  0.35053981798E+04 0.  0.
        1    1    3    3  502    0  0.12608977157E+04 -0.11310018995E+04  0.82057375692E+03  0.18821183907E+04  0.50400001928E-02 0.  1.
       -1    1    3    3    0  502 -0.12608977157E+04  0.11310018995E+04 -0.99248727789E+02  0.16967258636E+04  0.50400001928E-02 0. -1.
</event>
<event>
 5   0  0.6188930E-07  0.3511966E+04  0.7818609E-02  0.8110960E-01
       -2   -1    0    0    0  501  0.00000000000E+00  0.00000000000E+00  0.13780429853E+04  0.13780429853E+04  0.25500000920E-02 0. -1.
        2   -1    0    0  501    0  0.00000000000E+00  0.00000000000E+00 -0.22375759874E+04  0.22375759874E+04  0.25500000920E-02 0.  1.
    10030    2    1    2    0    0  0.00000000000E+00  0.00000000000E+00 -0.85953300211E+03  0.36156189726E+04  0.35119657706E+04 0.  0.
        3    1    3    3  502    0 -0.47242687854E+02  0.20296134618E+03  0.13652679815E+04  0.13810799583E+04  0.10100000352E+00 0. -1.
       -3    1    3    3    0  502  0.47242687854E+02 -0.20296134618E+03 -0.22248009836E+04  0.22345390143E+04  0.10100000352E+00 0.  1.
</event>
<event>
 5   0  0.9311672E-07  0.3491780E+04  0.7818609E-02  0.8115741E-01
        2   -1    0    0  501    0  0.00000000000E+00  0.00000000000E+00  0.24308902849E+04  0.24308902849E+04  0.25500000920E-02 0.  1.
       -2   -1    0    0    0  501  0.00000000000E+00  0.00000000000E+00 -0.12539158776E+04  0.12539158776E+04  0.25500000920E-02 0. -1.
    10030    2    1    2    0    0  0.00000000000E+00  0.00000000000E+00  0.11769744073E+04  0.36848061624E+04  0.34917800187E+04 0.  0.
        4    1    3    3  502    0 -0.58548029245E+03 -0.14077109771E+04  0.14862155543E+04  0.21291490447E+04  0.12699999809E+01 0.  1.
       -4    1    3    3    0  502  0.58548029245E+03  0.14077109771E+04 -0.30924114697E+03  0.15556571177E+04  0.12699999809E+01 0. -1.
</event>
<event>
 5   0  0.8950809E-07  0.3491767E+04  0.7818609E-02  0.8115744E-01
        2   -1    0    0  501    0  0.00000000000E+00  0.00000000000E+00  0.21851855986E+04  0.21851855986E+04  0.25500000920E-02 0.  1.
       -2   -1    0    0    0  501  0.00000000000E+00  0.00000000000E+00 -0.13948970391E+04  0.13948970391E+04  0.25500000920E-02 0. -1.
    10030    2    1    2    0    0  0.00000000000E+00  0.00000000000E+00  0.79028855950E+03  0.35800826376E+04  0.34917668429E+04 0.  0.
        2    1    3    3  502    0 -0.50259559600E+02 -0.12406845281E+04 -0.86320545383E+03  0.15122657759E+04  0.25500000920E-02 0. -1.
       -2    1    3    3    0  502  0.50259559600E+02  0.12406845281E+04  0.16534940133E+04  0.20678168617E+04  0.25500000920E-02 0.  1.
</event>
<event>
 5   0  0.6188930E-07  0.3495793E+04  0.7818609E-02  0.8114788E-01
       -2   -1    0    0    0  501  0.00000000000E+00  0.00000000000E+00  0.10927848692E+04  0.10927848692E+04  0.25500000920E-02 0. -1.
        2   -1    0    0  501    0  0.00000000000E+00  0.00000000000E+00 -0.27957404532E+04  0.27957404532E+04  0.25500000920E-02 0.  1.
    10030    2    1    2    0    0  0.00000000000E+00  0.00000000000E+00 -0.17029555840E+04  0.38885253224E+04  0.34957933952E+04 0.  0.
        3    1    3    3  502    0 -0.10245104329E+02 -0.28288244621E+03 -0.27700748939E+04  0.27845003805E+04  0.10100000352E+00 0.  1.
       -3    1    3    3    0  502  0.10245104329E+02  0.28288244621E+03  0.10671193100E+04  0.11040249419E+04  0.10100000352E+00 0. -1.
</event>
<event>
 5   0  0.8845195E-07  0.3494770E+04  0.7818609E-02  0.8115031E-01
       -2   -1    0    0    0  501  0.00000000000E+00  0.00000000000E+00  0.26158998014E+04  0.26158998014E+04  0.25500000920E-02 0. -1.
        2   -1    0    0  501    0  0.00000000000E+00  0.00000000000E+00 -0.11672290056E+04  0.11672290056E+04  0.25500000920E-02 0.  1.
    10030    2    1    2    0    0  0.00000000000E+00  0.00000000000E+00  0.14486707958E+04  0.37831288070E+04  0.34947698774E+04 0.  0.
        5    1    3    3  502    0  0.15234271295E+04  0.69809210529E+03  0.12603363041E+04  0.20968148454E+04  0.46999998093E+01 0. -1.
       -5    1    3    3    0  502 -0.15234271295E+04 -0.69809210529E+03  0.18833449170E+03  0.16863139616E+04  0.46999998093E+01 0.  1.
</event>
<event>
 5   0  0.8845195E-07  0.3448711E+04  0.7818609E-02  0.8126053E-01
       -2   -1    0    0    0  501  0.00000000000E+00  0.00000000000E+00  0.11269306833E+04  0.11269306833E+04  0.25500000920E-02 0. -1.
        2   -1    0    0  501    0  0.00000000000E+00  0.00000000000E+00 -0.26384963296E+04  0.26384963296E+04  0.25500000920E-02 0.  1.
    10030    2    1    2    0    0  0.00000000000E+00  0.00000000000E+00 -0.15115656463E+04  0.37654270129E+04  0.34487113371E+04 0.  0.
        5    1    3    3  502    0 -0.11891487967E+04  0.61818160434E+03 -0.19403906249E+04  0.23582538506E+04  0.46999998093E+01 0.  1.
       -5    1    3    3    0  502  0.11891487967E+04 -0.61818160434E+03  0.42882497857E+03  0.14071731623E+04  0.46999998093E+01 0. -1.
</event>
<event>
 5   0  0.8845195E-07  0.3497088E+04  0.7818609E-02  0.8114480E-01
       -2   -1    0    0    0  501  0.00000000000E+00  0.00000000000E+00  0.17471100785E+04  0.17471100785E+04  0.25500000920E-02 0.  1.
        2   -1    0    0  501    0  0.00000000000E+00  0.00000000000E+00 -0.17499790829E+04  0.17499790829E+04  0.25500000920E-02 0. -1.
    10030    2    1    2    0    0  0.00000000000E+00  0.00000000000E+00 -0.28690044555E+01  0.34970891614E+04  0.34970879846E+04 0.  0.
        5    1    3    3  502    0  0.12795513368E+04 -0.61036878057E+03  0.10220805374E+04  0.17477048912E+04  0.46999998093E+01 0.  1.
       -5    1    3    3    0  502 -0.12795513368E+04  0.61036878057E+03 -0.10249495418E+04  0.17493842703E+04  0.46999998093E+01 0. -1.
</event>
<event>
 5   0  0.8845195E-07  0.3400042E+04  0.7818609E-02  0.8137896E-01
        2   -1    0    0  501    0  0.00000000000E+00  0.00000000000E+00  0.19275869348E+04  0.19275869348E+04  0.25500000920E-02 0.  1.
       -2   -1    0    0    0  501  0.00000000000E+00  0.00000000000E+00 -0.14993206486E+04  0.14993206486E+04  0.25500000920E-02 0. -1.
    10030    2    1    2    0    0  0.00000000000E+00  0.00000000000E+00  0.42826628626E+03  0.34269075834E+04  0.34000417017E+04 0.  0.
        5    1    3    3  502    0  0.12249165401E+04 -0.84659604826E+03  0.10409218035E+04  0.18167789327E+04  0.46999998093E+01 0.  1.
       -5    1    3    3    0  502 -0.12249165401E+04  0.84659604826E+03 -0.61265551725E+03  0.16101286507E+04  0.46999998093E+01 0. -1.
</event>
<event>
 5   0  0.2972541E-07  0.3529624E+04  0.7818609E-02  0.8106805E-01
       -1   -1    0    0    0  501  0.00000000000E+00  0.00000000000E+00  0.13009952241E+04  0.13009952241E+04  0.50400001928E-02 0.  1.
        1   -1    0    0  501    0  0.00000000000E+00  0.00000000000E+00 -0.23939838425E+04  0.23939838425E+04  0.50400001928E-02 0. -1.
    10030    2    1    2    0    0  0.00000000000E+00  0.00000000000E+00 -0.10929886184E+04  0.36949790666E+04  0.35296240852E+04 0.  0.
        3    1    3    3  502    0 -0.53873437897E+03 -0.15177351693E+04  0.20898371256E+03  0.16240163107E+04  0.10100000352E+00 0.  1.
       -3    1    3    3    0  502  0.53873437897E+03  0.15177351693E+04 -0.13019723310E+04  0.20709627558E+04  0.10100000352E+00 0. -1.
</event>
<event>
 5   0  0.6188930E-07  0.3552075E+04  0.7818609E-02  0.8101559E-01
        2   -1    0    0  501    0  0.00000000000E+00  0.00000000000E+00  0.19463873129E+04  0.19463873129E+04  0.25500000920E-02 0. -1.
       -2   -1    0    0    0  501  0.00000000000E+00  0.00000000000E+00 -0.16205968677E+04  0.16205968677E+04  0.25500000920E-02 0.  1.
    10030    2    1    2    0    0  0.00000000000E+00  0.00000000000E+00  0.32579044518E+03  0.35669841806E+04  0.35520749894E+04 0.  0.
        3    1    3    3  502    0  0.23703019425E+03  0.10677208909E+04 -0.12422987064E+04  0.16551487244E+04  0.10100000352E+00 0.  1.
       -3    1    3    3    0  502 -0.23703019425E+03 -0.10677208909E+04  0.15680891516E+04  0.19118354561E+04  0.10100000352E+00 0. -1.
</event>
<event>
 5   0  0.3026332E-07  0.3514402E+04  0.7818609E-02  0.8110385E-01
        1   -1    0    0  501    0  0.00000000000E+00  0.00000000000E+00  0.16551412828E+04  0.16551412828E+04  0.50400001928E-02 0.  1.
       -1   -1    0    0    0  501  0.00000000000E+00  0.00000000000E+00 -0.18655544153E+04  0.18655544153E+04  0.50400001928E-02 0. -1.
    10030    2    1    2    0    0  0.00000000000E+00  0.00000000000E+00 -0.21041313252E+03  0.35206956981E+04  0.35144024403E+04 0.  0.
        1    1    3    3  502    0 -0.59966729704E+03 -0.16174524660E+04 -0.44047402422E+03  0.17803849900E+04  0.50400001928E-02 0. -1.
       -1    1    3    3    0  502  0.59966729704E+03  0.16174524660E+04  0.23006089170E+03  0.17403107081E+04  0.50400001928E-02 0.  1.
</event>
<event>
 5   0  0.8845195E-07  0.3418656E+04  0.7818609E-02  0.8133343E-01
        2   -1    0    0  501    0  0.00000000000E+00  0.00000000000E+00  0.23242576965E+04  0.23242576965E+04  0.25500000920E-02 0. -1.
       -2   -1    0    0    0  501  0.00000000000E+00  0.00000000000E+00 -0.12570907724E+04  0.12570907724E+04  0.25500000920E-02 0.  1.
    10030    2    1    2    0    0  0.00000000000E+00  0.00000000000E+00  0.10671669241E+04  0.35813484688E+04  0.34186564044E+04 0.  0.
        5    1    3    3  502    0 -0.17281748533E+03  0.15105146886E+04  0.13519515531E+04  0.20345308058E+04  0.46999998093E+01 0. -1.
       -5    1    3    3    0  502  0.17281748533E+03 -0.15105146886E+04 -0.28478462907E+03  0.15468176630E+04  0.46999998093E+01 0.  1.
</event>
<event>
 5   0  0.3061330E-07  0.3682887E+04  0.7818609E-02  0.8071765E-01
       -1   -1    0    0    0  501  0.00000000000E+00  0.00000000000E+00  0.17002498071E+04  0.17002498071E+04  0.50400001928E-02 0.  1.
        1   -1    0    0  501    0  0.00000000000E+00  0.00000000000E+00 -0.19943622063E+04  0.19943622063E+04  0.50400001928E-02 0. -1.
    10030    2    1    2    0    0  0.00000000000E+00  0.00000000000E+00 -0.29411239922E+03  0.36946120133E+04  0.36828868874E+04 0.  0.
        5    1    3    3  502    0 -0.23856024759E+03 -0.10433842103E+04  0.13561569721E+04  0.17276415789E+04  0.46999998093E+01 0.  1.
       -5    1    3    3    0  502  0.23856024759E+03  0.10433842103E+04 -0.16502693713E+04  0.19669704345E+04  0.46999998093E+01 0. -1.
</event>
<event>
 5   0  0.8950809E-07  0.3512316E+04  0.7818609E-02  0.8110877E-01
       -2   -1    0    0    0  501  0.00000000000E+00  0.00000000000E+00  0.15560654544E+04  0.15560654545E+04  0.25500000920E-02 0.  1.
        2   -1    0    0  501    0  0.00000000000E+00  0.00000000000E+00 -0.19819801001E+04  0.19819801001E+04  0.25500000920E-02 0. -1.
    10030    2    1    2    0    0  0.00000000000E+00  0.00000000000E+00 -0.42591464561E+03  0.35380455545E+04  0.35123159113E+04 0.  0.
        2    1    3    3  502    0 -0.70570646745E+03 -0.83736511166E+02 -0.18306661250E+04  0.19637647218E+04  0.25500000920E-02 0. -1.
       -2    1    3    3    0  502  0.70570646745E+03  0.83736511166E+02  0.14047514794E+04  0.15742808327E+04  0.25500000920E-02 0.  1.
</event>
<event>
 5   0  0.9311672E-07  0.3495340E+04  0.7818609E-02  0.8114895E-01
       -2   -1    0    0    0  501  0.00000000000E+00  0.00000000000E+00  0.11922009398E+04  0.11922009398E+04  0.25500000920E-02 0. -1.
        2   -1    0    0  501    0  0.00000000000E+00  0.00000000000E+00 -0.25619430402E+04  0.25619430402E+04  0.25500000920E-02 0.  1.
    10030    2    1    2    0    0  0.00000000000E+00  0.00000000000E+00 -0.13697421004E+04  0.37541439800E+04  0.34953402697E+04 0.  0.
        4    1    3    3  502    0 -0.49382910218E+03 -0.96921716593E+03 -0.21540340618E+04  0.24131128132E+04  0.12699999809E+01 0.  1.
       -4    1    3    3    0  502  0.49382910218E+03  0.96921716593E+03  0.78429196140E+03  0.13410311669E+04  0.12699999809E+01 0. -1.
</event>
<event>
 5   0  0.2972541E-07  0.3408757E+04  0.7818609E-02  0.8135760E-01
        1   -1    0    0  501    0  0.00000000000E+00  0.00000000000E+00  0.15563973621E+04  0.15563973621E+04  0.50400001928E-02 0.  1.
       -1   -1    0    0    0  501  0.00000000000E+00  0.00000000000E+00 -0.18664297067E+04  0.18664297067E+04  0.50400001928E-02 0. -1.
    10030    2    1    2    0    0  0.00000000000E+00  0.00000000000E+00 -0.31003234456E+03  0.34228270688E+04  0.34087571178E+04 0.  0.
        3    1    3    3  502    0  0.70332495284E+03 -0.14527367858E+04 -0.70481257282E+03  0.17612129148E+04  0.10100000352E+00 0. -1.
       -3    1    3    3    0  502 -0.70332495284E+03  0.14527367858E+04  0.39478022826E+03  0.16616141540E+04  0.10100000352E+00 0.  1.
</event>
<event>
 5   0  0.8950809E-07  0.3521004E+04  0.7818609E-02  0.8108830E-01
       -2   -1    0    0    0  501  0.00000000000E+00  0.00000000000E+00  0.12212750688E+04  0.12212750688E+04  0.25500000920E-02 0.  1.
        2   -1    0    0  501    0  0.00000000000E+00  0.00000000000E+00 -0.25378130082E+04  0.25378130082E+04  0.25500000920E-02 0. -1.
    10030    2    1    2    0    0  0.00000000000E+00  0.00000000000E+00 -0.13165379394E+04  0.37590880770E+04  0.35210042637E+04 0.  0.
        2    1    3    3  502    0  0.43610812254E+03  0.16272990326E+04 -0.12037741263E+04  0.20705952244E+04  0.25500000920E-02 0. -1.
       -2    1    3    3    0  502 -0.43610812254E+03 -0.16272990326E+04 -0.11276381307E+03  0.16884928527E+04  0.25500000920E-02 0.  1.
</event>
<event>
 5   0  0.3061330E-07  0.3716263E+04  0.7818609E-02  0.8064367E-01
        1   -1    0    0  501    0  0.00000000000E+00  0.00000000000E+00  0.27038750260E+04  0.27038750260E+04  0.50400001928E-02 0. -1.
       -1   -1    0    0    0  501  0.00000000000E+00  0.00000000000E+00 -0.12769276486E+04  0.12769276486E+04  0.50400001928E-02 0.  1.
    10030    2    1    2    0    0  0.00000000000E+00  0.00000000000E+00  0.14269473774E+04  0.39808026746E+04  0.37162630580E+04 0.  0.
        5    1    3    3  502    0 -0.88913248920E+03  0.93218520641E+03 -0.72091563634E+03  0.14762341573E+04  0.46999998093E+01 0.  1.
       -5    1    3    3    0  502  0.88913248920E+03 -0.93218520641E+03  0.21478630137E+04  0.25045685173E+04  0.46999998093E+01 0. -1.
</event>
<event>
 5   0  0.3061330E-07  0.3469816E+04  0.7818609E-02  0.8120981E-01
       -1   -1    0    0    0  501  0.00000000000E+00  0.00000000000E+00  0.14289999803E+04  0.14289999803E+04  0.50400001928E-02 0. -1.
        1   -1    0    0  501    0  0.00000000000E+00  0.00000000000E+00 -0.21063016010E+04  0.21063016010E+04  0.50400001928E-02 0.  1.
    10030    2    1    2    0    0  0.00000000000E+00  0.00000000000E+00 -0.67730162071E+03  0.35353015813E+04  0.34698155261E+04 0.  0.
        5    1    3    3  502    0  0.48996957779E+03 -0.47410418237E+03  0.12867752107E+04  0.14562477453E+04  0.46999998093E+01 0. -1.
       -5    1    3    3    0  502 -0.48996957779E+03  0.47410418237E+03 -0.19640768314E+04  0.20790538359E+04  0.46999998093E+01 0.  1.
</event>
<event>
 5   0  0.2933506E-07  0.2821150E+04  0.7818609E-02  0.8296732E-01
        1   -1    0    0  501    0  0.00000000000E+00  0.00000000000E+00  0.12099219348E+04  0.12099219348E+04  0.50400001928E-02 0. -1.
       -1   -1    0    0    0  501  0.00000000000E+00  0.00000000000E+00 -0.16445045459E+04  0.16445045459E+04  0.50400001928E-02 0.  1.
    10030    2    1    2    0    0  0.00000000000E+00  0.00000000000E+00 -0.43458261110E+03  0.28544264808E+04  0.28211502066E+04 0.  0.
        4    1    3    3  502    0 -0.79534710366E+03  0.69994420954E+03  0.72494035747E+03  0.12837597309E+04  0.12699999809E+01 0. -1.
       -4    1    3    3    0  502  0.79534710366E+03 -0.69994420954E+03 -0.11595229686E+04  0.15706667499E+04  0.12699999809E+01 0.  1.
</event>
<event>
 5   0  0.2936607E-07  0.3572996E+04  0.7818609E-02  0.8096705E-01
       -1   -1    0    0    0  501  0.00000000000E+00  0.00000000000E+00  0.11670188475E+04  0.11670188476E+04  0.50400001928E-02 0. -1.
        1   -1    0    0  501    0  0.00000000000E+00  0.00000000000E+00 -0.27348106374E+04  0.27348106374E+04  0.50400001928E-02 0.  1.
    10030    2    1    2    0    0  0.00000000000E+00  0.00000000000E+00 -0.15677917899E+04  0.39018294850E+04  0.35729962543E+04 0.  0.
        2    1    3    3  502    0 -0.93817902546E+03  0.11693684966E+03 -0.24392252410E+04  0.26160416447E+04  0.25500000920E-02 0.  1.
       -2    1    3    3    0  502  0.93817902546E+03 -0.11693684966E+03  0.87143345107E+03  0.12857878403E+04  0.25500000920E-02 0. -1.
</event>
<event>
 5   0  0.3061330E-07  0.3437318E+04  0.7818609E-02  0.8128807E-01
       -1   -1    0    0    0  501  0.00000000000E+00  0.00000000000E+00  0.14541635442E+04  0.14541635442E+04  0.50400001928E-02 0.  1.
        1   -1    0    0  501    0  0.00000000000E+00  0.00000000000E+00 -0.20312634960E+04  0.20312634960E+04  0.50400001928E-02 0. -1.
    10030    2    1    2    0    0  0.00000000000E+00  0.00000000000E+00 -0.57709995180E+03  0.34854270402E+04  0.34373183294E+04 0.  0.
        5    1    3    3  502    0 -0.12246347154E+04 -0.12018585524E+04 -0.38776143146E+03  0.17591404674E+04  0.46999998093E+01 0.  1.
       -5    1    3    3    0  502  0.12246347154E+04  0.12018585524E+04 -0.18933852034E+03  0.17262865728E+04  0.46999998093E+01 0. -1.
</event>
<event>
 5   0  0.3026332E-07  0.3491839E+04  0.7818609E-02  0.8115727E-01
        1   -1    0    0  501    0  0.00000000000E+00  0.00000000000E+00  0.21852376873E+04  0.21852376873E+04  0.50400001928E-02 0. -1.
       -1   -1    0    0    0  501  0.00000000000E+00  0.00000000000E+00 -0.13949213963E+04  0.13949213963E+04  0.50400001928E-02 0.  1.
    10030    2    1    2    0    0  0.00000000000E+00  0.00000000000E+00  0.79031629100E+03  0.35801590837E+04  0.34918389460E+04 0.  0.
        1    1    3    3  502    0  0.16094484958E+04 -0.74004038290E+02 -0.29448689355E+03  0.16378411366E+04  0.50400001928E-02 0. -1.
       -1    1    3    3    0  502 -0.16094484958E+04  0.74004038290E+02  0.10848031845E+04  0.19423179471E+04  0.50400001928E-02 0.  1.
</event>
<event>
 5   0  0.6188930E-07  0.3398577E+04  0.7818609E-02  0.8138256E-01
       -2   -1    0    0    0  501  0.00000000000E+00  0.00000000000E+00  0.13495971809E+04  0.13495971809E+04  0.25500000920E-02 0.  1.
        2   -1    0    0  501    0  0.00000000000E+00  0.00000000000E+00 -0.21395882239E+04  0.21395882239E+04  0.25500000920E-02 0. -1.
    10030    2    1    2    0    0  0.00000000000E+00  0.00000000000E+00 -0.78999104304E+03  0.34891854049E+04  0.33985774879E+04 0.  0.
        3    1    3    3  502    0  0.11415212916E+04 -0.94301560148E+03 -0.12510315463E+04  0.19384089414E+04  0.10100000352E+00 0.  1.
       -3    1    3    3    0  502 -0.11415212916E+04  0.94301560148E+03  0.46104050325E+03  0.15507764635E+04  0.10100000352E+00 0. -1.
</event>
<event>
 5   0  0.6188930E-07  0.3502674E+04  0.7818609E-02  0.8113156E-01
        2   -1    0    0  501    0  0.00000000000E+00  0.00000000000E+00  0.13112436388E+04  0.13112436388E+04  0.25500000920E-02 0.  1.
       -2   -1    0    0    0  501  0.00000000000E+00  0.00000000000E+00 -0.23391396286E+04  0.23391396286E+04  0.25500000920E-02 0. -1.
    10030    2    1    2    0    0  0.00000000000E+00  0.00000000000E+00 -0.10278959899E+04  0.36503832674E+04  0.35026743829E+04 0.  0.
        3    1    3    3  502    0 -0.37305352489E+03 -0.57801530741E+03 -0.21924283442E+04  0.22978278184E+04  0.10100000352E+00 0. -1.
       -3    1    3    3    0  502  0.37305352489E+03  0.57801530741E+03  0.11645323544E+04  0.13525554490E+04  0.10100000352E+00 0.  1.
</event>
<event>
 5   0  0.2972541E-07  0.3213696E+04  0.7818609E-02  0.8185209E-01
       -1   -1    0    0    0  501  0.00000000000E+00  0.00000000000E+00  0.15132217791E+04  0.15132217791E+04  0.50400001928E-02 0. -1.
        1   -1    0    0  501    0  0.00000000000E+00  0.00000000000E+00 -0.17062669766E+04  0.17062669767E+04  0.50400001928E-02 0.  1.
    10030    2    1    2    0    0  0.00000000000E+00  0.00000000000E+00 -0.19304519758E+03  0.32194887557E+04  0.32136959097E+04 0.  0.
        3    1    3    3  502    0  0.18439132012E+02  0.19711619157E+03 -0.16940020912E+04  0.17055315564E+04  0.10100000352E+00 0.  1.
       -3    1    3    3    0  502 -0.18439132012E+02 -0.19711619157E+03  0.15009568937E+04  0.15139571993E+04  0.10100000352E+00 0. -1.
</event>
<event>
 5   0  0.3026332E-07  0.3517317E+04  0.7818609E-02  0.8109698E-01
       -1   -1    0    0    0  501  0.00000000000E+00  0.00000000000E+00  0.16013179882E+04  0.16013179882E+04  0.50400001928E-02 0.  1.
        1   -1    0    0  501    0  0.00000000000E+00  0.00000000000E+00 -0.19314591161E+04  0.19314591161E+04  0.50400001928E-02 0. -1.
    10030    2    1    2    0    0  0.00000000000E+00  0.00000000000E+00 -0.33014112792E+03  0.35327771043E+04  0.35173172879E+04 0.  0.
        1    1    3    3  502    0 -0.59650289303E+03  0.81053942009E+03  0.12835204688E+04  0.16310164459E+04  0.50400001928E-02 0.  1.
       -1    1    3    3    0  502  0.59650289303E+03 -0.81053942009E+03 -0.16136615967E+04  0.19017606584E+04  0.50400001928E-02 0. -1.
</event>
<event>
 5   0  0.2972541E-07  0.3489891E+04  0.7818609E-02  0.8116190E-01
       -1   -1    0    0    0  501  0.00000000000E+00  0.00000000000E+00  0.13869128133E+04  0.13869128133E+04  0.50400001928E-02 0. -1.
        1   -1    0    0  501    0  0.00000000000E+00  0.00000000000E+00 -0.21954048522E+04  0.21954048522E+04  0.50400001928E-02 0.  1.
    10030    2    1    2    0    0  0.00000000000E+00  0.00000000000E+00 -0.80849203891E+03  0.35823176655E+04  0.34898911844E+04 0.  0.
        3    1    3    3  502    0  0.67677230935E+03  0.38968259544E+03 -0.20060091299E+04  0.21526601969E+04  0.10100000352E+00 0.  1.
       -3    1    3    3    0  502 -0.67677230935E+03 -0.38968259544E+03  0.11975170910E+04  0.14296574685E+04  0.10100000352E+00 0. -1.
</event>
<event>
 5   0  0.8950809E-07  0.3394678E+04  0.7818609E-02  0.8139214E-01
        2   -1    0    0  501    0  0.00000000000E+00  0.00000000000E+00  0.16912717846E+04  0.16912717846E+04  0.25500000920E-02 0. -1.
       -2   -1    0    0    0  501  0.00000000000E+00  0.00000000000E+00 -0.17034284337E+04  0.17034284337E+04  0.25500000920E-02 0.  1.
    10030    2    1    2    0    0  0.00000000000E+00  0.00000000000E+00 -0.12156649120E+02  0.33947002183E+04  0.33946784514E+04 0.  0.
        2    1    3    3  502    0  0.99599805477E+03 -0.13076782994E+04 -0.42907723904E+03  0.16988648966E+04  0.25500000920E-02 0.  1.
       -2    1    3    3    0  502 -0.99599805477E+03  0.13076782994E+04  0.41692058992E+03  0.16958353217E+04  0.25500000920E-02 0. -1.
</event>
<event>
 5   0  0.8950809E-07  0.3510192E+04  0.7818609E-02  0.8111379E-01
       -2   -1    0    0    0  501  0.00000000000E+00  0.00000000000E+00  0.14404550853E+04  0.14404550853E+04  0.25500000920E-02 0. -1.
        2   -1    0    0  501    0  0.00000000000E+00  0.00000000000E+00 -0.21384639198E+04  0.21384639198E+04  0.25500000920E-02 0.  1.
    10030    2    1    2    0    0  0.00000000000E+00  0.00000000000E+00 -0.69800883447E+03  0.35789190051E+04  0.35101915777E+04 0.  0.
        2    1    3    3  502    0 -0.12721349764E+04  0.10714456786E+04  0.22235862187E+03  0.16780246116E+04  0.25500000920E-02 0. -1.
       -2    1    3    3    0  502  0.12721349764E+04 -0.10714456786E+04 -0.92036745634E+03  0.19008943935E+04  0.25500000920E-02 0.  1.
</event>
<event>
 5   0  0.2933506E-07  0.3492514E+04  0.7818609E-02  0.8115566E-01
        1   -1    0    0  501    0  0.00000000000E+00  0.00000000000E+00  0.23020525138E+04  0.23020525138E+04  0.50400001928E-02 0.  1.
       -1   -1    0    0    0  501  0.00000000000E+00  0.00000000000E+00 -0.13246495453E+04  0.13246495453E+04  0.50400001928E-02 0. -1.
    10030    2    1    2    0    0  0.00000000000E+00  0.00000000000E+00  0.97740296851E+03  0.36267020591E+04  0.34925136023E+04 0.  0.
        4    1    3    3  502    0  0.10200943646E+03  0.11397380212E+04  0.18584748308E+04  0.21825075010E+04  0.12699999809E+01 0.  1.
       -4    1    3    3    0  502 -0.10200943646E+03 -0.11397380212E+04 -0.88107186233E+03  0.14441945581E+04  0.12699999809E+01 0. -1.
</event>
<event>
 5   0  0.9128871E-07  0.3486245E+04  0.7818609E-02  0.8117057E-01
       -2   -1    0    0    0  501  0.00000000000E+00  0.00000000000E+00  0.17992905177E+04  0.17992905177E+04  0.25500000920E-02 0.  1.
        2   -1    0    0  501    0  0.00000000000E+00  0.00000000000E+00 -0.16887082084E+04  0.16887082084E+04  0.25500000920E-02 0. -1.
    10030    2    1    2    0    0  0.00000000000E+00  0.00000000000E+00  0.11058230929E+03  0.34879987261E+04  0.34862453537E+04 0.  0.
        1    1    3    3  502    0  0.12437101292E+04 -0.66274674970E+03 -0.97110419312E+03  0.17114588787E+04  0.50400001928E-02 0.  1.
       -1    1    3    3    0  502 -0.12437101292E+04  0.66274674970E+03  0.10816865024E+04  0.17765398474E+04  0.50400001928E-02 0. -1.
</event>
<event>
 5   0  0.3061330E-07  0.3507430E+04  0.7818609E-02  0.8112031E-01
       -1   -1    0    0    0  501  0.00000000000E+00  0.00000000000E+00  0.17960003695E+04  0.17960003695E+04  0.50400001928E-02 0. -1.
        1   -1    0    0  501    0  0.00000000000E+00  0.00000000000E+00 -0.17124256886E+04  0.17124256886E+04  0.50400001928E-02 0.  1.
    10030    2    1    2    0    0  0.00000000000E+00  0.00000000000E+00  0.83574680912E+02  0.35084260581E+04  0.35074304951E+04 0.  0.
        5    1    3    3  502    0  0.81200315030E+03 -0.15164141402E+04  0.38340165491E+03  0.17623506688E+04  0.46999998093E+01 0.  1.
       -5    1    3    3    0  502 -0.81200315030E+03  0.15164141402E+04 -0.29982697400E+03  0.17460753893E+04  0.46999998093E+01 0. -1.
</event>
<event>
 5   0  0.8845195E-07  0.3569303E+04  0.7818609E-02  0.8097560E-01
        2   -1    0    0  501    0  0.00000000000E+00  0.00000000000E+00  0.29878943367E+04  0.29878943367E+04  0.25500000920E-02 0.  1.
       -2   -1    0    0    0  501  0.00000000000E+00  0.00000000000E+00 -0.10659617654E+04  0.10659617654E+04  0.25500000920E-02 0. -1.
    10030    2    1    2    0    0  0.00000000000E+00  0.00000000000E+00  0.19219325713E+04  0.40538561021E+04  0.35693030815E+04 0.  0.
        5    1    3    3  502    0  0.42091176228E+03 -0.78477682765E+02  0.29286882751E+04  0.29598247517E+04  0.46999998093E+01 0.  1.
       -5    1    3    3    0  502 -0.42091176228E+03  0.78477682765E+02 -0.10067557038E+04  0.10940313503E+04  0.46999998093E+01 0. -1.
</event>
<event>
 5   0  0.8845195E-07  0.3550016E+04  0.7818609E-02  0.8102038E-01
       -2   -1    0    0    0  501  0.00000000000E+00  0.00000000000E+00  0.13486006742E+04  0.13486006742E+04  0.25500000920E-02 0. -1.
        2   -1    0    0  501    0  0.00000000000E+00  0.00000000000E+00 -0.23362385320E+04  0.23362385320E+04  0.25500000920E-02 0.  1.
    10030    2    1    2    0    0  0.00000000000E+00  0.00000000000E+00 -0.98763785781E+03  0.36848392062E+04  0.35500156954E+04 0.  0.
        5    1    3    3  502    0  0.49925732336E+03  0.90143133434E+03  0.10063360237E+04  0.14403369773E+04  0.46999998093E+01 0. -1.
       -5    1    3    3    0  502 -0.49925732336E+03 -0.90143133434E+03 -0.19939738815E+04  0.22445022289E+04  0.46999998093E+01 0.  1.
</event>
<event>
 5   0  0.2907000E-07  0.3502080E+04  0.7818609E-02  0.8113297E-01
        3   -1    0    0  501    0  0.00000000000E+00  0.00000000000E+00  0.20024560878E+04  0.20024560903E+04  0.10100000352E+00 0.  1.
       -3   -1    0    0    0  501  0.00000000000E+00  0.00000000000E+00 -0.15311899818E+04  0.15311899851E+04  0.10100000352E+00 0. -1.
    10030    2    1    2    0    0  0.00000000000E+00  0.00000000000E+00  0.47126610597E+03  0.35336460754E+04  0.35020797883E+04 0.  0.
        3    1    3    3  502    0  0.15557950611E+04 -0.58221432133E+03  0.79440151965E+03  0.18413434152E+04  0.10100000352E+00 0.  1.
       -3    1    3    3    0  502 -0.15557950611E+04  0.58221432133E+03 -0.32313541368E+03  0.16923026602E+04  0.10100000352E+00 0. -1.
</event>
<event>
 5   0  0.8950809E-07  0.3471931E+04  0.7818609E-02  0.8120474E-01
       -2   -1    0    0    0  501  0.00000000000E+00  0.00000000000E+00  0.13306550208E+04  0.13306550208E+04  0.25500000920E-02 0. -1.
        2   -1    0    0  501    0  0.00000000000E+00  0.00000000000E+00 -0.22647314235E+04  0.22647314235E+04  0.25500000920E-02 0.  1.
    10030    2    1    2    0    0  0.00000000000E+00  0.00000000000E+00 -0.93407640267E+03  0.35953864443E+04  0.34719310129E+04 0.  0.
        2    1    3    3  502    0 -0.74944090605E+03 -0.38131827471E+02 -0.20880954237E+04  0.22188416362E+04  0.25500000920E-02 0.  1.
       -2    1    3    3    0  502  0.74944090605E+03  0.38131827471E+02  0.11540190210E+04  0.13765448082E+04  0.25500000920E-02 0. -1.
</event>
<event>
 5   0  0.3061330E-07  0.3496570E+04  0.7818609E-02  0.8114603E-01
       -1   -1    0    0    0  501  0.00000000000E+00  0.00000000000E+00  0.19008486245E+04  0.19008486245E+04  0.50400001928E-02 0. -1.
        1   -1    0    0  501    0  0.00000000000E+00  0.00000000000E+00 -0.16079663197E+04  0.16079663197E+04  0.50400001928E-02 0.  1.
    10030    2    1    2    0    0  0.00000000000E+00  0.00000000000E+00  0.29288230479E+03  0.35088149441E+04  0.34965700719E+04 0.  0.
        5    1    3    3  502    0  0.98369406637E+03 -0.60891424227E+03  0.14617745966E+04  0.18641989250E+04  0.46999998093E+01 0. -1.
       -5    1    3    3    0  502 -0.98369406637E+03  0.60891424227E+03 -0.11688922918E+04  0.16446160192E+04  0.46999998093E+01 0.  1.
</event>
<event>
 5   0  0.6188930E-07  0.3477368E+04  0.7818609E-02  0.8119174E-01
        2   -1    0    0  501    0  0.00000000000E+00  0.00000000000E+00  0.14584481700E+04  0.14584481700E+04  0.25500000920E-02 0.  1.
       -2   -1    0    0    0  501  0.00000000000E+00  0.00000000000E+00 -0.20727663156E+04  0.20727663156E+04  0.25500000920E-02 0. -1.
    10030    2    1    2    0    0  0.00000000000E+00  0.00000000000E+00 -0.61431814558E+03  0.35312144856E+04  0.34773681081E+04 0.  0.
        3    1    3    3  502    0 -0.11063893895E+04  0.93176234515E+03  0.67253048417E+03  0.15951726588E+04  0.10100000352E+00 0. -1.
       -3    1    3    3    0  502  0.11063893895E+04 -0.93176234515E+03 -0.12868486297E+04  0.19360418268E+04  0.10100000352E+00 0.  1.
</event>
<event>
 5   0  0.2972541E-07  0.3479080E+04  0.7818609E-02  0.8118766E-01
        1   -1    0    0  501    0  0.00000000000E+00  0.00000000000E+00  0.20591517549E+04  0.20591517549E+04  0.50400001928E-02 0.  1.
       -1   -1    0    0    0  501  0.00000000000E+00  0.00000000000E+00 -0.14695370779E+04  0.14695370780E+04  0.50400001928E-02 0. -1.
    10030    2    1    2    0    0  0.00000000000E+00  0.00000000000E+00  0.58961467697E+03  0.35286888329E+04  0.34790802537E+04 0.  0.
        3    1    3    3  502    0  0.12120036945E+04  0.34134277446E+03  0.15121430731E+04  0.19677511349E+04  0.10100000352E+00 0.  1.
       -3    1    3    3    0  502 -0.12120036945E+04 -0.34134277446E+03 -0.92252839612E+03  0.15609376980E+04  0.10100000352E+00 0. -1.
</event>
<event>
 5   0  0.9311672E-07  0.3418979E+04  0.7818609E-02  0.8133264E-01
        2   -1    0    0  501    0  0.00000000000E+00  0.00000000000E+00  0.14138885637E+04  0.14138885637E+04  0.25500000920E-02 0.  1.
       -2   -1    0    0    0  501  0.00000000000E+00  0.00000000000E+00 -0.20668914598E+04  0.20668914598E+04  0.25500000920E-02 0. -1.
    10030    2    1    2    0    0  0.00000000000E+00  0.00000000000E+00 -0.65300289606E+03  0.34807800235E+04  0.34189789104E+04 0.  0.
        4    1    3    3  502    0  0.34308297661E+02  0.12255050552E+03  0.14090587615E+04  0.14147946465E+04  0.12699999809E+01 0.  1.
       -4    1    3    3    0  502 -0.34308297661E+02 -0.12255050552E+03 -0.20620616575E+04  0.20659853770E+04  0.12699999809E+01 0. -1.
</event>
<event>
 5   0  0.2936607E-07  0.3485047E+04  0.7818609E-02  0.8117343E-01
       -1   -1    0    0    0  501  0.00000000000E+00  0.00000000000E+00  0.16407895892E+04  0.16407895892E+04  0.50400001928E-02 0.  1.
        1   -1    0    0  501    0  0.00000000000E+00  0.00000000000E+00 -0.18505649367E+04  0.18505649367E+04  0.50400001928E-02 0. -1.
    10030    2    1    2    0    0  0.00000000000E+00  0.00000000000E+00 -0.20977534754E+03  0.34913545260E+04  0.34850467328E+04 0.  0.
        2    1    3    3  502    0 -0.19103619383E+03 -0.14154174955E+04  0.89516064110E+03  0.16855901302E+04  0.25500000920E-02 0.  1.
       -2    1    3    3    0  502  0.19103619383E+03  0.14154174955E+04 -0.11049359886E+04  0.18057643957E+04  0.25500000920E-02 0. -1.
</event>
<event>
 5   0  0.3026332E-07  0.3631293E+04  0.7818609E-02  0.8083361E-01
        1   -1    0    0  501    0  0.00000000000E+00  0.00000000000E+00  0.20556363463E+04  0.20556363463E+04  0.50400001928E-02 0.  1.
       -1   -1    0    0    0  501  0.00000000000E+00  0.00000000000E+00 -0.16036750356E+04  0.16036750356E+04  0.50400001928E-02 0. -1.
    10030    2    1    2    0    0  0.00000000000E+00  0.00000000000E+00  0.45196131074E+03  0.36593113819E+04  0.36312932631E+04 0.  0.
        1    1    3    3  502    0  0.33248133954E+03 -0.15556720821E+04 -0.65593657178E+03  0.17207301516E+04  0.50400001928E-02 0. -1.
       -1    1    3    3    0  502 -0.33248133954E+03  0.15556720821E+04  0.11078978825E+04  0.19385812303E+04  0.50400001928E-02 0.  1.
</event>
<event>
 5   0  0.6188930E-07  0.3504767E+04  0.7818609E-02  0.8112661E-01
        2   -1    0    0  501    0  0.00000000000E+00  0.00000000000E+00  0.19627238815E+04  0.19627238815E+04  0.25500000920E-02 0.  1.
       -2   -1    0    0    0  501  0.00000000000E+00  0.00000000000E+00 -0.15645845256E+04  0.15645845256E+04  0.25500000920E-02 0. -1.
    10030    2    1    2    0    0  0.00000000000E+00  0.00000000000E+00  0.39813935593E+03  0.35273084071E+04  0.35047667044E+04 0.  0.
        3    1    3    3  502    0 -0.16776081128E+04  0.48121256521E+03  0.40216330577E+02  0.17457238833E+04  0.10100000352E+00 0. -1.
       -3    1    3    3    0  502  0.16776081128E+04 -0.48121256521E+03  0.35792302535E+03  0.17815845238E+04  0.10100000352E+00 0.  1.
</event>
<event>
 5   0  0.2972541E-07  0.3460827E+04  0.7818609E-02  0.8123137E-01
        1   -1    0    0  501    0  0.00000000000E+00  0.00000000000E+00  0.19640254090E+04  0.19640254090E+04  0.50400001928E-02 0. -1.
       -1   -1    0    0    0  501  0.00000000000E+00  0.00000000000E+00 -0.15245885456E+04  0.15245885456E+04  0.50400001928E-02 0.  1.
    10030    2    1    2    0    0  0.00000000000E+00  0.00000000000E+00  0.43943686333E+03  0.34886139546E+04  0.34608268618E+04 0.  0.
        3    1    3    3  502    0 -0.85053715081E+03  0.67286453358E+03 -0.11395034108E+04  0.15730950889E+04  0.10100000352E+00 0.  1.
       -3    1    3    3    0  502  0.85053715081E+03 -0.67286453358E+03  0.15789402741E+04  0.19155188657E+04  0.10100000352E+00 0. -1.
</event>
<event>
 5   0  0.6188930E-07  0.3479461E+04  0.7818609E-02  0.8118675E-01
       -2   -1    0    0    0  501  0.00000000000E+00  0.00000000000E+00  0.32424215570E+04  0.32424215570E+04  0.25500000920E-02 0.  1.
        2   -1    0    0  501    0  0.00000000000E+00  0.00000000000E+00 -0.93345759281E+03  0.93345759281E+03  0.25500000920E-02 0. -1.
    10030    2    1    2    0    0  0.00000000000E+00  0.00000000000E+00  0.23089639641E+04  0.41758791498E+04  0.34794614649E+04 0.  0.
        3    1    3    3  502    0  0.55832663737E+03 -0.15612273077E+04  0.17867049322E+04  0.24375138697E+04  0.10100000352E+00 0.  1.
       -3    1    3    3    0  502 -0.55832663737E+03  0.15612273077E+04  0.52225903198E+03  0.17383652801E+04  0.10100000352E+00 0. -1.
</event>
<event>
 5   0  0.9128871E-07  0.3495960E+04  0.7818609E-02  0.8114748E-01
        2   -1    0    0  501    0  0.00000000000E+00  0.00000000000E+00  0.21420314304E+04  0.21420314304E+04  0.25500000920E-02 0. -1.
       -2   -1    0    0    0  501  0.00000000000E+00  0.00000000000E+00 -0.14264190501E+04  0.14264190501E+04  0.25500000920E-02 0.  1.
    10030    2    1    2    0    0  0.00000000000E+00  0.00000000000E+00  0.71561238037E+03  0.35684504805E+04  0.34959602047E+04 0.  0.
        1    1    3    3  502    0  0.16576359387E+04  0.41040389377E+03  0.73870080672E+03  0.18606093472E+04  0.50400001928E-02 0. -1.
       -1    1    3    3    0  502 -0.16576359387E+04 -0.41040389377E+03 -0.23088426349E+02  0.17078411333E+04  0.50400001928E-02 0.  1.
</event>
<event>
 5   0  0.8845195E-07  0.3601579E+04  0.7818609E-02  0.8090130E-01
        2   -1    0    0  501    0  0.00000000000E+00  0.00000000000E+00  0.15517001139E+04  0.15517001139E+04  0.25500000920E-02 0.  1.
       -2   -1    0    0    0  501  0.00000000000E+00  0.00000000000E+00 -0.20898644788E+04  0.20898644788E+04  0.25500000920E-02 0. -1.
    10030    2    1    2    0    0  0.00000000000E+00  0.00000000000E+00 -0.53816436489E+03  0.36415645927E+04  0.36015790702E+04 0.  0.
        5    1    3    3  502    0  0.16860043220E+04  0.43197731279E+03  0.19822415711E+03  0.17517219754E+04  0.46999998093E+01 0.  1.
       -5    1    3    3    0  502 -0.16860043220E+04 -0.43197731279E+03 -0.73638852199E+03  0.18898426173E+04  0.46999998093E+01 0. -1.
</event>
<event>
 5   0  0.8845195E-07  0.3286062E+04  0.7818609E-02  0.8166451E-01
        2   -1    0    0  501    0  0.00000000000E+00  0.00000000000E+00  0.14578771085E+04  0.14578771085E+04  0.25500000920E-02 0.  1.
       -2   -1    0    0    0  501  0.00000000000E+00  0.00000000000E+00 -0.18516997768E+04  0.18516997768E+04  0.25500000920E-02 0. -1.
    10030    2    1    2    0    0  0.00000000000E+00  0.00000000000E+00 -0.39382266830E+03  0.33095768853E+04  0.32860619084E+04 0.  0.
        5    1    3    3  502    0 -0.89311624961E+03 -0.72741349142E+03 -0.13769361255E+04  0.17952053383E+04  0.46999998093E+01 0. -1.
       -5    1    3    3    0  502  0.89311624961E+03  0.72741349142E+03  0.98311345718E+03  0.15143715470E+04  0.46999998093E+01 0.  1.
</event>
<event>
 5   0  0.6188930E-07  0.2879301E+04  0.7818609E-02  0.8279063E-01
       -2   -1    0    0    0  501  0.00000000000E+00  0.00000000000E+00  0.18775167719E+04  0.18775167719E+04  0.25500000920E-02 0.  1.
        2   -1    0    0  501    0  0.00000000000E+00  0.00000000000E+00 -0.11039018044E+04  0.11039018044E+04  0.25500000920E-02 0. -1.
    10030    2    1    2    0    0  0.00000000000E+00  0.00000000000E+00  0.77361496752E+03  0.29814185763E+04  0.28793014099E+04 0.  0.
        3    1    3    3  502    0  0.37468730760E+03  0.91071288042E+03  0.14741974146E+04  0.17728639419E+04  0.10100000352E+00 0.  1.
       -3    1    3    3    0  502 -0.37468730760E+03 -0.91071288042E+03 -0.70058244704E+03  0.12085546344E+04  0.10100000352E+00 0. -1.
</event>
<event>
 5   0  0.6188930E-07  0.2935015E+04  0.7818609E-02  0.8262535E-01
        2   -1    0    0  501    0  0.00000000000E+00  0.00000000000E+00  0.19770947151E+04  0.19770947151E+04  0.25500000920E-02 0.  1.
       -2   -1    0    0    0  501  0.00000000000E+00  0.00000000000E+00 -0.10892643387E+04  0.10892643387E+04  0.25500000920E-02 0. -1.
    10030    2    1    2    0    0  0.00000000000E+00  0.00000000000E+00  0.88783037647E+03  0.30663590538E+04  0.29350153440E+04 0.  0.
        3    1    3    3  502    0 -0.38430628633E+03  0.92421971442E+03  0.15651157947E+04  0.18578107717E+04  0.10100000352E+00 0.  1.
       -3    1    3    3    0  502  0.38430628633E+03 -0.92421971442E+03 -0.67728541828E+03  0.12085482821E+04  0.10100000352E+00 0. -1.
</event>
<event>
 5   0  0.2936607E-07  0.3510698E+04  0.7818609E-02  0.8111259E-01
       -1   -1    0    0    0  501  0.00000000000E+00  0.00000000000E+00  0.16513195843E+04  0.16513195843E+04  0.50400001928E-02 0. -1.
        1   -1    0    0  501    0  0.00000000000E+00  0.00000000000E+00 -0.18659322543E+04  0.18659322543E+04  0.50400001928E-02 0.  1.
    10030    2    1    2    0    0  0.00000000000E+00  0.00000000000E+00 -0.21461266996E+03  0.35172518386E+04  0.35106982066E+04 0.  0.
        2    1    3    3  502    0 -0.16372710466E+03 -0.14168374382E+04  0.91784159882E+03  0.16960743179E+04  0.25500000920E-02 0. -1.
       -2    1    3    3    0  502  0.16372710466E+03  0.14168374382E+04 -0.11324542688E+04  0.18211775207E+04  0.25500000920E-02 0.  1.
</event>
<event>
 5   0  0.2933506E-07  0.3572022E+04  0.7818609E-02  0.8096931E-01
        1   -1    0    0  501    0  0.00000000000E+00  0.00000000000E+00  0.21078539019E+04  0.21078539019E+04  0.50400001928E-02 0.  1.
       -1   -1    0    0    0  501  0.00000000000E+00  0.00000000000E+00 -0.15133092289E+04  0.15133092289E+04  0.50400001928E-02 0. -1.
    10030    2    1    2    0    0  0.00000000000E+00  0.00000000000E+00  0.59454467302E+03  0.36211631308E+04  0.35720217037E+04 0.  0.
        4    1    3    3  502    0  0.11922811652E+04 -0.88528834293E+03  0.13031746977E+04  0.19757367569E+04  0.12699999809E+01 0.  1.
       -4    1    3    3    0  502 -0.11922811652E+04  0.88528834293E+03 -0.70863002466E+03  0.16454263739E+04  0.12699999809E+01 0. -1.
</event>
<event>
 5   0  0.2933506E-07  0.3488951E+04  0.7818609E-02  0.8116413E-01
       -1   -1    0    0    0  501  0.00000000000E+00  0.00000000000E+00  0.13406469854E+04  0.13406469854E+04  0.50400001928E-02 0. -1.
        1   -1    0    0  501    0  0.00000000000E+00  0.00000000000E+00 -0.22699445542E+04  0.22699445542E+04  0.50400001928E-02 0.  1.
    10030    2    1    2    0    0  0.00000000000E+00  0.00000000000E+00 -0.92929756882E+03  0.36105915395E+04  0.34889507440E+04 0.  0.
        4    1    3    3  502    0  0.49812356183E+02 -0.86435094856E+03  0.11026189845E+04  0.14019108642E+04  0.12699999809E+01 0. -1.
       -4    1    3    3    0  502 -0.49812356183E+02  0.86435094856E+03 -0.20319165534E+04  0.22086806754E+04  0.12699999809E+01 0.  1.
</event>
<event>
 5   0  0.3026332E-07  0.3448554E+04  0.7818609E-02  0.8126091E-01
       -1   -1    0    0    0  501  0.00000000000E+00  0.00000000000E+00  0.16385310164E+04  0.16385310164E+04  0.50400001928E-02 0. -1.
        1   -1    0    0  501    0  0.00000000000E+00  0.00000000000E+00 -0.18145098913E+04  0.18145098913E+04  0.50400001928E-02 0.  1.
    10030    2    1    2    0    0  0.00000000000E+00  0.00000000000E+00 -0.17597887482E+03  0.34530409077E+04  0.34485537470E+04 0.  0.
        1    1    3    3  502    0 -0.43517058860E+03  0.10587163131E+04 -0.13791932386E+04  0.17923246532E+04  0.50400001928E-02 0.  1.
       -1    1    3    3    0  502  0.43517058860E+03 -0.10587163131E+04  0.12032143638E+04  0.16607162545E+04  0.50400001928E-02 0. -1.
</event>
<event>
 5   0  0.2936607E-07  0.3501435E+04  0.7818609E-02  0.8113450E-01
        1   -1    0    0  501    0  0.00000000000E+00  0.00000000000E+00  0.30039852419E+04  0.30039852419E+04  0.50400001928E-02 0.  1.
       -1   -1    0    0    0  501  0.00000000000E+00  0.00000000000E+00 -0.10203152901E+04  0.10203152901E+04  0.50400001928E-02 0. -1.
    10030    2    1    2    0    0  0.00000000000E+00  0.00000000000E+00  0.19836699517E+04  0.40243005320E+04  0.35014351764E+04 0.  0.
        2    1    3    3  502    0 -0.56154530568E+03 -0.44306261827E+03 -0.84471000919E+03  0.11068751572E+04  0.25500000920E-02 0. -1.
       -2    1    3    3    0  502  0.56154530568E+03  0.44306261827E+03  0.28283799609E+04  0.29174253748E+04  0.25500000920E-02 0.  1.
</event>
<event>
 5   0  0.2972541E-07  0.3436992E+04  0.7818609E-02  0.8128886E-01
       -1   -1    0    0    0  501  0.00000000000E+00  0.00000000000E+00  0.19004676553E+04  0.19004676553E+04  0.50400001928E-02 0. -1.
        1   -1    0    0  501    0  0.00000000000E+00  0.00000000000E+00 -0.15539486179E+04  0.15539486179E+04  0.50400001928E-02 0.  1.
    10030    2    1    2    0    0  0.00000000000E+00  0.00000000000E+00  0.34651903736E+03  0.34544162732E+04  0.34369923400E+04 0.  0.
        3    1    3    3  502    0 -0.12729354648E+04  0.27216208797E+03 -0.95438736535E+03  0.16140917424E+04  0.10100000352E+00 0.  1.
       -3    1    3    3    0  502  0.12729354648E+04 -0.27216208797E+03  0.13009064027E+04  0.18403245307E+04  0.10100000352E+00 0. -1.
</event>
<event>
 5   0  0.2907000E-07  0.3487135E+04  0.7818609E-02  0.8116846E-01
        3   -1    0    0  501    0  0.00000000000E+00  0.00000000000E+00  0.16225665715E+04  0.16225665747E+04  0.10100000352E+00 0.  1.
       -3   -1    0    0    0  501  0.00000000000E+00  0.00000000000E+00 -0.18735920047E+04  0.18735920074E+04  0.10100000352E+00 0. -1.
    10030    2    1    2    0    0  0.00000000000E+00  0.00000000000E+00 -0.25102543318E+03  0.34961585821E+04  0.34871350796E+04 0.  0.
        3    1    3    3  502    0  0.16166187176E+04 -0.51313424854E+03 -0.53061882636E+03  0.17771660542E+04  0.10100000352E+00 0. -1.
       -3    1    3    3    0  502 -0.16166187176E+04  0.51313424854E+03  0.27959339319E+03  0.17189925279E+04  0.10100000352E+00 0.  1.
</event>
<event>
 5   0  0.8845195E-07  0.3503741E+04  0.7818609E-02  0.8112904E-01
       -2   -1    0    0    0  501  0.00000000000E+00  0.00000000000E+00  0.12955859473E+04  0.12955859473E+04  0.25500000920E-02 0.  1.
        2   -1    0    0  501    0  0.00000000000E+00  0.00000000000E+00 -0.23688512777E+04  0.23688512777E+04  0.25500000920E-02 0. -1.
    10030    2    1    2    0    0  0.00000000000E+00  0.00000000000E+00 -0.10732653303E+04  0.36644372250E+04  0.35037411015E+04 0.  0.
        5    1    3    3  502    0  0.16360828995E+04  0.29420541767E+03 -0.11148964842E+04  0.20015844579E+04  0.46999998093E+01 0. -1.
       -5    1    3    3    0  502 -0.16360828995E+04 -0.29420541767E+03  0.41631153817E+02  0.16628527670E+04  0.46999998093E+01 0.  1.
</event>
<event>
 5   0  0.9128871E-07  0.3606506E+04  0.7818609E-02  0.8089003E-01
       -2   -1    0    0    0  501  0.00000000000E+00  0.00000000000E+00  0.20621690411E+04  0.20621690411E+04  0.25500000920E-02 0.  1.
        2   -1    0    0  501    0  0.00000000000E+00  0.00000000000E+00 -0.15768448398E+04  0.15768448398E+04  0.25500000920E-02 0. -1.
    10030    2    1    2    0    0  0.00000000000E+00  0.00000000000E+00  0.48532420130E+03  0.36390138809E+04  0.36065055726E+04 0.  0.
        1    1    3    3  502    0 -0.88337814606E+03  0.15708568352E+04  0.18068806819E+03  0.18112416524E+04  0.50400001928E-02 0.  1.
       -1    1    3    3    0  502  0.88337814606E+03 -0.15708568352E+04  0.30463613311E+03  0.18277722285E+04  0.50400001928E-02 0. -1.
</event>
<event>
 5   0  0.9128871E-07  0.3465586E+04  0.7818609E-02  0.8121994E-01
       -2   -1    0    0    0  501  0.00000000000E+00  0.00000000000E+00  0.15647065119E+04  0.15647065119E+04  0.25500000920E-02 0.  1.
        2   -1    0    0  501    0  0.00000000000E+00  0.00000000000E+00 -0.19189355616E+04  0.19189355616E+04  0.25500000920E-02 0. -1.
    10030    2    1    2    0    0  0.00000000000E+00  0.00000000000E+00 -0.35422904974E+03  0.34836420735E+04  0.34655856470E+04 0.  0.
        1    1    3    3  502    0 -0.13679503346E+04  0.52494797831E+03  0.75275244555E+03  0.16472688737E+04  0.50400001928E-02 0.  1.
       -1    1    3    3    0  502  0.13679503346E+04 -0.52494797831E+03 -0.11069814953E+04  0.18363731998E+04  0.50400001928E-02 0. -1.
</event>
<event>
 5   0  0.8950809E-07  0.3383396E+04  0.7818609E-02  0.8141994E-01
       -2   -1    0    0    0  501  0.00000000000E+00  0.00000000000E+00  0.22412886185E+04  0.22412886185E+04  0.25500000920E-02 0. -1.
        2   -1    0    0  501    0  0.00000000000E+00  0.00000000000E+00 -0.12768733723E+04  0.12768733723E+04  0.25500000920E-02 0.  1.
    10030    2    1    2    0    0  0.00000000000E+00  0.00000000000E+00  0.96441524624E+03  0.35181619909E+04  0.33833957833E+04 0.  0.
        2    1    3    3  502    0 -0.69463911170E+02 -0.15964493680E+04 -0.95218234334E+02  0.16007942815E+04  0.25500000920E-02 0.  1.
       -2    1    3    3    0  502  0.69463911170E+02  0.15964493680E+04  0.10596334806E+04  0.19173677093E+04  0.25500000920E-02 0. -1.
</event>
<event>
 5   0  0.2936607E-07  0.3516788E+04  0.7818609E-02  0.8109823E-01
       -1   -1    0    0    0  501  0.00000000000E+00  0.00000000000E+00  0.12858315054E+04  0.12858315054E+04  0.50400001928E-02 0.  1.
        1   -1    0    0  501    0  0.00000000000E+00  0.00000000000E+00 -0.24046309120E+04  0.24046309120E+04  0.50400001928E-02 0. -1.
    10030    2    1    2    0    0  0.00000000000E+00  0.00000000000E+00 -0.11187994067E+04  0.36904624174E+04  0.35167884130E+04 0.  0.
        2    1    3    3  502    0 -0.69962893002E+03  0.15221264631E+04 -0.11202075565E+04  0.20152455382E+04  0.25500000920E-02 0. -1.
       -2    1    3    3    0  502  0.69962893002E+03 -0.15221264631E+04  0.14081498610E+01  0.16752168792E+04  0.25500000920E-02 0.  1.
</event>
<event>
 5   0  0.2936607E-07  0.3486839E+04  0.7818609E-02  0.8116916E-01
        1   -1    0    0  501    0  0.00000000000E+00  0.00000000000E+00  0.21960513340E+04  0.21960513340E+04  0.50400001928E-02 0.  1.
       -1   -1    0    0    0  501  0.00000000000E+00  0.00000000000E+00 -0.13840806313E+04  0.13840806314E+04  0.50400001928E-02 0. -1.
    10030    2    1    2    0    0  0.00000000000E+00  0.00000000000E+00  0.81197070265E+03  0.35801319654E+04  0.34868393234E+04 0.  0.
        2    1    3    3  502    0  0.10926922870E+04 -0.10851569930E+04 -0.43317619312E+03  0.15997449008E+04  0.25500000920E-02 0.  1.
       -2    1    3    3    0  502 -0.10926922870E+04  0.10851569930E+04  0.12451468958E+04  0.19803870645E+04  0.25500000920E-02 0. -1.
</event>
<event>
 5   0  0.2933506E-07  0.3249595E+04  0.7818609E-02  0.8175841E-01
       -1   -1    0    0    0  501  0.00000000000E+00  0.00000000000E+00  0.13873847428E+04  0.13873847428E+04  0.50400001928E-02 0.  1.
        1   -1    0    0  501    0  0.00000000000E+00  0.00000000000E+00 -0.19028364759E+04  0.19028364759E+04  0.50400001928E-02 0. -1.
    10030    2    1    2    0    0  0.00000000000E+00  0.00000000000E+00 -0.51545173309E+03  0.32902212187E+04  0.32495946176E+04 0.  0.
        4    1    3    3  502    0  0.17899929697E+03  0.10699322426E+04 -0.14824637378E+04  0.18369801574E+04  0.12699999809E+01 0. -1.
       -4    1    3    3    0  502 -0.17899929697E+03 -0.10699322426E+04  0.96701200469E+03  0.14532410613E+04  0.12699999809E+01 0.  1.
</event>
<event>
 5   0  0.2936607E-07  0.3496051E+04  0.7818609E-02  0.8114727E-01
       -1   -1    0    0    0  501  0.00000000000E+00  0.00000000000E+00  0.15536032991E+04  0.15536032991E+04  0.50400001928E-02 0. -1.
        1   -1    0    0  501    0  0.00000000000E+00  0.00000000000E+00 -0.19667778640E+04  0.19667778640E+04  0.50400001928E-02 0.  1.
    10030    2    1    2    0    0  0.00000000000E+00  0.00000000000E+00 -0.41317456490E+03  0.35203811631E+04  0.34960506736E+04 0.  0.
        2    1    3    3  502    0 -0.10435587872E+04  0.14594645532E+03 -0.16110257798E+04  0.19250245124E+04  0.25500000920E-02 0.  1.
       -2    1    3    3    0  502  0.10435587872E+04 -0.14594645532E+03  0.11978512149E+04  0.15953566508E+04  0.25500000920E-02 0. -1.
</event>
<event>
 5   0  0.8845195E-07  0.3499636E+04  0.7818609E-02  0.8113876E-01
        2   -1    0    0  501    0  0.00000000000E+00  0.00000000000E+00  0.21722429385E+04  0.21722429385E+04  0.25500000920E-02 0. -1.
       -2   -1    0    0    0  501  0.00000000000E+00  0.00000000000E+00 -0.14095396220E+04  0.14095396220E+04  0.25500000920E-02 0.  1.
    10030    2    1    2    0    0  0.00000000000E+00  0.00000000000E+00  0.76270331648E+03  0.35817825605E+04  0.34996356898E+04 0.  0.
        5    1    3    3  502    0 -0.85219381405E+03  0.13170332499E+04 -0.41210696268E+03  0.16219325254E+04  0.46999998093E+01 0.  1.
       -5    1    3    3    0  502  0.85219381405E+03 -0.13170332499E+04  0.11748102792E+04  0.19598500351E+04  0.46999998093E+01 0. -1.
</event>
<event>
 5   0  0.6188930E-07  0.3564340E+04  0.7818609E-02  0.8098709E-01
        2   -1    0    0  501    0  0.00000000000E+00  0.00000000000E+00  0.22025613015E+04  0.22025613015E+04  0.25500000920E-02 0.  1.
       -2   -1    0    0    0  501  0.00000000000E+00  0.00000000000E+00 -0.14420163066E+04  0.14420163066E+04  0.25500000920E-02 0. -1.
    10030    2    1    2    0    0  0.00000000000E+00  0.00000000000E+00  0.76054499488E+03  0.36445776081E+04  0.35643396657E+04 0.  0.
        3    1    3    3  502    0  0.98324202231E+03 -0.12067564084E+04  0.12676234561E+04  0.20074598727E+04  0.10100000352E+00 0.  1.
       -3    1    3    3    0  502 -0.98324202231E+03  0.12067564084E+04 -0.50707846127E+03  0.16371177354E+04  0.10100000352E+00 0. -1.
</event>
<event>
 5   0  0.9128871E-07  0.3460805E+04  0.7818609E-02  0.8123142E-01
       -2   -1    0    0    0  501  0.00000000000E+00  0.00000000000E+00  0.86954179370E+03  0.86954179370E+03  0.25500000920E-02 0.  1.
        2   -1    0    0  501    0  0.00000000000E+00  0.00000000000E+00 -0.34435299920E+04  0.34435299920E+04  0.25500000920E-02 0. -1.
    10030    2    1    2    0    0  0.00000000000E+00  0.00000000000E+00 -0.25739881983E+04  0.43130717857E+04  0.34608052508E+04 0.  0.
        1    1    3    3  502    0  0.45304712834E+03  0.42344019893E+03 -0.33002924688E+04  0.33580475997E+04  0.50400001928E-02 0. -1.
       -1    1    3    3    0  502 -0.45304712834E+03 -0.42344019893E+03  0.72630427044E+03  0.95502418601E+03  0.50400001928E-02 0.  1.
</event>
<event>
 5   0  0.6188930E-07  0.2825589E+04  0.7818609E-02  0.8295368E-01
        2   -1    0    0  501    0  0.00000000000E+00  0.00000000000E+00  0.25889875282E+04  0.25889875282E+04  0.25500000920E-02 0.  1.
       -2   -1    0    0    0  501  0.00000000000E+00  0.00000000000E+00 -0.77095300476E+03  0.77095300476E+03  0.25500000920E-02 0. -1.
    10030    2    1    2    0    0  0.00000000000E+00  0.00000000000E+00  0.18180345234E+04  0.33599405329E+04  0.28255885859E+04 0.  0.
        3    1    3    3  502    0  0.13030432093E+04 -0.25397735013E+03  0.14836936958E+04  0.19909226737E+04  0.10100000352E+00 0.  1.
       -3    1    3    3    0  502 -0.13030432093E+04  0.25397735013E+03  0.33434082762E+03  0.13690178592E+04  0.10100000352E+00 0. -1.
</event>
<event>
 5   0  0.2933506E-07  0.3501291E+04  0.7818609E-02  0.8113484E-01
        1   -1    0    0  501    0  0.00000000000E+00  0.00000000000E+00  0.29338114423E+04  0.29338114423E+04  0.50400001928E-02 0. -1.
       -1   -1    0    0    0  501  0.00000000000E+00  0.00000000000E+00 -0.10446344482E+04  0.10446344482E+04  0.50400001928E-02 0.  1.
    10030    2    1    2    0    0  0.00000000000E+00  0.00000000000E+00  0.18891769941E+04  0.39784458906E+04  0.35012914745E+04 0.  0.
        4    1    3    3  502    0  0.10868098890E+04 -0.10605146677E+04  0.19344645983E+04  0.24592685885E+04  0.12699999809E+01 0. -1.
       -4    1    3    3    0  502 -0.10868098890E+04  0.10605146677E+04 -0.45287604190E+02  0.15191773021E+04  0.12699999809E+01 0.  1.
</event>
<event>
 5   0  0.8950809E-07  0.3468725E+04  0.7818609E-02  0.8121242E-01
        2   -1    0    0  501    0  0.00000000000E+00  0.00000000000E+00  0.17390619308E+04  0.17390619308E+04  0.25500000920E-02 0. -1.
       -2   -1    0    0    0  501  0.00000000000E+00  0.00000000000E+00 -0.17296754411E+04  0.17296754411E+04  0.25500000920E-02 0.  1.
    10030    2    1    2    0    0  0.00000000000E+00  0.00000000000E+00  0.93864897341E+01  0.34687373719E+04  0.34687246718E+04 0.  0.
        2    1    3    3  502    0 -0.11029884956E+04 -0.10522968936E+04  0.83179985707E+03  0.17366068570E+04  0.25500000920E-02 0. -1.
       -2    1    3    3    0  502  0.11029884956E+04  0.10522968936E+04 -0.82241336734E+03  0.17321305148E+04  0.25500000920E-02 0.  1.
</event>
<event>
 5   0  0.8950809E-07  0.3476663E+04  0.7818609E-02  0.8119343E-01
       -2   -1    0    0    0  501  0.00000000000E+00  0.00000000000E+00  0.19049279839E+04  0.19049279839E+04  0.25500000920E-02 0.  1.
        2   -1    0    0  501    0  0.00000000000E+00  0.00000000000E+00 -0.15863048029E+04  0.15863048029E+04  0.25500000920E-02 0. -1.
    10030    2    1    2    0    0  0.00000000000E+00  0.00000000000E+00  0.31862318100E+03  0.34912327869E+04  0.34766630036E+04 0.  0.
        2    1    3    3  502    0 -0.16069809181E+03 -0.20339498412E+03 -0.15667877221E+04  0.15880860059E+04  0.25500000920E-02 0. -1.
       -2    1    3    3    0  502  0.16069809181E+03  0.20339498412E+03  0.18854109031E+04  0.19031467809E+04  0.25500000920E-02 0.  1.
</event>
<event>
 5   0  0.2933506E-07  0.3512688E+04  0.7818609E-02  0.8110790E-01
       -1   -1    0    0    0  501  0.00000000000E+00  0.00000000000E+00  0.28391322081E+04  0.28391322081E+04  0.50400001928E-02 0.  1.
        1   -1    0    0  501    0  0.00000000000E+00  0.00000000000E+00 -0.10865093107E+04  0.10865093107E+04  0.50400001928E-02 0. -1.
    10030    2    1    2    0    0  0.00000000000E+00  0.00000000000E+00  0.17526228975E+04  0.39256415188E+04  0.35126876197E+04 0.  0.
        4    1    3    3  502    0 -0.81321887818E+03 -0.40632702879E+03  0.25557472348E+04  0.27126135256E+04  0.12699999809E+01 0.  1.
       -4    1    3    3    0  502  0.81321887818E+03  0.40632702879E+03 -0.80312433733E+03  0.12130279932E+04  0.12699999809E+01 0. -1.
</event>
<event>
 5   0  0.2936607E-07  0.3485179E+04  0.7818609E-02  0.8117311E-01
        1   -1    0    0  501    0  0.00000000000E+00  0.00000000000E+00  0.19347061681E+04  0.19347061681E+04  0.50400001928E-02 0. -1.
       -1   -1    0    0    0  501  0.00000000000E+00  0.00000000000E+00 -0.15695496752E+04  0.15695496752E+04  0.50400001928E-02 0.  1.
    10030    2    1    2    0    0  0.00000000000E+00  0.00000000000E+00  0.36515649293E+03  0.35042558433E+04  0.34851785824E+04 0.  0.
        2    1    3    3  502    0 -0.91412755919E+03 -0.33130723376E+03 -0.12714439022E+04  0.16006134055E+04  0.25500000920E-02 0.  1.
       -2    1    3    3    0  502  0.91412755919E+03  0.33130723376E+03  0.16366003951E+04  0.19036424378E+04  0.25500000920E-02 0. -1.
</event>
<event>
 5   0  0.3061330E-07  0.3509247E+04  0.7818609E-02  0.8111602E-01
       -1   -1    0    0    0  501  0.00000000000E+00  0.00000000000E+00  0.14078841653E+04  0.14078841653E+04  0.50400001928E-02 0. -1.
        1   -1    0    0  501    0  0.00000000000E+00  0.00000000000E+00 -0.21867597372E+04  0.21867597372E+04  0.50400001928E-02 0.  1.
    10030    2    1    2    0    0  0.00000000000E+00  0.00000000000E+00 -0.77887557187E+03  0.35946439025E+04  0.35092474449E+04 0.  0.
        5    1    3    3  502    0  0.14275461198E+04  0.40746651944E+03  0.56861113794E+03  0.15897350738E+04  0.46999998093E+01 0. -1.
       -5    1    3    3    0  502 -0.14275461198E+04 -0.40746651944E+03 -0.13474867098E+04  0.20049088288E+04  0.46999998093E+01 0.  1.
</event>
<event>
 5   0  0.9311672E-07  0.3532379E+04  0.7818609E-02  0.8106159E-01
        2   -1    0    0  501    0  0.00000000000E+00  0.00000000000E+00  0.21178264450E+04  0.21178264450E+04  0.25500000920E-02 0. -1.
       -2   -1    0    0    0  501  0.00000000000E+00  0.00000000000E+00 -0.14729368674E+04  0.14729368674E+04  0.25500000920E-02 0.  1.
    10030    2    1    2    0    0  0.00000000000E+00  0.00000000000E+00  0.64488957759E+03  0.35907633123E+04  0.35323786034E+04 0.  0.
        4    1    3    3  502    0 -0.15210041454E+04  0.77564535472E+03 -0.13707071703E+03  0.17128541447E+04  0.12699999809E+01 0. -1.
       -4    1    3    3    0  502  0.15210041454E+04 -0.77564535472E+03  0.78196029462E+03  0.18779091676E+04  0.12699999809E+01 0.  1.
</event>
<event>
 5   0  0.2972541E-07  0.3086213E+04  0.7818609E-02  0.8219532E-01
        1   -1    0    0  501    0  0.00000000000E+00  0.00000000000E+00  0.94060643032E+03  0.94060643033E+03  0.50400001928E-02 0. -1.
       -1   -1    0    0    0  501  0.00000000000E+00  0.00000000000E+00 -0.25315339761E+04  0.25315339761E+04  0.50400001928E-02 0.  1.
    10030    2    1    2    0    0  0.00000000000E+00  0.00000000000E+00 -0.15909275458E+04  0.34721404065E+04  0.30862126541E+04 0.  0.
        3    1    3    3  502    0 -0.35345393933E+03 -0.11062753975E+04 -0.19385944734E+04  0.22598503236E+04  0.10100000352E+00 0.  1.
       -3    1    3    3    0  502  0.35345393933E+03  0.11062753975E+04  0.34766692757E+03  0.12122900829E+04  0.10100000352E+00 0. -1.
</event>
<event>
 5   0  0.9128871E-07  0.3457152E+04  0.7818609E-02  0.8124020E-01
       -2   -1    0    0    0  501  0.00000000000E+00  0.00000000000E+00  0.17195607467E+04  0.17195607467E+04  0.25500000920E-02 0. -1.
        2   -1    0    0  501    0  0.00000000000E+00  0.00000000000E+00 -0.17376385698E+04  0.17376385698E+04  0.25500000920E-02 0.  1.
    10030    2    1    2    0    0  0.00000000000E+00  0.00000000000E+00 -0.18077823118E+02  0.34571993166E+04  0.34571520514E+04 0.  0.
        1    1    3    3  502    0 -0.16890292355E+04  0.35147612003E+03 -0.11683581799E+03  0.17291633323E+04  0.50400001928E-02 0.  1.
       -1    1    3    3    0  502  0.16890292355E+04 -0.35147612003E+03  0.98757994871E+02  0.17280359843E+04  0.50400001928E-02 0. -1.
</event>
<event>
 5   0  0.3061330E-07  0.3542046E+04  0.7818609E-02  0.8103897E-01
        1   -1    0    0  501    0  0.00000000000E+00  0.00000000000E+00  0.20020131403E+04  0.20020131403E+04  0.50400001928E-02 0.  1.
       -1   -1    0    0    0  501  0.00000000000E+00  0.00000000000E+00 -0.15666841260E+04  0.15666841260E+04  0.50400001928E-02 0. -1.
    10030    2    1    2    0    0  0.00000000000E+00  0.00000000000E+00  0.43532901434E+03  0.35686972663E+04  0.35420458534E+04 0.  0.
        5    1    3    3  502    0  0.62391765885E+03 -0.16348187863E+04  0.49283931063E+03  0.18179159455E+04  0.46999998093E+01 0.  1.
       -5    1    3    3    0  502 -0.62391765885E+03  0.16348187863E+04 -0.57510296292E+02  0.17507813208E+04  0.46999998093E+01 0. -1.
</event>
<event>
 5   0  0.3026332E-07  0.3518985E+04  0.7818609E-02  0.8109305E-01
       -1   -1    0    0    0  501  0.00000000000E+00  0.00000000000E+00  0.19978522392E+04  0.19978522392E+04  0.50400001928E-02 0.  1.
        1   -1    0    0  501    0  0.00000000000E+00  0.00000000000E+00 -0.15495708561E+04  0.15495708561E+04  0.50400001928E-02 0. -1.
    10030    2    1    2    0    0  0.00000000000E+00  0.00000000000E+00  0.44828138304E+03  0.35474230953E+04  0.35189848563E+04 0.  0.
        1    1    3    3  502    0 -0.43360066066E+03  0.15230996039E+04 -0.54884915843E+03  0.16760302309E+04  0.50400001928E-02 0. -1.
       -1    1    3    3    0  502  0.43360066066E+03 -0.15230996039E+04  0.99713054147E+03  0.18713928644E+04  0.50400001928E-02 0.  1.
</event>
<event>
 5   0  0.3026332E-07  0.3473335E+04  0.7818609E-02  0.8120139E-01
        1   -1    0    0  501    0  0.00000000000E+00  0.00000000000E+00  0.21307454398E+04  0.21307454398E+04  0.50400001928E-02 0. -1.
       -1   -1    0    0    0  501  0.00000000000E+00  0.00000000000E+00 -0.14154733518E+04  0.14154733518E+04  0.50400001928E-02 0.  1.
    10030    2    1    2    0    0  0.00000000000E+00  0.00000000000E+00  0.71527208803E+03  0.35462187916E+04  0.34733346452E+04 0.  0.
        1    1    3    3  502    0  0.14398549426E+04 -0.68255675584E+03 -0.34746952580E+03  0.16308896505E+04  0.50400001928E-02 0.  1.
       -1    1    3    3    0  502 -0.14398549426E+04  0.68255675584E+03  0.10627416138E+04  0.19153291411E+04  0.50400001928E-02 0. -1.
</event>
<event>
 5   0  0.3061330E-07  0.3446731E+04  0.7818609E-02  0.8126531E-01
        1   -1    0    0  501    0  0.00000000000E+00  0.00000000000E+00  0.15811830298E+04  0.15811830299E+04  0.50400001928E-02 0. -1.
       -1   -1    0    0    0  501  0.00000000000E+00  0.00000000000E+00 -0.18783335104E+04  0.18783335104E+04  0.50400001928E-02 0.  1.
    10030    2    1    2    0    0  0.00000000000E+00  0.00000000000E+00 -0.29715048051E+03  0.34595165402E+04  0.34467312463E+04 0.  0.
        5    1    3    3  502    0  0.83949864975E+03 -0.12820337792E+03 -0.16537287262E+04  0.18590413871E+04  0.46999998093E+01 0.  1.
       -5    1    3    3    0  502 -0.83949864975E+03  0.12820337792E+03  0.13565782457E+04  0.16004751531E+04  0.46999998093E+01 0. -1.
</event>
<event>
 5   0  0.9311672E-07  0.3524819E+04  0.7818609E-02  0.8107933E-01
       -2   -1    0    0    0  501  0.00000000000E+00  0.00000000000E+00  0.12137351064E+04  0.12137351064E+04  0.25500000920E-02 0.  1.
        2   -1    0    0  501    0  0.00000000000E+00  0.00000000000E+00 -0.25591145800E+04  0.25591145800E+04  0.25500000920E-02 0. -1.
    10030    2    1    2    0    0  0.00000000000E+00  0.00000000000E+00 -0.13453794736E+04  0.37728496864E+04  0.35248189781E+04 0.  0.
        4    1    3    3  502    0  0.70582140540E+03  0.12307887126E+04 -0.17917535725E+04  0.22854774532E+04  0.12699999809E+01 0. -1.
       -4    1    3    3    0  502 -0.70582140540E+03 -0.12307887126E+04  0.44637409894E+03  0.14873722333E+04  0.12699999809E+01 0.  1.
</event>
<event>
 5   0  0.6188930E-07  0.3324251E+04  0.7818609E-02  0.8156752E-01
        2   -1    0    0  501    0  0.00000000000E+00  0.00000000000E+00  0.23233940458E+04  0.23233940458E+04  0.25500000920E-02 0.  1.
       -2   -1    0    0    0  501  0.00000000000E+00  0.00000000000E+00 -0.11890626286E+04  0.11890626286E+04  0.25500000920E-02 0. -1.
    10030    2    1    2    0    0  0.00000000000E+00  0.00000000000E+00  0.11343314172E+04  0.35124566744E+04  0.33242509119E+04 0.  0.
        3    1    3    3  502    0  0.17096586055E+03  0.81331084064E+03  0.20880898958E+04  0.22474036736E+04  0.10100000352E+00 0.  1.
       -3    1    3    3    0  502 -0.17096586055E+03 -0.81331084064E+03 -0.95375847864E+03  0.12650530008E+04  0.10100000352E+00 0. -1.
</event>
<event>
 5   0  0.8950809E-07  0.3493923E+04  0.7818609E-02  0.8115232E-01
       -2   -1    0    0    0  501  0.00000000000E+00  0.00000000000E+00  0.12912189803E+04  0.12912189803E+04  0.25500000920E-02 0.  1.
        2   -1    0    0  501    0  0.00000000000E+00  0.00000000000E+00 -0.23635608692E+04  0.23635608692E+04  0.25500000920E-02 0. -1.
    10030    2    1    2    0    0  0.00000000000E+00  0.00000000000E+00 -0.10723418889E+04  0.36547798495E+04  0.34939230990E+04 0.  0.
        2    1    3    3  502    0 -0.42332997383E+03 -0.11535554051E+04 -0.18351038877E+04  0.22085073280E+04  0.25500000920E-02 0. -1.
       -2    1    3    3    0  502  0.42332997383E+03  0.11535554051E+04  0.76276199887E+03  0.14462725214E+04  0.25500000920E-02 0.  1.
</event>
<event>
 5   0  0.9128871E-07  0.3399980E+04  0.7818609E-02  0.8137911E-01
       -2   -1    0    0    0  501  0.00000000000E+00  0.00000000000E+00  0.15063522283E+04  0.15063522283E+04  0.25500000920E-02 0. -1.
        2   -1    0    0  501    0  0.00000000000E+00  0.00000000000E+00 -0.19185191147E+04  0.19185191147E+04  0.25500000920E-02 0.  1.
    10030    2    1    2    0    0  0.00000000000E+00  0.00000000000E+00 -0.41216688634E+03  0.34248713430E+04  0.33999797314E+04 0.  0.
        1    1    3    3  502    0 -0.14147542564E+04 -0.55789647345E+03 -0.97137404139E+03  0.18045347349E+04  0.50400001928E-02 0.  1.
       -1    1    3    3    0  502  0.14147542564E+04  0.55789647345E+03  0.55920715505E+03  0.16203366081E+04  0.50400001928E-02 0. -1.
</event>
<event>
 5   0  0.6188930E-07  0.3503991E+04  0.7818609E-02  0.8112845E-01
        2   -1    0    0  501    0  0.00000000000E+00  0.00000000000E+00  0.21459961942E+04  0.21459961942E+04  0.25500000920E-02 0. -1.
       -2   -1    0    0    0  501  0.00000000000E+00  0.00000000000E+00 -0.14303326239E+04  0.14303326239E+04  0.25500000920E-02 0.  1.
    10030    2    1    2    0    0  0.00000000000E+00  0.00000000000E+00  0.71566357025E+03  0.35763288181E+04  0.35039910772E+04 0.  0.
        3    1    3    3  502    0  0.17382218581E+04 -0.19403558271E+03  0.46203413792E+03  0.18090164704E+04  0.10100000352E+00 0. -1.
       -3    1    3    3    0  502 -0.17382218581E+04  0.19403558271E+03  0.25362943233E+03  0.17673123477E+04  0.10100000352E+00 0.  1.
</event>
<event>
 5   0  0.6188930E-07  0.3517385E+04  0.7818609E-02  0.8109682E-01
        2   -1    0    0  501    0  0.00000000000E+00  0.00000000000E+00  0.17335848013E+04  0.17335848013E+04  0.25500000920E-02 0. -1.
       -2   -1    0    0    0  501  0.00000000000E+00  0.00000000000E+00 -0.17841634496E+04  0.17841634496E+04  0.25500000920E-02 0.  1.
    10030    2    1    2    0    0  0.00000000000E+00  0.00000000000E+00 -0.50578648256E+02  0.35177482509E+04  0.35173846189E+04 0.  0.
        3    1    3    3  502    0 -0.62179679520E+03 -0.15371387482E+04  0.56092129056E+03  0.17504455119E+04  0.10100000352E+00 0.  1.
       -3    1    3    3    0  502  0.62179679520E+03  0.15371387482E+04 -0.61149993881E+03  0.17673027390E+04  0.10100000352E+00 0. -1.
</event>
<event>
 5   0  0.3026332E-07  0.3476924E+04  0.7818609E-02  0.8119280E-01
       -1   -1    0    0    0  501  0.00000000000E+00  0.00000000000E+00  0.22660832060E+04  0.22660832060E+04  0.50400001928E-02 0. -1.
        1   -1    0    0  501    0  0.00000000000E+00  0.00000000000E+00 -0.13336890234E+04  0.13336890234E+04  0.50400001928E-02 0.  1.
    10030    2    1    2    0    0  0.00000000000E+00  0.00000000000E+00  0.93239418257E+03  0.35997722295E+04  0.34769240993E+04 0.  0.
        1    1    3    3  502    0 -0.13735448587E+04  0.40891930020E+03  0.14850451108E+04  0.20637828020E+04  0.50400001928E-02 0. -1.
       -1    1    3    3    0  502  0.13735448587E+04 -0.40891930020E+03 -0.55265092818E+03  0.15359894275E+04  0.50400001928E-02 0.  1.
</event>
<event>
 5   0  0.2972541E-07  0.3342726E+04  0.7818609E-02  0.8152108E-01
        1   -1    0    0  501    0  0.00000000000E+00  0.00000000000E+00  0.14293034387E+04  0.14293034387E+04  0.50400001928E-02 0. -1.
       -1   -1    0    0    0  501  0.00000000000E+00  0.00000000000E+00 -0.19544167286E+04  0.19544167286E+04  0.50400001928E-02 0.  1.
    10030    2    1    2    0    0  0.00000000000E+00  0.00000000000E+00 -0.52511328990E+03  0.33837201673E+04  0.33427261634E+04 0.  0.
        3    1    3    3  502    0 -0.23826020467E+03 -0.61446556119E+03 -0.18173351751E+04  0.19331432952E+04  0.10100000352E+00 0.  1.
       -3    1    3    3    0  502  0.23826020467E+03  0.61446556119E+03  0.12922218852E+04  0.14505768721E+04  0.10100000352E+00 0. -1.
</event>
<event>
 5   0  0.2972541E-07  0.3494922E+04  0.7818609E-02  0.8114994E-01
        1   -1    0    0  501    0  0.00000000000E+00  0.00000000000E+00  0.20403327301E+04  0.20403327301E+04  0.50400001928E-02 0. -1.
       -1   -1    0    0    0  501  0.00000000000E+00  0.00000000000E+00 -0.14966288241E+04  0.14966288241E+04  0.50400001928E-02 0.  1.
    10030    2    1    2    0    0  0.00000000000E+00  0.00000000000E+00  0.54370390599E+03  0.35369615543E+04  0.34949224740E+04 0.  0.
        3    1    3    3  502    0 -0.11698556053E+04 -0.14953050081E+03  0.15768192976E+04  0.19690811601E+04  0.10100000352E+00 0. -1.
       -3    1    3    3    0  502  0.11698556053E+04  0.14953050081E+03 -0.10331153916E+04  0.15678803941E+04  0.10100000352E+00 0.  1.
</event>
<event>
 5   0  0.2972541E-07  0.3502172E+04  0.7818609E-02  0.8113275E-01
       -1   -1    0    0    0  501  0.00000000000E+00  0.00000000000E+00  0.15417217521E+04  0.15417217521E+04  0.50400001928E-02 0.  1.
        1   -1    0    0  501    0  0.00000000000E+00  0.00000000000E+00 -0.19888817013E+04  0.19888817013E+04  0.50400001928E-02 0. -1.
    10030    2    1    2    0    0  0.00000000000E+00  0.00000000000E+00 -0.44715994925E+03  0.35306034534E+04  0.35021720011E+04 0.  0.
        3    1    3    3  502    0 -0.81800785837E+03 -0.79300287940E+03 -0.15641542648E+04  0.19350888862E+04  0.10100000352E+00 0. -1.
       -3    1    3    3    0  502  0.81800785837E+03  0.79300287940E+03  0.11169943156E+04  0.15955145672E+04  0.10100000352E+00 0.  1.
</event>
<event>
 5   0  0.8950809E-07  0.3455322E+04  0.7818609E-02  0.8124461E-01
       -2   -1    0    0    0  501  0.00000000000E+00  0.00000000000E+00  0.14343643916E+04  0.14343643916E+04  0.25500000920E-02 0.  1.
        2   -1    0    0  501    0  0.00000000000E+00  0.00000000000E+00 -0.20809299810E+04  0.20809299810E+04  0.25500000920E-02 0. -1.
    10030    2    1    2    0    0  0.00000000000E+00  0.00000000000E+00 -0.64656558941E+03  0.35152943726E+04  0.34553216152E+04 0.  0.
        2    1    3    3  502    0 -0.12772547133E+04  0.95152247031E+03  0.35769081931E+03  0.16323961947E+04  0.25500000920E-02 0.  1.
       -2    1    3    3    0  502  0.12772547133E+04 -0.95152247031E+03 -0.10042564087E+04  0.18828981780E+04  0.25500000920E-02 0. -1.
</event>
<event>
 5   0  0.6188930E-07  0.3504871E+04  0.7818609E-02  0.8112637E-01
        2   -1    0    0  501    0  0.00000000000E+00  0.00000000000E+00  0.24737955331E+04  0.24737955331E+04  0.25500000920E-02 0. -1.
       -2   -1    0    0    0  501  0.00000000000E+00  0.00000000000E+00 -0.12414241603E+04  0.12414241603E+04  0.25500000920E-02 0.  1.
    10030    2    1    2    0    0  0.00000000000E+00  0.00000000000E+00  0.12323713728E+04  0.37152196934E+04  0.35048706352E+04 0.  0.
        3    1    3    3  502    0  0.11187417106E+03 -0.16330098795E+04 -0.47313707727E+02  0.16375212041E+04  0.10100000352E+00 0. -1.
       -3    1    3    3    0  502 -0.11187417106E+03  0.16330098795E+04  0.12796850806E+04  0.20776984893E+04  0.10100000352E+00 0.  1.
</event>
<event>
 5   0  0.2972541E-07  0.3491310E+04  0.7818609E-02  0.8115852E-01
       -1   -1    0    0    0  501  0.00000000000E+00  0.00000000000E+00  0.21431359406E+04  0.21431359406E+04  0.50400001928E-02 0. -1.
        1   -1    0    0  501    0  0.00000000000E+00  0.00000000000E+00 -0.14218940538E+04  0.14218940538E+04  0.50400001928E-02 0.  1.
    10030    2    1    2    0    0  0.00000000000E+00  0.00000000000E+00  0.72124188684E+03  0.35650299944E+04  0.34913104992E+04 0.  0.
        3    1    3    3  502    0  0.72411657927E+01 -0.52809115700E+03 -0.13383561707E+04  0.14387946186E+04  0.10100000352E+00 0.  1.
       -3    1    3    3    0  502 -0.72411657927E+01  0.52809115700E+03  0.20595980575E+04  0.21262353758E+04  0.10100000352E+00 0. -1.
</event>
<event>
 5   0  0.2936607E-07  0.3515788E+04  0.7818609E-02  0.8110059E-01
        1   -1    0    0  501    0  0.00000000000E+00  0.00000000000E+00  0.13678508692E+04  0.13678508692E+04  0.50400001928E-02 0. -1.
       -1   -1    0    0    0  501  0.00000000000E+00  0.00000000000E+00 -0.22591578359E+04  0.22591578359E+04  0.50400001928E-02 0.  1.
    10030    2    1    2    0    0  0.00000000000E+00  0.00000000000E+00 -0.89130696661E+03  0.36270087051E+04  0.35157878261E+04 0.  0.
        2    1    3    3  502    0 -0.63931797373E+03 -0.16036904658E+04 -0.10405864401E+03  0.17295602860E+04  0.25500000920E-02 0.  1.
       -2    1    3    3    0  502  0.63931797373E+03  0.16036904658E+04 -0.78724832261E+03  0.18974484191E+04  0.25500000920E-02 0. -1.
</event>
<event>
 5   0  0.8950809E-07  0.3502905E+04  0.7818609E-02  0.8113102E-01
        2   -1    0    0  501    0  0.00000000000E+00  0.00000000000E+00  0.23279360276E+04  0.23279360276E+04  0.25500000920E-02 0.  1.
       -2   -1    0    0    0  501  0.00000000000E+00  0.00000000000E+00 -0.13177275233E+04  0.13177275233E+04  0.25500000920E-02 0. -1.
    10030    2    1    2    0    0  0.00000000000E+00  0.00000000000E+00  0.10102085043E+04  0.36456635509E+04  0.35029047238E+04 0.  0.
        2    1    3    3  502    0 -0.14595704597E+04  0.57738890273E+03  0.13138591680E+04  0.20469366832E+04  0.25500000920E-02 0.  1.
       -2    1    3    3    0  502  0.14595704597E+04 -0.57738890273E+03 -0.30365066375E+03  0.15987268677E+04  0.25500000920E-02 0. -1.
</event>
<event>
 5   0  0.2936607E-07  0.3482799E+04  0.7818609E-02  0.8117879E-01
        1   -1    0    0  501    0  0.00000000000E+00  0.00000000000E+00  0.14607367545E+04  0.14607367545E+04  0.50400001928E-02 0.  1.
       -1   -1    0    0    0  501  0.00000000000E+00  0.00000000000E+00 -0.20759877381E+04  0.20759877381E+04  0.50400001928E-02 0. -1.
    10030    2    1    2    0    0  0.00000000000E+00  0.00000000000E+00 -0.61525098355E+03  0.35367244926E+04  0.34827986396E+04 0.  0.
        2    1    3    3  502    0 -0.14439518872E+04 -0.50638544161E+03 -0.11517899682E+04  0.19152136693E+04  0.25500000920E-02 0. -1.
       -2    1    3    3    0  502  0.14439518872E+04  0.50638544161E+03  0.53653898468E+03  0.16215108233E+04  0.25500000920E-02 0.  1.
</event>
<event>
 5   0  0.3061330E-07  0.3379425E+04  0.7818609E-02  0.8142975E-01
       -1   -1    0    0    0  501  0.00000000000E+00  0.00000000000E+00  0.23307800462E+04  0.23307800462E+04  0.50400001928E-02 0.  1.
        1   -1    0    0  501    0  0.00000000000E+00  0.00000000000E+00 -0.12249671386E+04  0.12249671386E+04  0.50400001928E-02 0. -1.
    10030    2    1    2    0    0  0.00000000000E+00  0.00000000000E+00  0.11058129076E+04  0.35557471848E+04  0.33794253736E+04 0.  0.
        5    1    3    3  502    0  0.96328110813E+02 -0.15617969268E+04 -0.11802999053E+03  0.15692169749E+04  0.46999998093E+01 0. -1.
       -5    1    3    3    0  502 -0.96328110813E+02  0.15617969268E+04  0.12238428982E+04  0.19865302099E+04  0.46999998093E+01 0.  1.
</event>
<event>
 5   0  0.9128871E-07  0.3410619E+04  0.7818609E-02  0.8135305E-01
       -2   -1    0    0    0  501  0.00000000000E+00  0.00000000000E+00  0.14074149243E+04  0.14074149243E+04  0.25500000920E-02 0.  1.
        2   -1    0    0  501    0  0.00000000000E+00  0.00000000000E+00 -0.20662562701E+04  0.20662562701E+04  0.25500000920E-02 0. -1.
    10030    2    1    2    0    0  0.00000000000E+00  0.00000000000E+00 -0.65884134583E+03  0.34736711944E+04  0.34106186606E+04 0.  0.
        1    1    3    3  502    0 -0.10608550630E+04 -0.76175997034E+02  0.10282129860E+04  0.14793370785E+04  0.50400001928E-02 0.  1.
       -1    1    3    3    0  502  0.10608550630E+04  0.76175997034E+02 -0.16870543318E+04  0.19943341159E+04  0.50400001928E-02 0. -1.
</event>
<event>
 5   0  0.2936607E-07  0.2850961E+04  0.7818609E-02  0.8287619E-01
       -1   -1    0    0    0  501  0.00000000000E+00  0.00000000000E+00  0.11311425007E+04  0.11311425007E+04  0.50400001928E-02 0. -1.
        1   -1    0    0  501    0  0.00000000000E+00  0.00000000000E+00 -0.17964096746E+04  0.17964096746E+04  0.50400001928E-02 0.  1.
    10030    2    1    2    0    0  0.00000000000E+00  0.00000000000E+00 -0.66526717386E+03  0.29275521754E+04  0.28509614741E+04 0.  0.
        2    1    3    3  502    0 -0.78428437282E+03  0.11632401944E+04 -0.59193598653E+03  0.15227008700E+04  0.25500000920E-02 0.  1.
       -2    1    3    3    0  502  0.78428437282E+03 -0.11632401944E+04 -0.73331187328E+02  0.14048513054E+04  0.25500000920E-02 0. -1.
</event>
<event>
 5   0  0.3026332E-07  0.3500850E+04  0.7818609E-02  0.8113589E-01
       -1   -1    0    0    0  501  0.00000000000E+00  0.00000000000E+00  0.10936461202E+04  0.10936461202E+04  0.50400001928E-02 0. -1.
        1   -1    0    0  501    0  0.00000000000E+00  0.00000000000E+00 -0.28016254569E+04  0.28016254569E+04  0.50400001928E-02 0.  1.
    10030    2    1    2    0    0  0.00000000000E+00  0.00000000000E+00 -0.17079793367E+04  0.38952715771E+04  0.35008495033E+04 0.  0.
        1    1    3    3  502    0  0.19391972741E+02 -0.87084867891E+03  0.83536854112E+03  0.12068943904E+04  0.50400001928E-02 0. -1.
       -1    1    3    3    0  502 -0.19391972741E+02  0.87084867891E+03 -0.25433478778E+04  0.26883771867E+04  0.50400001928E-02 0.  1.
</event>
<event>
 5   0  0.2936607E-07  0.3501493E+04  0.7818609E-02  0.8113436E-01
        1   -1    0    0  501    0  0.00000000000E+00  0.00000000000E+00  0.19084434620E+04  0.19084434620E+04  0.50400001928E-02 0.  1.
       -1   -1    0    0    0  501  0.00000000000E+00  0.00000000000E+00 -0.16060798636E+04  0.16060798636E+04  0.50400001928E-02 0. -1.
    10030    2    1    2    0    0  0.00000000000E+00  0.00000000000E+00  0.30236359839E+03  0.35145233257E+04  0.35014926047E+04 0.  0.
        2    1    3    3  502    0  0.72662966477E+03 -0.15782971831E+04 -0.64326218222E+02  0.17387209466E+04  0.25500000920E-02 0. -1.
       -2    1    3    3    0  502 -0.72662966477E+03  0.15782971831E+04  0.36668981661E+03  0.17758023791E+04  0.25500000920E-02 0.  1.
</event>
<event>
 5   0  0.9128871E-07  0.3508593E+04  0.7818609E-02  0.8111757E-01
        2   -1    0    0  501    0  0.00000000000E+00  0.00000000000E+00  0.98823715421E+03  0.98823715421E+03  0.25500000920E-02 0. -1.
       -2   -1    0    0    0  501  0.00000000000E+00  0.00000000000E+00 -0.31141876328E+04  0.31141876328E+04  0.25500000920E-02 0.  1.
    10030    2    1    2    0    0  0.00000000000E+00  0.00000000000E+00 -0.21259504786E+04  0.41024247871E+04  0.35085928370E+04 0.  0.
        1    1    3    3  502    0  0.75378549201E+02  0.18297189074E+03  0.97514495391E+03  0.99502176842E+03  0.50400001928E-02 0. -1.
       -1    1    3    3    0  502 -0.75378549201E+02 -0.18297189074E+03 -0.31010954325E+04  0.31074030186E+04  0.50400001928E-02 0.  1.
</event>
<event>
 5   0  0.6188930E-07  0.3501614E+04  0.7818609E-02  0.8113408E-01
       -2   -1    0    0    0  501  0.00000000000E+00  0.00000000000E+00  0.13134147191E+04  0.13134147191E+04  0.25500000920E-02 0.  1.
        2   -1    0    0  501    0  0.00000000000E+00  0.00000000000E+00 -0.23338595727E+04  0.23338595727E+04  0.25500000920E-02 0. -1.
    10030    2    1    2    0    0  0.00000000000E+00  0.00000000000E+00 -0.10204448537E+04  0.36472742918E+04  0.35016142078E+04 0.  0.
        3    1    3    3  502    0 -0.60084012555E+03 -0.37053351280E+01 -0.22231058176E+04  0.23028725697E+04  0.10100000352E+00 0. -1.
       -3    1    3    3    0  502  0.60084012555E+03  0.37053351280E+01  0.12026609639E+04  0.13444017221E+04  0.10100000352E+00 0.  1.
</event>
<event>
 5   0  0.2972541E-07  0.2831038E+04  0.7818609E-02  0.8293697E-01
       -1   -1    0    0    0  501  0.00000000000E+00  0.00000000000E+00  0.14703195419E+04  0.14703195419E+04  0.50400001928E-02 0.  1.
        1   -1    0    0  501    0  0.00000000000E+00  0.00000000000E+00 -0.13627609485E+04  0.13627609485E+04  0.50400001928E-02 0. -1.
    10030    2    1    2    0    0  0.00000000000E+00  0.00000000000E+00  0.10755859340E+03  0.28330804904E+04  0.28310380100E+04 0.  0.
        3    1    3    3  502    0  0.44271101073E+03  0.13442221324E+04  0.26048963370E+02  0.14154874563E+04  0.10100000352E+00 0. -1.
       -3    1    3    3    0  502 -0.44271101073E+03 -0.13442221324E+04  0.81509630031E+02  0.14175930341E+04  0.10100000352E+00 0.  1.
</event>
<event>
 5   0  0.9311672E-07  0.3749545E+04  0.7818609E-02  0.8057070E-01
        2   -1    0    0  501    0  0.00000000000E+00  0.00000000000E+00  0.24763661052E+04  0.24763661052E+04  0.25500000920E-02 0.  1.
       -2   -1    0    0    0  501  0.00000000000E+00  0.00000000000E+00 -0.14193263503E+04  0.14193263503E+04  0.25500000920E-02 0. -1.
    10030    2    1    2    0    0  0.00000000000E+00  0.00000000000E+00  0.10570397548E+04  0.38956924555E+04  0.37495448610E+04 0.  0.
        4    1    3    3  502    0  0.92793185379E+03 -0.45608989909E+03 -0.10963074568E+04  0.15069728512E+04  0.12699999809E+01 0. -1.
       -4    1    3    3    0  502 -0.92793185379E+03  0.45608989909E+03  0.21533472117E+04  0.23887196044E+04  0.12699999809E+01 0.  1.
</event>
<event>
 5   0  0.2933506E-07  0.3499467E+04  0.7818609E-02  0.8113916E-01
       -1   -1    0    0    0  501  0.00000000000E+00  0.00000000000E+00  0.17500982234E+04  0.17500982234E+04  0.50400001928E-02 0. -1.
        1   -1    0    0  501    0  0.00000000000E+00  0.00000000000E+00 -0.17493687372E+04  0.17493687372E+04  0.50400001928E-02 0.  1.
    10030    2    1    2    0    0  0.00000000000E+00  0.00000000000E+00  0.72948618305E+00  0.34994669606E+04  0.34994668845E+04 0.  0.
        4    1    3    3  502    0 -0.86184999005E+03 -0.14789843310E+04 -0.36210657316E+03  0.17496579208E+04  0.12699999809E+01 0.  1.
       -4    1    3    3    0  502  0.86184999005E+03  0.14789843310E+04  0.36283605934E+03  0.17498090397E+04  0.12699999809E+01 0. -1.
</event>
<event>
 5   0  0.3061330E-07  0.3492941E+04  0.7818609E-02  0.8115465E-01
       -1   -1    0    0    0  501  0.00000000000E+00  0.00000000000E+00  0.17464144168E+04  0.17464144168E+04  0.50400001928E-02 0. -1.
        1   -1    0    0  501    0  0.00000000000E+00  0.00000000000E+00 -0.17465265569E+04  0.17465265569E+04  0.50400001928E-02 0.  1.
    10030    2    1    2    0    0  0.00000000000E+00  0.00000000000E+00 -0.11214012307E+00  0.34929409736E+04  0.34929409718E+04 0.  0.
        5    1    3    3  502    0  0.48201997901E+03  0.26922087631E+03 -0.16569549597E+04  0.17465236812E+04  0.46999998093E+01 0.  1.
       -5    1    3    3    0  502 -0.48201997901E+03 -0.26922087631E+03  0.16568428196E+04  0.17464172924E+04  0.46999998093E+01 0. -1.
</event>
<event>
 5   0  0.2936607E-07  0.3520604E+04  0.7818609E-02  0.8108924E-01
       -1   -1    0    0    0  501  0.00000000000E+00  0.00000000000E+00  0.16398862879E+04  0.16398862879E+04  0.50400001928E-02 0.  1.
        1   -1    0    0  501    0  0.00000000000E+00  0.00000000000E+00 -0.18895593536E+04  0.18895593536E+04  0.50400001928E-02 0. -1.
    10030    2    1    2    0    0  0.00000000000E+00  0.00000000000E+00 -0.24967306567E+03  0.35294456414E+04  0.35206036267E+04 0.  0.
        2    1    3    3  502    0  0.17243344317E+04 -0.34279659880E+03 -0.36162513192E+02  0.17584500185E+04  0.25500000920E-02 0. -1.
       -2    1    3    3    0  502 -0.17243344317E+04  0.34279659880E+03 -0.21351055248E+03  0.17709956229E+04  0.25500000920E-02 0.  1.
</event>
<event>
 5   0  0.8845195E-07  0.3503758E+04  0.7818609E-02  0.8112900E-01
        2   -1    0    0  501    0  0.00000000000E+00  0.00000000000E+00  0.16646709510E+04  0.16646709510E+04  0.25500000920E-02 0.  1.
       -2   -1    0    0    0  501  0.00000000000E+00  0.00000000000E+00 -0.18436554051E+04  0.18436554051E+04  0.25500000920E-02 0. -1.
    10030    2    1    2    0    0  0.00000000000E+00  0.00000000000E+00 -0.17898445404E+03  0.35083263561E+04  0.35037577522E+04 0.  0.
        5    1    3    3  502    0 -0.36791741512E+03  0.54859211655E+03  0.15351958019E+04  0.16712763909E+04  0.46999998093E+01 0.  1.
       -5    1    3    3    0  502  0.36791741512E+03 -0.54859211655E+03 -0.17141802559E+04  0.18370499652E+04  0.46999998093E+01 0. -1.
</event>
<event>
 5   0  0.3061330E-07  0.2866082E+04  0.7818609E-02  0.8283041E-01
        1   -1    0    0  501    0  0.00000000000E+00  0.00000000000E+00  0.17401876297E+04  0.17401876297E+04  0.50400001928E-02 0. -1.
       -1   -1    0    0    0  501  0.00000000000E+00  0.00000000000E+00 -0.11801063857E+04  0.11801063857E+04  0.50400001928E-02 0.  1.
    10030    2    1    2    0    0  0.00000000000E+00  0.00000000000E+00  0.56008124406E+03  0.29202940154E+04  0.28660820184E+04 0.  0.
        5    1    3    3  502    0 -0.13741380428E+04 -0.23104903415E+03 -0.60870478768E+02  0.13947638948E+04  0.46999998093E+01 0.  1.
       -5    1    3    3    0  502  0.13741380428E+04  0.23104903415E+03  0.62095172282E+03  0.15255301206E+04  0.46999998093E+01 0. -1.
</event>
<event>
 5   0  0.3061330E-07  0.3502135E+04  0.7818609E-02  0.8113284E-01
        1   -1    0    0  501    0  0.00000000000E+00  0.00000000000E+00  0.19530552064E+04  0.19530552064E+04  0.50400001928E-02 0. -1.
       -1   -1    0    0    0  501  0.00000000000E+00  0.00000000000E+00 -0.15699696248E+04  0.15699696249E+04  0.50400001928E-02 0.  1.
    10030    2    1    2    0    0  0.00000000000E+00  0.00000000000E+00  0.38308558157E+03  0.35230248313E+04  0.35021349773E+04 0.  0.
        5    1    3    3  502    0 -0.12428084854E+04 -0.23216322007E+03 -0.10271879585E+04  0.16289904494E+04  0.46999998093E+01 0.  1.
       -5    1    3    3    0  502  0.12428084854E+04  0.23216322007E+03  0.14102735400E+04  0.18940343819E+04  0.46999998093E+01 0. -1.
</event>
<event>
 5   0  0.2936607E-07  0.3498454E+04  0.7818609E-02  0.8114156E-01
        1   -1    0    0  501    0  0.00000000000E+00  0.00000000000E+00  0.13530832230E+04  0.13530832230E+04  0.50400001928E-02 0. -1.
       -1   -1    0    0    0  501  0.00000000000E+00  0.00000000000E+00 -0.22613508615E+04  0.22613508615E+04  0.50400001928E-02 0.  1.
    10030    2    1    2    0    0  0.00000000000E+00  0.00000000000E+00 -0.90826763850E+03  0.36144340845E+04  0.34984544657E+04 0.  0.
        2    1    3    3  502    0  0.12213026559E+03 -0.15741414781E+04 -0.12320625332E+04  0.20027019949E+04  0.25500000920E-02 0.  1.
       -2    1    3    3    0  502 -0.12213026559E+03  0.15741414781E+04  0.32379489472E+03  0.16117320896E+04  0.25500000920E-02 0. -1.
</event>
<event>
 5   0  0.8845195E-07  0.3431988E+04  0.7818609E-02  0.8130100E-01
        2   -1    0    0  501    0  0.00000000000E+00  0.00000000000E+00  0.11463239680E+04  0.11463239680E+04  0.25500000920E-02 0. -1.
       -2   -1    0    0    0  501  0.00000000000E+00  0.00000000000E+00 -0.25687634296E+04  0.25687634296E+04  0.25500000920E-02 0.  1.
    10030    2    1    2    0    0  0.00000000000E+00  0.00000000000E+00 -0.14224394616E+04  0.37150873976E+04  0.34319878132E+04 0.  0.
        5    1    3    3  502    0  0.22898935199E+03  0.86965946513E+03  0.87079540251E+03  0.12518188494E+04  0.46999998093E+01 0. -1.
       -5    1    3    3    0  502 -0.22898935199E+03 -0.86965946513E+03 -0.22932348641E+04  0.24632685482E+04  0.46999998093E+01 0.  1.
</event>
<event>
 5   0  0.8845195E-07  0.3504395E+04  0.7818609E-02  0.8112749E-01
       -2   -1    0    0    0  501  0.00000000000E+00  0.00000000000E+00  0.27049836087E+04  0.27049836087E+04  0.25500000920E-02 0.  1.
        2   -1    0    0  501    0  0.00000000000E+00  0.00000000000E+00 -0.11350146369E+04  0.11350146369E+04  0.25500000920E-02 0. -1.
    10030    2    1    2    0    0  0.00000000000E+00  0.00000000000E+00  0.15699689718E+04  0.38399982456E+04  0.35043949483E+04 0.  0.
        5    1    3    3  502    0  0.88061217841E+03  0.30584325673E+03 -0.84072668893E+03  0.12553331677E+04  0.46999998093E+01 0. -1.
       -5    1    3    3    0  502 -0.88061217841E+03 -0.30584325673E+03  0.24106956607E+04  0.25846650779E+04  0.46999998093E+01 0.  1.
</event>
<event>
 5   0  0.9128871E-07  0.3496297E+04  0.7818609E-02  0.8114668E-01
       -2   -1    0    0    0  501  0.00000000000E+00  0.00000000000E+00  0.98238372851E+03  0.98238372851E+03  0.25500000920E-02 0.  1.
        2   -1    0    0  501    0  0.00000000000E+00  0.00000000000E+00 -0.31108243523E+04  0.31108243523E+04  0.25500000920E-02 0. -1.
    10030    2    1    2    0    0  0.00000000000E+00  0.00000000000E+00 -0.21284406238E+04  0.40932080808E+04  0.34962970274E+04 0.  0.
        1    1    3    3  502    0 -0.18015205626E+03  0.14950285520E+04 -0.21037689386E+04  0.25871623223E+04  0.50400001928E-02 0. -1.
       -1    1    3    3    0  502  0.18015205626E+03 -0.14950285520E+04 -0.24671685207E+02  0.15060457586E+04  0.50400001928E-02 0.  1.
</event>
<event>
 5   0  0.3061330E-07  0.3523949E+04  0.7818609E-02  0.8108138E-01
       -1   -1    0    0    0  501  0.00000000000E+00  0.00000000000E+00  0.16135220107E+04  0.16135220107E+04  0.50400001928E-02 0.  1.
        1   -1    0    0  501    0  0.00000000000E+00  0.00000000000E+00 -0.19240856749E+04  0.19240856749E+04  0.50400001928E-02 0. -1.
    10030    2    1    2    0    0  0.00000000000E+00  0.00000000000E+00 -0.31056366417E+03  0.35376076856E+04  0.35239492544E+04 0.  0.
        5    1    3    3  502    0 -0.15014560229E+04  0.65089638195E+03  0.50031615295E+03  0.17112494358E+04  0.46999998093E+01 0.  1.
       -5    1    3    3    0  502  0.15014560229E+04 -0.65089638195E+03 -0.81087981712E+03  0.18263582498E+04  0.46999998093E+01 0. -1.
</event>
<event>
 5   0  0.2936607E-07  0.3446167E+04  0.7818609E-02  0.8126667E-01
        1   -1    0    0  501    0  0.00000000000E+00  0.00000000000E+00  0.14495461432E+04  0.14495461432E+04  0.50400001928E-02 0.  1.
       -1   -1    0    0    0  501  0.00000000000E+00  0.00000000000E+00 -0.20482388529E+04  0.20482388529E+04  0.50400001928E-02 0. -1.
    10030    2    1    2    0    0  0.00000000000E+00  0.00000000000E+00 -0.59869270973E+03  0.34977849961E+04  0.34461669894E+04 0.  0.
        2    1    3    3  502    0  0.14471158240E+04  0.90609862960E+03 -0.63797456970E+02  0.17085751521E+04  0.25500000920E-02 0. -1.
       -2    1    3    3    0  502 -0.14471158240E+04 -0.90609862960E+03 -0.53489525276E+03  0.17892098441E+04  0.25500000920E-02 0.  1.
</event>
<event>
 5   0  0.2933506E-07  0.3482665E+04  0.7818609E-02  0.8117910E-01
        1   -1    0    0  501    0  0.00000000000E+00  0.00000000000E+00  0.21601430734E+04  0.21601430734E+04  0.50400001928E-02 0.  1.
       -1   -1    0    0    0  501  0.00000000000E+00  0.00000000000E+00 -0.14037211628E+04  0.14037211628E+04  0.50400001928E-02 0. -1.
    10030    2    1    2    0    0  0.00000000000E+00  0.00000000000E+00  0.75642191065E+03  0.35638642362E+04  0.34826648112E+04 0.  0.
        4    1    3    3  502    0 -0.15304304740E+04 -0.71063957677E+03 -0.61946558323E+02  0.16885097077E+04  0.12699999809E+01 0. -1.
       -4    1    3    3    0  502  0.15304304740E+04  0.71063957677E+03  0.81836846897E+03  0.18753545286E+04  0.12699999809E+01 0.  1.
</event>
<event>
 5   0  0.8845195E-07  0.2937592E+04  0.7818609E-02  0.8261780E-01
        2   -1    0    0  501    0  0.00000000000E+00  0.00000000000E+00  0.13020818337E+04  0.13020818337E+04  0.25500000920E-02 0.  1.
       -2   -1    0    0    0  501  0.00000000000E+00  0.00000000000E+00 -0.16568557977E+04  0.16568557977E+04  0.25500000920E-02 0. -1.
    10030    2    1    2    0    0  0.00000000000E+00  0.00000000000E+00 -0.35477396406E+03  0.29589376314E+04  0.29375920992E+04 0.  0.
        5    1    3    3  502    0  0.73915704933E+03  0.58765243910E+03 -0.13105733450E+04  0.16153368427E+04  0.46999998093E+01 0. -1.
       -5    1    3    3    0  502 -0.73915704933E+03 -0.58765243910E+03  0.95579938096E+03  0.13436007887E+04  0.46999998093E+01 0.  1.
</event>
<event>
 5   0  0.6188930E-07  0.3535610E+04  0.7818609E-02  0.8105402E-01
       -2   -1    0    0    0  501  0.00000000000E+00  0.00000000000E+00  0.13909007518E+04  0.13909007518E+04  0.25500000920E-02 0. -1.
        2   -1    0    0  501    0  0.00000000000E+00  0.00000000000E+00 -0.22468423157E+04  0.22468423157E+04  0.25500000920E-02 0.  1.
    10030    2    1    2    0    0  0.00000000000E+00  0.00000000000E+00 -0.85594156390E+03  0.36377430675E+04  0.35356100838E+04 0.  0.
        3    1    3    3  502    0 -0.10068168164E+04  0.65431962154E+03  0.90693633822E+03  0.15047750000E+04  0.10100000352E+00 0. -1.
       -3    1    3    3    0  502  0.10068168164E+04 -0.65431962154E+03 -0.17628779021E+04  0.21329680675E+04  0.10100000352E+00 0.  1.
</event>
<event>
 5   0  0.9311672E-07  0.3511156E+04  0.7818609E-02  0.8111151E-01
       -2   -1    0    0    0  501  0.00000000000E+00  0.00000000000E+00  0.14418679171E+04  0.14418679171E+04  0.25500000920E-02 0. -1.
        2   -1    0    0  501    0  0.00000000000E+00  0.00000000000E+00 -0.21375427923E+04  0.21375427923E+04  0.25500000920E-02 0.  1.
    10030    2    1    2    0    0  0.00000000000E+00  0.00000000000E+00 -0.69567487524E+03  0.35794107094E+04  0.35111561478E+04 0.  0.
        4    1    3    3  502    0 -0.50964301466E+03  0.94218797698E+03 -0.17657740648E+04  0.20652878364E+04  0.12699999809E+01 0.  1.
       -4    1    3    3    0  502  0.50964301466E+03 -0.94218797698E+03  0.10700991895E+04  0.15141228730E+04  0.12699999809E+01 0. -1.
</event>
<event>
 5   0  0.3061330E-07  0.3485222E+04  0.7818609E-02  0.8117301E-01
        1   -1    0    0  501    0  0.00000000000E+00  0.00000000000E+00  0.22982456254E+04  0.22982456254E+04  0.50400001928E-02 0.  1.
       -1   -1    0    0    0  501  0.00000000000E+00  0.00000000000E+00 -0.13213092528E+04  0.13213092528E+04  0.50400001928E-02 0. -1.
    10030    2    1    2    0    0  0.00000000000E+00  0.00000000000E+00  0.97693637256E+03  0.36195548783E+04  0.34852220648E+04 0.  0.
        5    1    3    3  502    0 -0.55865486899E+03 -0.15963976018E+04  0.52662651643E+02  0.16921512966E+04  0.46999998093E+01 0. -1.
       -5    1    3    3    0  502  0.55865486899E+03  0.15963976018E+04  0.92427372092E+03  0.19274035817E+04  0.46999998093E+01 0.  1.
</event>
<event>
 5   0  0.8950809E-07  0.3521979E+04  0.7818609E-02  0.8108601E-01
        2   -1    0    0  501    0  0.00000000000E+00  0.00000000000E+00  0.23870883974E+04  0.23870883974E+04  0.25500000920E-02 0. -1.
       -2   -1    0    0    0  501  0.00000000000E+00  0.00000000000E+00 -0.12991072548E+04  0.12991072548E+04  0.25500000920E-02 0.  1.
    10030    2    1    2    0    0  0.00000000000E+00  0.00000000000E+00  0.10879811425E+04  0.36861956522E+04  0.35219789068E+04 0.  0.
        2    1    3    3  502    0 -0.35386458974E+03 -0.58794038216E+03  0.22413944009E+04  0.23440867947E+04  0.25500000920E-02 0. -1.
       -2    1    3    3    0  502  0.35386458974E+03  0.58794038216E+03 -0.11534132584E+04  0.13421088575E+04  0.25500000920E-02 0.  1.
</event>
<event>
 5   0  0.2936607E-07  0.3516887E+04  0.7818609E-02  0.8109800E-01
        1   -1    0    0  501    0  0.00000000000E+00  0.00000000000E+00  0.19951298944E+04  0.19951298944E+04  0.50400001928E-02 0.  1.
       -1   -1    0    0    0  501  0.00000000000E+00  0.00000000000E+00 -0.15498355137E+04  0.15498355137E+04  0.50400001928E-02 0. -1.
    10030    2    1    2    0    0  0.00000000000E+00  0.00000000000E+00  0.44529438070E+03  0.35449654081E+04  0.35168867851E+04 0.  0.
        2    1    3    3  502    0 -0.47856659594E+03 -0.61835016468E+03 -0.13649643992E+04  0.15730577625E+04  0.25500000920E-02 0. -1.
       -2    1    3    3    0  502  0.47856659594E+03  0.61835016468E+03  0.18102587799E+04  0.19719076457E+04  0.25500000920E-02 0.  1.
</event>
<event>
 5   0  0.8950809E-07  0.3176782E+04  0.7818609E-02  0.8194976E-01
        2   -1    0    0  501    0  0.00000000000E+00  0.00000000000E+00  0.23439813989E+04  0.23439813989E+04  0.25500000920E-02 0. -1.
       -2   -1    0    0    0  501  0.00000000000E+00  0.00000000000E+00 -0.10763679738E+04  0.10763679738E+04  0.25500000920E-02 0.  1.
    10030    2    1    2    0    0  0.00000000000E+00  0.00000000000E+00  0.12676134251E+04  0.34203493727E+04  0.31767823400E+04 0.  0.
        2    1    3    3  502    0 -0.10728127535E+04 -0.66925609855E+03  0.16688429489E+04  0.20937687832E+04  0.25500000920E-02 0. -1.
       -2    1    3    3    0  502  0.10728127535E+04  0.66925609855E+03 -0.40122952388E+03  0.13265805894E+04  0.25500000920E-02 0.  1.
</event>
<event>
 5   0  0.2972541E-07  0.3488965E+04  0.7818609E-02  0.8116410E-01
        1   -1    0    0  501    0  0.00000000000E+00  0.00000000000E+00  0.14518467654E+04  0.14518467654E+04  0.50400001928E-02 0.  1.
       -1   -1    0    0    0  501  0.00000000000E+00  0.00000000000E+00 -0.20961017095E+04  0.20961017095E+04  0.50400001928E-02 0. -1.
    10030    2    1    2    0    0  0.00000000000E+00  0.00000000000E+00 -0.64425494412E+03  0.35479484749E+04  0.34889645954E+04 0.  0.
        3    1    3    3  502    0 -0.43068788238E+03  0.10063840730E+04  0.10591127593E+04  0.15231614496E+04  0.10100000352E+00 0.  1.
       -3    1    3    3    0  502  0.43068788238E+03 -0.10063840730E+04 -0.17033677035E+04  0.20247870253E+04  0.10100000352E+00 0. -1.
</event>
<event>
 5   0  0.9311672E-07  0.3492799E+04  0.7818609E-02  0.8115498E-01
       -2   -1    0    0    0  501  0.00000000000E+00  0.00000000000E+00  0.15424986445E+04  0.15424986445E+04  0.25500000920E-02 0. -1.
        2   -1    0    0  501    0  0.00000000000E+00  0.00000000000E+00 -0.19772542436E+04  0.19772542436E+04  0.25500000920E-02 0.  1.
    10030    2    1    2    0    0  0.00000000000E+00  0.00000000000E+00 -0.43475559902E+03  0.35197528881E+04  0.34927994449E+04 0.  0.
        4    1    3    3  502    0 -0.82349694131E+03  0.15192838926E+04  0.36638057268E+02  0.17285007141E+04  0.12699999809E+01 0. -1.
       -4    1    3    3    0  502  0.82349694131E+03 -0.15192838926E+04 -0.47139365629E+03  0.17912521740E+04  0.12699999809E+01 0.  1.
</event>
<event>
 5   0  0.3026332E-07  0.3454769E+04  0.7818609E-02  0.8124594E-01
        1   -1    0    0  501    0  0.00000000000E+00  0.00000000000E+00  0.19508040060E+04  0.19508040060E+04  0.50400001928E-02 0. -1.
       -1   -1    0    0    0  501  0.00000000000E+00  0.00000000000E+00 -0.15295524105E+04  0.15295524105E+04  0.50400001928E-02 0.  1.
    10030    2    1    2    0    0  0.00000000000E+00  0.00000000000E+00  0.42125159550E+03  0.34803564165E+04  0.34547688605E+04 0.  0.
        1    1    3    3  502    0 -0.10792036054E+04 -0.12190802701E+03  0.15638224121E+04  0.19039649486E+04  0.50400001928E-02 0. -1.
       -1    1    3    3    0  502  0.10792036054E+04  0.12190802701E+03 -0.11425708166E+04  0.15763914679E+04  0.50400001928E-02 0.  1.
</event>
<event>
 5   0  0.3061330E-07  0.3536573E+04  0.7818609E-02  0.8105177E-01
       -1   -1    0    0    0  501  0.00000000000E+00  0.00000000000E+00  0.12838191921E+04  0.12838191921E+04  0.50400001928E-02 0.  1.
        1   -1    0    0  501    0  0.00000000000E+00  0.00000000000E+00 -0.24355746034E+04  0.24355746034E+04  0.50400001928E-02 0. -1.
    10030    2    1    2    0    0  0.00000000000E+00  0.00000000000E+00 -0.11517554113E+04  0.37193937954E+04  0.35365731546E+04 0.  0.
        5    1    3    3  502    0 -0.14967924293E+04  0.20716379196E+02  0.41405581500E+03  0.15531519735E+04  0.46999998093E+01 0.  1.
       -5    1    3    3    0  502  0.14967924293E+04 -0.20716379196E+02 -0.15658112263E+04  0.21662418220E+04  0.46999998093E+01 0. -1.
</event>
<event>
 5   0  0.2933506E-07  0.3481609E+04  0.7818609E-02  0.8118162E-01
        1   -1    0    0  501    0  0.00000000000E+00  0.00000000000E+00  0.23657827359E+04  0.23657827359E+04  0.50400001928E-02 0. -1.
       -1   -1    0    0    0  501  0.00000000000E+00  0.00000000000E+00 -0.12809293825E+04  0.12809293825E+04  0.50400001928E-02 0.  1.
    10030    2    1    2    0    0  0.00000000000E+00  0.00000000000E+00  0.10848533534E+04  0.36467121184E+04  0.34816091791E+04 0.  0.
        4    1    3    3  502    0 -0.40040351992E+03 -0.11388157055E+04  0.18561682832E+04  0.22141785154E+04  0.12699999809E+01 0. -1.
       -4    1    3    3    0  502  0.40040351992E+03  0.11388157055E+04 -0.77131492975E+03  0.14325336030E+04  0.12699999809E+01 0.  1.
</event>
<event>
 5   0  0.8950809E-07  0.3470478E+04  0.7818609E-02  0.8120822E-01
        2   -1    0    0  501    0  0.00000000000E+00  0.00000000000E+00  0.14076292112E+04  0.14076292112E+04  0.25500000920E-02 0. -1.
       -2   -1    0    0    0  501  0.00000000000E+00  0.00000000000E+00 -0.21390966703E+04  0.21390966703E+04  0.25500000920E-02 0.  1.
    10030    2    1    2    0    0  0.00000000000E+00  0.00000000000E+00 -0.73146745907E+03  0.35467258815E+04  0.34704783294E+04 0.  0.
        2    1    3    3  502    0  0.38365414970E+02 -0.79074270709E+03  0.12123119064E+04  0.14479109408E+04  0.25500000920E-02 0. -1.
       -2    1    3    3    0  502 -0.38365414970E+02  0.79074270709E+03 -0.19437793655E+04  0.20988149408E+04  0.25500000920E-02 0.  1.
</event>
<event>
 5   0  0.6188930E-07  0.2922260E+04  0.7818609E-02  0.8266285E-01
       -2   -1    0    0    0  501  0.00000000000E+00  0.00000000000E+00  0.12796266543E+04  0.12796266543E+04  0.25500000920E-02 0. -1.
        2   -1    0    0  501    0  0.00000000000E+00  0.00000000000E+00 -0.16683777736E+04  0.16683777736E+04  0.25500000920E-02 0.  1.
    10030    2    1    2    0    0  0.00000000000E+00  0.00000000000E+00 -0.38875111932E+03  0.29480044280E+04  0.29222598575E+04 0.  0.
        3    1    3    3  502    0  0.16346991570E+03 -0.80576394549E+03  0.10241241820E+04  0.13133195725E+04  0.10100000352E+00 0. -1.
       -3    1    3    3    0  502 -0.16346991570E+03  0.80576394549E+03 -0.14128753013E+04  0.16346848554E+04  0.10100000352E+00 0.  1.
</event>
<event>
 5   0  0.2972541E-07  0.3523436E+04  0.7818609E-02  0.8108258E-01
       -1   -1    0    0    0  501  0.00000000000E+00  0.00000000000E+00  0.24900323921E+04  0.24900323921E+04  0.50400001928E-02 0.  1.
        1   -1    0    0  501    0  0.00000000000E+00  0.00000000000E+00 -0.12464298562E+04  0.12464298562E+04  0.50400001928E-02 0. -1.
    10030    2    1    2    0    0  0.00000000000E+00  0.00000000000E+00  0.12436025359E+04  0.37364622483E+04  0.35234362298E+04 0.  0.
        3    1    3    3  502    0  0.35739732675E+03 -0.12080041058E+04  0.19277796850E+04  0.23028984547E+04  0.10100000352E+00 0.  1.
       -3    1    3    3    0  502 -0.35739732675E+03  0.12080041058E+04 -0.68417714911E+03  0.14335637936E+04  0.10100000352E+00 0. -1.
</event>
<event>
 5   0  0.8845195E-07  0.3503482E+04  0.7818609E-02  0.8112965E-01
       -2   -1    0    0    0  501  0.00000000000E+00  0.00000000000E+00  0.11847462682E+04  0.11847462682E+04  0.25500000920E-02 0.  1.
        2   -1    0    0  501    0  0.00000000000E+00  0.00000000000E+00 -0.25900879672E+04  0.25900879672E+04  0.25500000920E-02 0. -1.
    10030    2    1    2    0    0  0.00000000000E+00  0.00000000000E+00 -0.14053416990E+04  0.37748342354E+04  0.35034822982E+04 0.  0.
        5    1    3    3  502    0 -0.15965351381E+04  0.70308038382E+03 -0.87414655918E+03  0.19512562031E+04  0.46999998093E+01 0.  1.
       -5    1    3    3    0  502  0.15965351381E+04 -0.70308038382E+03 -0.53119513980E+03  0.18235780323E+04  0.46999998093E+01 0. -1.
</event>
<event>
 5   0  0.6188930E-07  0.3423558E+04  0.7818609E-02  0.8132149E-01
        2   -1    0    0  501    0  0.00000000000E+00  0.00000000000E+00  0.14900512647E+04  0.14900512647E+04  0.25500000920E-02 0.  1.
       -2   -1    0    0    0  501  0.00000000000E+00  0.00000000000E+00 -0.19665006357E+04  0.19665006357E+04  0.25500000920E-02 0. -1.
    10030    2    1    2    0    0  0.00000000000E+00  0.00000000000E+00 -0.47644937101E+03  0.34565519005E+04  0.34235576580E+04 0.  0.
        3    1    3    3  502    0  0.14200526720E+04  0.95579502999E+03 -0.22848713066E+03  0.17269337306E+04  0.10100000352E+00 0.  1.
       -3    1    3    3    0  502 -0.14200526720E+04 -0.95579502999E+03 -0.24796224035E+03  0.17296181699E+04  0.10100000352E+00 0. -1.
</event>
<event>
 5   0  0.8845195E-07  0.3335890E+04  0.7818609E-02  0.8153823E-01
        2   -1    0    0  501    0  0.00000000000E+00  0.00000000000E+00  0.11585397814E+04  0.11585397814E+04  0.25500000920E-02 0. -1.
       -2   -1    0    0    0  501  0.00000000000E+00  0.00000000000E+00 -0.24013329083E+04  0.24013329083E+04  0.25500000920E-02 0.  1.
    10030    2    1    2    0    0  0.00000000000E+00  0.00000000000E+00 -0.12427931269E+04  0.35598726897E+04  0.33358895082E+04 0.  0.
        5    1    3    3  502    0 -0.39425274948E+02 -0.93119052410E+03 -0.20975099961E+04  0.22952647817E+04  0.46999998093E+01 0.  1.
       -5    1    3    3    0  502  0.39425274948E+02  0.93119052410E+03  0.85471686923E+03  0.12646079080E+04  0.46999998093E+01 0. -1.
</event>
<event>
 5   0  0.2933506E-07  0.3506662E+04  0.7818609E-02  0.8112213E-01
       -1   -1    0    0    0  501  0.00000000000E+00  0.00000000000E+00  0.12759250653E+04  0.12759250653E+04  0.50400001928E-02 0. -1.
        1   -1    0    0  501    0  0.00000000000E+00  0.00000000000E+00 -0.24093648505E+04  0.24093648505E+04  0.50400001928E-02 0.  1.
    10030    2    1    2    0    0  0.00000000000E+00  0.00000000000E+00 -0.11334397852E+04  0.36852899159E+04  0.35066616628E+04 0.  0.
        4    1    3    3  502    0 -0.89260145987E+03  0.17391474778E+03  0.10087027392E+04  0.13581113852E+04  0.12699999809E+01 0. -1.
       -4    1    3    3    0  502  0.89260145987E+03 -0.17391474778E+03 -0.21421425244E+04  0.23271785307E+04  0.12699999809E+01 0.  1.
</event>
<event>
 5   0  0.9311672E-07  0.3541673E+04  0.7818609E-02  0.8103984E-01
        2   -1    0    0  501    0  0.00000000000E+00  0.00000000000E+00  0.17667796528E+04  0.17667796528E+04  0.25500000920E-02 0. -1.
       -2   -1    0    0    0  501  0.00000000000E+00  0.00000000000E+00 -0.17749023611E+04  0.17749023611E+04  0.25500000920E-02 0.  1.
    10030    2    1    2    0    0  0.00000000000E+00  0.00000000000E+00 -0.81227083416E+01  0.35416820139E+04  0.35416726994E+04 0.  0.
        4    1    3    3  502    0 -0.10022641179E+04 -0.34383819135E+03  0.14147805290E+04  0.17675869489E+04  0.12699999809E+01 0. -1.
       -4    1    3    3    0  502  0.10022641179E+04  0.34383819135E+03 -0.14229032374E+04  0.17740950650E+04  0.12699999809E+01 0.  1.
</event>
<event>
 5   0  0.2933506E-07  0.3505802E+04  0.7818609E-02  0.8112416E-01
        1   -1    0    0  501    0  0.00000000000E+00  0.00000000000E+00  0.23489842082E+04  0.23489842082E+04  0.50400001928E-02 0.  1.
       -1   -1    0    0    0  501  0.00000000000E+00  0.00000000000E+00 -0.13080808875E+04  0.13080808875E+04  0.50400001928E-02 0. -1.
    10030    2    1    2    0    0  0.00000000000E+00  0.00000000000E+00  0.10409033208E+04  0.36570650957E+04  0.35058016760E+04 0.  0.
        4    1    3    3  502    0  0.10361780538E+04  0.90271016075E+03  0.16555701910E+04  0.21516191260E+04  0.12699999809E+01 0.  1.
       -4    1    3    3    0  502 -0.10361780538E+04 -0.90271016075E+03 -0.61466687018E+03  0.15054459697E+04  0.12699999809E+01 0. -1.
</event>
<event>
 5   0  0.2907000E-07  0.3493519E+04  0.7818609E-02  0.8115328E-01
       -3   -1    0    0    0  501  0.00000000000E+00  0.00000000000E+00  0.18526369672E+04  0.18526369699E+04  0.10100000352E+00 0. -1.
        3   -1    0    0  501    0  0.00000000000E+00  0.00000000000E+00 -0.16469331051E+04  0.16469331082E+04  0.10100000352E+00 0.  1.
    10030    2    1    2    0    0  0.00000000000E+00  0.00000000000E+00  0.20570386205E+03  0.34995700781E+04  0.34935192361E+04 0.  0.
        4    1    3    3  502    0  0.35399446481E+03  0.10856951327E+04 -0.12212246850E+04  0.16719561436E+04  0.12699999809E+01 0.  1.
       -4    1    3    3    0  502 -0.35399446481E+03 -0.10856951327E+04  0.14269285470E+04  0.18276139345E+04  0.12699999809E+01 0. -1.
</event>
<event>
 5   0  0.3026332E-07  0.3537668E+04  0.7818609E-02  0.8104921E-01
        1   -1    0    0  501    0  0.00000000000E+00  0.00000000000E+00  0.21183499214E+04  0.21183499214E+04  0.50400001928E-02 0.  1.
       -1   -1    0    0    0  501  0.00000000000E+00  0.00000000000E+00 -0.14769861818E+04  0.14769861818E+04  0.50400001928E-02 0. -1.
    10030    2    1    2    0    0  0.00000000000E+00  0.00000000000E+00  0.64136373963E+03  0.35953361032E+04  0.35376679110E+04 0.  0.
        1    1    3    3  502    0  0.10750799359E+04 -0.14045551006E+04  0.33511416658E+03  0.18002425958E+04  0.50400001928E-02 0. -1.
       -1    1    3    3    0  502 -0.10750799359E+04  0.14045551006E+04  0.30624957305E+03  0.17950935074E+04  0.50400001928E-02 0.  1.
</event>
<event>
 5   0  0.2936607E-07  0.3095386E+04  0.7818609E-02  0.8217005E-01
       -1   -1    0    0    0  501  0.00000000000E+00  0.00000000000E+00  0.12585391550E+04  0.12585391550E+04  0.50400001928E-02 0. -1.
        1   -1    0    0  501    0  0.00000000000E+00  0.00000000000E+00 -0.19032806101E+04  0.19032806101E+04  0.50400001928E-02 0.  1.
    10030    2    1    2    0    0  0.00000000000E+00  0.00000000000E+00 -0.64474145516E+03  0.31618197651E+04  0.30953857083E+04 0.  0.
        2    1    3    3  502    0  0.74415973115E+03  0.13166686993E+04 -0.65799998515E+03  0.16493496141E+04  0.25500000920E-02 0.  1.
       -2    1    3    3    0  502 -0.74415973115E+03 -0.13166686993E+04  0.13258529995E+02  0.15124701510E+04  0.25500000920E-02 0. -1.
</event>
<event>
 5   0  0.9311672E-07  0.3480569E+04  0.7818609E-02  0.8118410E-01
       -2   -1    0    0    0  501  0.00000000000E+00  0.00000000000E+00  0.11520791171E+04  0.11520791171E+04  0.25500000920E-02 0.  1.
        2   -1    0    0  501    0  0.00000000000E+00  0.00000000000E+00 -0.26288043496E+04  0.26288043496E+04  0.25500000920E-02 0. -1.
    10030    2    1    2    0    0  0.00000000000E+00  0.00000000000E+00 -0.14767252325E+04  0.37808834666E+04  0.34805692603E+04 0.  0.
        4    1    3    3  502    0  0.44328756707E+02  0.12569464128E+04  0.56821045171E+03  0.13801246515E+04  0.12699999809E+01 0.  1.
       -4    1    3    3    0  502 -0.44328756707E+02 -0.12569464128E+04 -0.20449356842E+04  0.24007588152E+04  0.12699999809E+01 0. -1.
</event>
<event>
 5   0  0.2936607E-07  0.3336456E+04  0.7818609E-02  0.8153681E-01
       -1   -1    0    0    0  501  0.00000000000E+00  0.00000000000E+00  0.12593971541E+04  0.12593971542E+04  0.50400001928E-02 0.  1.
        1   -1    0    0  501    0  0.00000000000E+00  0.00000000000E+00 -0.22097757739E+04  0.22097757739E+04  0.50400001928E-02 0. -1.
    10030    2    1    2    0    0  0.00000000000E+00  0.00000000000E+00 -0.95037861973E+03  0.34691729280E+04  0.33364563962E+04 0.  0.
        2    1    3    3  502    0  0.13787000814E+04  0.73708432985E+02  0.49839939693E+03  0.14678722037E+04  0.25500000920E-02 0.  1.
       -2    1    3    3    0  502 -0.13787000814E+04 -0.73708432985E+02 -0.14487780167E+04  0.20013007243E+04  0.25500000920E-02 0. -1.
</event>
<event>
 5   0  0.3026332E-07  0.3507021E+04  0.7818609E-02  0.8112128E-01
       -1   -1    0    0    0  501  0.00000000000E+00  0.00000000000E+00  0.11996744988E+04  0.11996744988E+04  0.50400001928E-02 0.  1.
        1   -1    0    0  501    0  0.00000000000E+00  0.00000000000E+00 -0.25630278232E+04  0.25630278232E+04  0.50400001928E-02 0. -1.
    10030    2    1    2    0    0  0.00000000000E+00  0.00000000000E+00 -0.13633533244E+04  0.37627023220E+04  0.35070210260E+04 0.  0.
        1    1    3    3  502    0 -0.17058201847E+04 -0.39813741825E+03 -0.59542137579E+03  0.18500979761E+04  0.50400001928E-02 0.  1.
       -1    1    3    3    0  502  0.17058201847E+04  0.39813741825E+03 -0.76793194862E+03  0.19126043459E+04  0.50400001928E-02 0. -1.
</event>
<event>
 5   0  0.9128871E-07  0.3510592E+04  0.7818609E-02  0.8111284E-01
        2   -1    0    0  501    0  0.00000000000E+00  0.00000000000E+00  0.17505451473E+04  0.17505451473E+04  0.25500000920E-02 0. -1.
       -2   -1    0    0    0  501  0.00000000000E+00  0.00000000000E+00 -0.17600595357E+04  0.17600595357E+04  0.25500000920E-02 0.  1.
    10030    2    1    2    0    0  0.00000000000E+00  0.00000000000E+00 -0.95143883967E+01  0.35106046830E+04  0.35105917901E+04 0.  0.
        1    1    3    3  502    0 -0.10815963947E+04 -0.36136651862E+03 -0.13391635177E+04  0.17589188296E+04  0.50400001928E-02 0.  1.
       -1    1    3    3    0  502  0.10815963947E+04  0.36136651862E+03  0.13296491293E+04  0.17516858534E+04  0.50400001928E-02 0. -1.
</event>
<event>
 5   0  0.8845195E-07  0.3341153E+04  0.7818609E-02  0.8152502E-01
       -2   -1    0    0    0  501  0.00000000000E+00  0.00000000000E+00  0.11429267690E+04  0.11429267690E+04  0.25500000920E-02 0.  1.
        2   -1    0    0  501    0  0.00000000000E+00  0.00000000000E+00 -0.24418238874E+04  0.24418238874E+04  0.25500000920E-02 0. -1.
    10030    2    1    2    0    0  0.00000000000E+00  0.00000000000E+00 -0.12988971185E+04  0.35847506564E+04  0.33411530261E+04 0.  0.
        5    1    3    3  502    0 -0.14622367781E+04  0.69424502918E+03 -0.10927184197E+04  0.19529895521E+04  0.46999998093E+01 0. -1.
       -5    1    3    3    0  502  0.14622367781E+04 -0.69424502918E+03 -0.20617869877E+03  0.16317611043E+04  0.46999998093E+01 0.  1.
</event>
<event>
 5   0  0.2936607E-07  0.3475439E+04  0.7818609E-02  0.8119635E-01
       -1   -1    0    0    0  501  0.00000000000E+00  0.00000000000E+00  0.14298410124E+04  0.14298410124E+04  0.50400001928E-02 0.  1.
        1   -1    0    0  501    0  0.00000000000E+00  0.00000000000E+00 -0.21118913056E+04  0.21118913056E+04  0.50400001928E-02 0. -1.
    10030    2    1    2    0    0  0.00000000000E+00  0.00000000000E+00 -0.68205029325E+03  0.35417323180E+04  0.34754388514E+04 0.  0.
        2    1    3    3  502    0  0.20232546175E+03  0.29136838340E+03  0.13925519710E+04  0.14370219620E+04  0.25500000920E-02 0.  1.
       -2    1    3    3    0  502 -0.20232546175E+03 -0.29136838340E+03 -0.20746022643E+04  0.21047103559E+04  0.25500000920E-02 0. -1.
</event>
<event>
 5   0  0.9311672E-07  0.3513846E+04  0.7818609E-02  0.8110516E-01
        2   -1    0    0  501    0  0.00000000000E+00  0.00000000000E+00  0.17111280562E+04  0.17111280562E+04  0.25500000920E-02 0. -1.
       -2   -1    0    0    0  501  0.00000000000E+00  0.00000000000E+00 -0.18039438365E+04  0.18039438365E+04  0.25500000920E-02 0.  1.
    10030    2    1    2    0    0  0.00000000000E+00  0.00000000000E+00 -0.92815780270E+02  0.35150718927E+04  0.35138462746E+04 0.  0.
        4    1    3    3  502    0 -0.39081146056E+03  0.17102112855E+04  0.49651948155E+02  0.17549994779E+04  0.12699999809E+01 0. -1.
       -4    1    3    3    0  502  0.39081146056E+03 -0.17102112855E+04 -0.14246772843E+03  0.17600724148E+04  0.12699999809E+01 0.  1.
</event>
<event>
 5   0  0.8950809E-07  0.3491409E+04  0.7818609E-02  0.8115829E-01
       -2   -1    0    0    0  501  0.00000000000E+00  0.00000000000E+00  0.24780504004E+04  0.24780504004E+04  0.25500000920E-02 0. -1.
        2   -1    0    0  501    0  0.00000000000E+00  0.00000000000E+00 -0.12297907052E+04  0.12297907052E+04  0.25500000920E-02 0.  1.
    10030    2    1    2    0    0  0.00000000000E+00  0.00000000000E+00  0.12482596952E+04  0.37078411056E+04  0.34914085120E+04 0.  0.
        2    1    3    3  502    0 -0.14076387596E+03  0.13179673974E+04 -0.58235386753E+03  0.14477529335E+04  0.25500000920E-02 0.  1.
       -2    1    3    3    0  502  0.14076387596E+03 -0.13179673974E+04  0.18306135627E+04  0.22600881721E+04  0.25500000920E-02 0. -1.
</event>
<event>
 5   0  0.3026332E-07  0.2981265E+04  0.7818609E-02  0.8249101E-01
        1   -1    0    0  501    0  0.00000000000E+00  0.00000000000E+00  0.12023862115E+04  0.12023862115E+04  0.50400001928E-02 0.  1.
       -1   -1    0    0    0  501  0.00000000000E+00  0.00000000000E+00 -0.18479799464E+04  0.18479799464E+04  0.50400001928E-02 0. -1.
    10030    2    1    2    0    0  0.00000000000E+00  0.00000000000E+00 -0.64559373484E+03  0.30503661579E+04  0.29812652392E+04 0.  0.
        1    1    3    3  502    0  0.68509182115E+03 -0.62608499852E+03 -0.15163038115E+04  0.17777824607E+04  0.50400001928E-02 0. -1.
       -1    1    3    3    0  502 -0.68509182115E+03  0.62608499852E+03  0.87071007664E+03  0.12725836972E+04  0.50400001928E-02 0.  1.
</event>
<event>
 5   0  0.8950809E-07  0.3149276E+04  0.7818609E-02  0.8202343E-01
        2   -1    0    0  501    0  0.00000000000E+00  0.00000000000E+00  0.17156704892E+04  0.17156704892E+04  0.25500000920E-02 0. -1.
       -2   -1    0    0    0  501  0.00000000000E+00  0.00000000000E+00 -0.14451990475E+04  0.14451990475E+04  0.25500000920E-02 0.  1.
    10030    2    1    2    0    0  0.00000000000E+00  0.00000000000E+00  0.27047144163E+03  0.31608695367E+04  0.31492763339E+04 0.  0.
        2    1    3    3  502    0 -0.85759310211E+03 -0.11033613976E+04  0.86358821489E+03  0.16427589316E+04  0.25500000920E-02 0. -1.
       -2    1    3    3    0  502  0.85759310211E+03  0.11033613976E+04 -0.59311677327E+03  0.15181106051E+04  0.25500000920E-02 0.  1.
</event>
<event>
 5   0  0.2936607E-07  0.3484089E+04  0.7818609E-02  0.8117571E-01
       -1   -1    0    0    0  501  0.00000000000E+00  0.00000000000E+00  0.11709926640E+04  0.11709926640E+04  0.50400001928E-02 0.  1.
        1   -1    0    0  501    0  0.00000000000E+00  0.00000000000E+00 -0.25915779278E+04  0.25915779278E+04  0.50400001928E-02 0. -1.
    10030    2    1    2    0    0  0.00000000000E+00  0.00000000000E+00 -0.14205852638E+04  0.37625705918E+04  0.34840888288E+04 0.  0.
        2    1    3    3  502    0  0.40315440513E+03 -0.15402194497E+04 -0.14738489090E+04  0.21695713942E+04  0.25500000920E-02 0. -1.
       -2    1    3    3    0  502 -0.40315440513E+03  0.15402194497E+04  0.53263645290E+02  0.15929991976E+04  0.25500000920E-02 0.  1.
</event>
<event>
 5   0  0.2933506E-07  0.3500766E+04  0.7818609E-02  0.8113608E-01
        1   -1    0    0  501    0  0.00000000000E+00  0.00000000000E+00  0.18201495998E+04  0.18201495998E+04  0.50400001928E-02 0.  1.
       -1   -1    0    0    0  501  0.00000000000E+00  0.00000000000E+00 -0.16832906860E+04  0.16832906860E+04  0.50400001928E-02 0. -1.
    10030    2    1    2    0    0  0.00000000000E+00  0.00000000000E+00  0.13685891382E+03  0.35034402859E+04  0.35007661268E+04 0.  0.
        4    1    3    3  502    0 -0.14164299827E+04  0.76976225244E+02  0.10947078226E+04  0.17918108341E+04  0.12699999809E+01 0. -1.
       -4    1    3    3    0  502  0.14164299827E+04 -0.76976225244E+02 -0.95784890881E+03  0.17116294518E+04  0.12699999809E+01 0.  1.
</event>
<event>
 5   0  0.9128871E-07  0.3495818E+04  0.7818609E-02  0.8114782E-01
       -2   -1    0    0    0  501  0.00000000000E+00  0.00000000000E+00  0.22998834654E+04  0.22998834654E+04  0.25500000920E-02 0. -1.
        2   -1    0    0  501    0  0.00000000000E+00  0.00000000000E+00 -0.13284089676E+04  0.13284089676E+04  0.25500000920E-02 0.  1.
    10030    2    1    2    0    0  0.00000000000E+00  0.00000000000E+00  0.97147449775E+03  0.36282924330E+04  0.34958179700E+04 0.  0.
        1    1    3    3  502    0 -0.16994250641E+04 -0.39107169940E+03  0.60943065102E+03  0.18472650976E+04  0.50400001928E-02 0. -1.
       -1    1    3    3    0  502  0.16994250641E+04  0.39107169940E+03  0.36204384673E+03  0.17810273354E+04  0.50400001928E-02 0.  1.
</event>
<event>
 5   0  0.8950809E-07  0.3230710E+04  0.7818609E-02  0.8180754E-01
        2   -1    0    0  501    0  0.00000000000E+00  0.00000000000E+00  0.13188250574E+04  0.13188250574E+04  0.25500000920E-02 0. -1.
       -2   -1    0    0    0  501  0.00000000000E+00  0.00000000000E+00 -0.19785577365E+04  0.19785577365E+04  0.25500000920E-02 0.  1.
    10030    2    1    2    0    0  0.00000000000E+00  0.00000000000E+00 -0.65973267906E+03  0.32973827939E+04  0.32307098418E+04 0.  0.
        2    1    3    3  502    0  0.14778758174E+04  0.88979660106E+02  0.32948207507E+03  0.15167704999E+04  0.25500000920E-02 0. -1.
       -2    1    3    3    0  502 -0.14778758174E+04 -0.88979660106E+02 -0.98921475413E+03  0.17806122940E+04  0.25500000920E-02 0.  1.
</event>
<event>
 5   0  0.3026332E-07  0.3499292E+04  0.7818609E-02  0.8113958E-01
       -1   -1    0    0    0  501  0.00000000000E+00  0.00000000000E+00  0.19392935475E+04  0.19392935475E+04  0.50400001928E-02 0.  1.
        1   -1    0    0  501    0  0.00000000000E+00  0.00000000000E+00 -0.15785447105E+04  0.15785447105E+04  0.50400001928E-02 0. -1.
    10030    2    1    2    0    0  0.00000000000E+00  0.00000000000E+00  0.36074883705E+03  0.35178382580E+04  0.34992922550E+04 0.  0.
        1    1    3    3  502    0 -0.26473804710E+03 -0.12423048538E+03  0.19145509260E+04  0.19367562302E+04  0.50400001928E-02 0.  1.
       -1    1    3    3    0  502  0.26473804710E+03  0.12423048538E+03 -0.15538020889E+04  0.15810820278E+04  0.50400001928E-02 0. -1.
</event>
<event>
 5   0  0.2936607E-07  0.3517612E+04  0.7818609E-02  0.8109629E-01
       -1   -1    0    0    0  501  0.00000000000E+00  0.00000000000E+00  0.13076171190E+04  0.13076171190E+04  0.50400001928E-02 0. -1.
        1   -1    0    0  501    0  0.00000000000E+00  0.00000000000E+00 -0.23656760070E+04  0.23656760071E+04  0.50400001928E-02 0.  1.
    10030    2    1    2    0    0  0.00000000000E+00  0.00000000000E+00 -0.10580588881E+04  0.36732931261E+04  0.35176119427E+04 0.  0.
        2    1    3    3  502    0 -0.72380167311E+03  0.47629976143E+02 -0.22022029394E+04  0.23185890673E+04  0.25500000920E-02 0.  1.
       -2    1    3    3    0  502  0.72380167311E+03 -0.47629976143E+02  0.11441440513E+04  0.13547040588E+04  0.25500000920E-02 0. -1.
</event>
<event>
 5   0  0.9128871E-07  0.3532965E+04  0.7818609E-02  0.8106022E-01
        2   -1    0    0  501    0  0.00000000000E+00  0.00000000000E+00  0.26786288835E+04  0.26786288835E+04  0.25500000920E-02 0.  1.
       -2   -1    0    0    0  501  0.00000000000E+00  0.00000000000E+00 -0.11649466700E+04  0.11649466700E+04  0.25500000920E-02 0. -1.
    10030    2    1    2    0    0  0.00000000000E+00  0.00000000000E+00  0.15136822135E+04  0.38435755535E+04  0.35329646463E+04 0.  0.
        1    1    3    3  502    0 -0.35064047865E+03  0.32145571395E+03 -0.10939555042E+04  0.11929045086E+04  0.50400001928E-02 0. -1.
       -1    1    3    3    0  502  0.35064047865E+03 -0.32145571395E+03  0.26076377177E+04  0.26506710449E+04  0.50400001928E-02 0.  1.
</event>
<event>
 5   0  0.8845195E-07  0.3533156E+04  0.7818609E-02  0.8105977E-01
        2   -1    0    0  501    0  0.00000000000E+00  0.00000000000E+00  0.21154113351E+04  0.21154113351E+04  0.25500000920E-02 0.  1.
       -2   -1    0    0    0  501  0.00000000000E+00  0.00000000000E+00 -0.14752674648E+04  0.14752674648E+04  0.25500000920E-02 0. -1.
    10030    2    1    2    0    0  0.00000000000E+00  0.00000000000E+00  0.64014387033E+03  0.35906787998E+04  0.35331558229E+04 0.  0.
        5    1    3    3  502    0 -0.69622474895E+03  0.71661117815E+03 -0.11605328357E+04  0.15313781488E+04  0.46999998093E+01 0. -1.
       -5    1    3    3    0  502  0.69622474895E+03 -0.71661117815E+03  0.18006767061E+04  0.20593006511E+04  0.46999998093E+01 0.  1.
</event>
<event>
 5   0  0.3026332E-07  0.3340225E+04  0.7818609E-02  0.8152735E-01
        1   -1    0    0  501    0  0.00000000000E+00  0.00000000000E+00  0.22328925544E+04  0.22328925544E+04  0.50400001928E-02 0. -1.
       -1   -1    0    0    0  501  0.00000000000E+00  0.00000000000E+00 -0.12491758283E+04  0.12491758283E+04  0.50400001928E-02 0.  1.
    10030    2    1    2    0    0  0.00000000000E+00  0.00000000000E+00  0.98371672611E+03  0.34820683827E+04  0.33402247866E+04 0.  0.
        1    1    3    3  502    0 -0.87236329055E+03  0.24996787759E+03  0.19534578021E+04  0.21539496362E+04  0.50400001928E-02 0. -1.
       -1    1    3    3    0  502  0.87236329055E+03 -0.24996787759E+03 -0.96974107597E+03  0.13281187466E+04  0.50400001928E-02 0.  1.
</event>
<event>
 5   0  0.9311672E-07  0.3567666E+04  0.7818609E-02  0.8097939E-01
       -2   -1    0    0    0  501  0.00000000000E+00  0.00000000000E+00  0.14593553899E+04  0.14593553899E+04  0.25500000920E-02 0. -1.
        2   -1    0    0  501    0  0.00000000000E+00  0.00000000000E+00 -0.21804563914E+04  0.21804563914E+04  0.25500000920E-02 0.  1.
    10030    2    1    2    0    0  0.00000000000E+00  0.00000000000E+00 -0.72110100145E+03  0.36398117813E+04  0.35676663449E+04 0.  0.
        4    1    3    3  502    0  0.82306479372E+03 -0.53121226100E+03  0.11603802105E+04  0.15185868321E+04  0.12699999809E+01 0. -1.
       -4    1    3    3    0  502 -0.82306479372E+03  0.53121226100E+03 -0.18814812120E+04  0.21212249491E+04  0.12699999809E+01 0.  1.
</event>
<event>
 5   0  0.9311672E-07  0.3339137E+04  0.7818609E-02  0.8153008E-01
        2   -1    0    0  501    0  0.00000000000E+00  0.00000000000E+00  0.17767151893E+04  0.17767151893E+04  0.25500000920E-02 0.  1.
       -2   -1    0    0    0  501  0.00000000000E+00  0.00000000000E+00 -0.15688830050E+04  0.15688830050E+04  0.25500000920E-02 0. -1.
    10030    2    1    2    0    0  0.00000000000E+00  0.00000000000E+00  0.20783218434E+03  0.33455981944E+04  0.33391365742E+04 0.  0.
        4    1    3    3  502    0  0.91140136110E+03  0.12648168014E+04  0.70260286006E+03  0.17099901678E+04  0.12699999809E+01 0.  1.
       -4    1    3    3    0  502 -0.91140136110E+03 -0.12648168014E+04 -0.49477067572E+03  0.16356080266E+04  0.12699999809E+01 0. -1.
</event>
<event>
 5   0  0.9311672E-07  0.3735196E+04  0.7818609E-02  0.8060207E-01
        2   -1    0    0  501    0  0.00000000000E+00  0.00000000000E+00  0.17274195487E+04  0.17274195487E+04  0.25500000920E-02 0.  1.
       -2   -1    0    0    0  501  0.00000000000E+00  0.00000000000E+00 -0.20191513565E+04  0.20191513565E+04  0.25500000920E-02 0. -1.
    10030    2    1    2    0    0  0.00000000000E+00  0.00000000000E+00 -0.29173180786E+03  0.37465709052E+04  0.37351955906E+04 0.  0.
        4    1    3    3  502    0  0.42845446443E+03 -0.11706823802E+03  0.16736711625E+04  0.17316047394E+04  0.12699999809E+01 0.  1.
       -4    1    3    3    0  502 -0.42845446443E+03  0.11706823802E+03 -0.19654029704E+04  0.20149661658E+04  0.12699999809E+01 0. -1.
</event>
<event>
 5   0  0.6188930E-07  0.2934196E+04  0.7818609E-02  0.8262775E-01
        2   -1    0    0  501    0  0.00000000000E+00  0.00000000000E+00  0.26633872976E+04  0.26633872976E+04  0.25500000920E-02 0.  1.
       -2   -1    0    0    0  501  0.00000000000E+00  0.00000000000E+00 -0.80813498828E+03  0.80813498828E+03  0.25500000920E-02 0. -1.
    10030    2    1    2    0    0  0.00000000000E+00  0.00000000000E+00  0.18552523093E+04  0.34715222859E+04  0.29341959461E+04 0.  0.
        3    1    3    3  502    0  0.14257342588E+03  0.13513969728E+04  0.15818587564E+04  0.20853963880E+04  0.10100000352E+00 0.  1.
       -3    1    3    3    0  502 -0.14257342588E+03 -0.13513969728E+04  0.27339355291E+03  0.13861258979E+04  0.10100000352E+00 0. -1.
</event>
<event>
 5   0  0.3026332E-07  0.3347543E+04  0.7818609E-02  0.8150902E-01
       -1   -1    0    0    0  501  0.00000000000E+00  0.00000000000E+00  0.14209624716E+04  0.14209624716E+04  0.50400001928E-02 0.  1.
        1   -1    0    0  501    0  0.00000000000E+00  0.00000000000E+00 -0.19715587661E+04  0.19715587661E+04  0.50400001928E-02 0. -1.
    10030    2    1    2    0    0  0.00000000000E+00  0.00000000000E+00 -0.55059629443E+03  0.33925212377E+04  0.33475429899E+04 0.  0.
        1    1    3    3  502    0  0.15183084905E+04 -0.53969556301E+03  0.18353115317E+03  0.16217939627E+04  0.50400001928E-02 0.  1.
       -1    1    3    3    0  502 -0.15183084905E+04  0.53969556301E+03 -0.73412744759E+03  0.17707272750E+04  0.50400001928E-02 0. -1.
</event>
<event>
 5   0  0.8950809E-07  0.3504897E+04  0.7818609E-02  0.8112630E-01
       -2   -1    0    0    0  501  0.00000000000E+00  0.00000000000E+00  0.15972664664E+04  0.15972664664E+04  0.25500000920E-02 0.  1.
        2   -1    0    0  501    0  0.00000000000E+00  0.00000000000E+00 -0.19227074473E+04  0.19227074473E+04  0.25500000920E-02 0. -1.
    10030    2    1    2    0    0  0.00000000000E+00  0.00000000000E+00 -0.32544098092E+03  0.35199739136E+04  0.35048972197E+04 0.  0.
        2    1    3    3  502    0 -0.96570384777E+03  0.12789756287E+04 -0.87479338364E+03  0.18258220188E+04  0.25500000920E-02 0. -1.
       -2    1    3    3    0  502  0.96570384777E+03 -0.12789756287E+04  0.54935240272E+03  0.16941518948E+04  0.25500000920E-02 0.  1.
</event>
<event>
 5   0  0.9128871E-07  0.3022565E+04  0.7818609E-02  0.8237317E-01
        2   -1    0    0  501    0  0.00000000000E+00  0.00000000000E+00  0.18896764793E+04  0.18896764793E+04  0.25500000920E-02 0. -1.
       -2   -1    0    0    0  501  0.00000000000E+00  0.00000000000E+00 -0.12086591219E+04  0.12086591219E+04  0.25500000920E-02 0.  1.
    10030    2    1    2    0    0  0.00000000000E+00  0.00000000000E+00  0.68101735745E+03  0.30983356012E+04  0.30225649466E+04 0.  0.
        1    1    3    3  502    0 -0.37089530186E+03 -0.10252940001E+04  0.14132531434E+04  0.17849581392E+04  0.50400001928E-02 0. -1.
       -1    1    3    3    0  502  0.37089530186E+03  0.10252940001E+04 -0.73223578592E+03  0.13133774620E+04  0.50400001928E-02 0.  1.
</event>
<event>
 5   0  0.2936607E-07  0.3526086E+04  0.7818609E-02  0.8107636E-01
        1   -1    0    0  501    0  0.00000000000E+00  0.00000000000E+00  0.16872458605E+04  0.16872458605E+04  0.50400001928E-02 0.  1.
       -1   -1    0    0    0  501  0.00000000000E+00  0.00000000000E+00 -0.18422447984E+04  0.18422447984E+04  0.50400001928E-02 0. -1.
    10030    2    1    2    0    0  0.00000000000E+00  0.00000000000E+00 -0.15499893796E+03  0.35294906589E+04  0.35260855974E+04 0.  0.
        2    1    3    3  502    0  0.26820034316E+03  0.15422994000E+04 -0.88927031976E+03  0.18003945582E+04  0.25500000920E-02 0. -1.
       -2    1    3    3    0  502 -0.26820034316E+03 -0.15422994000E+04  0.73427138181E+03  0.17290961007E+04  0.25500000920E-02 0.  1.
</event>
<event>
 5   0  0.2936607E-07  0.3533226E+04  0.7818609E-02  0.8105961E-01
       -1   -1    0    0    0  501  0.00000000000E+00  0.00000000000E+00  0.14767231606E+04  0.14767231606E+04  0.50400001928E-02 0.  1.
        1   -1    0    0  501    0  0.00000000000E+00  0.00000000000E+00 -0.21134094726E+04  0.21134094726E+04  0.50400001928E-02 0. -1.
    10030    2    1    2    0    0  0.00000000000E+00  0.00000000000E+00 -0.63668631204E+03  0.35901326332E+04  0.35332255609E+04 0.  0.
        2    1    3    3  502    0 -0.58469424335E+03 -0.68726610644E+03  0.12249074061E+04  0.15213810216E+04  0.25500000920E-02 0.  1.
       -2    1    3    3    0  502  0.58469424335E+03  0.68726610644E+03 -0.18615937181E+04  0.20687516116E+04  0.25500000920E-02 0. -1.
</event>
<event>
 5   0  0.9128871E-07  0.3461810E+04  0.7818609E-02  0.8122901E-01
        2   -1    0    0  501    0  0.00000000000E+00  0.00000000000E+00  0.21819688223E+04  0.21819688223E+04  0.25500000920E-02 0.  1.
       -2   -1    0    0    0  501  0.00000000000E+00  0.00000000000E+00 -0.13730863208E+04  0.13730863208E+04  0.25500000920E-02 0. -1.
    10030    2    1    2    0    0  0.00000000000E+00  0.00000000000E+00  0.80888250152E+03  0.35550551431E+04  0.34618096668E+04 0.  0.
        1    1    3    3  502    0 -0.12938639857E+04  0.11304660187E+04  0.61983863268E+03  0.18265369866E+04  0.50400001928E-02 0.  1.
       -1    1    3    3    0  502  0.12938639857E+04 -0.11304660187E+04  0.18904386884E+03  0.17285181565E+04  0.50400001928E-02 0. -1.
</event>
<event>
 5   0  0.9311672E-07  0.3469462E+04  0.7818609E-02  0.8121065E-01
       -2   -1    0    0    0  501  0.00000000000E+00  0.00000000000E+00  0.13565928028E+04  0.13565928028E+04  0.25500000920E-02 0.  1.
        2   -1    0    0  501    0  0.00000000000E+00  0.00000000000E+00 -0.22182724419E+04  0.22182724419E+04  0.25500000920E-02 0. -1.
    10030    2    1    2    0    0  0.00000000000E+00  0.00000000000E+00 -0.86167963903E+03  0.35748652447E+04  0.34694624537E+04 0.  0.
        4    1    3    3  502    0  0.12502103243E+04 -0.10696450973E+04 -0.99719689684E+03  0.19239464008E+04  0.12699999809E+01 0. -1.
       -4    1    3    3    0  502 -0.12502103243E+04  0.10696450973E+04  0.13551725781E+03  0.16509188439E+04  0.12699999809E+01 0.  1.
</event>
<event>
 5   0  0.9311672E-07  0.3474284E+04  0.7818609E-02  0.8119911E-01
       -2   -1    0    0    0  501  0.00000000000E+00  0.00000000000E+00  0.18061120129E+04  0.18061120129E+04  0.25500000920E-02 0.  1.
        2   -1    0    0  501    0  0.00000000000E+00  0.00000000000E+00 -0.16708058364E+04  0.16708058364E+04  0.25500000920E-02 0. -1.
    10030    2    1    2    0    0  0.00000000000E+00  0.00000000000E+00  0.13530617647E+03  0.34769178493E+04  0.34742840945E+04 0.  0.
        4    1    3    3  502    0  0.81997831172E+01  0.13378175778E+04  0.11765715045E+04  0.17816130966E+04  0.12699999809E+01 0.  1.
       -4    1    3    3    0  502 -0.81997831172E+01 -0.13378175778E+04 -0.10412653281E+04  0.16953047526E+04  0.12699999809E+01 0. -1.
</event>
<event>
 5   0  0.2972541E-07  0.3504727E+04  0.7818609E-02  0.8112671E-01
        1   -1    0    0  501    0  0.00000000000E+00  0.00000000000E+00  0.22285792431E+04  0.22285792431E+04  0.50400001928E-02 0.  1.
       -1   -1    0    0    0  501  0.00000000000E+00  0.00000000000E+00 -0.13779079933E+04  0.13779079933E+04  0.50400001928E-02 0. -1.
    10030    2    1    2    0    0  0.00000000000E+00  0.00000000000E+00  0.85067124978E+03  0.36064872364E+04  0.35047266100E+04 0.  0.
        3    1    3    3  502    0 -0.53711460845E+03  0.86861911155E+03 -0.10400141459E+04  0.14576078682E+04  0.10100000352E+00 0. -1.
       -3    1    3    3    0  502  0.53711460845E+03 -0.86861911155E+03  0.18906853957E+04  0.21488793682E+04  0.10100000352E+00 0.  1.
</event>
<event>
 5   0  0.3061330E-07  0.3517163E+04  0.7818609E-02  0.8109735E-01
        1   -1    0    0  501    0  0.00000000000E+00  0.00000000000E+00  0.14379095712E+04  0.14379095712E+04  0.50400001928E-02 0.  1.
       -1   -1    0    0    0  501  0.00000000000E+00  0.00000000000E+00 -0.21507670872E+04  0.21507670872E+04  0.50400001928E-02 0. -1.
    10030    2    1    2    0    0  0.00000000000E+00  0.00000000000E+00 -0.71285751603E+03  0.35886766584E+04  0.35171628226E+04 0.  0.
        5    1    3    3  502    0  0.16521345551E+04  0.60212338838E+03 -0.33395068034E+03  0.17898732664E+04  0.46999998093E+01 0.  1.
       -5    1    3    3    0  502 -0.16521345551E+04 -0.60212338838E+03 -0.37890683569E+03  0.17988033920E+04  0.46999998093E+01 0. -1.
</event>
<event>
 5   0  0.2972541E-07  0.3479123E+04  0.7818609E-02  0.8118755E-01
        1   -1    0    0  501    0  0.00000000000E+00  0.00000000000E+00  0.20180358314E+04  0.20180358314E+04  0.50400001928E-02 0. -1.
       -1   -1    0    0    0  501  0.00000000000E+00  0.00000000000E+00 -0.14995149654E+04  0.14995149654E+04  0.50400001928E-02 0.  1.
    10030    2    1    2    0    0  0.00000000000E+00  0.00000000000E+00  0.51852086602E+03  0.35175507967E+04  0.34791234125E+04 0.  0.
        3    1    3    3  502    0 -0.46544641977E+03  0.34271294375E+03 -0.13995877845E+04  0.15142451942E+04  0.10100000352E+00 0.  1.
       -3    1    3    3    0  502  0.46544641977E+03 -0.34271294375E+03  0.19181086505E+04  0.20033056025E+04  0.10100000352E+00 0. -1.
</event>
<event>
 5   0  0.8950809E-07  0.3518775E+04  0.7818609E-02  0.8109355E-01
        2   -1    0    0  501    0  0.00000000000E+00  0.00000000000E+00  0.20706106834E+04  0.20706106834E+04  0.25500000920E-02 0. -1.
       -2   -1    0    0    0  501  0.00000000000E+00  0.00000000000E+00 -0.14949425486E+04  0.14949425486E+04  0.25500000920E-02 0.  1.
    10030    2    1    2    0    0  0.00000000000E+00  0.00000000000E+00  0.57566813476E+03  0.35655532320E+04  0.35187747937E+04 0.  0.
        2    1    3    3  502    0  0.74807051843E+03  0.15841312165E+04  0.12330932342E+03  0.17562136547E+04  0.25500000920E-02 0.  1.
       -2    1    3    3    0  502 -0.74807051843E+03 -0.15841312165E+04  0.45235881134E+03  0.18093395773E+04  0.25500000920E-02 0. -1.
</event>
<event>
 5   0  0.8845195E-07  0.3450084E+04  0.7818609E-02  0.8125722E-01
       -2   -1    0    0    0  501  0.00000000000E+00  0.00000000000E+00  0.11927611158E+04  0.11927611158E+04  0.25500000920E-02 0. -1.
        2   -1    0    0  501    0  0.00000000000E+00  0.00000000000E+00 -0.24948580023E+04  0.24948580023E+04  0.25500000920E-02 0.  1.
    10030    2    1    2    0    0  0.00000000000E+00  0.00000000000E+00 -0.13020968865E+04  0.36876191182E+04  0.34500838336E+04 0.  0.
        5    1    3    3  502    0 -0.23084606743E+03  0.15702655030E+03 -0.24705424726E+04  0.24862721982E+04  0.46999998093E+01 0.  1.
       -5    1    3    3    0  502  0.23084606743E+03 -0.15702655030E+03  0.11684455862E+04  0.12013469200E+04  0.46999998093E+01 0. -1.
</event>
<event>
 5   0  0.2936607E-07  0.3424002E+04  0.7818609E-02  0.8132040E-01
        1   -1    0    0  501    0  0.00000000000E+00  0.00000000000E+00  0.15940591397E+04  0.15940591397E+04  0.50400001928E-02 0.  1.
       -1   -1    0    0    0  501  0.00000000000E+00  0.00000000000E+00 -0.18386690869E+04  0.18386690869E+04  0.50400001928E-02 0. -1.
    10030    2    1    2    0    0  0.00000000000E+00  0.00000000000E+00 -0.24460994712E+03  0.34327282266E+04  0.34240019059E+04 0.  0.
        2    1    3    3  502    0 -0.68772541257E+03  0.12229773073E+04  0.86116785220E+03  0.16462836350E+04  0.25500000920E-02 0.  1.
       -2    1    3    3    0  502  0.68772541257E+03 -0.12229773073E+04 -0.11057777993E+04  0.17864445916E+04  0.25500000920E-02 0. -1.
</event>
<event>
 5   0  0.3026332E-07  0.3517498E+04  0.7818609E-02  0.8109656E-01
       -1   -1    0    0    0  501  0.00000000000E+00  0.00000000000E+00  0.20923452360E+04  0.20923452360E+04  0.50400001928E-02 0.  1.
        1   -1    0    0  501    0  0.00000000000E+00  0.00000000000E+00 -0.14783402678E+04  0.14783402678E+04  0.50400001928E-02 0. -1.
    10030    2    1    2    0    0  0.00000000000E+00  0.00000000000E+00  0.61400496818E+03  0.35706855039E+04  0.35174980976E+04 0.  0.
        1    1    3    3  502    0  0.97635706329E+02 -0.81416122904E+03  0.18864231292E+04  0.20569354536E+04  0.50400001928E-02 0.  1.
       -1    1    3    3    0  502 -0.97635706329E+02  0.81416122904E+03 -0.12724181610E+04  0.15137500502E+04  0.50400001928E-02 0. -1.
</event>
<event>
 5   0  0.8950809E-07  0.2873928E+04  0.7818609E-02  0.8280677E-01
        2   -1    0    0  501    0  0.00000000000E+00  0.00000000000E+00  0.13683536877E+04  0.13683536877E+04  0.25500000920E-02 0.  1.
       -2   -1    0    0    0  501  0.00000000000E+00  0.00000000000E+00 -0.15090144868E+04  0.15090144868E+04  0.25500000920E-02 0. -1.
    10030    2    1    2    0    0  0.00000000000E+00  0.00000000000E+00 -0.14066079909E+03  0.28773681745E+04  0.28739280003E+04 0.  0.
        2    1    3    3  502    0  0.27842780663E+02 -0.21872413655E+03 -0.14919773236E+04  0.15081816212E+04  0.25500000920E-02 0. -1.
       -2    1    3    3    0  502 -0.27842780663E+02  0.21872413655E+03  0.13513165245E+04  0.13691865533E+04  0.25500000920E-02 0.  1.
</event>
<event>
 5   0  0.9311672E-07  0.3392912E+04  0.7818609E-02  0.8139648E-01
        2   -1    0    0  501    0  0.00000000000E+00  0.00000000000E+00  0.18581342697E+04  0.18581342697E+04  0.25500000920E-02 0. -1.
       -2   -1    0    0    0  501  0.00000000000E+00  0.00000000000E+00 -0.15488456760E+04  0.15488456760E+04  0.25500000920E-02 0.  1.
    10030    2    1    2    0    0  0.00000000000E+00  0.00000000000E+00  0.30928859368E+03  0.34069799456E+04  0.33929121586E+04 0.  0.
        4    1    3    3  502    0  0.76125244933E+03 -0.21394440329E+03 -0.13524731925E+04  0.15666725403E+04  0.12699999809E+01 0.  1.
       -4    1    3    3    0  502 -0.76125244933E+03  0.21394440329E+03  0.16617617862E+04  0.18403074053E+04  0.12699999809E+01 0. -1.
</event>
<event>
 5   0  0.3026332E-07  0.3462794E+04  0.7818609E-02  0.8122664E-01
        1   -1    0    0  501    0  0.00000000000E+00  0.00000000000E+00  0.20841737170E+04  0.20841737170E+04  0.50400001928E-02 0.  1.
       -1   -1    0    0    0  501  0.00000000000E+00  0.00000000000E+00 -0.14383328827E+04  0.14383328827E+04  0.50400001928E-02 0. -1.
    10030    2    1    2    0    0  0.00000000000E+00  0.00000000000E+00  0.64584083430E+03  0.35225065997E+04  0.34627940109E+04 0.  0.
        1    1    3    3  502    0  0.16056798536E+04 -0.61284686011E+03  0.10967121066E+03  0.17221547087E+04  0.50400001928E-02 0. -1.
       -1    1    3    3    0  502 -0.16056798536E+04  0.61284686011E+03  0.53616962364E+03  0.18003518910E+04  0.50400001928E-02 0.  1.
</event>
<event>
 5   0  0.9128871E-07  0.3473278E+04  0.7818609E-02  0.8120152E-01
        2   -1    0    0  501    0  0.00000000000E+00  0.00000000000E+00  0.24010036376E+04  0.24010036376E+04  0.25500000920E-02 0. -1.
       -2   -1    0    0    0  501  0.00000000000E+00  0.00000000000E+00 -0.12561060705E+04  0.12561060705E+04  0.25500000920E-02 0.  1.
    10030    2    1    2    0    0  0.00000000000E+00  0.00000000000E+00  0.11448975672E+04  0.36571097081E+04  0.34732781314E+04 0.  0.
        1    1    3    3  502    0 -0.13143658465E+04 -0.11260776820E+04  0.42240489213E+03  0.17815819984E+04  0.50400001928E-02 0.  1.
       -1    1    3    3    0  502  0.13143658465E+04  0.11260776820E+04  0.72249267505E+03  0.18755277097E+04  0.50400001928E-02 0. -1.
</event>
<event>
 5   0  0.2936607E-07  0.3541272E+04  0.7818609E-02  0.8104078E-01
       -1   -1    0    0    0  501  0.00000000000E+00  0.00000000000E+00  0.14271246785E+04  0.14271246785E+04  0.50400001928E-02 0.  1.
        1   -1    0    0  501    0  0.00000000000E+00  0.00000000000E+00 -0.21968315292E+04  0.21968315292E+04  0.50400001928E-02 0. -1.
    10030    2    1    2    0    0  0.00000000000E+00  0.00000000000E+00 -0.76970685073E+03  0.36239562077E+04  0.35412723644E+04 0.  0.
        2    1    3    3  502    0  0.91366099533E+03 -0.14860836151E+04 -0.74571887129E+02  0.17460761415E+04  0.25500000920E-02 0.  1.
       -2    1    3    3    0  502 -0.91366099533E+03  0.14860836151E+04 -0.69513496360E+03  0.18778800662E+04  0.25500000920E-02 0. -1.
</event>
<event>
 5   0  0.2933506E-07  0.3501778E+04  0.7818609E-02  0.8113369E-01
        1   -1    0    0  501    0  0.00000000000E+00  0.00000000000E+00  0.21308588511E+04  0.21308588511E+04  0.50400001928E-02 0. -1.
       -1   -1    0    0    0  501  0.00000000000E+00  0.00000000000E+00 -0.14386745762E+04  0.14386745762E+04  0.50400001928E-02 0.  1.
    10030    2    1    2    0    0  0.00000000000E+00  0.00000000000E+00  0.69218427487E+03  0.35695334273E+04  0.35017780938E+04 0.  0.
        4    1    3    3  502    0  0.39168225386E+03  0.15199350310E+04  0.11369868653E+04  0.19381326661E+04  0.12699999809E+01 0. -1.
       -4    1    3    3    0  502 -0.39168225386E+03 -0.15199350310E+04 -0.44480259040E+03  0.16314007613E+04  0.12699999809E+01 0.  1.
</event>
<event>
 5   0  0.3026332E-07  0.3491532E+04  0.7818609E-02  0.8115800E-01
        1   -1    0    0  501    0  0.00000000000E+00  0.00000000000E+00  0.12988811094E+04  0.12988811094E+04  0.50400001928E-02 0.  1.
       -1   -1    0    0    0  501  0.00000000000E+00  0.00000000000E+00 -0.23464031129E+04  0.23464031130E+04  0.50400001928E-02 0. -1.
    10030    2    1    2    0    0  0.00000000000E+00  0.00000000000E+00 -0.10475220036E+04  0.36452842223E+04  0.34915318577E+04 0.  0.
        1    1    3    3  502    0  0.15712349317E+04  0.16650118120E+03  0.25135863660E+03  0.15999009401E+04  0.50400001928E-02 0.  1.
       -1    1    3    3    0  502 -0.15712349317E+04 -0.16650118120E+03 -0.12988806402E+04  0.20453832823E+04  0.50400001928E-02 0. -1.
</event>
<event>
 5   0  0.3026332E-07  0.3479459E+04  0.7818609E-02  0.8118675E-01
       -1   -1    0    0    0  501  0.00000000000E+00  0.00000000000E+00  0.18592051229E+04  0.18592051229E+04  0.50400001928E-02 0. -1.
        1   -1    0    0  501    0  0.00000000000E+00  0.00000000000E+00 -0.16279319646E+04  0.16279319646E+04  0.50400001928E-02 0.  1.
    10030    2    1    2    0    0  0.00000000000E+00  0.00000000000E+00  0.23127315828E+03  0.34871370875E+04  0.34794594110E+04 0.  0.
        1    1    3    3  502    0  0.46692636451E+03 -0.64591998282E+02  0.17939861440E+04  0.18548796837E+04  0.50400001928E-02 0. -1.
       -1    1    3    3    0  502 -0.46692636451E+03  0.64591998282E+02 -0.15627129858E+04  0.16322574037E+04  0.50400001928E-02 0.  1.
</event>
<event>
 5   0  0.3026332E-07  0.3524473E+04  0.7818609E-02  0.8108015E-01
        1   -1    0    0  501    0  0.00000000000E+00  0.00000000000E+00  0.27496722110E+04  0.27496722110E+04  0.50400001928E-02 0.  1.
       -1   -1    0    0    0  501  0.00000000000E+00  0.00000000000E+00 -0.11293990770E+04  0.11293990770E+04  0.50400001928E-02 0. -1.
    10030    2    1    2    0    0  0.00000000000E+00  0.00000000000E+00  0.16202731340E+04  0.38790712880E+04  0.35244728724E+04 0.  0.
        1    1    3    3  502    0 -0.11166849142E+04  0.10442038101E+03 -0.68587932606E+03  0.13146555684E+04  0.50400001928E-02 0. -1.
       -1    1    3    3    0  502  0.11166849142E+04 -0.10442038101E+03  0.23061524601E+04  0.25644157196E+04  0.50400001928E-02 0.  1.
</event>
<event>
 5   0  0.2936607E-07  0.3499052E+04  0.7818609E-02  0.8114015E-01
       -1   -1    0    0    0  501  0.00000000000E+00  0.00000000000E+00  0.16539410479E+04  0.16539410480E+04  0.50400001928E-02 0. -1.
        1   -1    0    0  501    0  0.00000000000E+00  0.00000000000E+00 -0.18506354360E+04  0.18506354360E+04  0.50400001928E-02 0.  1.
    10030    2    1    2    0    0  0.00000000000E+00  0.00000000000E+00 -0.19669438802E+03  0.35045764839E+04  0.34990523931E+04 0.  0.
        2    1    3    3  502    0 -0.30182578744E+03 -0.16574098013E+04 -0.57104127641E+03  0.17788182018E+04  0.25500000920E-02 0.  1.
       -2    1    3    3    0  502  0.30182578744E+03  0.16574098013E+04  0.37434688839E+03  0.17257582822E+04  0.25500000920E-02 0. -1.
</event>
<event>
 5   0  0.2933506E-07  0.3510930E+04  0.7818609E-02  0.8111205E-01
        1   -1    0    0  501    0  0.00000000000E+00  0.00000000000E+00  0.22416148284E+04  0.22416148284E+04  0.50400001928E-02 0.  1.
       -1   -1    0    0    0  501  0.00000000000E+00  0.00000000000E+00 -0.13747485124E+04  0.13747485124E+04  0.50400001928E-02 0. -1.
    10030    2    1    2    0    0  0.00000000000E+00  0.00000000000E+00  0.86686631597E+03  0.36163633408E+04  0.35109295924E+04 0.  0.
        4    1    3    3  502    0 -0.17466968027E+04 -0.12404273124E+03  0.56091876277E+03  0.18387408168E+04  0.12699999809E+01 0. -1.
       -4    1    3    3    0  502  0.17466968027E+04  0.12404273124E+03  0.30594755320E+03  0.17776225241E+04  0.12699999809E+01 0.  1.
</event>
<event>
 5   0  0.8950809E-07  0.3472742E+04  0.7818609E-02  0.8120280E-01
        2   -1    0    0  501    0  0.00000000000E+00  0.00000000000E+00  0.26852158958E+04  0.26852158958E+04  0.25500000920E-02 0. -1.
       -2   -1    0    0    0  501  0.00000000000E+00  0.00000000000E+00 -0.11228088799E+04  0.11228088799E+04  0.25500000920E-02 0.  1.
    10030    2    1    2    0    0  0.00000000000E+00  0.00000000000E+00  0.15624070160E+04  0.38080247757E+04  0.34727420015E+04 0.  0.
        2    1    3    3  502    0  0.11025916864E+04  0.37476323273E+03  0.21935067935E+04  0.24834709502E+04  0.25500000920E-02 0. -1.
       -2    1    3    3    0  502 -0.11025916864E+04 -0.37476323273E+03 -0.63109977750E+03  0.13245538255E+04  0.25500000920E-02 0.  1.
</event>
<event>
 5   0  0.8845195E-07  0.3501911E+04  0.7818609E-02  0.8113337E-01
        2   -1    0    0  501    0  0.00000000000E+00  0.00000000000E+00  0.13669604954E+04  0.13669604954E+04  0.25500000920E-02 0.  1.
       -2   -1    0    0    0  501  0.00000000000E+00  0.00000000000E+00 -0.22428194607E+04  0.22428194607E+04  0.25500000920E-02 0. -1.
    10030    2    1    2    0    0  0.00000000000E+00  0.00000000000E+00 -0.87585896525E+03  0.36097799561E+04  0.35019112503E+04 0.  0.
        5    1    3    3  502    0 -0.39513518348E+03  0.12145411972E+04 -0.16725633564E+04  0.21044553699E+04  0.46999998093E+01 0. -1.
       -5    1    3    3    0  502  0.39513518348E+03 -0.12145411972E+04  0.79670439114E+03  0.15053245862E+04  0.46999998093E+01 0.  1.
</event>
<event>
 5   0  0.2972541E-07  0.3531444E+04  0.7818609E-02  0.8106378E-01
        1   -1    0    0  501    0  0.00000000000E+00  0.00000000000E+00  0.24789221915E+04  0.24789221916E+04  0.50400001928E-02 0.  1.
       -1   -1    0    0    0  501  0.00000000000E+00  0.00000000000E+00 -0.12577138155E+04  0.12577138155E+04  0.50400001928E-02 0. -1.
    10030    2    1    2    0    0  0.00000000000E+00  0.00000000000E+00  0.12212083760E+04  0.37366360071E+04  0.35314442869E+04 0.  0.
        3    1    3    3  502    0  0.48859918622E+03 -0.16309737038E+03 -0.11764472642E+04  0.12842733715E+04  0.10100000352E+00 0. -1.
       -3    1    3    3    0  502 -0.48859918622E+03  0.16309737038E+03  0.23976556403E+04  0.24523626356E+04  0.10100000352E+00 0.  1.
</event>
<event>
 5   0  0.9128871E-07  0.3491014E+04  0.7818609E-02  0.8115923E-01
       -2   -1    0    0    0  501  0.00000000000E+00  0.00000000000E+00  0.18451872190E+04  0.18451872190E+04  0.25500000920E-02 0.  1.
        2   -1    0    0  501    0  0.00000000000E+00  0.00000000000E+00 -0.16512112205E+04  0.16512112205E+04  0.25500000920E-02 0. -1.
    10030    2    1    2    0    0  0.00000000000E+00  0.00000000000E+00  0.19397599850E+03  0.34963984395E+04  0.34910135147E+04 0.  0.
        1    1    3    3  502    0 -0.51434462108E+03  0.74398164635E+03 -0.13982095652E+04  0.16652474494E+04  0.50400001928E-02 0. -1.
       -1    1    3    3    0  502  0.51434462108E+03 -0.74398164635E+03  0.15921855637E+04  0.18311509901E+04  0.50400001928E-02 0.  1.
</event>
<event>
 5   0  0.9128871E-07  0.3508352E+04  0.7818609E-02  0.8111813E-01
       -2   -1    0    0    0  501  0.00000000000E+00  0.00000000000E+00  0.12783090002E+04  0.12783090002E+04  0.25500000920E-02 0.  1.
        2   -1    0    0  501    0  0.00000000000E+00  0.00000000000E+00 -0.24071911125E+04  0.24071911125E+04  0.25500000920E-02 0. -1.
    10030    2    1    2    0    0  0.00000000000E+00  0.00000000000E+00 -0.11288821123E+04  0.36855001127E+04  0.35083523565E+04 0.  0.
        1    1    3    3  502    0  0.16487957758E+04 -0.53259953505E+03 -0.85202358386E+03  0.19308376324E+04  0.50400001928E-02 0.  1.
       -1    1    3    3    0  502 -0.16487957758E+04  0.53259953505E+03 -0.27685852841E+03  0.17546624803E+04  0.50400001928E-02 0. -1.
</event>
<event>
 5   0  0.8950809E-07  0.3525936E+04  0.7818609E-02  0.8107671E-01
        2   -1    0    0  501    0  0.00000000000E+00  0.00000000000E+00  0.13888028564E+04  0.13888028564E+04  0.25500000920E-02 0.  1.
       -2   -1    0    0    0  501  0.00000000000E+00  0.00000000000E+00 -0.22379394810E+04  0.22379394810E+04  0.25500000920E-02 0. -1.
    10030    2    1    2    0    0  0.00000000000E+00  0.00000000000E+00 -0.84913662464E+03  0.36267423374E+04  0.35259363259E+04 0.  0.
        2    1    3    3  502    0  0.18348884882E+03 -0.16485806845E+04 -0.10387754058E+04  0.19571767357E+04  0.25500000920E-02 0. -1.
       -2    1    3    3    0  502 -0.18348884882E+03  0.16485806845E+04  0.18963878116E+03  0.16695656017E+04  0.25500000920E-02 0.  1.
</event>
<event>
 5   0  0.8845195E-07  0.3507637E+04  0.7818609E-02  0.8111982E-01
       -2   -1    0    0    0  501  0.00000000000E+00  0.00000000000E+00  0.17368601902E+04  0.17368601902E+04  0.25500000920E-02 0. -1.
        2   -1    0    0  501    0  0.00000000000E+00  0.00000000000E+00 -0.17709427232E+04  0.17709427232E+04  0.25500000920E-02 0.  1.
    10030    2    1    2    0    0  0.00000000000E+00  0.00000000000E+00 -0.34082533089E+02  0.35078029134E+04  0.35076373330E+04 0.  0.
        5    1    3    3  502    0  0.24702904565E+03 -0.90436481221E+03 -0.14993253772E+04  0.17683036334E+04  0.46999998093E+01 0.  1.
       -5    1    3    3    0  502 -0.24702904565E+03  0.90436481221E+03  0.14652428441E+04  0.17394992800E+04  0.46999998093E+01 0. -1.
</event>
<event>
 5   0  0.2936607E-07  0.3517709E+04  0.7818609E-02  0.8109606E-01
       -1   -1    0    0    0  501  0.00000000000E+00  0.00000000000E+00  0.18136591818E+04  0.18136591818E+04  0.50400001928E-02 0. -1.
        1   -1    0    0  501    0  0.00000000000E+00  0.00000000000E+00 -0.17057057007E+04  0.17057057007E+04  0.50400001928E-02 0.  1.
    10030    2    1    2    0    0  0.00000000000E+00  0.00000000000E+00  0.10795348115E+03  0.35193648825E+04  0.35177088029E+04 0.  0.
        2    1    3    3  502    0 -0.76377654924E+01  0.17023331392E+04 -0.38846708762E+03  0.17461108586E+04  0.25500000920E-02 0.  1.
       -2    1    3    3    0  502  0.76377654924E+01 -0.17023331392E+04  0.49642056877E+03  0.17732540239E+04  0.25500000920E-02 0. -1.
</event>
<event>
 5   0  0.9128871E-07  0.3380357E+04  0.7818609E-02  0.8142744E-01
       -2   -1    0    0    0  501  0.00000000000E+00  0.00000000000E+00  0.17435601812E+04  0.17435601812E+04  0.25500000920E-02 0.  1.
        2   -1    0    0  501    0  0.00000000000E+00  0.00000000000E+00 -0.16384312393E+04  0.16384312393E+04  0.25500000920E-02 0. -1.
    10030    2    1    2    0    0  0.00000000000E+00  0.00000000000E+00  0.10512894196E+03  0.33819914205E+04  0.33803570631E+04 0.  0.
        1    1    3    3  502    0 -0.51775286542E+03 -0.82642568981E+03 -0.13285579645E+04  0.16480636261E+04  0.50400001928E-02 0. -1.
       -1    1    3    3    0  502  0.51775286542E+03  0.82642568981E+03  0.14336869065E+04  0.17339277944E+04  0.50400001928E-02 0.  1.
</event>
<event>
 5   0  0.2933506E-07  0.3526337E+04  0.7818609E-02  0.8107577E-01
        1   -1    0    0  501    0  0.00000000000E+00  0.00000000000E+00  0.14676734000E+04  0.14676734000E+04  0.50400001928E-02 0.  1.
       -1   -1    0    0    0  501  0.00000000000E+00  0.00000000000E+00 -0.21181570614E+04  0.21181570614E+04  0.50400001928E-02 0. -1.
    10030    2    1    2    0    0  0.00000000000E+00  0.00000000000E+00 -0.65048366138E+03  0.35858304614E+04  0.35263367826E+04 0.  0.
        4    1    3    3  502    0 -0.28053233046E+03 -0.61829917852E+03 -0.19798912964E+04  0.20930751112E+04  0.12699999809E+01 0. -1.
       -4    1    3    3    0  502  0.28053233046E+03  0.61829917852E+03  0.13294076350E+04  0.14927553502E+04  0.12699999809E+01 0.  1.
</event>
<event>
 5   0  0.8845195E-07  0.3542977E+04  0.7818609E-02  0.8103680E-01
       -2   -1    0    0    0  501  0.00000000000E+00  0.00000000000E+00  0.16383936138E+04  0.16383936138E+04  0.25500000920E-02 0. -1.
        2   -1    0    0  501    0  0.00000000000E+00  0.00000000000E+00 -0.19153950984E+04  0.19153950984E+04  0.25500000920E-02 0.  1.
    10030    2    1    2    0    0  0.00000000000E+00  0.00000000000E+00 -0.27700148459E+03  0.35537887122E+04  0.35429767694E+04 0.  0.
        5    1    3    3  502    0  0.73124027830E+03 -0.15850572980E+04 -0.44113328662E+03  0.18004831710E+04  0.46999998093E+01 0.  1.
       -5    1    3    3    0  502 -0.73124027830E+03  0.15850572980E+04  0.16413180204E+03  0.17533055412E+04  0.46999998093E+01 0. -1.
</event>
<event>
 5   0  0.3026332E-07  0.3454225E+04  0.7818609E-02  0.8124724E-01
        1   -1    0    0  501    0  0.00000000000E+00  0.00000000000E+00  0.25223893840E+04  0.25223893840E+04  0.50400001928E-02 0.  1.
       -1   -1    0    0    0  501  0.00000000000E+00  0.00000000000E+00 -0.11825765067E+04  0.11825765067E+04  0.50400001928E-02 0. -1.
    10030    2    1    2    0    0  0.00000000000E+00  0.00000000000E+00  0.13398128772E+04  0.37049658907E+04  0.34542254856E+04 0.  0.
        1    1    3    3  502    0  0.10747720499E+04 -0.11470357101E+04 -0.97645472653E+02  0.15749160352E+04  0.50400001928E-02 0. -1.
       -1    1    3    3    0  502 -0.10747720499E+04  0.11470357101E+04  0.14374583499E+04  0.21300498555E+04  0.50400001928E-02 0.  1.
</event>
<event>
 5   0  0.3061330E-07  0.3441838E+04  0.7818609E-02  0.8127714E-01
        1   -1    0    0  501    0  0.00000000000E+00  0.00000000000E+00  0.13770736760E+04  0.13770736760E+04  0.50400001928E-02 0. -1.
       -1   -1    0    0    0  501  0.00000000000E+00  0.00000000000E+00 -0.21506200117E+04  0.21506200117E+04  0.50400001928E-02 0.  1.
    10030    2    1    2    0    0  0.00000000000E+00  0.00000000000E+00 -0.77354633570E+03  0.35276936876E+04  0.34418380003E+04 0.  0.
        5    1    3    3  502    0 -0.13244126189E+04 -0.10988020389E+04 -0.37625016021E+03  0.17615393776E+04  0.46999998093E+01 0. -1.
       -5    1    3    3    0  502  0.13244126189E+04  0.10988020389E+04 -0.39729617549E+03  0.17661543100E+04  0.46999998093E+01 0.  1.
</event>
<event>
 5   0  0.8845195E-07  0.3553066E+04  0.7818609E-02  0.8101328E-01
       -2   -1    0    0    0  501  0.00000000000E+00  0.00000000000E+00  0.19910063863E+04  0.19910063863E+04  0.25500000920E-02 0.  1.
        2   -1    0    0  501    0  0.00000000000E+00  0.00000000000E+00 -0.15851628657E+04  0.15851628657E+04  0.25500000920E-02 0. -1.
    10030    2    1    2    0    0  0.00000000000E+00  0.00000000000E+00  0.40584352059E+03  0.35761692520E+04  0.35530659374E+04 0.  0.
        5    1    3    3  502    0 -0.34461056984E+03  0.10622869923E+04  0.15935122108E+04  0.19458965427E+04  0.46999998093E+01 0.  1.
       -5    1    3    3    0  502  0.34461056984E+03 -0.10622869923E+04 -0.11876686903E+04  0.16302727093E+04  0.46999998093E+01 0. -1.
</event>
<event>
 5   0  0.9128871E-07  0.3520164E+04  0.7818609E-02  0.8109028E-01
       -2   -1    0    0    0  501  0.00000000000E+00  0.00000000000E+00  0.17535752600E+04  0.17535752600E+04  0.25500000920E-02 0. -1.
        2   -1    0    0  501    0  0.00000000000E+00  0.00000000000E+00 -0.17666130863E+04  0.17666130863E+04  0.25500000920E-02 0.  1.
    10030    2    1    2    0    0  0.00000000000E+00  0.00000000000E+00 -0.13037826359E+02  0.35201883463E+04  0.35201642019E+04 0.  0.
        1    1    3    3  502    0 -0.68943728854E+02  0.41522984143E+03 -0.17155420286E+04  0.17664239329E+04  0.50400001928E-02 0.  1.
       -1    1    3    3    0  502  0.68943728854E+02 -0.41522984143E+03  0.17025042022E+04  0.17537644134E+04  0.50400001928E-02 0. -1.
</event>
<event>
 5   0  0.6188930E-07  0.3606877E+04  0.7818609E-02  0.8088918E-01
        2   -1    0    0  501    0  0.00000000000E+00  0.00000000000E+00  0.18634494875E+04  0.18634494875E+04  0.25500000920E-02 0. -1.
       -2   -1    0    0    0  501  0.00000000000E+00  0.00000000000E+00 -0.17453597128E+04  0.17453597128E+04  0.25500000920E-02 0.  1.
    10030    2    1    2    0    0  0.00000000000E+00  0.00000000000E+00  0.11808977468E+03  0.36088092003E+04  0.36068765780E+04 0.  0.
        3    1    3    3  502    0 -0.42234273879E+03 -0.16809173162E+04  0.55784308969E+03  0.18207265956E+04  0.10100000352E+00 0.  1.
       -3    1    3    3    0  502  0.42234273879E+03  0.16809173162E+04 -0.43975331502E+03  0.17880826047E+04  0.10100000352E+00 0. -1.
</event>
<event>
 5   0  0.3026332E-07  0.3045642E+04  0.7818609E-02  0.8230816E-01
        1   -1    0    0  501    0  0.00000000000E+00  0.00000000000E+00  0.14259589462E+04  0.14259589462E+04  0.50400001928E-02 0.  1.
       -1   -1    0    0    0  501  0.00000000000E+00  0.00000000000E+00 -0.16262624197E+04  0.16262624197E+04  0.50400001928E-02 0. -1.
    10030    2    1    2    0    0  0.00000000000E+00  0.00000000000E+00 -0.20030347343E+03  0.30522213659E+04  0.30456417690E+04 0.  0.
        1    1    3    3  502    0 -0.30830038084E+03 -0.15484481234E+03 -0.15865813344E+04  0.16236583296E+04  0.50400001928E-02 0. -1.
       -1    1    3    3    0  502  0.30830038084E+03  0.15484481234E+03  0.13862778610E+04  0.14285630363E+04  0.50400001928E-02 0.  1.
</event>
<event>
 5   0  0.2936607E-07  0.3631501E+04  0.7818609E-02  0.8083314E-01
        1   -1    0    0  501    0  0.00000000000E+00  0.00000000000E+00  0.25474107761E+04  0.25474107761E+04  0.50400001928E-02 0.  1.
       -1   -1    0    0    0  501  0.00000000000E+00  0.00000000000E+00 -0.12942354833E+04  0.12942354833E+04  0.50400001928E-02 0. -1.
    10030    2    1    2    0    0  0.00000000000E+00  0.00000000000E+00  0.12531752927E+04  0.38416462594E+04  0.36315007460E+04 0.  0.
        2    1    3    3  502    0  0.65625279338E+03 -0.22666710867E+03 -0.11482678766E+04  0.13418512673E+04  0.25500000920E-02 0. -1.
       -2    1    3    3    0  502 -0.65625279338E+03  0.22666710867E+03  0.24014431694E+04  0.24997949921E+04  0.25500000920E-02 0.  1.
</event>
<event>
 5   0  0.3061330E-07  0.3518085E+04  0.7818609E-02  0.8109517E-01
        1   -1    0    0  501    0  0.00000000000E+00  0.00000000000E+00  0.22851464276E+04  0.22851464276E+04  0.50400001928E-02 0. -1.
       -1   -1    0    0    0  501  0.00000000000E+00  0.00000000000E+00 -0.13540619081E+04  0.13540619081E+04  0.50400001928E-02 0.  1.
    10030    2    1    2    0    0  0.00000000000E+00  0.00000000000E+00  0.93108451947E+03  0.36392083357E+04  0.35180845539E+04 0.  0.
        5    1    3    3  502    0 -0.19445683004E+03 -0.80023722955E+03  0.20734103603E+04  0.22309741581E+04  0.46999998093E+01 0. -1.
       -5    1    3    3    0  502  0.19445683004E+03  0.80023722955E+03 -0.11423258408E+04  0.14082341776E+04  0.46999998093E+01 0.  1.
</event>
<event>
 5   0  0.2933506E-07  0.3514266E+04  0.7818609E-02  0.8110417E-01
        1   -1    0    0  501    0  0.00000000000E+00  0.00000000000E+00  0.23614887281E+04  0.23614887281E+04  0.50400001928E-02 0.  1.
       -1   -1    0    0    0  501  0.00000000000E+00  0.00000000000E+00 -0.13074449314E+04  0.13074449314E+04  0.50400001928E-02 0. -1.
    10030    2    1    2    0    0  0.00000000000E+00  0.00000000000E+00  0.10540437967E+04  0.36689336595E+04  0.35142660503E+04 0.  0.
        4    1    3    3  502    0  0.10924826779E+04  0.11782854518E+04  0.12694012227E+04  0.20477441452E+04  0.12699999809E+01 0.  1.
       -4    1    3    3    0  502 -0.10924826779E+04 -0.11782854518E+04 -0.21535742598E+03  0.16211895142E+04  0.12699999809E+01 0. -1.
</event>
<event>
 5   0  0.2936607E-07  0.3495750E+04  0.7818609E-02  0.8114798E-01
       -1   -1    0    0    0  501  0.00000000000E+00  0.00000000000E+00  0.15011351020E+04  0.15011351020E+04  0.50400001928E-02 0. -1.
        1   -1    0    0  501    0  0.00000000000E+00  0.00000000000E+00 -0.20351714742E+04  0.20351714742E+04  0.50400001928E-02 0.  1.
    10030    2    1    2    0    0  0.00000000000E+00  0.00000000000E+00 -0.53403637226E+03  0.35363065762E+04  0.34957501847E+04 0.  0.
        2    1    3    3  502    0 -0.15998336599E+04 -0.10630279228E+03  0.43697174386E+03  0.16618400429E+04  0.25500000920E-02 0. -1.
       -2    1    3    3    0  502  0.15998336599E+04  0.10630279228E+03 -0.97100811612E+03  0.18744665334E+04  0.25500000920E-02 0.  1.
</event>
<event>
 5   0  0.2972541E-07  0.3364196E+04  0.7818609E-02  0.8146750E-01
        1   -1    0    0  501    0  0.00000000000E+00  0.00000000000E+00  0.14784746968E+04  0.14784746968E+04  0.50400001928E-02 0. -1.
       -1   -1    0    0    0  501  0.00000000000E+00  0.00000000000E+00 -0.19137657559E+04  0.19137657559E+04  0.50400001928E-02 0.  1.
    10030    2    1    2    0    0  0.00000000000E+00  0.00000000000E+00 -0.43529105909E+03  0.33922404528E+04  0.33641963354E+04 0.  0.
        3    1    3    3  502    0 -0.25511862941E+03  0.12725982716E+04  0.86125631098E+03  0.15576759353E+04  0.10100000352E+00 0. -1.
       -3    1    3    3    0  502  0.25511862941E+03 -0.12725982716E+04 -0.12965473701E+04  0.18345645175E+04  0.10100000352E+00 0.  1.
</event>
<event>
 5   0  0.9128871E-07  0.3498710E+04  0.7818609E-02  0.8114096E-01
        2   -1    0    0  501    0  0.00000000000E+00  0.00000000000E+00  0.28858264783E+04  0.28858264783E+04  0.25500000920E-02 0.  1.
       -2   -1    0    0    0  501  0.00000000000E+00  0.00000000000E+00 -0.10604388669E+04  0.10604388669E+04  0.25500000920E-02 0. -1.
    10030    2    1    2    0    0  0.00000000000E+00  0.00000000000E+00  0.18253876114E+04  0.39462653453E+04  0.34987097970E+04 0.  0.
        1    1    3    3  502    0  0.25906218589E+03  0.14923305931E+04 -0.74528749573E+02  0.15164822286E+04  0.50400001928E-02 0. -1.
       -1    1    3    3    0  502 -0.25906218589E+03 -0.14923305931E+04  0.18999163610E+04  0.24297831166E+04  0.50400001928E-02 0.  1.
</event>
<event>
 5   0  0.3061330E-07  0.3496798E+04  0.7818609E-02  0.8114549E-01
       -1   -1    0    0    0  501  0.00000000000E+00  0.00000000000E+00  0.32431340012E+04  0.32431340012E+04  0.50400001928E-02 0.  1.
        1   -1    0    0  501    0  0.00000000000E+00  0.00000000000E+00 -0.94257568553E+03  0.94257568554E+03  0.50400001928E-02 0. -1.
    10030    2    1    2    0    0  0.00000000000E+00  0.00000000000E+00  0.23005583157E+04  0.41857096867E+04  0.34967981094E+04 0.  0.
        5    1    3    3  502    0 -0.14330248170E+04  0.75581040923E+03  0.36346090412E+03  0.16604021861E+04  0.46999998093E+01 0. -1.
       -5    1    3    3    0  502  0.14330248170E+04 -0.75581040923E+03  0.19370974115E+04  0.25253075006E+04  0.46999998093E+01 0.  1.
</event>
<event>
 5   0  0.8950809E-07  0.3491797E+04  0.7818609E-02  0.8115737E-01
       -2   -1    0    0    0  501  0.00000000000E+00  0.00000000000E+00  0.25224305126E+04  0.25224305126E+04  0.25500000920E-02 0. -1.
        2   -1    0    0  501    0  0.00000000000E+00  0.00000000000E+00 -0.12084225708E+04  0.12084225708E+04  0.25500000920E-02 0.  1.
    10030    2    1    2    0    0  0.00000000000E+00  0.00000000000E+00  0.13140079418E+04  0.37308530833E+04  0.34917972247E+04 0.  0.
        2    1    3    3  502    0  0.52127902089E+02 -0.89121583410E+03 -0.94610906157E+03  0.13008094932E+04  0.25500000920E-02 0.  1.
       -2    1    3    3    0  502 -0.52127902089E+02  0.89121583410E+03  0.22601170034E+04  0.24300435902E+04  0.25500000920E-02 0. -1.
</event>
<event>
 5   0  0.2936607E-07  0.3509012E+04  0.7818609E-02  0.8111658E-01
        1   -1    0    0  501    0  0.00000000000E+00  0.00000000000E+00  0.23536935632E+04  0.23536935632E+04  0.50400001928E-02 0. -1.
       -1   -1    0    0    0  501  0.00000000000E+00  0.00000000000E+00 -0.13078553724E+04  0.13078553724E+04  0.50400001928E-02 0.  1.
    10030    2    1    2    0    0  0.00000000000E+00  0.00000000000E+00  0.10458381908E+04  0.36615489356E+04  0.35090116966E+04 0.  0.
        2    1    3    3  502    0 -0.34986840559E+03 -0.11676103582E+04  0.18397473763E+04  0.22068965219E+04  0.25500000920E-02 0. -1.
       -2    1    3    3    0  502  0.34986840559E+03  0.11676103582E+04 -0.79390918551E+03  0.14546524137E+04  0.25500000920E-02 0.  1.
</event>
<event>
 5   0  0.6188930E-07  0.3431427E+04  0.7818609E-02  0.8130236E-01
        2   -1    0    0  501    0  0.00000000000E+00  0.00000000000E+00  0.19481884181E+04  0.19481884181E+04  0.25500000920E-02 0. -1.
       -2   -1    0    0    0  501  0.00000000000E+00  0.00000000000E+00 -0.15109796730E+04  0.15109796730E+04  0.25500000920E-02 0.  1.
    10030    2    1    2    0    0  0.00000000000E+00  0.00000000000E+00  0.43720874505E+03  0.34591680911E+04  0.34314271660E+04 0.  0.
        3    1    3    3  502    0 -0.77877534231E+02 -0.12185075290E+04  0.14336900679E+04  0.18831603038E+04  0.10100000352E+00 0. -1.
       -3    1    3    3    0  502  0.77877534231E+02  0.12185075290E+04 -0.99648132289E+03  0.15760077873E+04  0.10100000352E+00 0.  1.
</event>
<event>
 5   0  0.2933506E-07  0.3492465E+04  0.7818609E-02  0.8115578E-01
        1   -1    0    0  501    0  0.00000000000E+00  0.00000000000E+00  0.18022159707E+04  0.18022159707E+04  0.50400001928E-02 0.  1.
       -1   -1    0    0    0  501  0.00000000000E+00  0.00000000000E+00 -0.16919885317E+04  0.16919885317E+04  0.50400001928E-02 0. -1.
    10030    2    1    2    0    0  0.00000000000E+00  0.00000000000E+00  0.11022743894E+03  0.34942045024E+04  0.34924654639E+04 0.  0.
        4    1    3    3  502    0 -0.71699932647E+03 -0.12512842696E+04 -0.93002208671E+03  0.17160253646E+04  0.12699999809E+01 0. -1.
       -4    1    3    3    0  502  0.71699932647E+03  0.12512842696E+04  0.10402495256E+04  0.17781791378E+04  0.12699999809E+01 0.  1.
</event>
<event>
 5   0  0.6188930E-07  0.3470346E+04  0.7818609E-02  0.8120854E-01
       -2   -1    0    0    0  501  0.00000000000E+00  0.00000000000E+00  0.20006310149E+04  0.20006310149E+04  0.25500000920E-02 0. -1.
        2   -1    0    0  501    0  0.00000000000E+00  0.00000000000E+00 -0.15049381465E+04  0.15049381465E+04  0.25500000920E-02 0.  1.
    10030    2    1    2    0    0  0.00000000000E+00  0.00000000000E+00  0.49569286841E+03  0.35055691614E+04  0.34703463408E+04 0.  0.
        3    1    3    3  502    0 -0.13994547995E+04 -0.36917811879E+03 -0.71897798180E+03  0.16160741220E+04  0.10100000352E+00 0.  1.
       -3    1    3    3    0  502  0.13994547995E+04  0.36917811879E+03  0.12146708502E+04  0.18894950394E+04  0.10100000352E+00 0. -1.
</event>
<event>
 5   0  0.2972541E-07  0.3441664E+04  0.7818609E-02  0.8127756E-01
       -1   -1    0    0    0  501  0.00000000000E+00  0.00000000000E+00  0.19153542979E+04  0.19153542979E+04  0.50400001928E-02 0. -1.
        1   -1    0    0  501    0  0.00000000000E+00  0.00000000000E+00 -0.15460648778E+04  0.15460648778E+04  0.50400001928E-02 0.  1.
    10030    2    1    2    0    0  0.00000000000E+00  0.00000000000E+00  0.36928942010E+03  0.34614191757E+04  0.34416635562E+04 0.  0.
        3    1    3    3  502    0 -0.92465726446E+03 -0.11735981514E+04  0.10433243651E+04  0.18223197904E+04  0.10100000352E+00 0. -1.
       -3    1    3    3    0  502  0.92465726446E+03  0.11735981514E+04 -0.67403494500E+03  0.16390993853E+04  0.10100000352E+00 0.  1.
</event>
<event>
 5   0  0.3061330E-07  0.3501923E+04  0.7818609E-02  0.8113334E-01
       -1   -1    0    0    0  501  0.00000000000E+00  0.00000000000E+00  0.12723944271E+04  0.12723944271E+04  0.50400001928E-02 0. -1.
        1   -1    0    0  501    0  0.00000000000E+00  0.00000000000E+00 -0.24095253863E+04  0.24095253863E+04  0.50400001928E-02 0.  1.
    10030    2    1    2    0    0  0.00000000000E+00  0.00000000000E+00 -0.11371309592E+04  0.36819198133E+04  0.35019232849E+04 0.  0.
        5    1    3    3  502    0 -0.79431913343E+02 -0.86187654524E+03  0.10317402862E+04  0.13467184993E+04  0.46999998093E+01 0. -1.
       -5    1    3    3    0  502  0.79431913343E+02  0.86187654524E+03 -0.21688712454E+04  0.23352013141E+04  0.46999998093E+01 0.  1.
</event>
<event>
 5   0  0.3026332E-07  0.3476731E+04  0.7818609E-02  0.8119327E-01
       -1   -1    0    0    0  501  0.00000000000E+00  0.00000000000E+00  0.14953605548E+04  0.14953605548E+04  0.50400001928E-02 0. -1.
        1   -1    0    0  501    0  0.00000000000E+00  0.00000000000E+00 -0.20208598950E+04  0.20208598950E+04  0.50400001928E-02 0.  1.
    10030    2    1    2    0    0  0.00000000000E+00  0.00000000000E+00 -0.52549934014E+03  0.35162204498E+04  0.34767307482E+04 0.  0.
        1    1    3    3  502    0 -0.15355660905E+04  0.60232128816E+03 -0.81776336115E+03  0.18410570516E+04  0.50400001928E-02 0.  1.
       -1    1    3    3    0  502  0.15355660905E+04 -0.60232128816E+03  0.29226402102E+03  0.16751633982E+04  0.50400001928E-02 0. -1.
</event>
<event>
 5   0  0.6188930E-07  0.3462515E+04  0.7818609E-02  0.8122731E-01
        2   -1    0    0  501    0  0.00000000000E+00  0.00000000000E+00  0.16901829160E+04  0.16901829160E+04  0.25500000920E-02 0. -1.
       -2   -1    0    0    0  501  0.00000000000E+00  0.00000000000E+00 -0.17733304972E+04  0.17733304972E+04  0.25500000920E-02 0.  1.
    10030    2    1    2    0    0  0.00000000000E+00  0.00000000000E+00 -0.83147581244E+02  0.34635134132E+04  0.34625152192E+04 0.  0.
        3    1    3    3  502    0  0.62955707530E+03 -0.15474460919E+04 -0.49593087325E+03  0.17426643279E+04  0.10100000352E+00 0.  1.
       -3    1    3    3    0  502 -0.62955707530E+03  0.15474460919E+04  0.41278329201E+03  0.17208490854E+04  0.10100000352E+00 0. -1.
</event>
<event>
 5   0  0.9128871E-07  0.3518611E+04  0.7818609E-02  0.8109393E-01
       -2   -1    0    0    0  501  0.00000000000E+00  0.00000000000E+00  0.17309880830E+04  0.17309880830E+04  0.25500000920E-02 0.  1.
        2   -1    0    0  501    0  0.00000000000E+00  0.00000000000E+00 -0.17880863645E+04  0.17880863645E+04  0.25500000920E-02 0. -1.
    10030    2    1    2    0    0  0.00000000000E+00  0.00000000000E+00 -0.57098281525E+02  0.35190744475E+04  0.35186111966E+04 0.  0.
        1    1    3    3  502    0  0.22792524033E+03 -0.35973269266E+03 -0.17357591334E+04  0.17872373359E+04  0.50400001928E-02 0. -1.
       -1    1    3    3    0  502 -0.22792524033E+03  0.35973269266E+03  0.16786608519E+04  0.17318371116E+04  0.50400001928E-02 0.  1.
</event>
<event>
 5   0  0.9128871E-07  0.3501022E+04  0.7818609E-02  0.8113548E-01
        2   -1    0    0  501    0  0.00000000000E+00  0.00000000000E+00  0.25405900124E+04  0.25405900124E+04  0.25500000920E-02 0. -1.
       -2   -1    0    0    0  501  0.00000000000E+00  0.00000000000E+00 -0.12061326565E+04  0.12061326565E+04  0.25500000920E-02 0.  1.
    10030    2    1    2    0    0  0.00000000000E+00  0.00000000000E+00  0.13344573559E+04  0.37467226689E+04  0.35010218970E+04 0.  0.
        1    1    3    3  502    0  0.91369173140E+03 -0.53507500209E+02  0.22641265257E+04  0.24421229610E+04  0.50400001928E-02 0. -1.
       -1    1    3    3    0  502 -0.91369173140E+03  0.53507500209E+02 -0.92966916978E+03  0.13045997079E+04  0.50400001928E-02 0.  1.
</event>
<event>
 5   0  0.2907000E-07  0.3507867E+04  0.7818609E-02  0.8111928E-01
        4   -1    0    0  501    0  0.00000000000E+00  0.00000000000E+00  0.16329552926E+04  0.16329557864E+04  0.12699999809E+01 0. -1.
       -4   -1    0    0    0  501  0.00000000000E+00  0.00000000000E+00 -0.18838729745E+04  0.18838734026E+04  0.12699999809E+01 0.  1.
    10030    2    1    2    0    0  0.00000000000E+00  0.00000000000E+00 -0.25091768198E+03  0.35168291890E+04  0.35078665684E+04 0.  0.
        4    1    3    3  502    0 -0.10327534969E+04  0.71563645191E+03  0.11014182465E+04  0.16708797333E+04  0.12699999809E+01 0. -1.
       -4    1    3    3    0  502  0.10327534969E+04 -0.71563645191E+03 -0.13523359284E+04  0.18459494557E+04  0.12699999809E+01 0.  1.
</event>
<event>
 5   0  0.8845195E-07  0.3511518E+04  0.7818609E-02  0.8111066E-01
       -2   -1    0    0    0  501  0.00000000000E+00  0.00000000000E+00  0.11649080132E+04  0.11649080132E+04  0.25500000920E-02 0. -1.
        2   -1    0    0  501    0  0.00000000000E+00  0.00000000000E+00 -0.26462937692E+04  0.26462937692E+04  0.25500000920E-02 0.  1.
    10030    2    1    2    0    0  0.00000000000E+00  0.00000000000E+00 -0.14813857559E+04  0.38112017824E+04  0.35115175165E+04 0.  0.
        5    1    3    3  502    0  0.30589740128E+03 -0.17195140576E+04 -0.54543690717E+03  0.18297063492E+04  0.46999998093E+01 0. -1.
       -5    1    3    3    0  502 -0.30589740128E+03  0.17195140576E+04 -0.93594884875E+03  0.19814954332E+04  0.46999998093E+01 0.  1.
</event>
<event>
 5   0  0.8950809E-07  0.3515438E+04  0.7818609E-02  0.8110141E-01
       -2   -1    0    0    0  501  0.00000000000E+00  0.00000000000E+00  0.10475390033E+04  0.10475390033E+04  0.25500000920E-02 0. -1.
        2   -1    0    0  501    0  0.00000000000E+00  0.00000000000E+00 -0.29493659842E+04  0.29493659842E+04  0.25500000920E-02 0.  1.
    10030    2    1    2    0    0  0.00000000000E+00  0.00000000000E+00 -0.19018269809E+04  0.39969049876E+04  0.35154378979E+04 0.  0.
        2    1    3    3  502    0 -0.10884448343E+04  0.90902803925E+03  0.22984442476E+03  0.14366184577E+04  0.25500000920E-02 0. -1.
       -2    1    3    3    0  502  0.10884448343E+04 -0.90902803925E+03 -0.21316714057E+04  0.25602865299E+04  0.25500000920E-02 0.  1.
</event>
<event>
 5   0  0.3061330E-07  0.3511421E+04  0.7818609E-02  0.8111089E-01
       -1   -1    0    0    0  501  0.00000000000E+00  0.00000000000E+00  0.11724238475E+04  0.11724238475E+04  0.50400001928E-02 0.  1.
        1   -1    0    0  501    0  0.00000000000E+00  0.00000000000E+00 -0.26291844446E+04  0.26291844446E+04  0.50400001928E-02 0. -1.
    10030    2    1    2    0    0  0.00000000000E+00  0.00000000000E+00 -0.14567605971E+04  0.38016082922E+04  0.35114205345E+04 0.  0.
        5    1    3    3  502    0  0.43223556624E+03  0.15878341004E+04 -0.65885540012E+02  0.16469388907E+04  0.46999998093E+01 0.  1.
       -5    1    3    3    0  502 -0.43223556624E+03 -0.15878341004E+04 -0.13908750571E+04  0.21546694015E+04  0.46999998093E+01 0. -1.
</event>
<event>
 5   0  0.2933506E-07  0.3497183E+04  0.7818609E-02  0.8114458E-01
       -1   -1    0    0    0  501  0.00000000000E+00  0.00000000000E+00  0.24460310626E+04  0.24460310626E+04  0.50400001928E-02 0. -1.
        1   -1    0    0  501    0  0.00000000000E+00  0.00000000000E+00 -0.12500137869E+04  0.12500137869E+04  0.50400001928E-02 0.  1.
    10030    2    1    2    0    0  0.00000000000E+00  0.00000000000E+00  0.11960172757E+04  0.36960448495E+04  0.34971831816E+04 0.  0.
        4    1    3    3  502    0  0.13502081846E+04 -0.79442452744E+03 -0.22294938714E+03  0.15823654805E+04  0.12699999809E+01 0.  1.
       -4    1    3    3    0  502 -0.13502081846E+04  0.79442452744E+03  0.14189666629E+04  0.21136793690E+04  0.12699999809E+01 0. -1.
</event>
<event>
 5   0  0.2972541E-07  0.3482241E+04  0.7818609E-02  0.8118012E-01
       -1   -1    0    0    0  501  0.00000000000E+00  0.00000000000E+00  0.15723532288E+04  0.15723532288E+04  0.50400001928E-02 0. -1.
        1   -1    0    0  501    0  0.00000000000E+00  0.00000000000E+00 -0.19280021246E+04  0.19280021246E+04  0.50400001928E-02 0.  1.
    10030    2    1    2    0    0  0.00000000000E+00  0.00000000000E+00 -0.35564889578E+03  0.35003553534E+04  0.34822408680E+04 0.  0.
        3    1    3    3  502    0 -0.20001342554E+03 -0.11768782103E+04  0.10962279633E+04  0.16207292957E+04  0.10100000352E+00 0. -1.
       -3    1    3    3    0  502  0.20001342554E+03  0.11768782103E+04 -0.14518768591E+04  0.18796260576E+04  0.10100000352E+00 0.  1.
</event>
<event>
 5   0  0.2972541E-07  0.3506208E+04  0.7818609E-02  0.8112320E-01
       -1   -1    0    0    0  501  0.00000000000E+00  0.00000000000E+00  0.19398425145E+04  0.19398425145E+04  0.50400001928E-02 0.  1.
        1   -1    0    0  501    0  0.00000000000E+00  0.00000000000E+00 -0.15843421057E+04  0.15843421057E+04  0.50400001928E-02 0. -1.
    10030    2    1    2    0    0  0.00000000000E+00  0.00000000000E+00  0.35550040887E+03  0.35241846202E+04  0.35062083077E+04 0.  0.
        3    1    3    3  502    0 -0.13182386409E+04 -0.10896934369E+04 -0.20917703648E+03  0.17230612129E+04  0.10100000352E+00 0. -1.
       -3    1    3    3    0  502  0.13182386409E+04  0.10896934369E+04  0.56467744535E+03  0.18011234073E+04  0.10100000352E+00 0.  1.
</event>
<event>
 5   0  0.8950809E-07  0.3534241E+04  0.7818609E-02  0.8105723E-01
       -2   -1    0    0    0  501  0.00000000000E+00  0.00000000000E+00  0.16825485221E+04  0.16825485221E+04  0.25500000920E-02 0.  1.
        2   -1    0    0  501    0  0.00000000000E+00  0.00000000000E+00 -0.18559428993E+04  0.18559428993E+04  0.25500000920E-02 0. -1.
    10030    2    1    2    0    0  0.00000000000E+00  0.00000000000E+00 -0.17339437717E+03  0.35384914214E+04  0.35342405025E+04 0.  0.
        2    1    3    3  502    0 -0.30563905217E+03 -0.15483358508E+04  0.70921484588E+03  0.17302441547E+04  0.25500000920E-02 0.  1.
       -2    1    3    3    0  502  0.30563905217E+03  0.15483358508E+04 -0.88260922305E+03  0.18082472667E+04  0.25500000920E-02 0. -1.
</event>
<event>
 5   0  0.8950809E-07  0.3440286E+04  0.7818609E-02  0.8128089E-01
        2   -1    0    0  501    0  0.00000000000E+00  0.00000000000E+00  0.22121972368E+04  0.22121972368E+04  0.25500000920E-02 0.  1.
       -2   -1    0    0    0  501  0.00000000000E+00  0.00000000000E+00 -0.13375352087E+04  0.13375352087E+04  0.25500000920E-02 0. -1.
    10030    2    1    2    0    0  0.00000000000E+00  0.00000000000E+00  0.87466202807E+03  0.35497324456E+04  0.34402858561E+04 0.  0.
        2    1    3    3  502    0 -0.14734850986E+04 -0.86478414685E+03  0.23127365939E+03  0.17240932289E+04  0.25500000920E-02 0.  1.
       -2    1    3    3    0  502  0.14734850986E+04  0.86478414685E+03  0.64338836868E+03  0.18256392167E+04  0.25500000920E-02 0. -1.
</event>
<event>
 5   0  0.2933506E-07  0.3507501E+04  0.7818609E-02  0.8112015E-01
        1   -1    0    0  501    0  0.00000000000E+00  0.00000000000E+00  0.15107883755E+04  0.15107883755E+04  0.50400001928E-02 0.  1.
       -1   -1    0    0    0  501  0.00000000000E+00  0.00000000000E+00 -0.20357855438E+04  0.20357855438E+04  0.50400001928E-02 0. -1.
    10030    2    1    2    0    0  0.00000000000E+00  0.00000000000E+00 -0.52499716830E+03  0.35465739192E+04  0.35075011814E+04 0.  0.
        4    1    3    3  502    0  0.15067903287E+04  0.55980422104E+03 -0.97162529822E+03  0.18782585534E+04  0.12699999809E+01 0. -1.
       -4    1    3    3    0  502 -0.15067903287E+04 -0.55980422104E+03  0.44662812992E+03  0.16683153658E+04  0.12699999809E+01 0.  1.
</event>
<event>
 5   0  0.3026332E-07  0.3524782E+04  0.7818609E-02  0.8107942E-01
        1   -1    0    0  501    0  0.00000000000E+00  0.00000000000E+00  0.26010797132E+04  0.26010797132E+04  0.50400001928E-02 0. -1.
       -1   -1    0    0    0  501  0.00000000000E+00  0.00000000000E+00 -0.11941280810E+04  0.11941280810E+04  0.50400001928E-02 0.  1.
    10030    2    1    2    0    0  0.00000000000E+00  0.00000000000E+00  0.14069516321E+04  0.37952077942E+04  0.35247821643E+04 0.  0.
        1    1    3    3  502    0 -0.11345990151E+03  0.77648091067E+03 -0.99563892816E+03  0.12677115718E+04  0.50400001928E-02 0.  1.
       -1    1    3    3    0  502  0.11345990151E+03 -0.77648091067E+03  0.24025905603E+04  0.25274962224E+04  0.50400001928E-02 0. -1.
</event>
<event>
 5   0  0.2933506E-07  0.3504650E+04  0.7818609E-02  0.8112689E-01
       -1   -1    0    0    0  501  0.00000000000E+00  0.00000000000E+00  0.10092973440E+04  0.10092973440E+04  0.50400001928E-02 0. -1.
        1   -1    0    0  501    0  0.00000000000E+00  0.00000000000E+00 -0.30423565996E+04  0.30423565996E+04  0.50400001928E-02 0.  1.
    10030    2    1    2    0    0  0.00000000000E+00  0.00000000000E+00 -0.20330592556E+04  0.40516539436E+04  0.35046497316E+04 0.  0.
        4    1    3    3  502    0  0.86857206819E+03 -0.15005575486E+04 -0.13102521768E+04  0.21732125469E+04  0.12699999809E+01 0.  1.
       -4    1    3    3    0  502 -0.86857206819E+03  0.15005575486E+04 -0.72280707882E+03  0.18784413966E+04  0.12699999809E+01 0. -1.
</event>
<event>
 5   0  0.3061330E-07  0.3504385E+04  0.7818609E-02  0.8112751E-01
        1   -1    0    0  501    0  0.00000000000E+00  0.00000000000E+00  0.20606958325E+04  0.20606958325E+04  0.50400001928E-02 0.  1.
       -1   -1    0    0    0  501  0.00000000000E+00  0.00000000000E+00 -0.14898750660E+04  0.14898750660E+04  0.50400001928E-02 0. -1.
    10030    2    1    2    0    0  0.00000000000E+00  0.00000000000E+00  0.57082076656E+03  0.35505708985E+04  0.35043854465E+04 0.  0.
        5    1    3    3  502    0 -0.14134080732E+04 -0.12914193452E+03  0.13264526273E+04  0.19426524865E+04  0.46999998093E+01 0.  1.
       -5    1    3    3    0  502  0.14134080732E+04  0.12914193452E+03 -0.75563186072E+03  0.16079184120E+04  0.46999998093E+01 0. -1.
</event>
<event>
 5   0  0.2972541E-07  0.3522831E+04  0.7818609E-02  0.8108401E-01
       -1   -1    0    0    0  501  0.00000000000E+00  0.00000000000E+00  0.12705535960E+04  0.12705535960E+04  0.50400001928E-02 0.  1.
        1   -1    0    0  501    0  0.00000000000E+00  0.00000000000E+00 -0.24419155448E+04  0.24419155448E+04  0.50400001928E-02 0. -1.
    10030    2    1    2    0    0  0.00000000000E+00  0.00000000000E+00 -0.11713619488E+04  0.37124691408E+04  0.35228310074E+04 0.  0.
        3    1    3    3  502    0 -0.14146852382E+04 -0.21410982615E+03 -0.16683135078E+04  0.21978278621E+04  0.10100000352E+00 0. -1.
       -3    1    3    3    0  502  0.14146852382E+04  0.21410982615E+03  0.49695155900E+03  0.15146412787E+04  0.10100000352E+00 0.  1.
</event>
<event>
 5   0  0.9128871E-07  0.3498064E+04  0.7818609E-02  0.8114249E-01
       -2   -1    0    0    0  501  0.00000000000E+00  0.00000000000E+00  0.19976391165E+04  0.19976391165E+04  0.25500000920E-02 0. -1.
        2   -1    0    0  501    0  0.00000000000E+00  0.00000000000E+00 -0.15313640886E+04  0.15313640886E+04  0.25500000920E-02 0.  1.
    10030    2    1    2    0    0  0.00000000000E+00  0.00000000000E+00  0.46627502788E+03  0.35290032051E+04  0.34980639246E+04 0.  0.
        1    1    3    3  502    0 -0.42076391974E+03 -0.55246849259E+03  0.18525922135E+04  0.19784745692E+04  0.50400001928E-02 0. -1.
       -1    1    3    3    0  502  0.42076391974E+03  0.55246849259E+03 -0.13863171857E+04  0.15505286359E+04  0.50400001928E-02 0.  1.
</event>
<event>
 5   0  0.6188930E-07  0.3503284E+04  0.7818609E-02  0.8113012E-01
        2   -1    0    0  501    0  0.00000000000E+00  0.00000000000E+00  0.17917140721E+04  0.17917140721E+04  0.25500000920E-02 0.  1.
       -2   -1    0    0    0  501  0.00000000000E+00  0.00000000000E+00 -0.17124659848E+04  0.17124659848E+04  0.25500000920E-02 0. -1.
    10030    2    1    2    0    0  0.00000000000E+00  0.00000000000E+00  0.79248087327E+02  0.35041800569E+04  0.35032838326E+04 0.  0.
        3    1    3    3  502    0  0.11321128153E+04 -0.20853877084E+02 -0.12971815038E+04  0.17218577684E+04  0.10100000352E+00 0. -1.
       -3    1    3    3    0  502 -0.11321128153E+04  0.20853877084E+02  0.13764295911E+04  0.17823222885E+04  0.10100000352E+00 0.  1.
</event>
<event>
 5   0  0.9128871E-07  0.3525001E+04  0.7818609E-02  0.8107891E-01
       -2   -1    0    0    0  501  0.00000000000E+00  0.00000000000E+00  0.17440573811E+04  0.17440573811E+04  0.25500000920E-02 0. -1.
        2   -1    0    0  501    0  0.00000000000E+00  0.00000000000E+00 -0.17811381505E+04  0.17811381505E+04  0.25500000920E-02 0.  1.
    10030    2    1    2    0    0  0.00000000000E+00  0.00000000000E+00 -0.37080769403E+02  0.35251955317E+04  0.35250005040E+04 0.  0.
        1    1    3    3  502    0 -0.12245339989E+04 -0.11304085847E+04  0.55516378344E+03  0.17565630958E+04  0.50400001928E-02 0. -1.
       -1    1    3    3    0  502  0.12245339989E+04  0.11304085847E+04 -0.59224455284E+03  0.17686324359E+04  0.50400001928E-02 0.  1.
</event>
<event>
 5   0  0.2907000E-07  0.3519593E+04  0.7818609E-02  0.8109162E-01
       -3   -1    0    0    0  501  0.00000000000E+00  0.00000000000E+00  0.15610110271E+04  0.15610110304E+04  0.10100000352E+00 0. -1.
        3   -1    0    0  501    0  0.00000000000E+00  0.00000000000E+00 -0.19838961844E+04  0.19838961869E+04  0.10100000352E+00 0.  1.
    10030    2    1    2    0    0  0.00000000000E+00  0.00000000000E+00 -0.42288515728E+03  0.35449072173E+04  0.35195930621E+04 0.  0.
        3    1    3    3  502    0 -0.77921282306E+03 -0.11876973682E+04 -0.12577046473E+04  0.18972660995E+04  0.10100000352E+00 0.  1.
       -3    1    3    3    0  502  0.77921282306E+03  0.11876973682E+04  0.83481949002E+03  0.16476411178E+04  0.10100000352E+00 0. -1.
</event>
<event>
 5   0  0.6188930E-07  0.3398313E+04  0.7818609E-02  0.8138321E-01
        2   -1    0    0  501    0  0.00000000000E+00  0.00000000000E+00  0.19085114763E+04  0.19085114763E+04  0.25500000920E-02 0. -1.
       -2   -1    0    0    0  501  0.00000000000E+00  0.00000000000E+00 -0.15127666944E+04  0.15127666944E+04  0.25500000920E-02 0.  1.
    10030    2    1    2    0    0  0.00000000000E+00  0.00000000000E+00  0.39574478192E+03  0.34212781707E+04  0.33983128739E+04 0.  0.
        3    1    3    3  502    0  0.11970491694E+04  0.11309502951E+04 -0.22347387610E+03  0.16619012809E+04  0.10100000352E+00 0.  1.
       -3    1    3    3    0  502 -0.11970491694E+04 -0.11309502951E+04  0.61921865802E+03  0.17593768898E+04  0.10100000352E+00 0. -1.
</event>
<event>
 5   0  0.6188930E-07  0.3646735E+04  0.7818609E-02  0.8079870E-01
       -2   -1    0    0    0  501  0.00000000000E+00  0.00000000000E+00  0.25229511274E+04  0.25229511274E+04  0.25500000920E-02 0.  1.
        2   -1    0    0  501    0  0.00000000000E+00  0.00000000000E+00 -0.13177701470E+04  0.13177701470E+04  0.25500000920E-02 0. -1.
    10030    2    1    2    0    0  0.00000000000E+00  0.00000000000E+00  0.12051809804E+04  0.38407212744E+04  0.36467353499E+04 0.  0.
        3    1    3    3  502    0 -0.10591659257E+04 -0.93565210803E+03  0.18160022458E+04  0.23011174443E+04  0.10100000352E+00 0.  1.
       -3    1    3    3    0  502  0.10591659257E+04  0.93565210803E+03 -0.61082126538E+03  0.15396038301E+04  0.10100000352E+00 0. -1.
</event>
<event>
 5   0  0.8845195E-07  0.3520245E+04  0.7818609E-02  0.8109009E-01
       -2   -1    0    0    0  501  0.00000000000E+00  0.00000000000E+00  0.13053972086E+04  0.13053972086E+04  0.25500000920E-02 0. -1.
        2   -1    0    0  501    0  0.00000000000E+00  0.00000000000E+00 -0.23732483125E+04  0.23732483125E+04  0.25500000920E-02 0.  1.
    10030    2    1    2    0    0  0.00000000000E+00  0.00000000000E+00 -0.10678511039E+04  0.36786455211E+04  0.35202452883E+04 0.  0.
        5    1    3    3  502    0  0.99192010794E+02  0.15275196402E+04  0.37399237006E+03  0.15757689200E+04  0.46999998093E+01 0.  1.
       -5    1    3    3    0  502 -0.99192010794E+02 -0.15275196402E+04 -0.14418434740E+04  0.21028766011E+04  0.46999998093E+01 0. -1.
</event>
<event>
 5   0  0.3026332E-07  0.3577545E+04  0.7818609E-02  0.8095655E-01
        1   -1    0    0  501    0  0.00000000000E+00  0.00000000000E+00  0.10061298939E+04  0.10061298939E+04  0.50400001928E-02 0.  1.
       -1   -1    0    0    0  501  0.00000000000E+00  0.00000000000E+00 -0.31802125559E+04  0.31802125559E+04  0.50400001928E-02 0. -1.
    10030    2    1    2    0    0  0.00000000000E+00  0.00000000000E+00 -0.21740826620E+04  0.41863424497E+04  0.35775449243E+04 0.  0.
        1    1    3    3  502    0  0.87569109393E+03  0.15532386181E+04 -0.12538547583E+04  0.21798020212E+04  0.50400001928E-02 0. -1.
       -1    1    3    3    0  502 -0.87569109393E+03 -0.15532386181E+04 -0.92022790370E+03  0.20065404285E+04  0.50400001928E-02 0.  1.
</event>
<event>
 5   0  0.9128871E-07  0.3502548E+04  0.7818609E-02  0.8113186E-01
       -2   -1    0    0    0  501  0.00000000000E+00  0.00000000000E+00  0.12530483273E+04  0.12530483273E+04  0.25500000920E-02 0.  1.
        2   -1    0    0  501    0  0.00000000000E+00  0.00000000000E+00 -0.24475990907E+04  0.24475990907E+04  0.25500000920E-02 0. -1.
    10030    2    1    2    0    0  0.00000000000E+00  0.00000000000E+00 -0.11945507634E+04  0.37006474180E+04  0.35025476137E+04 0.  0.
        1    1    3    3  502    0  0.10716891797E+04 -0.13832607306E+04 -0.52232670440E+03  0.18261306450E+04  0.50400001928E-02 0. -1.
       -1    1    3    3    0  502 -0.10716891797E+04  0.13832607306E+04 -0.67222405899E+03  0.18745167730E+04  0.50400001928E-02 0.  1.
</event>
<event>
 5   0  0.2972541E-07  0.3517692E+04  0.7818609E-02  0.8109610E-01
        1   -1    0    0  501    0  0.00000000000E+00  0.00000000000E+00  0.10334082729E+04  0.10334082729E+04  0.50400001928E-02 0. -1.
       -1   -1    0    0    0  501  0.00000000000E+00  0.00000000000E+00 -0.29935303057E+04  0.29935303057E+04  0.50400001928E-02 0.  1.
    10030    2    1    2    0    0  0.00000000000E+00  0.00000000000E+00 -0.19601220328E+04  0.40269385786E+04  0.35176918472E+04 0.  0.
        3    1    3    3  502    0 -0.15871215265E+04 -0.66269360207E+03 -0.14013313721E+04  0.22185236476E+04  0.10100000352E+00 0.  1.
       -3    1    3    3    0  502  0.15871215265E+04  0.66269360207E+03 -0.55879066067E+03  0.18084149310E+04  0.10100000352E+00 0. -1.
</event>
<event>
 5   0  0.2936607E-07  0.3409358E+04  0.7818609E-02  0.8135613E-01
        1   -1    0    0  501    0  0.00000000000E+00  0.00000000000E+00  0.27346582640E+04  0.27346582641E+04  0.50400001928E-02 0.  1.
       -1   -1    0    0    0  501  0.00000000000E+00  0.00000000000E+00 -0.10626299733E+04  0.10626299733E+04  0.50400001928E-02 0. -1.
    10030    2    1    2    0    0  0.00000000000E+00  0.00000000000E+00  0.16720282908E+04  0.37972882373E+04  0.34093576158E+04 0.  0.
        2    1    3    3  502    0 -0.15472758586E+04  0.68133490622E+03  0.59288755328E+03  0.17915902121E+04  0.25500000920E-02 0. -1.
       -2    1    3    3    0  502  0.15472758586E+04 -0.68133490622E+03  0.10791407375E+04  0.20056980253E+04  0.25500000920E-02 0.  1.
</event>
<event>
 5   0  0.2933506E-07  0.3498253E+04  0.7818609E-02  0.8114204E-01
        1   -1    0    0  501    0  0.00000000000E+00  0.00000000000E+00  0.22501584951E+04  0.22501584952E+04  0.50400001928E-02 0.  1.
       -1   -1    0    0    0  501  0.00000000000E+00  0.00000000000E+00 -0.13596566274E+04  0.13596566274E+04  0.50400001928E-02 0. -1.
    10030    2    1    2    0    0  0.00000000000E+00  0.00000000000E+00  0.89050186771E+03  0.36098151226E+04  0.34982526557E+04 0.  0.
        4    1    3    3  502    0 -0.69573601967E+03 -0.40126553167E+03  0.20486309986E+04  0.22004438682E+04  0.12699999809E+01 0.  1.
       -4    1    3    3    0  502  0.69573601967E+03  0.40126553167E+03 -0.11581291309E+04  0.14093712544E+04  0.12699999809E+01 0. -1.
</event>
<event>
 5   0  0.9311672E-07  0.3498231E+04  0.7818609E-02  0.8114209E-01
       -2   -1    0    0    0  501  0.00000000000E+00  0.00000000000E+00  0.12979080537E+04  0.12979080537E+04  0.25500000920E-02 0. -1.
        2   -1    0    0  501    0  0.00000000000E+00  0.00000000000E+00 -0.23571822061E+04  0.23571822061E+04  0.25500000920E-02 0.  1.
    10030    2    1    2    0    0  0.00000000000E+00  0.00000000000E+00 -0.10592741524E+04  0.36550902598E+04  0.34982314213E+04 0.  0.
        4    1    3    3  502    0 -0.16572986291E+04  0.47037063401E+03 -0.84571936804E+03  0.19191482855E+04  0.12699999809E+01 0. -1.
       -4    1    3    3    0  502  0.16572986291E+04 -0.47037063401E+03 -0.21355478441E+03  0.17359419743E+04  0.12699999809E+01 0.  1.
</event>
<event>
 5   0  0.3061330E-07  0.3485246E+04  0.7818609E-02  0.8117295E-01
       -1   -1    0    0    0  501  0.00000000000E+00  0.00000000000E+00  0.14480907194E+04  0.14480907194E+04  0.50400001928E-02 0.  1.
        1   -1    0    0  501    0  0.00000000000E+00  0.00000000000E+00 -0.20970618263E+04  0.20970618263E+04  0.50400001928E-02 0. -1.
    10030    2    1    2    0    0  0.00000000000E+00  0.00000000000E+00 -0.64897110691E+03  0.35451525458E+04  0.34852464870E+04 0.  0.
        5    1    3    3  502    0  0.62735510077E+03  0.16135799415E+04 -0.12232582892E+03  0.17355691713E+04  0.46999998093E+01 0. -1.
       -5    1    3    3    0  502 -0.62735510077E+03 -0.16135799415E+04 -0.52664527799E+03  0.18095833744E+04  0.46999998093E+01 0.  1.
</event>
<event>
 5   0  0.2972541E-07  0.3525963E+04  0.7818609E-02  0.8107664E-01
        1   -1    0    0  501    0  0.00000000000E+00  0.00000000000E+00  0.11199583933E+04  0.11199583933E+04  0.50400001928E-02 0. -1.
       -1   -1    0    0    0  501  0.00000000000E+00  0.00000000000E+00 -0.27751958331E+04  0.27751958331E+04  0.50400001928E-02 0.  1.
    10030    2    1    2    0    0  0.00000000000E+00  0.00000000000E+00 -0.16552374398E+04  0.38951542264E+04  0.35259630551E+04 0.  0.
        3    1    3    3  502    0  0.82667428089E+03 -0.25072566152E+03 -0.25253660995E+04  0.26690312233E+04  0.10100000352E+00 0.  1.
       -3    1    3    3    0  502 -0.82667428089E+03  0.25072566152E+03  0.87012865978E+03  0.12261230031E+04  0.10100000352E+00 0. -1.
</event>
<event>
 5   0  0.3061330E-07  0.3501012E+04  0.7818609E-02  0.8113550E-01
        1   -1    0    0  501    0  0.00000000000E+00  0.00000000000E+00  0.30423719370E+04  0.30423719370E+04  0.50400001928E-02 0.  1.
       -1   -1    0    0    0  501  0.00000000000E+00  0.00000000000E+00 -0.10071981474E+04  0.10071981474E+04  0.50400001928E-02 0. -1.
    10030    2    1    2    0    0  0.00000000000E+00  0.00000000000E+00  0.20351737896E+04  0.40495700843E+04  0.35010120700E+04 0.  0.
        5    1    3    3  502    0 -0.14038820166E+04 -0.41197970793E+03  0.21292316959E+04  0.25834592509E+04  0.46999998093E+01 0.  1.
       -5    1    3    3    0  502  0.14038820166E+04  0.41197970793E+03 -0.94057906297E+02  0.14661108334E+04  0.46999998093E+01 0. -1.
</event>
<event>
 5   0  0.6188930E-07  0.3483627E+04  0.7818609E-02  0.8117681E-01
       -2   -1    0    0    0  501  0.00000000000E+00  0.00000000000E+00  0.14379262643E+04  0.14379262643E+04  0.25500000920E-02 0. -1.
        2   -1    0    0  501    0  0.00000000000E+00  0.00000000000E+00 -0.21099235356E+04  0.21099235356E+04  0.25500000920E-02 0.  1.
    10030    2    1    2    0    0  0.00000000000E+00  0.00000000000E+00 -0.67199727136E+03  0.35478497999E+04  0.34836271141E+04 0.  0.
        3    1    3    3  502    0 -0.50880760455E+03 -0.12347592713E+04 -0.14748258610E+04  0.19896298568E+04  0.10100000352E+00 0.  1.
       -3    1    3    3    0  502  0.50880760455E+03  0.12347592713E+04  0.80282858967E+03  0.15582199431E+04  0.10100000352E+00 0. -1.
</event>
<event>
 5   0  0.9128871E-07  0.3466762E+04  0.7818609E-02  0.8121712E-01
       -2   -1    0    0    0  501  0.00000000000E+00  0.00000000000E+00  0.15896014924E+04  0.15896014924E+04  0.25500000920E-02 0.  1.
        2   -1    0    0  501    0  0.00000000000E+00  0.00000000000E+00 -0.18901656826E+04  0.18901656826E+04  0.25500000920E-02 0. -1.
    10030    2    1    2    0    0  0.00000000000E+00  0.00000000000E+00 -0.30056419017E+03  0.34797671751E+04  0.34667622878E+04 0.  0.
        1    1    3    3  502    0 -0.59628056813E+03  0.51133669241E+02  0.14826102821E+04  0.15988428367E+04  0.50400001928E-02 0.  1.
       -1    1    3    3    0  502  0.59628056813E+03 -0.51133669241E+02 -0.17831744722E+04  0.18809243383E+04  0.50400001928E-02 0. -1.
</event>
<event>
 5   0  0.8845195E-07  0.3479816E+04  0.7818609E-02  0.8118590E-01
        2   -1    0    0  501    0  0.00000000000E+00  0.00000000000E+00  0.35170010579E+04  0.35170010579E+04  0.25500000920E-02 0. -1.
       -2   -1    0    0    0  501  0.00000000000E+00  0.00000000000E+00 -0.86075622129E+03  0.86075622129E+03  0.25500000920E-02 0.  1.
    10030    2    1    2    0    0  0.00000000000E+00  0.00000000000E+00  0.26562448366E+04  0.43777572792E+04  0.34798163979E+04 0.  0.
        5    1    3    3  502    0  0.28881325625E+03 -0.94368864197E+03 -0.47456839490E+03  0.10950792672E+04  0.46999998093E+01 0.  1.
       -5    1    3    3    0  502 -0.28881325625E+03  0.94368864197E+03  0.31308132315E+04  0.32826780120E+04  0.46999998093E+01 0. -1.
</event>
<event>
 5   0  0.8845195E-07  0.3440606E+04  0.7818609E-02  0.8128012E-01
       -2   -1    0    0    0  501  0.00000000000E+00  0.00000000000E+00  0.20586390545E+04  0.20586390545E+04  0.25500000920E-02 0.  1.
        2   -1    0    0  501    0  0.00000000000E+00  0.00000000000E+00 -0.14375725473E+04  0.14375725473E+04  0.25500000920E-02 0. -1.
    10030    2    1    2    0    0  0.00000000000E+00  0.00000000000E+00  0.62106650720E+03  0.34962116018E+04  0.34406063358E+04 0.  0.
        5    1    3    3  502    0  0.67671297862E+03 -0.23661027005E+03  0.18996148772E+04  0.20303900234E+04  0.46999998093E+01 0.  1.
       -5    1    3    3    0  502 -0.67671297862E+03  0.23661027005E+03 -0.12785483700E+04  0.14658215784E+04  0.46999998093E+01 0. -1.
</event>
<event>
 5   0  0.9128871E-07  0.3355108E+04  0.7818609E-02  0.8149013E-01
       -2   -1    0    0    0  501  0.00000000000E+00  0.00000000000E+00  0.15176516977E+04  0.15176516977E+04  0.25500000920E-02 0.  1.
        2   -1    0    0  501    0  0.00000000000E+00  0.00000000000E+00 -0.18543033278E+04  0.18543033278E+04  0.25500000920E-02 0. -1.
    10030    2    1    2    0    0  0.00000000000E+00  0.00000000000E+00 -0.33665163018E+03  0.33719550255E+04  0.33551075056E+04 0.  0.
        1    1    3    3  502    0  0.32928952057E+03 -0.15550123109E+04 -0.70738818056E+03  0.17397968024E+04  0.50400001928E-02 0. -1.
       -1    1    3    3    0  502 -0.32928952057E+03  0.15550123109E+04  0.37073655038E+03  0.16321582231E+04  0.50400001928E-02 0.  1.
</event>
<event>
 5   0  0.3061330E-07  0.3554761E+04  0.7818609E-02  0.8100934E-01
        1   -1    0    0  501    0  0.00000000000E+00  0.00000000000E+00  0.25972399658E+04  0.25972399658E+04  0.50400001928E-02 0.  1.
       -1   -1    0    0    0  501  0.00000000000E+00  0.00000000000E+00 -0.12163224063E+04  0.12163224063E+04  0.50400001928E-02 0. -1.
    10030    2    1    2    0    0  0.00000000000E+00  0.00000000000E+00  0.13809175594E+04  0.38135623721E+04  0.35547608443E+04 0.  0.
        5    1    3    3  502    0  0.14221712810E+04  0.45559298888E+03  0.17244344328E+04  0.22811909888E+04  0.46999998093E+01 0. -1.
       -5    1    3    3    0  502 -0.14221712810E+04 -0.45559298888E+03 -0.34351687342E+03  0.15323713833E+04  0.46999998093E+01 0.  1.
</event>
<event>
 5   0  0.9128871E-07  0.3479682E+04  0.7818609E-02  0.8118622E-01
        2   -1    0    0  501    0  0.00000000000E+00  0.00000000000E+00  0.15949074011E+04  0.15949074011E+04  0.25500000920E-02 0.  1.
       -2   -1    0    0    0  501  0.00000000000E+00  0.00000000000E+00 -0.18979446859E+04  0.18979446859E+04  0.25500000920E-02 0. -1.
    10030    2    1    2    0    0  0.00000000000E+00  0.00000000000E+00 -0.30303728476E+03  0.34928520870E+04  0.34796816098E+04 0.  0.
        1    1    3    3  502    0 -0.14819792028E+04  0.22908905375E+03  0.73403469684E+03  0.16695960854E+04  0.50400001928E-02 0.  1.
       -1    1    3    3    0  502  0.14819792028E+04 -0.22908905375E+03 -0.10370719816E+04  0.18232560016E+04  0.50400001928E-02 0. -1.
</event>
<event>
 5   0  0.6188930E-07  0.3466733E+04  0.7818609E-02  0.8121719E-01
       -2   -1    0    0    0  501  0.00000000000E+00  0.00000000000E+00  0.19089600289E+04  0.19089600289E+04  0.25500000920E-02 0. -1.
        2   -1    0    0  501    0  0.00000000000E+00  0.00000000000E+00 -0.15739244491E+04  0.15739244491E+04  0.25500000920E-02 0.  1.
    10030    2    1    2    0    0  0.00000000000E+00  0.00000000000E+00  0.33503557984E+03  0.34828844780E+04  0.34667326761E+04 0.  0.
        3    1    3    3  502    0 -0.11563522666E+04 -0.25389012376E+03 -0.11044568286E+04  0.16190848204E+04  0.10100000352E+00 0.  1.
       -3    1    3    3    0  502  0.11563522666E+04  0.25389012376E+03  0.14394924084E+04  0.18637996575E+04  0.10100000352E+00 0. -1.
</event>
<event>
 5   0  0.2933506E-07  0.3141468E+04  0.7818609E-02  0.8204449E-01
       -1   -1    0    0    0  501  0.00000000000E+00  0.00000000000E+00  0.82836792205E+03  0.82836792206E+03  0.50400001928E-02 0.  1.
        1   -1    0    0  501    0  0.00000000000E+00  0.00000000000E+00 -0.29783939045E+04  0.29783939045E+04  0.50400001928E-02 0. -1.
    10030    2    1    2    0    0  0.00000000000E+00  0.00000000000E+00 -0.21500259825E+04  0.38067618266E+04  0.31414684272E+04 0.  0.
        4    1    3    3  502    0  0.15292486666E+04 -0.35158338817E+03 -0.98939598729E+03  0.18550251738E+04  0.12699999809E+01 0. -1.
       -4    1    3    3    0  502 -0.15292486666E+04  0.35158338817E+03 -0.11606299952E+04  0.19517366527E+04  0.12699999809E+01 0.  1.
</event>
<event>
 5   0  0.2936607E-07  0.3481647E+04  0.7818609E-02  0.8118153E-01
        1   -1    0    0  501    0  0.00000000000E+00  0.00000000000E+00  0.26827008981E+04  0.26827008981E+04  0.50400001928E-02 0. -1.
       -1   -1    0    0    0  501  0.00000000000E+00  0.00000000000E+00 -0.11296324903E+04  0.11296324903E+04  0.50400001928E-02 0.  1.
    10030    2    1    2    0    0  0.00000000000E+00  0.00000000000E+00  0.15530684078E+04  0.38123333884E+04  0.34816467921E+04 0.  0.
        2    1    3    3  502    0  0.12005665766E+04 -0.98124337189E+03  0.16430691413E+04  0.22591757043E+04  0.25500000920E-02 0. -1.
       -2    1    3    3    0  502 -0.12005665766E+04  0.98124337189E+03 -0.90000733444E+02  0.15531576841E+04  0.25500000920E-02 0.  1.
</event>
<event>
 5   0  0.3026332E-07  0.3513163E+04  0.7818609E-02  0.8110678E-01
       -1   -1    0    0    0  501  0.00000000000E+00  0.00000000000E+00  0.13326800043E+04  0.13326800043E+04  0.50400001928E-02 0. -1.
        1   -1    0    0  501    0  0.00000000000E+00  0.00000000000E+00 -0.23153179307E+04  0.23153179307E+04  0.50400001928E-02 0.  1.
    10030    2    1    2    0    0  0.00000000000E+00  0.00000000000E+00 -0.98263792636E+03  0.36479979350E+04  0.35131626264E+04 0.  0.
        1    1    3    3  502    0 -0.10063022755E+03 -0.10633995964E+04 -0.19393408602E+04  0.22140433862E+04  0.50400001928E-02 0.  1.
       -1    1    3    3    0  502  0.10063022755E+03  0.10633995964E+04  0.95670293381E+03  0.14339545487E+04  0.50400001928E-02 0. -1.
</event>
<event>
 5   0  0.6188930E-07  0.3449539E+04  0.7818609E-02  0.8125854E-01
       -2   -1    0    0    0  501  0.00000000000E+00  0.00000000000E+00  0.19234473495E+04  0.19234473495E+04  0.25500000920E-02 0.  1.
        2   -1    0    0  501    0  0.00000000000E+00  0.00000000000E+00 -0.15466138411E+04  0.15466138411E+04  0.25500000920E-02 0. -1.
    10030    2    1    2    0    0  0.00000000000E+00  0.00000000000E+00  0.37683350837E+03  0.34700611905E+04  0.34495392697E+04 0.  0.
        3    1    3    3  502    0  0.26443936691E+03 -0.31530358328E+03 -0.14965063043E+04  0.15520553010E+04  0.10100000352E+00 0. -1.
       -3    1    3    3    0  502 -0.26443936691E+03  0.31530358328E+03  0.18733398127E+04  0.19180058895E+04  0.10100000352E+00 0.  1.
</event>
<event>
 5   0  0.3026332E-07  0.3214872E+04  0.7818609E-02  0.8184900E-01
       -1   -1    0    0    0  501  0.00000000000E+00  0.00000000000E+00  0.16120953654E+04  0.16120953654E+04  0.50400001928E-02 0. -1.
        1   -1    0    0  501    0  0.00000000000E+00  0.00000000000E+00 -0.16027905639E+04  0.16027905639E+04  0.50400001928E-02 0.  1.
    10030    2    1    2    0    0  0.00000000000E+00  0.00000000000E+00  0.93048014718E+01  0.32148859294E+04  0.32148724640E+04 0.  0.
        1    1    3    3  502    0 -0.13692129170E+04 -0.79287640621E+03 -0.27899333984E+03  0.16066220126E+04  0.50400001928E-02 0.  1.
       -1    1    3    3    0  502  0.13692129170E+04  0.79287640621E+03  0.28829814131E+03  0.16082639168E+04  0.50400001928E-02 0. -1.
</event>
<event>
 5   0  0.3061330E-07  0.3542418E+04  0.7818609E-02  0.8103810E-01
       -1   -1    0    0    0  501  0.00000000000E+00  0.00000000000E+00  0.11812041491E+04  0.11812041491E+04  0.50400001928E-02 0.  1.
        1   -1    0    0  501    0  0.00000000000E+00  0.00000000000E+00 -0.26559180782E+04  0.26559180782E+04  0.50400001928E-02 0. -1.
    10030    2    1    2    0    0  0.00000000000E+00  0.00000000000E+00 -0.14747139291E+04  0.38371222273E+04  0.35424180745E+04 0.  0.
        5    1    3    3  502    0  0.14747965304E+04 -0.10286460368E+02 -0.17997857842E+04  0.23268823727E+04  0.46999998093E+01 0. -1.
       -5    1    3    3    0  502 -0.14747965304E+04  0.10286460368E+02  0.32507185512E+03  0.15102398546E+04  0.46999998093E+01 0.  1.
</event>
<event>
 5   0  0.8845195E-07  0.3511516E+04  0.7818609E-02  0.8111066E-01
        2   -1    0    0  501    0  0.00000000000E+00  0.00000000000E+00  0.16008265895E+04  0.16008265896E+04  0.25500000920E-02 0. -1.
       -2   -1    0    0    0  501  0.00000000000E+00  0.00000000000E+00 -0.19256835536E+04  0.19256835536E+04  0.25500000920E-02 0.  1.
    10030    2    1    2    0    0  0.00000000000E+00  0.00000000000E+00 -0.32485696401E+03  0.35265101431E+04  0.35115155905E+04 0.  0.
        5    1    3    3  502    0 -0.11758049623E+04 -0.11298560281E+04  0.49117423141E+03  0.17030461442E+04  0.46999998093E+01 0. -1.
       -5    1    3    3    0  502  0.11758049623E+04  0.11298560281E+04 -0.81603119542E+03  0.18234639989E+04  0.46999998093E+01 0.  1.
</event>
<event>
 5   0  0.9128871E-07  0.3496098E+04  0.7818609E-02  0.8114715E-01
        2   -1    0    0  501    0  0.00000000000E+00  0.00000000000E+00  0.15224680095E+04  0.15224680095E+04  0.25500000920E-02 0.  1.
       -2   -1    0    0    0  501  0.00000000000E+00  0.00000000000E+00 -0.20070537791E+04  0.20070537791E+04  0.25500000920E-02 0. -1.
    10030    2    1    2    0    0  0.00000000000E+00  0.00000000000E+00 -0.48458576961E+03  0.35295217887E+04  0.34960979232E+04 0.  0.
        1    1    3    3  502    0 -0.38139553360E+03  0.56737104238E+03 -0.18664940329E+04  0.19877556258E+04  0.50400001928E-02 0. -1.
       -1    1    3    3    0  502  0.38139553360E+03 -0.56737104238E+03  0.13819082633E+04  0.15417661629E+04  0.50400001928E-02 0.  1.
</event>
<event>
 5   0  0.9311672E-07  0.3473917E+04  0.7818609E-02  0.8119999E-01
        2   -1    0    0  501    0  0.00000000000E+00  0.00000000000E+00  0.17342229420E+04  0.17342229420E+04  0.25500000920E-02 0. -1.
       -2   -1    0    0    0  501  0.00000000000E+00  0.00000000000E+00 -0.17396986743E+04  0.17396986743E+04  0.25500000920E-02 0.  1.
    10030    2    1    2    0    0  0.00000000000E+00  0.00000000000E+00 -0.54757322220E+01  0.34739216163E+04  0.34739173008E+04 0.  0.
        4    1    3    3  502    0 -0.13437943935E+04 -0.38299286923E+03  0.10290370490E+04  0.17353344839E+04  0.12699999809E+01 0. -1.
       -4    1    3    3    0  502  0.13437943935E+04  0.38299286923E+03 -0.10345127812E+04  0.17385871325E+04  0.12699999809E+01 0.  1.
</event>
<event>
 5   0  0.8845195E-07  0.3509166E+04  0.7818609E-02  0.8111621E-01
        2   -1    0    0  501    0  0.00000000000E+00  0.00000000000E+00  0.24586382032E+04  0.24586382032E+04  0.25500000920E-02 0.  1.
       -2   -1    0    0    0  501  0.00000000000E+00  0.00000000000E+00 -0.12521406630E+04  0.12521406630E+04  0.25500000920E-02 0. -1.
    10030    2    1    2    0    0  0.00000000000E+00  0.00000000000E+00  0.12064975402E+04  0.37107788663E+04  0.35091656387E+04 0.  0.
        5    1    3    3  502    0  0.14343154019E+04  0.84115412535E+03  0.10944776201E+02  0.16628117190E+04  0.46999998093E+01 0. -1.
       -5    1    3    3    0  502 -0.14343154019E+04 -0.84115412535E+03  0.11955527640E+04  0.20479671472E+04  0.46999998093E+01 0.  1.
</event>
<event>
 5   0  0.2933506E-07  0.3512300E+04  0.7818609E-02  0.8110881E-01
        1   -1    0    0  501    0  0.00000000000E+00  0.00000000000E+00  0.19967633385E+04  0.19967633386E+04  0.50400001928E-02 0.  1.
       -1   -1    0    0    0  501  0.00000000000E+00  0.00000000000E+00 -0.15445310402E+04  0.15445310402E+04  0.50400001928E-02 0. -1.
    10030    2    1    2    0    0  0.00000000000E+00  0.00000000000E+00  0.45223229837E+03  0.35412943787E+04  0.35123000762E+04 0.  0.
        4    1    3    3  502    0  0.10382089651E+04  0.59211884625E+03 -0.10711985533E+04  0.16049768025E+04  0.12699999809E+01 0. -1.
       -4    1    3    3    0  502 -0.10382089651E+04 -0.59211884625E+03  0.15234308517E+04  0.19363175762E+04  0.12699999809E+01 0.  1.
</event>
<event>
 5   0  0.9128871E-07  0.3515764E+04  0.7818609E-02  0.8110064E-01
        2   -1    0    0  501    0  0.00000000000E+00  0.00000000000E+00  0.19562780926E+04  0.19562780926E+04  0.25500000920E-02 0. -1.
       -2   -1    0    0    0  501  0.00000000000E+00  0.00000000000E+00 -0.15796065236E+04  0.15796065236E+04  0.25500000920E-02 0.  1.
    10030    2    1    2    0    0  0.00000000000E+00  0.00000000000E+00  0.37667156899E+03  0.35358846163E+04  0.35157642908E+04 0.  0.
        1    1    3    3  502    0 -0.14390761298E+04 -0.76622792991E+03  0.84944410399E+03  0.18383690146E+04  0.50400001928E-02 0. -1.
       -1    1    3    3    0  502  0.14390761298E+04  0.76622792991E+03 -0.47277253500E+03  0.16975156017E+04  0.50400001928E-02 0.  1.
</event>
<event>
 5   0  0.2933506E-07  0.3514603E+04  0.7818609E-02  0.8110338E-01
        1   -1    0    0  501    0  0.00000000000E+00  0.00000000000E+00  0.30497427398E+04  0.30497427398E+04  0.50400001928E-02 0.  1.
       -1   -1    0    0    0  501  0.00000000000E+00  0.00000000000E+00 -0.10125802066E+04  0.10125802066E+04  0.50400001928E-02 0. -1.
    10030    2    1    2    0    0  0.00000000000E+00  0.00000000000E+00  0.20371625332E+04  0.40623229465E+04  0.35146033253E+04 0.  0.
        4    1    3    3  502    0 -0.15718865366E+04 -0.72957255294E+03  0.68159039584E+03  0.18621682186E+04  0.12699999809E+01 0. -1.
       -4    1    3    3    0  502  0.15718865366E+04  0.72957255294E+03  0.13555721374E+04  0.22001547278E+04  0.12699999809E+01 0.  1.
</event>
<event>
 5   0  0.2936607E-07  0.3532957E+04  0.7818609E-02  0.8106024E-01
        1   -1    0    0  501    0  0.00000000000E+00  0.00000000000E+00  0.11063206794E+04  0.11063206794E+04  0.50400001928E-02 0. -1.
       -1   -1    0    0    0  501  0.00000000000E+00  0.00000000000E+00 -0.28205614865E+04  0.28205614865E+04  0.50400001928E-02 0.  1.
    10030    2    1    2    0    0  0.00000000000E+00  0.00000000000E+00 -0.17142408071E+04  0.39268821659E+04  0.35329565523E+04 0.  0.
        2    1    3    3  502    0  0.61229117933E+03 -0.23863784154E+03  0.96540011826E+03  0.11678381292E+04  0.25500000920E-02 0. -1.
       -2    1    3    3    0  502 -0.61229117933E+03  0.23863784154E+03 -0.26796409254E+04  0.27590440367E+04  0.25500000920E-02 0.  1.
</event>
<event>
 5   0  0.8845195E-07  0.3501147E+04  0.7818609E-02  0.8113518E-01
        2   -1    0    0  501    0  0.00000000000E+00  0.00000000000E+00  0.22487187931E+04  0.22487187931E+04  0.25500000920E-02 0.  1.
       -2   -1    0    0    0  501  0.00000000000E+00  0.00000000000E+00 -0.13627794886E+04  0.13627794886E+04  0.25500000920E-02 0. -1.
    10030    2    1    2    0    0  0.00000000000E+00  0.00000000000E+00  0.88593930448E+03  0.36114982817E+04  0.35011471531E+04 0.  0.
        5    1    3    3  502    0 -0.14561486825E+04  0.96558558954E+03  0.55483707114E+03  0.18331914198E+04  0.46999998093E+01 0. -1.
       -5    1    3    3    0  502  0.14561486825E+04 -0.96558558954E+03  0.33110223333E+03  0.17783068619E+04  0.46999998093E+01 0.  1.
</event>
<event>
 5   0  0.2933506E-07  0.3524768E+04  0.7818609E-02  0.8107945E-01
        1   -1    0    0  501    0  0.00000000000E+00  0.00000000000E+00  0.18078084991E+04  0.18078084992E+04  0.50400001928E-02 0. -1.
       -1   -1    0    0    0  501  0.00000000000E+00  0.00000000000E+00 -0.17181009077E+04  0.17181009078E+04  0.50400001928E-02 0.  1.
    10030    2    1    2    0    0  0.00000000000E+00  0.00000000000E+00  0.89707591396E+02  0.35259094069E+04  0.35247680340E+04 0.  0.
        4    1    3    3  502    0 -0.26128686830E+03  0.16219476639E+04 -0.59332673794E+03  0.17467178601E+04  0.12699999809E+01 0.  1.
       -4    1    3    3    0  502  0.26128686830E+03 -0.16219476639E+04  0.68303432933E+03  0.17791915468E+04  0.12699999809E+01 0. -1.
</event>
<event>
 5   0  0.2933506E-07  0.3462566E+04  0.7818609E-02  0.8122719E-01
        1   -1    0    0  501    0  0.00000000000E+00  0.00000000000E+00  0.24710609731E+04  0.24710609731E+04  0.50400001928E-02 0.  1.
       -1   -1    0    0    0  501  0.00000000000E+00  0.00000000000E+00 -0.12129772138E+04  0.12129772138E+04  0.50400001928E-02 0. -1.
    10030    2    1    2    0    0  0.00000000000E+00  0.00000000000E+00  0.12580837593E+04  0.36840381869E+04  0.34625659008E+04 0.  0.
        4    1    3    3  502    0  0.82241737488E+03  0.14744908183E+04  0.10367566457E+04  0.19812519949E+04  0.12699999809E+01 0.  1.
       -4    1    3    3    0  502 -0.82241737488E+03 -0.14744908183E+04  0.22132711354E+03  0.17027861921E+04  0.12699999809E+01 0. -1.
</event>
<event>
 5   0  0.9311672E-07  0.3275889E+04  0.7818609E-02  0.8169058E-01
       -2   -1    0    0    0  501  0.00000000000E+00  0.00000000000E+00  0.19687224427E+04  0.19687224427E+04  0.25500000920E-02 0. -1.
        2   -1    0    0  501    0  0.00000000000E+00  0.00000000000E+00 -0.13627427033E+04  0.13627427033E+04  0.25500000920E-02 0.  1.
    10030    2    1    2    0    0  0.00000000000E+00  0.00000000000E+00  0.60597973935E+03  0.33314651460E+04  0.32758889747E+04 0.  0.
        4    1    3    3  502    0 -0.27264715230E+03 -0.10397087490E+04  0.15598904950E+04  0.18943576013E+04  0.12699999809E+01 0. -1.
       -4    1    3    3    0  502  0.27264715230E+03  0.10397087490E+04 -0.95391075567E+03  0.14371075447E+04  0.12699999809E+01 0.  1.
</event>
<event>
 5   0  0.8950809E-07  0.3587307E+04  0.7818609E-02  0.8093405E-01
       -2   -1    0    0    0  501  0.00000000000E+00  0.00000000000E+00  0.13732069657E+04  0.13732069657E+04  0.25500000920E-02 0. -1.
        2   -1    0    0  501    0  0.00000000000E+00  0.00000000000E+00 -0.23428315819E+04  0.23428315819E+04  0.25500000920E-02 0.  1.
    10030    2    1    2    0    0  0.00000000000E+00  0.00000000000E+00 -0.96962461626E+03  0.37160385476E+04  0.35873068715E+04 0.  0.
        2    1    3    3  502    0  0.17596862270E+04  0.28526584288E+02 -0.84347892865E+03  0.19516060275E+04  0.25500000920E-02 0.  1.
       -2    1    3    3    0  502 -0.17596862270E+04 -0.28526584288E+02 -0.12614568761E+03  0.17644325201E+04  0.25500000920E-02 0. -1.
</event>
<event>
 5   0  0.2972541E-07  0.3526663E+04  0.7818609E-02  0.8107500E-01
       -1   -1    0    0    0  501  0.00000000000E+00  0.00000000000E+00  0.14768896901E+04  0.14768896901E+04  0.50400001928E-02 0. -1.
        1   -1    0    0  501    0  0.00000000000E+00  0.00000000000E+00 -0.21053284967E+04  0.21053284967E+04  0.50400001928E-02 0.  1.
    10030    2    1    2    0    0  0.00000000000E+00  0.00000000000E+00 -0.62843880654E+03  0.35822181868E+04  0.35266629842E+04 0.  0.
        3    1    3    3  502    0 -0.12843722968E+04 -0.95381810051E+03  0.43905351395E+03  0.16589602659E+04  0.10100000352E+00 0. -1.
       -3    1    3    3    0  502  0.12843722968E+04  0.95381810051E+03 -0.10674923205E+04  0.19232579209E+04  0.10100000352E+00 0.  1.
</event>
<event>
 5   0  0.8950809E-07  0.3431104E+04  0.7818609E-02  0.8130314E-01
        2   -1    0    0  501    0  0.00000000000E+00  0.00000000000E+00  0.26047458243E+04  0.26047458243E+04  0.25500000920E-02 0.  1.
       -2   -1    0    0    0  501  0.00000000000E+00  0.00000000000E+00 -0.11299062539E+04  0.11299062539E+04  0.25500000920E-02 0. -1.
    10030    2    1    2    0    0  0.00000000000E+00  0.00000000000E+00  0.14748395705E+04  0.37346520782E+04  0.34311039603E+04 0.  0.
        2    1    3    3  502    0 -0.76585288944E+03  0.37088478803E+03  0.23588493805E+04  0.25076396420E+04  0.25500000920E-02 0.  1.
       -2    1    3    3    0  502  0.76585288944E+03 -0.37088478803E+03 -0.88400981006E+03  0.12270124362E+04  0.25500000920E-02 0. -1.
</event>
<event>
 5   0  0.3061330E-07  0.3459705E+04  0.7818609E-02  0.8123406E-01
        1   -1    0    0  501    0  0.00000000000E+00  0.00000000000E+00  0.97042523916E+03  0.97042523917E+03  0.50400001928E-02 0. -1.
       -1   -1    0    0    0  501  0.00000000000E+00  0.00000000000E+00 -0.30835861747E+04  0.30835861748E+04  0.50400001928E-02 0.  1.
    10030    2    1    2    0    0  0.00000000000E+00  0.00000000000E+00 -0.21131609356E+04  0.40540114139E+04  0.34597051037E+04 0.  0.
        5    1    3    3  502    0 -0.23251799471E+03 -0.58333207246E+03 -0.29453009989E+04  0.30115047715E+04  0.46999998093E+01 0.  1.
       -5    1    3    3    0  502  0.23251799471E+03  0.58333207246E+03  0.83214006329E+03  0.10425066424E+04  0.46999998093E+01 0. -1.
</event>
<event>
 5   0  0.9128871E-07  0.3480211E+04  0.7818609E-02  0.8118496E-01
        2   -1    0    0  501    0  0.00000000000E+00  0.00000000000E+00  0.19425147365E+04  0.19425147365E+04  0.25500000920E-02 0. -1.
       -2   -1    0    0    0  501  0.00000000000E+00  0.00000000000E+00 -0.15587876589E+04  0.15587876589E+04  0.25500000920E-02 0.  1.
    10030    2    1    2    0    0  0.00000000000E+00  0.00000000000E+00  0.38372707767E+03  0.35013023954E+04  0.34802114869E+04 0.  0.
        1    1    3    3  502    0 -0.10924879801E+04  0.48908054465E+03 -0.10788181151E+04  0.16113901735E+04  0.50400001928E-02 0.  1.
       -1    1    3    3    0  502  0.10924879801E+04 -0.48908054465E+03  0.14625451927E+04  0.18899122219E+04  0.50400001928E-02 0. -1.
</event>
<event>
 5   0  0.9311672E-07  0.3509677E+04  0.7818609E-02  0.8111501E-01
        2   -1    0    0  501    0  0.00000000000E+00  0.00000000000E+00  0.16878854243E+04  0.16878854243E+04  0.25500000920E-02 0.  1.
       -2   -1    0    0    0  501  0.00000000000E+00  0.00000000000E+00 -0.18244469711E+04  0.18244469711E+04  0.25500000920E-02 0. -1.
    10030    2    1    2    0    0  0.00000000000E+00  0.00000000000E+00 -0.13656154688E+03  0.35123323954E+04  0.35096765947E+04 0.  0.
        4    1    3    3  502    0  0.92439133943E+03  0.11357620214E+04  0.89940548798E+03  0.17185419874E+04  0.12699999809E+01 0.  1.
       -4    1    3    3    0  502 -0.92439133943E+03 -0.11357620214E+04 -0.10359670349E+04  0.17937904080E+04  0.12699999809E+01 0. -1.
</event>
<event>
 5   0  0.2972541E-07  0.3510907E+04  0.7818609E-02  0.8111210E-01
       -1   -1    0    0    0  501  0.00000000000E+00  0.00000000000E+00  0.10735140776E+04  0.10735140776E+04  0.50400001928E-02 0.  1.
        1   -1    0    0  501    0  0.00000000000E+00  0.00000000000E+00 -0.28705886011E+04  0.28705886011E+04  0.50400001928E-02 0. -1.
    10030    2    1    2    0    0  0.00000000000E+00  0.00000000000E+00 -0.17970745234E+04  0.39441026787E+04  0.35109071616E+04 0.  0.
        3    1    3    3  502    0  0.24779426584E+03 -0.24981148889E+03  0.10334931830E+04  0.10917490315E+04  0.10100000352E+00 0.  1.
       -3    1    3    3    0  502 -0.24779426584E+03  0.24981148889E+03 -0.28305677064E+04  0.28523536473E+04  0.10100000352E+00 0. -1.
</event>
<event>
 5   0  0.9311672E-07  0.3537307E+04  0.7818609E-02  0.8105005E-01
        2   -1    0    0  501    0  0.00000000000E+00  0.00000000000E+00  0.20520514713E+04  0.20520514714E+04  0.25500000920E-02 0.  1.
       -2   -1    0    0    0  501  0.00000000000E+00  0.00000000000E+00 -0.15243941206E+04  0.15243941206E+04  0.25500000920E-02 0. -1.
    10030    2    1    2    0    0  0.00000000000E+00  0.00000000000E+00  0.52765735072E+03  0.35764455920E+04  0.35373069972E+04 0.  0.
        4    1    3    3  502    0  0.80986416492E+03  0.67879762535E+03 -0.11701329460E+04  0.15766606820E+04  0.12699999809E+01 0. -1.
       -4    1    3    3    0  502 -0.80986416492E+03 -0.67879762535E+03  0.16977902967E+04  0.19997849100E+04  0.12699999809E+01 0.  1.
</event>
<event>
 5   0  0.8845195E-07  0.3531842E+04  0.7818609E-02  0.8106285E-01
       -2   -1    0    0    0  501  0.00000000000E+00  0.00000000000E+00  0.14180948622E+04  0.14180948622E+04  0.25500000920E-02 0.  1.
        2   -1    0    0  501    0  0.00000000000E+00  0.00000000000E+00 -0.21990613087E+04  0.21990613087E+04  0.25500000920E-02 0. -1.
    10030    2    1    2    0    0  0.00000000000E+00  0.00000000000E+00 -0.78096644651E+03  0.36171561709E+04  0.35318423201E+04 0.  0.
        5    1    3    3  502    0  0.11602201970E+04  0.13196653652E+04 -0.21066333391E+03  0.17697538563E+04  0.46999998093E+01 0.  1.
       -5    1    3    3    0  502 -0.11602201970E+04 -0.13196653652E+04 -0.57030311260E+03  0.18474023146E+04  0.46999998093E+01 0. -1.
</event>
<event>
 5   0  0.9128871E-07  0.3501982E+04  0.7818609E-02  0.8113320E-01
       -2   -1    0    0    0  501  0.00000000000E+00  0.00000000000E+00  0.13947074801E+04  0.13947074801E+04  0.25500000920E-02 0.  1.
        2   -1    0    0  501    0  0.00000000000E+00  0.00000000000E+00 -0.21982880072E+04  0.21982880072E+04  0.25500000920E-02 0. -1.
    10030    2    1    2    0    0  0.00000000000E+00  0.00000000000E+00 -0.80358052716E+03  0.35929954873E+04  0.35019815688E+04 0.  0.
        1    1    3    3  502    0 -0.16287540904E+04 -0.33350684764E+03  0.16194581077E+03  0.16704170588E+04  0.50400001928E-02 0.  1.
       -1    1    3    3    0  502  0.16287540904E+04  0.33350684764E+03 -0.96552633793E+03  0.19225784285E+04  0.50400001928E-02 0. -1.
</event>
<event>
 5   0  0.2933506E-07  0.3482686E+04  0.7818609E-02  0.8117905E-01
        1   -1    0    0  501    0  0.00000000000E+00  0.00000000000E+00  0.18679040891E+04  0.18679040891E+04  0.50400001928E-02 0. -1.
       -1   -1    0    0    0  501  0.00000000000E+00  0.00000000000E+00 -0.16233572495E+04  0.16233572495E+04  0.50400001928E-02 0.  1.
    10030    2    1    2    0    0  0.00000000000E+00  0.00000000000E+00  0.24454683958E+03  0.34912613386E+04  0.34826861153E+04 0.  0.
        4    1    3    3  502    0 -0.61610326846E+03 -0.12349522403E+04 -0.94221865032E+03  0.16710678835E+04  0.12699999809E+01 0.  1.
       -4    1    3    3    0  502  0.61610326846E+03  0.12349522403E+04  0.11867654899E+04  0.18201934551E+04  0.12699999809E+01 0. -1.
</event>
<event>
 5   0  0.9128871E-07  0.3540440E+04  0.7818609E-02  0.8104272E-01
        2   -1    0    0  501    0  0.00000000000E+00  0.00000000000E+00  0.23509622555E+04  0.23509622555E+04  0.25500000920E-02 0. -1.
       -2   -1    0    0    0  501  0.00000000000E+00  0.00000000000E+00 -0.13329346028E+04  0.13329346028E+04  0.25500000920E-02 0.  1.
    10030    2    1    2    0    0  0.00000000000E+00  0.00000000000E+00  0.10180276527E+04  0.36838968583E+04  0.35404400519E+04 0.  0.
        1    1    3    3  502    0  0.11656849515E+04  0.11218817211E+04 -0.23859702524E+03  0.16353496699E+04  0.50400001928E-02 0.  1.
       -1    1    3    3    0  502 -0.11656849515E+04 -0.11218817211E+04  0.12566246779E+04  0.20485471885E+04  0.50400001928E-02 0. -1.
</event>
<event>
 5   0  0.2936607E-07  0.3518359E+04  0.7818609E-02  0.8109453E-01
        1   -1    0    0  501    0  0.00000000000E+00  0.00000000000E+00  0.11761383483E+04  0.11761383483E+04  0.50400001928E-02 0. -1.
       -1   -1    0    0    0  501  0.00000000000E+00  0.00000000000E+00 -0.26312479969E+04  0.26312479969E+04  0.50400001928E-02 0.  1.
    10030    2    1    2    0    0  0.00000000000E+00  0.00000000000E+00 -0.14551096487E+04  0.38073863452E+04  0.35183585224E+04 0.  0.
        2    1    3    3  502    0 -0.15298041454E+04 -0.53129595891E+02  0.21060500059E+03  0.15451465768E+04  0.25500000920E-02 0.  1.
       -2    1    3    3    0  502  0.15298041454E+04  0.53129595891E+02 -0.16657146492E+04  0.22622397685E+04  0.25500000920E-02 0. -1.
</event>
<event>
 5   0  0.6188930E-07  0.3920443E+04  0.7818609E-02  0.8020791E-01
        2   -1    0    0  501    0  0.00000000000E+00  0.00000000000E+00  0.15324090904E+04  0.15324090904E+04  0.25500000920E-02 0.  1.
       -2   -1    0    0    0  501  0.00000000000E+00  0.00000000000E+00 -0.25074684933E+04  0.25074684933E+04  0.25500000920E-02 0. -1.
    10030    2    1    2    0    0  0.00000000000E+00  0.00000000000E+00 -0.97505940285E+03  0.40398775838E+04  0.39204425838E+04 0.  0.
        3    1    3    3  502    0  0.11844669632E+04 -0.27516118875E+02 -0.20967540844E+04  0.24083390177E+04  0.10100000352E+00 0. -1.
       -3    1    3    3    0  502 -0.11844669632E+04  0.27516118875E+02  0.11216946815E+04  0.16315385660E+04  0.10100000352E+00 0.  1.
</event>
<event>
 5   0  0.2933506E-07  0.3347630E+04  0.7818609E-02  0.8150881E-01
       -1   -1    0    0    0  501  0.00000000000E+00  0.00000000000E+00  0.18273625478E+04  0.18273625478E+04  0.50400001928E-02 0.  1.
        1   -1    0    0  501    0  0.00000000000E+00  0.00000000000E+00 -0.15331694289E+04  0.15331694289E+04  0.50400001928E-02 0. -1.
    10030    2    1    2    0    0  0.00000000000E+00  0.00000000000E+00  0.29419311892E+03  0.33605319767E+04  0.33476298444E+04 0.  0.
        4    1    3    3  502    0 -0.80984614551E+03 -0.93590994601E+03 -0.98413459477E+03  0.15812339232E+04  0.12699999809E+01 0. -1.
       -4    1    3    3    0  502  0.80984614551E+03  0.93590994601E+03  0.12783277137E+04  0.17792980534E+04  0.12699999809E+01 0.  1.
</event>
<event>
 5   0  0.2933506E-07  0.3470774E+04  0.7818609E-02  0.8120751E-01
        1   -1    0    0  501    0  0.00000000000E+00  0.00000000000E+00  0.18390185398E+04  0.18390185398E+04  0.50400001928E-02 0.  1.
       -1   -1    0    0    0  501  0.00000000000E+00  0.00000000000E+00 -0.16375951955E+04  0.16375951955E+04  0.50400001928E-02 0. -1.
    10030    2    1    2    0    0  0.00000000000E+00  0.00000000000E+00  0.20142334427E+03  0.34766137353E+04  0.34707739340E+04 0.  0.
        4    1    3    3  502    0  0.89578467081E+03  0.82735002066E+02 -0.13857970846E+04  0.16521835339E+04  0.12699999809E+01 0. -1.
       -4    1    3    3    0  502 -0.89578467081E+03 -0.82735002066E+02  0.15872204289E+04  0.18244302014E+04  0.12699999809E+01 0.  1.
</event>
<event>
 5   0  0.9128871E-07  0.3454696E+04  0.7818609E-02  0.8124611E-01
        2   -1    0    0  501    0  0.00000000000E+00  0.00000000000E+00  0.19885948366E+04  0.19885948366E+04  0.25500000920E-02 0. -1.
       -2   -1    0    0    0  501  0.00000000000E+00  0.00000000000E+00 -0.15004217392E+04  0.15004217392E+04  0.25500000920E-02 0.  1.
    10030    2    1    2    0    0  0.00000000000E+00  0.00000000000E+00  0.48817309747E+03  0.34890165758E+04  0.34546958901E+04 0.  0.
        1    1    3    3  502    0 -0.63080291715E+03  0.89991710437E+03 -0.11018071322E+04  0.15561947409E+04  0.50400001928E-02 0.  1.
       -1    1    3    3    0  502  0.63080291715E+03 -0.89991710437E+03  0.15899802296E+04  0.19328218350E+04  0.50400001928E-02 0. -1.
</event>
<event>
 5   0  0.9311672E-07  0.3422096E+04  0.7818609E-02  0.8132504E-01
        2   -1    0    0  501    0  0.00000000000E+00  0.00000000000E+00  0.17046581014E+04  0.17046581014E+04  0.25500000920E-02 0. -1.
       -2   -1    0    0    0  501  0.00000000000E+00  0.00000000000E+00 -0.17174622471E+04  0.17174622471E+04  0.25500000920E-02 0.  1.
    10030    2    1    2    0    0  0.00000000000E+00  0.00000000000E+00 -0.12804145653E+02  0.34221203485E+04  0.34220963946E+04 0.  0.
        4    1    3    3  502    0  0.46753834367E+03 -0.96194446053E+02  0.16367280629E+04  0.17049122673E+04  0.12699999809E+01 0. -1.
       -4    1    3    3    0  502 -0.46753834367E+03  0.96194446053E+02 -0.16495322086E+04  0.17172080813E+04  0.12699999809E+01 0.  1.
</event>
<event>
 5   0  0.3061330E-07  0.3513112E+04  0.7818609E-02  0.8110689E-01
       -1   -1    0    0    0  501  0.00000000000E+00  0.00000000000E+00  0.10402483674E+04  0.10402483674E+04  0.50400001928E-02 0. -1.
        1   -1    0    0  501    0  0.00000000000E+00  0.00000000000E+00 -0.29661087396E+04  0.29661087396E+04  0.50400001928E-02 0.  1.
    10030    2    1    2    0    0  0.00000000000E+00  0.00000000000E+00 -0.19258603722E+04  0.40063571070E+04  0.35131124513E+04 0.  0.
        5    1    3    3  502    0 -0.41227823748E+03  0.12283827698E+03 -0.29050988201E+04  0.29367812026E+04  0.46999998093E+01 0.  1.
       -5    1    3    3    0  502  0.41227823748E+03 -0.12283827698E+03  0.97923844793E+03  0.10695759044E+04  0.46999998093E+01 0. -1.
</event>
<event>
 5   0  0.9128871E-07  0.3473419E+04  0.7818609E-02  0.8120118E-01
        2   -1    0    0  501    0  0.00000000000E+00  0.00000000000E+00  0.12516015363E+04  0.12516015363E+04  0.25500000920E-02 0. -1.
       -2   -1    0    0    0  501  0.00000000000E+00  0.00000000000E+00 -0.24098403533E+04  0.24098403533E+04  0.25500000920E-02 0.  1.
    10030    2    1    2    0    0  0.00000000000E+00  0.00000000000E+00 -0.11582388171E+04  0.36614418896E+04  0.34734190006E+04 0.  0.
        1    1    3    3  502    0 -0.12498279484E+04  0.10697548848E+04 -0.11657648782E+04  0.20162968942E+04  0.50400001928E-02 0.  1.
       -1    1    3    3    0  502  0.12498279484E+04 -0.10697548848E+04  0.75260611112E+01  0.16451449954E+04  0.50400001928E-02 0. -1.
</event>
<event>
 5   0  0.6188930E-07  0.3493532E+04  0.7818609E-02  0.8115324E-01
        2   -1    0    0  501    0  0.00000000000E+00  0.00000000000E+00  0.11131287627E+04  0.11131287627E+04  0.25500000920E-02 0.  1.
       -2   -1    0    0    0  501  0.00000000000E+00  0.00000000000E+00 -0.27410950179E+04  0.27410950179E+04  0.25500000920E-02 0. -1.
    10030    2    1    2    0    0  0.00000000000E+00  0.00000000000E+00 -0.16279662552E+04  0.38542237806E+04  0.34935321414E+04 0.  0.
        3    1    3    3  502    0  0.27628706306E+01 -0.10644204424E+03 -0.27375113253E+04  0.27395813199E+04  0.10100000352E+00 0. -1.
       -3    1    3    3    0  502 -0.27628706306E+01  0.10644204424E+03  0.11095450701E+04  0.11146424606E+04  0.10100000352E+00 0.  1.
</event>
<event>
 5   0  0.2933506E-07  0.3506220E+04  0.7818609E-02  0.8112318E-01
       -1   -1    0    0    0  501  0.00000000000E+00  0.00000000000E+00  0.19540513893E+04  0.19540513894E+04  0.50400001928E-02 0.  1.
        1   -1    0    0  501    0  0.00000000000E+00  0.00000000000E+00 -0.15728316158E+04  0.15728316158E+04  0.50400001928E-02 0. -1.
    10030    2    1    2    0    0  0.00000000000E+00  0.00000000000E+00  0.38121977357E+03  0.35268830051E+04  0.35062195048E+04 0.  0.
        4    1    3    3  502    0 -0.56308519830E+03  0.83056076039E+03 -0.12553932806E+04  0.16071434345E+04  0.12699999809E+01 0. -1.
       -4    1    3    3    0  502  0.56308519830E+03 -0.83056076039E+03  0.16366130541E+04  0.19197395706E+04  0.12699999809E+01 0.  1.
</event>
<event>
 5   0  0.2933506E-07  0.3608960E+04  0.7818609E-02  0.8088442E-01
       -1   -1    0    0    0  501  0.00000000000E+00  0.00000000000E+00  0.15412946488E+04  0.15412946488E+04  0.50400001928E-02 0.  1.
        1   -1    0    0  501    0  0.00000000000E+00  0.00000000000E+00 -0.21126059239E+04  0.21126059239E+04  0.50400001928E-02 0. -1.
    10030    2    1    2    0    0  0.00000000000E+00  0.00000000000E+00 -0.57131127506E+03  0.36539005727E+04  0.36089600749E+04 0.  0.
        4    1    3    3  502    0 -0.19064447783E+03 -0.16741913177E+04 -0.93936187655E+03  0.19291615364E+04  0.12699999809E+01 0.  1.
       -4    1    3    3    0  502  0.19064447783E+03  0.16741913177E+04  0.36805060149E+03  0.17247390363E+04  0.12699999809E+01 0. -1.
</event>
<event>
 5   0  0.3026332E-07  0.3503835E+04  0.7818609E-02  0.8112882E-01
        1   -1    0    0  501    0  0.00000000000E+00  0.00000000000E+00  0.29680354482E+04  0.29680354482E+04  0.50400001928E-02 0. -1.
       -1   -1    0    0    0  501  0.00000000000E+00  0.00000000000E+00 -0.10340899796E+04  0.10340899796E+04  0.50400001928E-02 0.  1.
    10030    2    1    2    0    0  0.00000000000E+00  0.00000000000E+00  0.19339454686E+04  0.40021254279E+04  0.35038354506E+04 0.  0.
        1    1    3    3  502    0  0.72556102762E+03  0.12366930689E+04 -0.18284871823E+03  0.14454349537E+04  0.50400001928E-02 0.  1.
       -1    1    3    3    0  502 -0.72556102762E+03 -0.12366930689E+04  0.21167941868E+04  0.25566904742E+04  0.50400001928E-02 0. -1.
</event>
<event>
 5   0  0.2972541E-07  0.3563806E+04  0.7818609E-02  0.8098833E-01
        1   -1    0    0  501    0  0.00000000000E+00  0.00000000000E+00  0.18523477616E+04  0.18523477616E+04  0.50400001928E-02 0.  1.
       -1   -1    0    0    0  501  0.00000000000E+00  0.00000000000E+00 -0.17141370872E+04  0.17141370872E+04  0.50400001928E-02 0. -1.
    10030    2    1    2    0    0  0.00000000000E+00  0.00000000000E+00  0.13821067442E+03  0.35664848488E+04  0.35638058289E+04 0.  0.
        3    1    3    3  502    0 -0.94596934582E+02  0.11692498872E+04 -0.12732023680E+04  0.17312244680E+04  0.10100000352E+00 0. -1.
       -3    1    3    3    0  502  0.94596934582E+02 -0.11692498872E+04  0.14114130424E+04  0.18352603808E+04  0.10100000352E+00 0.  1.
</event>
<event>
 5   0  0.2907000E-07  0.3458897E+04  0.7818609E-02  0.8123600E-01
       -3   -1    0    0    0  501  0.00000000000E+00  0.00000000000E+00  0.18677150182E+04  0.18677150209E+04  0.10100000352E+00 0.  1.
        3   -1    0    0  501    0  0.00000000000E+00  0.00000000000E+00 -0.16014181962E+04  0.16014181994E+04  0.10100000352E+00 0. -1.
    10030    2    1    2    0    0  0.00000000000E+00  0.00000000000E+00  0.26629682203E+03  0.34691332203E+04  0.34588974114E+04 0.  0.
        2    1    3    3  502    0 -0.16682033603E+04 -0.13426470803E+03 -0.30410428968E+03  0.17010023169E+04  0.25500000920E-02 0. -1.
       -2    1    3    3    0  502  0.16682033603E+04  0.13426470803E+03  0.57040111172E+03  0.17681309034E+04  0.25500000920E-02 0.  1.
</event>
<event>
 5   0  0.2972541E-07  0.3482074E+04  0.7818609E-02  0.8118051E-01
        1   -1    0    0  501    0  0.00000000000E+00  0.00000000000E+00  0.20869791467E+04  0.20869791467E+04  0.50400001928E-02 0. -1.
       -1   -1    0    0    0  501  0.00000000000E+00  0.00000000000E+00 -0.14524391774E+04  0.14524391774E+04  0.50400001928E-02 0.  1.
    10030    2    1    2    0    0  0.00000000000E+00  0.00000000000E+00  0.63453996929E+03  0.35394183241E+04  0.34820742525E+04 0.  0.
        3    1    3    3  502    0 -0.48309177576E+03 -0.95712841936E+03  0.17116251840E+04  0.20196864251E+04  0.10100000352E+00 0. -1.
       -3    1    3    3    0  502  0.48309177576E+03  0.95712841936E+03 -0.10770852147E+04  0.15197318990E+04  0.10100000352E+00 0.  1.
</event>
<event>
 5   0  0.9311672E-07  0.3504400E+04  0.7818609E-02  0.8112748E-01
        2   -1    0    0  501    0  0.00000000000E+00  0.00000000000E+00  0.14854071802E+04  0.14854071802E+04  0.25500000920E-02 0. -1.
       -2   -1    0    0    0  501  0.00000000000E+00  0.00000000000E+00 -0.20669114919E+04  0.20669114919E+04  0.25500000920E-02 0.  1.
    10030    2    1    2    0    0  0.00000000000E+00  0.00000000000E+00 -0.58150431173E+03  0.35523186721E+04  0.35044001888E+04 0.  0.
        4    1    3    3  502    0  0.32517323555E+03 -0.11323715292E+04  0.10239795036E+04  0.15609415588E+04  0.12699999809E+01 0. -1.
       -4    1    3    3    0  502 -0.32517323555E+03  0.11323715292E+04 -0.16054838153E+04  0.19913771133E+04  0.12699999809E+01 0.  1.
</event>
<event>
 5   0  0.9128871E-07  0.3520537E+04  0.7818609E-02  0.8108940E-01
        2   -1    0    0  501    0  0.00000000000E+00  0.00000000000E+00  0.25442323825E+04  0.25442323825E+04  0.25500000920E-02 0. -1.
       -2   -1    0    0    0  501  0.00000000000E+00  0.00000000000E+00 -0.12178702389E+04  0.12178702389E+04  0.25500000920E-02 0.  1.
    10030    2    1    2    0    0  0.00000000000E+00  0.00000000000E+00  0.13263621436E+04  0.37621026214E+04  0.35205368337E+04 0.  0.
        1    1    3    3  502    0 -0.11674616869E+04  0.23151416607E+03  0.20490816270E+04  0.23696626582E+04  0.50400001928E-02 0. -1.
       -1    1    3    3    0  502  0.11674616869E+04 -0.23151416607E+03 -0.72271948335E+03  0.13924399632E+04  0.50400001928E-02 0.  1.
</event>
<event>
 5   0  0.2936607E-07  0.3492790E+04  0.7818609E-02  0.8115501E-01
        1   -1    0    0  501    0  0.00000000000E+00  0.00000000000E+00  0.21678949944E+04  0.21678949944E+04  0.50400001928E-02 0.  1.
       -1   -1    0    0    0  501  0.00000000000E+00  0.00000000000E+00 -0.14068463617E+04  0.14068463617E+04  0.50400001928E-02 0. -1.
    10030    2    1    2    0    0  0.00000000000E+00  0.00000000000E+00  0.76104863273E+03  0.35747413561E+04  0.34927898221E+04 0.  0.
        2    1    3    3  502    0 -0.15088825182E+04  0.74887193776E+03 -0.91112905314E+02  0.16869609345E+04  0.25500000920E-02 0.  1.
       -2    1    3    3    0  502  0.15088825182E+04 -0.74887193776E+03  0.85216153805E+03  0.18877804215E+04  0.25500000920E-02 0. -1.
</event>
<event>
 5   0  0.6188930E-07  0.3509302E+04  0.7818609E-02  0.8111589E-01
        2   -1    0    0  501    0  0.00000000000E+00  0.00000000000E+00  0.27740131461E+04  0.27740131461E+04  0.25500000920E-02 0.  1.
       -2   -1    0    0    0  501  0.00000000000E+00  0.00000000000E+00 -0.11098720072E+04  0.11098720072E+04  0.25500000920E-02 0. -1.
    10030    2    1    2    0    0  0.00000000000E+00  0.00000000000E+00  0.16641411388E+04  0.38838851533E+04  0.35093016619E+04 0.  0.
        3    1    3    3  502    0 -0.10039435586E+04  0.58163704120E+03 -0.62471030855E+03  0.13177508476E+04  0.10100000352E+00 0. -1.
       -3    1    3    3    0  502  0.10039435586E+04 -0.58163704120E+03  0.22888514474E+04  0.25661343057E+04  0.10100000352E+00 0.  1.
</event>
<event>
 5   0  0.2936607E-07  0.3617416E+04  0.7818609E-02  0.8086514E-01
        1   -1    0    0  501    0  0.00000000000E+00  0.00000000000E+00  0.19092786988E+04  0.19092786988E+04  0.50400001928E-02 0.  1.
       -1   -1    0    0    0  501  0.00000000000E+00  0.00000000000E+00 -0.17134345285E+04  0.17134345285E+04  0.50400001928E-02 0. -1.
    10030    2    1    2    0    0  0.00000000000E+00  0.00000000000E+00  0.19584417027E+03  0.36227132273E+04  0.36174156781E+04 0.  0.
        2    1    3    3  502    0 -0.12836023352E+04 -0.89936253906E+03 -0.80613805717E+03  0.17624830492E+04  0.25500000920E-02 0. -1.
       -2    1    3    3    0  502  0.12836023352E+04  0.89936253906E+03  0.10019822274E+04  0.18602301781E+04  0.25500000920E-02 0.  1.
</event>
<event>
 5   0  0.8950809E-07  0.3496625E+04  0.7818609E-02  0.8114590E-01
       -2   -1    0    0    0  501  0.00000000000E+00  0.00000000000E+00  0.13180068371E+04  0.13180068371E+04  0.25500000920E-02 0.  1.
        2   -1    0    0  501    0  0.00000000000E+00  0.00000000000E+00 -0.23191050545E+04  0.23191050545E+04  0.25500000920E-02 0. -1.
    10030    2    1    2    0    0  0.00000000000E+00  0.00000000000E+00 -0.10010982174E+04  0.36371118916E+04  0.34966248400E+04 0.  0.
        2    1    3    3  502    0 -0.13256328878E+04 -0.10098526806E+04 -0.10504593302E+04  0.19699161896E+04  0.25500000920E-02 0. -1.
       -2    1    3    3    0  502  0.13256328878E+04  0.10098526806E+04  0.49361112757E+02  0.16671957021E+04  0.25500000920E-02 0.  1.
</event>
<event>
 5   0  0.6188930E-07  0.3488829E+04  0.7818609E-02  0.8116442E-01
        2   -1    0    0  501    0  0.00000000000E+00  0.00000000000E+00  0.18773592655E+04  0.18773592655E+04  0.25500000920E-02 0. -1.
       -2   -1    0    0    0  501  0.00000000000E+00  0.00000000000E+00 -0.16208846514E+04  0.16208846514E+04  0.25500000920E-02 0.  1.
    10030    2    1    2    0    0  0.00000000000E+00  0.00000000000E+00  0.25647461409E+03  0.34982439169E+04  0.34888294992E+04 0.  0.
        3    1    3    3  502    0  0.29655632528E+03 -0.17141831290E+04  0.25747791991E+03  0.17585972658E+04  0.10100000352E+00 0.  1.
       -3    1    3    3    0  502 -0.29655632528E+03  0.17141831290E+04 -0.10033058211E+01  0.17396466511E+04  0.10100000352E+00 0. -1.
</event>
<event>
 5   0  0.3061330E-07  0.3482815E+04  0.7818609E-02  0.8117875E-01
       -1   -1    0    0    0  501  0.00000000000E+00  0.00000000000E+00  0.19237994992E+04  0.19237994992E+04  0.50400001928E-02 0. -1.
        1   -1    0    0  501    0  0.00000000000E+00  0.00000000000E+00 -0.15763076900E+04  0.15763076900E+04  0.50400001928E-02 0.  1.
    10030    2    1    2    0    0  0.00000000000E+00  0.00000000000E+00  0.34749180919E+03  0.35001071892E+04  0.34828149216E+04 0.  0.
        5    1    3    3  502    0 -0.45845724083E+03 -0.14191979724E+04  0.10771932137E+04  0.18397481448E+04  0.46999998093E+01 0. -1.
       -5    1    3    3    0  502  0.45845724083E+03  0.14191979724E+04 -0.72970140450E+03  0.16603590444E+04  0.46999998093E+01 0.  1.
</event>
<event>
 5   0  0.9128871E-07  0.3485365E+04  0.7818609E-02  0.8117267E-01
        2   -1    0    0  501    0  0.00000000000E+00  0.00000000000E+00  0.24271339624E+04  0.24271339624E+04  0.25500000920E-02 0.  1.
       -2   -1    0    0    0  501  0.00000000000E+00  0.00000000000E+00 -0.12512460994E+04  0.12512460994E+04  0.25500000920E-02 0. -1.
    10030    2    1    2    0    0  0.00000000000E+00  0.00000000000E+00  0.11758878630E+04  0.36783800617E+04  0.34853647746E+04 0.  0.
        1    1    3    3  502    0 -0.13767032624E+04 -0.78045372534E+03 -0.18220930482E+03  0.15929909356E+04  0.50400001928E-02 0. -1.
       -1    1    3    3    0  502  0.13767032624E+04  0.78045372534E+03  0.13580971679E+04  0.20853891261E+04  0.50400001928E-02 0.  1.
</event>
<event>
 5   0  0.9311672E-07  0.3490776E+04  0.7818609E-02  0.8115979E-01
        2   -1    0    0  501    0  0.00000000000E+00  0.00000000000E+00  0.14848417220E+04  0.14848417220E+04  0.25500000920E-02 0. -1.
       -2   -1    0    0    0  501  0.00000000000E+00  0.00000000000E+00 -0.20516528899E+04  0.20516528899E+04  0.25500000920E-02 0.  1.
    10030    2    1    2    0    0  0.00000000000E+00  0.00000000000E+00 -0.56681116791E+03  0.35364946119E+04  0.34907763091E+04 0.  0.
        4    1    3    3  502    0 -0.12444857520E+04  0.54094113673E+03  0.82870354318E+03  0.15900041747E+04  0.12699999809E+01 0. -1.
       -4    1    3    3    0  502  0.12444857520E+04 -0.54094113673E+03 -0.13955147111E+04  0.19464904372E+04  0.12699999809E+01 0.  1.
</event>
<event>
 5   0  0.3061330E-07  0.3509155E+04  0.7818609E-02  0.8111624E-01
       -1   -1    0    0    0  501  0.00000000000E+00  0.00000000000E+00  0.20950753735E+04  0.20950753735E+04  0.50400001928E-02 0. -1.
        1   -1    0    0  501    0  0.00000000000E+00  0.00000000000E+00 -0.14694181821E+04  0.14694181821E+04  0.50400001928E-02 0.  1.
    10030    2    1    2    0    0  0.00000000000E+00  0.00000000000E+00  0.62565719137E+03  0.35644935556E+04  0.35091547967E+04 0.  0.
        5    1    3    3  502    0 -0.84270360900E+03 -0.38712249518E+03  0.18257823938E+04  0.20478077640E+04  0.46999998093E+01 0. -1.
       -5    1    3    3    0  502  0.84270360900E+03  0.38712249518E+03 -0.12001252024E+04  0.15166857916E+04  0.46999998093E+01 0.  1.
</event>
<event>
 5   0  0.2936607E-07  0.3507850E+04  0.7818609E-02  0.8111932E-01
       -1   -1    0    0    0  501  0.00000000000E+00  0.00000000000E+00  0.24725279864E+04  0.24725279864E+04  0.50400001928E-02 0.  1.
        1   -1    0    0  501    0  0.00000000000E+00  0.00000000000E+00 -0.12441728676E+04  0.12441728676E+04  0.50400001928E-02 0. -1.
    10030    2    1    2    0    0  0.00000000000E+00  0.00000000000E+00  0.12283551188E+04  0.37167008540E+04  0.35078496177E+04 0.  0.
        2    1    3    3  502    0 -0.64666923438E+03  0.12012142119E+04  0.17821499553E+04  0.22443607430E+04  0.25500000920E-02 0.  1.
       -2    1    3    3    0  502  0.64666923438E+03 -0.12012142119E+04 -0.55379483648E+03  0.14723401110E+04  0.25500000920E-02 0. -1.
</event>
<event>
 5   0  0.3061330E-07  0.3311502E+04  0.7818609E-02  0.8159975E-01
       -1   -1    0    0    0  501  0.00000000000E+00  0.00000000000E+00  0.13478466238E+04  0.13478466238E+04  0.50400001928E-02 0. -1.
        1   -1    0    0  501    0  0.00000000000E+00  0.00000000000E+00 -0.20339935561E+04  0.20339935561E+04  0.50400001928E-02 0.  1.
    10030    2    1    2    0    0  0.00000000000E+00  0.00000000000E+00 -0.68614693234E+03  0.33818401799E+04  0.33115019839E+04 0.  0.
        5    1    3    3  502    0 -0.54729149721E+01 -0.10382076084E+04  0.97412271309E+03  0.14236720624E+04  0.46999998093E+01 0. -1.
       -5    1    3    3    0  502  0.54729149721E+01  0.10382076084E+04 -0.16602696454E+04  0.19581681175E+04  0.46999998093E+01 0.  1.
</event>
<event>
 5   0  0.6188930E-07  0.3507701E+04  0.7818609E-02  0.8111967E-01
       -2   -1    0    0    0  501  0.00000000000E+00  0.00000000000E+00  0.15430806113E+04  0.15430806113E+04  0.25500000920E-02 0. -1.
        2   -1    0    0  501    0  0.00000000000E+00  0.00000000000E+00 -0.19934096349E+04  0.19934096349E+04  0.25500000920E-02 0.  1.
    10030    2    1    2    0    0  0.00000000000E+00  0.00000000000E+00 -0.45032902352E+03  0.35364902462E+04  0.35077011036E+04 0.  0.
        3    1    3    3  502    0 -0.28148238188E+03 -0.80972248556E+03 -0.17677906807E+04  0.19646798049E+04  0.10100000352E+00 0.  1.
       -3    1    3    3    0  502  0.28148238188E+03  0.80972248556E+03  0.13174616572E+04  0.15718104413E+04  0.10100000352E+00 0. -1.
</event>
<event>
 5   0  0.8950809E-07  0.3542330E+04  0.7818609E-02  0.8103831E-01
       -2   -1    0    0    0  501  0.00000000000E+00  0.00000000000E+00  0.14589874604E+04  0.14589874604E+04  0.25500000920E-02 0.  1.
        2   -1    0    0  501    0  0.00000000000E+00  0.00000000000E+00 -0.21501385374E+04  0.21501385374E+04  0.25500000920E-02 0. -1.
    10030    2    1    2    0    0  0.00000000000E+00  0.00000000000E+00 -0.69115107694E+03  0.36091259978E+04  0.35423298346E+04 0.  0.
        2    1    3    3  502    0  0.57420882017E+02  0.17409299195E+04 -0.67239039236E+03  0.18671483557E+04  0.25500000920E-02 0. -1.
       -2    1    3    3    0  502 -0.57420882017E+02 -0.17409299195E+04 -0.18760684580E+02  0.17419776421E+04  0.25500000920E-02 0.  1.
</event>
<event>
 5   0  0.8845195E-07  0.3471841E+04  0.7818609E-02  0.8120496E-01
        2   -1    0    0  501    0  0.00000000000E+00  0.00000000000E+00  0.12406423477E+04  0.12406423477E+04  0.25500000920E-02 0. -1.
       -2   -1    0    0    0  501  0.00000000000E+00  0.00000000000E+00 -0.24289185421E+04  0.24289185421E+04  0.25500000920E-02 0.  1.
    10030    2    1    2    0    0  0.00000000000E+00  0.00000000000E+00 -0.11882761944E+04  0.36695608898E+04  0.34718405507E+04 0.  0.
        5    1    3    3  502    0  0.52071088863E+03 -0.76518347004E+03  0.95808587209E+03  0.13321397076E+04  0.46999998093E+01 0. -1.
       -5    1    3    3    0  502 -0.52071088863E+03  0.76518347004E+03 -0.21463620665E+04  0.23374211822E+04  0.46999998093E+01 0.  1.
</event>
<event>
 5   0  0.2933506E-07  0.3468927E+04  0.7818609E-02  0.8121194E-01
       -1   -1    0    0    0  501  0.00000000000E+00  0.00000000000E+00  0.12211683707E+04  0.12211683707E+04  0.50400001928E-02 0.  1.
        1   -1    0    0  501    0  0.00000000000E+00  0.00000000000E+00 -0.24635124492E+04  0.24635124492E+04  0.50400001928E-02 0. -1.
    10030    2    1    2    0    0  0.00000000000E+00  0.00000000000E+00 -0.12423440785E+04  0.36846808199E+04  0.34689269141E+04 0.  0.
        4    1    3    3  502    0  0.17290296970E+04  0.10028073926E+03 -0.72059922282E+03  0.18758637404E+04  0.12699999809E+01 0.  1.
       -4    1    3    3    0  502 -0.17290296970E+04 -0.10028073926E+03 -0.52174485573E+03  0.18088170795E+04  0.12699999809E+01 0. -1.
</event>
<event>
 5   0  0.3026332E-07  0.3531289E+04  0.7818609E-02  0.8106415E-01
       -1   -1    0    0    0  501  0.00000000000E+00  0.00000000000E+00  0.20511889928E+04  0.20511889928E+04  0.50400001928E-02 0. -1.
        1   -1    0    0  501    0  0.00000000000E+00  0.00000000000E+00 -0.15198501715E+04  0.15198501715E+04  0.50400001928E-02 0.  1.
    10030    2    1    2    0    0  0.00000000000E+00  0.00000000000E+00  0.53133882138E+03  0.35710391643E+04  0.35312886840E+04 0.  0.
        1    1    3    3  502    0  0.10493819525E+04  0.11755561138E+04 -0.53976669547E+03  0.16656778634E+04  0.50400001928E-02 0.  1.
       -1    1    3    3    0  502 -0.10493819525E+04 -0.11755561138E+04  0.10711055169E+04  0.19053613010E+04  0.50400001928E-02 0. -1.
</event>
<event>
 5   0  0.8950809E-07  0.3469448E+04  0.7818609E-02  0.8121069E-01
       -2   -1    0    0    0  501  0.00000000000E+00  0.00000000000E+00  0.14604954917E+04  0.14604954917E+04  0.25500000920E-02 0. -1.
        2   -1    0    0  501    0  0.00000000000E+00  0.00000000000E+00 -0.20604429338E+04  0.20604429338E+04  0.25500000920E-02 0.  1.
    10030    2    1    2    0    0  0.00000000000E+00  0.00000000000E+00 -0.59994744215E+03  0.35209384255E+04  0.34694481496E+04 0.  0.
        2    1    3    3  502    0 -0.95518611038E+03 -0.14300913546E+04 -0.69165245167E+02  0.17211407900E+04  0.25500000920E-02 0.  1.
       -2    1    3    3    0  502  0.95518611038E+03  0.14300913546E+04 -0.53078219698E+03  0.17997976355E+04  0.25500000920E-02 0. -1.
</event>
<event>
 5   0  0.3061330E-07  0.3050027E+04  0.7818609E-02  0.8229588E-01
       -1   -1    0    0    0  501  0.00000000000E+00  0.00000000000E+00  0.14537364694E+04  0.14537364694E+04  0.50400001928E-02 0.  1.
        1   -1    0    0  501    0  0.00000000000E+00  0.00000000000E+00 -0.15997849114E+04  0.15997849114E+04  0.50400001928E-02 0. -1.
    10030    2    1    2    0    0  0.00000000000E+00  0.00000000000E+00 -0.14604844200E+03  0.30535213808E+04  0.30500266680E+04 0.  0.
        5    1    3    3  502    0 -0.61093305589E+03  0.10474773039E+04  0.85280328062E+03  0.14824788114E+04  0.46999998093E+01 0.  1.
       -5    1    3    3    0  502  0.61093305589E+03 -0.10474773039E+04 -0.99885172262E+03  0.15710425694E+04  0.46999998093E+01 0. -1.
</event>
<event>
 5   0  0.2933506E-07  0.3481047E+04  0.7818609E-02  0.8118296E-01
        1   -1    0    0  501    0  0.00000000000E+00  0.00000000000E+00  0.20097207738E+04  0.20097207738E+04  0.50400001928E-02 0.  1.
       -1   -1    0    0    0  501  0.00000000000E+00  0.00000000000E+00 -0.15073843187E+04  0.15073843187E+04  0.50400001928E-02 0. -1.
    10030    2    1    2    0    0  0.00000000000E+00  0.00000000000E+00  0.50233645512E+03  0.35171050926E+04  0.34810467273E+04 0.  0.
        4    1    3    3  502    0 -0.49780642929E+03  0.10361913806E+03  0.19330044768E+04  0.19987636396E+04  0.12699999809E+01 0.  1.
       -4    1    3    3    0  502  0.49780642929E+03 -0.10361913806E+03 -0.14306680216E+04  0.15183414530E+04  0.12699999809E+01 0. -1.
</event>
<event>
 5   0  0.9311672E-07  0.3307147E+04  0.7818609E-02  0.8161079E-01
        2   -1    0    0  501    0  0.00000000000E+00  0.00000000000E+00  0.24003942646E+04  0.24003942646E+04  0.25500000920E-02 0.  1.
       -2   -1    0    0    0  501  0.00000000000E+00  0.00000000000E+00 -0.11391065211E+04  0.11391065211E+04  0.25500000920E-02 0. -1.
    10030    2    1    2    0    0  0.00000000000E+00  0.00000000000E+00  0.12612877435E+04  0.35395007857E+04  0.33071466614E+04 0.  0.
        4    1    3    3  502    0 -0.15199330382E+04 -0.37654512572E+03  0.61974620285E+02  0.15671072518E+04  0.12699999809E+01 0. -1.
       -4    1    3    3    0  502  0.15199330382E+04  0.37654512572E+03  0.11993131232E+04  0.19723935339E+04  0.12699999809E+01 0.  1.
</event>
<event>
 5   0  0.3061330E-07  0.3496203E+04  0.7818609E-02  0.8114690E-01
        1   -1    0    0  501    0  0.00000000000E+00  0.00000000000E+00  0.19079750715E+04  0.19079750715E+04  0.50400001928E-02 0.  1.
       -1   -1    0    0    0  501  0.00000000000E+00  0.00000000000E+00 -0.16016237173E+04  0.16016237173E+04  0.50400001928E-02 0. -1.
    10030    2    1    2    0    0  0.00000000000E+00  0.00000000000E+00  0.30635135425E+03  0.35095987888E+04  0.34962025837E+04 0.  0.
        5    1    3    3  502    0  0.73537392250E+03 -0.39111259971E+03  0.16959745099E+04  0.18894696346E+04  0.46999998093E+01 0.  1.
       -5    1    3    3    0  502 -0.73537392250E+03  0.39111259971E+03 -0.13896231557E+04  0.16201291542E+04  0.46999998093E+01 0. -1.
</event>
<event>
 5   0  0.6188930E-07  0.3438209E+04  0.7818609E-02  0.8128592E-01
       -2   -1    0    0    0  501  0.00000000000E+00  0.00000000000E+00  0.10840715613E+04  0.10840715613E+04  0.25500000920E-02 0.  1.
        2   -1    0    0  501    0  0.00000000000E+00  0.00000000000E+00 -0.27261300091E+04  0.27261300091E+04  0.25500000920E-02 0. -1.
    10030    2    1    2    0    0  0.00000000000E+00  0.00000000000E+00 -0.16420584479E+04  0.38102015704E+04  0.34382088449E+04 0.  0.
        3    1    3    3  502    0 -0.50798917146E+03 -0.14416384682E+04  0.50821063752E+02  0.15293649865E+04  0.10100000352E+00 0.  1.
       -3    1    3    3    0  502  0.50798917146E+03  0.14416384682E+04 -0.16928795116E+04  0.22808365839E+04  0.10100000352E+00 0. -1.
</event>
<event>
 5   0  0.9128871E-07  0.3521743E+04  0.7818609E-02  0.8108656E-01
        2   -1    0    0  501    0  0.00000000000E+00  0.00000000000E+00  0.21831933054E+04  0.21831933054E+04  0.25500000920E-02 0.  1.
       -2   -1    0    0    0  501  0.00000000000E+00  0.00000000000E+00 -0.14202446400E+04  0.14202446400E+04  0.25500000920E-02 0. -1.
    10030    2    1    2    0    0  0.00000000000E+00  0.00000000000E+00  0.76294866538E+03  0.36034379454E+04  0.35217430855E+04 0.  0.
        1    1    3    3  502    0 -0.12852048392E+04  0.11514891929E+04  0.22640126289E+02  0.17257437282E+04  0.50400001928E-02 0. -1.
       -1    1    3    3    0  502  0.12852048392E+04 -0.11514891929E+04  0.74030853910E+03  0.18776942172E+04  0.50400001928E-02 0.  1.
</event>
<event>
 5   0  0.3026332E-07  0.3516051E+04  0.7818609E-02  0.8109997E-01
        1   -1    0    0  501    0  0.00000000000E+00  0.00000000000E+00  0.18028804896E+04  0.18028804896E+04  0.50400001928E-02 0. -1.
       -1   -1    0    0    0  501  0.00000000000E+00  0.00000000000E+00 -0.17142862563E+04  0.17142862563E+04  0.50400001928E-02 0.  1.
    10030    2    1    2    0    0  0.00000000000E+00  0.00000000000E+00  0.88594233363E+02  0.35171667459E+04  0.35160507647E+04 0.  0.
        1    1    3    3  502    0 -0.25703797046E+03 -0.13472699870E+04  0.11443953756E+04  0.17862938481E+04  0.50400001928E-02 0. -1.
       -1    1    3    3    0  502  0.25703797046E+03  0.13472699870E+04 -0.10558011423E+04  0.17308728977E+04  0.50400001928E-02 0.  1.
</event>
<event>
 5   0  0.2907000E-07  0.3468717E+04  0.7818609E-02  0.8121244E-01
       -3   -1    0    0    0  501  0.00000000000E+00  0.00000000000E+00  0.11326933496E+04  0.11326933541E+04  0.10100000352E+00 0. -1.
        3   -1    0    0  501    0  0.00000000000E+00  0.00000000000E+00 -0.26556163871E+04  0.26556163890E+04  0.10100000352E+00 0.  1.
    10030    2    1    2    0    0  0.00000000000E+00  0.00000000000E+00 -0.15229230375E+04  0.37883097431E+04  0.34687167846E+04 0.  0.
        2    1    3    3  502    0  0.25243020472E+03 -0.16986680381E+04 -0.49662158301E+03  0.17876876430E+04  0.25500000920E-02 0. -1.
       -2    1    3    3    0  502 -0.25243020472E+03  0.16986680381E+04 -0.10263014545E+04  0.20006221001E+04  0.25500000920E-02 0.  1.
</event>
<event>
 5   0  0.2936607E-07  0.3594973E+04  0.7818609E-02  0.8091644E-01
       -1   -1    0    0    0  501  0.00000000000E+00  0.00000000000E+00  0.15789612465E+04  0.15789612465E+04  0.50400001928E-02 0.  1.
        1   -1    0    0  501    0  0.00000000000E+00  0.00000000000E+00 -0.20462556692E+04  0.20462556692E+04  0.50400001928E-02 0. -1.
    10030    2    1    2    0    0  0.00000000000E+00  0.00000000000E+00 -0.46729442267E+03  0.36252169157E+04  0.35949733808E+04 0.  0.
        2    1    3    3  502    0  0.58832027907E+03  0.16401373907E+04 -0.67870693439E+03  0.18699771426E+04  0.25500000920E-02 0. -1.
       -2    1    3    3    0  502 -0.58832027907E+03 -0.16401373907E+04  0.21141251171E+03  0.17552397731E+04  0.25500000920E-02 0.  1.
</event>
<event>
 5   0  0.2933506E-07  0.3485782E+04  0.7818609E-02  0.8117168E-01
       -1   -1    0    0    0  501  0.00000000000E+00  0.00000000000E+00  0.12167649295E+04  0.12167649295E+04  0.50400001928E-02 0. -1.
        1   -1    0    0  501    0  0.00000000000E+00  0.00000000000E+00 -0.24965126015E+04  0.24965126015E+04  0.50400001928E-02 0.  1.
    10030    2    1    2    0    0  0.00000000000E+00  0.00000000000E+00 -0.12797476720E+04  0.37132775310E+04  0.34857819666E+04 0.  0.
        4    1    3    3  502    0 -0.23326315388E+03 -0.56488738980E+03  0.10988762795E+04  0.12573941914E+04  0.12699999809E+01 0. -1.
       -4    1    3    3    0  502  0.23326315388E+03  0.56488738980E+03 -0.23786239515E+04  0.24558833396E+04  0.12699999809E+01 0.  1.
</event>
<event>
 5   0  0.2936607E-07  0.3496821E+04  0.7818609E-02  0.8114544E-01
        1   -1    0    0  501    0  0.00000000000E+00  0.00000000000E+00  0.19351293083E+04  0.19351293083E+04  0.50400001928E-02 0.  1.
       -1   -1    0    0    0  501  0.00000000000E+00  0.00000000000E+00 -0.15797084164E+04  0.15797084164E+04  0.50400001928E-02 0. -1.
    10030    2    1    2    0    0  0.00000000000E+00  0.00000000000E+00  0.35542089185E+03  0.35148377247E+04  0.34968214453E+04 0.  0.
        2    1    3    3  502    0  0.24366796954E+03 -0.59926204858E+03 -0.14549893423E+04  0.15923200270E+04  0.25500000920E-02 0. -1.
       -2    1    3    3    0  502 -0.24366796954E+03  0.59926204858E+03  0.18104102341E+04  0.19225176977E+04  0.25500000920E-02 0.  1.
</event>
<event>
 5   0  0.3026332E-07  0.3495465E+04  0.7818609E-02  0.8114866E-01
        1   -1    0    0  501    0  0.00000000000E+00  0.00000000000E+00  0.18101514812E+04  0.18101514812E+04  0.50400001928E-02 0.  1.
       -1   -1    0    0    0  501  0.00000000000E+00  0.00000000000E+00 -0.16874655768E+04  0.16874655768E+04  0.50400001928E-02 0. -1.
    10030    2    1    2    0    0  0.00000000000E+00  0.00000000000E+00  0.12268590444E+03  0.34976170580E+04  0.34954646692E+04 0.  0.
        1    1    3    3  502    0 -0.59701387996E+03 -0.53478128859E+03 -0.14927237359E+04  0.16942965358E+04  0.50400001928E-02 0. -1.
       -1    1    3    3    0  502  0.59701387996E+03  0.53478128859E+03  0.16154096404E+04  0.18033205222E+04  0.50400001928E-02 0.  1.
</event>
<event>
 5   0  0.6188930E-07  0.3502683E+04  0.7818609E-02  0.8113154E-01
       -2   -1    0    0    0  501  0.00000000000E+00  0.00000000000E+00  0.10491567995E+04  0.10491567995E+04  0.25500000920E-02 0.  1.
        2   -1    0    0  501    0  0.00000000000E+00  0.00000000000E+00 -0.29234876910E+04  0.29234876910E+04  0.25500000920E-02 0. -1.
    10030    2    1    2    0    0  0.00000000000E+00  0.00000000000E+00 -0.18743308915E+04  0.39726444905E+04  0.35026829656E+04 0.  0.
        3    1    3    3  502    0  0.12231697018E+03 -0.17318588279E+04 -0.67630458900E+03  0.18632456490E+04  0.10100000352E+00 0.  1.
       -3    1    3    3    0  502 -0.12231697018E+03  0.17318588279E+04 -0.11980263025E+04  0.21093988415E+04  0.10100000352E+00 0. -1.
</event>
<event>
 5   0  0.8950809E-07  0.3564375E+04  0.7818609E-02  0.8098701E-01
        2   -1    0    0  501    0  0.00000000000E+00  0.00000000000E+00  0.16053830899E+04  0.16053830899E+04  0.25500000920E-02 0.  1.
       -2   -1    0    0    0  501  0.00000000000E+00  0.00000000000E+00 -0.19784634069E+04  0.19784634069E+04  0.25500000920E-02 0. -1.
    10030    2    1    2    0    0  0.00000000000E+00  0.00000000000E+00 -0.37308031702E+03  0.35838464967E+04  0.35643746701E+04 0.  0.
        2    1    3    3  502    0 -0.11103013587E+04  0.13379961130E+04  0.20699163972E+03  0.17509563799E+04  0.25500000920E-02 0.  1.
       -2    1    3    3    0  502  0.11103013587E+04 -0.13379961130E+04 -0.58007195673E+03  0.18328901168E+04  0.25500000920E-02 0. -1.
</event>
<event>
 5   0  0.2936607E-07  0.3304721E+04  0.7818609E-02  0.8161695E-01
        1   -1    0    0  501    0  0.00000000000E+00  0.00000000000E+00  0.18524608927E+04  0.18524608927E+04  0.50400001928E-02 0.  1.
       -1   -1    0    0    0  501  0.00000000000E+00  0.00000000000E+00 -0.14738742743E+04  0.14738742743E+04  0.50400001928E-02 0. -1.
    10030    2    1    2    0    0  0.00000000000E+00  0.00000000000E+00  0.37858661843E+03  0.33263351670E+04  0.33047205352E+04 0.  0.
        2    1    3    3  502    0  0.11429741126E+04  0.11924442227E+04  0.14448916601E+03  0.16580682029E+04  0.25500000920E-02 0. -1.
       -2    1    3    3    0  502 -0.11429741126E+04 -0.11924442227E+04  0.23409745242E+03  0.16682669641E+04  0.25500000920E-02 0.  1.
</event>
<event>
 5   0  0.2933506E-07  0.3781040E+04  0.7818609E-02  0.8050236E-01
        1   -1    0    0  501    0  0.00000000000E+00  0.00000000000E+00  0.23906471398E+04  0.23906471398E+04  0.50400001928E-02 0. -1.
       -1   -1    0    0    0  501  0.00000000000E+00  0.00000000000E+00 -0.14950202220E+04  0.14950202220E+04  0.50400001928E-02 0.  1.
    10030    2    1    2    0    0  0.00000000000E+00  0.00000000000E+00  0.89562691779E+03  0.38856673617E+04  0.37810399720E+04 0.  0.
        4    1    3    3  502    0 -0.14359981103E+03  0.28488404522E+03  0.23627835447E+04  0.23842247203E+04  0.12699999809E+01 0. -1.
       -4    1    3    3    0  502  0.14359981103E+03 -0.28488404522E+03 -0.14671566269E+04  0.15014426415E+04  0.12699999809E+01 0.  1.
</event>
<event>
 5   0  0.3026332E-07  0.3446667E+04  0.7818609E-02  0.8126547E-01
       -1   -1    0    0    0  501  0.00000000000E+00  0.00000000000E+00  0.19057473915E+04  0.19057473915E+04  0.50400001928E-02 0. -1.
        1   -1    0    0  501    0  0.00000000000E+00  0.00000000000E+00 -0.15583803076E+04  0.15583803076E+04  0.50400001928E-02 0.  1.
    10030    2    1    2    0    0  0.00000000000E+00  0.00000000000E+00  0.34736708389E+03  0.34641276990E+04  0.34466674955E+04 0.  0.
        1    1    3    3  502    0 -0.16623389261E+04  0.13396167149E+03  0.61012146570E+03  0.17758278738E+04  0.50400001928E-02 0.  1.
       -1    1    3    3    0  502  0.16623389261E+04 -0.13396167149E+03 -0.26275438180E+03  0.16882998252E+04  0.50400001928E-02 0. -1.
</event>
<event>
 5   0  0.3026332E-07  0.3520241E+04  0.7818609E-02  0.8109010E-01
        1   -1    0    0  501    0  0.00000000000E+00  0.00000000000E+00  0.22242095044E+04  0.22242095044E+04  0.50400001928E-02 0. -1.
       -1   -1    0    0    0  501  0.00000000000E+00  0.00000000000E+00 -0.13928654552E+04  0.13928654552E+04  0.50400001928E-02 0.  1.
    10030    2    1    2    0    0  0.00000000000E+00  0.00000000000E+00  0.83134404923E+03  0.36170749597E+04  0.35202412326E+04 0.  0.
        1    1    3    3  502    0  0.11875166102E+03  0.53100004702E+03  0.21356234086E+04  0.22038489854E+04  0.50400001928E-02 0. -1.
       -1    1    3    3    0  502 -0.11875166102E+03 -0.53100004702E+03 -0.13042793594E+04  0.14132259743E+04  0.50400001928E-02 0.  1.
</event>
<event>
 5   0  0.2936607E-07  0.3225700E+04  0.7818609E-02  0.8182063E-01
       -1   -1    0    0    0  501  0.00000000000E+00  0.00000000000E+00  0.12970947188E+04  0.12970947188E+04  0.50400001928E-02 0.  1.
        1   -1    0    0  501    0  0.00000000000E+00  0.00000000000E+00 -0.20054706624E+04  0.20054706624E+04  0.50400001928E-02 0. -1.
    10030    2    1    2    0    0  0.00000000000E+00  0.00000000000E+00 -0.70837594357E+03  0.33025653812E+04  0.32257001751E+04 0.  0.
        2    1    3    3  502    0  0.99215117773E+03 -0.12606509974E+04 -0.52452711378E+03  0.16878191816E+04  0.25500000920E-02 0. -1.
       -2    1    3    3    0  502 -0.99215117773E+03  0.12606509974E+04 -0.18384882980E+03  0.16147461995E+04  0.25500000920E-02 0.  1.
</event>
<event>
 5   0  0.2933506E-07  0.3512600E+04  0.7818609E-02  0.8110810E-01
        1   -1    0    0  501    0  0.00000000000E+00  0.00000000000E+00  0.24207071129E+04  0.24207071129E+04  0.50400001928E-02 0.  1.
       -1   -1    0    0    0  501  0.00000000000E+00  0.00000000000E+00 -0.12742514256E+04  0.12742514256E+04  0.50400001928E-02 0. -1.
    10030    2    1    2    0    0  0.00000000000E+00  0.00000000000E+00  0.11464556874E+04  0.36949585385E+04  0.35125998859E+04 0.  0.
        4    1    3    3  502    0 -0.50557839363E+03  0.30591614862E+03  0.23129937096E+04  0.23872862660E+04  0.12699999809E+01 0.  1.
       -4    1    3    3    0  502  0.50557839363E+03 -0.30591614862E+03 -0.11665380223E+04  0.13076722725E+04  0.12699999809E+01 0. -1.
</event>
<event>
 5   0  0.2972541E-07  0.3519470E+04  0.7818609E-02  0.8109191E-01
        1   -1    0    0  501    0  0.00000000000E+00  0.00000000000E+00  0.91998318062E+03  0.91998318063E+03  0.50400001928E-02 0. -1.
       -1   -1    0    0    0  501  0.00000000000E+00  0.00000000000E+00 -0.33660038219E+04  0.33660038219E+04  0.50400001928E-02 0.  1.
    10030    2    1    2    0    0  0.00000000000E+00  0.00000000000E+00 -0.24460206413E+04  0.42859870025E+04  0.35194697908E+04 0.  0.
        3    1    3    3  502    0  0.49941499522E+03  0.12910787284E+04  0.10005774579E+03  0.13879161297E+04  0.10100000352E+00 0. -1.
       -3    1    3    3    0  502 -0.49941499522E+03 -0.12910787284E+04 -0.25460783871E+04  0.28980708728E+04  0.10100000352E+00 0.  1.
</event>
<event>
 5   0  0.8950809E-07  0.3519404E+04  0.7818609E-02  0.8109207E-01
       -2   -1    0    0    0  501  0.00000000000E+00  0.00000000000E+00  0.13944465083E+04  0.13944465083E+04  0.25500000920E-02 0. -1.
        2   -1    0    0  501    0  0.00000000000E+00  0.00000000000E+00 -0.22206306462E+04  0.22206306462E+04  0.25500000920E-02 0.  1.
    10030    2    1    2    0    0  0.00000000000E+00  0.00000000000E+00 -0.82618413788E+03  0.36150771545E+04  0.35194037284E+04 0.  0.
        2    1    3    3  502    0 -0.11813562668E+04  0.12416358363E+04 -0.82305128443E+03  0.19012300219E+04  0.25500000920E-02 0.  1.
       -2    1    3    3    0  502  0.11813562668E+04 -0.12416358363E+04 -0.31328534500E+01  0.17138471326E+04  0.25500000920E-02 0. -1.
</event>
<event>
 5   0  0.3061330E-07  0.3522298E+04  0.7818609E-02  0.8108526E-01
        1   -1    0    0  501    0  0.00000000000E+00  0.00000000000E+00  0.19511807498E+04  0.19511807499E+04  0.50400001928E-02 0. -1.
       -1   -1    0    0    0  501  0.00000000000E+00  0.00000000000E+00 -0.15896251417E+04  0.15896251417E+04  0.50400001928E-02 0.  1.
    10030    2    1    2    0    0  0.00000000000E+00  0.00000000000E+00  0.36155560818E+03  0.35408058915E+04  0.35222980998E+04 0.  0.
        5    1    3    3  502    0 -0.16232856504E+04 -0.49127280638E+03 -0.29628784934E+03  0.17216892439E+04  0.46999998093E+01 0.  1.
       -5    1    3    3    0  502  0.16232856504E+04  0.49127280638E+03  0.65784345753E+03  0.18191166476E+04  0.46999998093E+01 0. -1.
</event>
<event>
 5   0  0.9128871E-07  0.3415822E+04  0.7818609E-02  0.8134034E-01
        2   -1    0    0  501    0  0.00000000000E+00  0.00000000000E+00  0.25737343571E+04  0.25737343571E+04  0.25500000920E-02 0.  1.
       -2   -1    0    0    0  501  0.00000000000E+00  0.00000000000E+00 -0.11333568746E+04  0.11333568746E+04  0.25500000920E-02 0. -1.
    10030    2    1    2    0    0  0.00000000000E+00  0.00000000000E+00  0.14403774825E+04  0.37070912317E+04  0.34158217325E+04 0.  0.
        1    1    3    3  502    0  0.44408910400E+02 -0.14117844789E+04 -0.32181353757E+03  0.14486792327E+04  0.50400001928E-02 0. -1.
       -1    1    3    3    0  502 -0.44408910400E+02  0.14117844789E+04  0.17621910200E+04  0.22584119990E+04  0.50400001928E-02 0.  1.
</event>
<event>
 5   0  0.2972541E-07  0.3619824E+04  0.7818609E-02  0.8085966E-01
        1   -1    0    0  501    0  0.00000000000E+00  0.00000000000E+00  0.23941288338E+04  0.23941288338E+04  0.50400001928E-02 0. -1.
       -1   -1    0    0    0  501  0.00000000000E+00  0.00000000000E+00 -0.13682559160E+04  0.13682559161E+04  0.50400001928E-02 0.  1.
    10030    2    1    2    0    0  0.00000000000E+00  0.00000000000E+00  0.10258729178E+04  0.37623847499E+04  0.36198237199E+04 0.  0.
        3    1    3    3  502    0 -0.13033864243E+04 -0.63871535675E+03 -0.61085162766E+03  0.15747740153E+04  0.10100000352E+00 0.  1.
       -3    1    3    3    0  502  0.13033864243E+04  0.63871535675E+03  0.16367245455E+04  0.21876107346E+04  0.10100000352E+00 0. -1.
</event>
<event>
 5   0  0.9128871E-07  0.3497864E+04  0.7818609E-02  0.8114296E-01
       -2   -1    0    0    0  501  0.00000000000E+00  0.00000000000E+00  0.14701594944E+04  0.14701594944E+04  0.25500000920E-02 0.  1.
        2   -1    0    0  501    0  0.00000000000E+00  0.00000000000E+00 -0.20805650944E+04  0.20805650944E+04  0.25500000920E-02 0. -1.
    10030    2    1    2    0    0  0.00000000000E+00  0.00000000000E+00 -0.61040559998E+03  0.35507245887E+04  0.34978636492E+04 0.  0.
        1    1    3    3  502    0  0.10606382763E+04  0.39869239620E+03  0.10471666404E+04  0.15428762597E+04  0.50400001928E-02 0.  1.
       -1    1    3    3    0  502 -0.10606382763E+04 -0.39869239620E+03 -0.16575722404E+04  0.20078483290E+04  0.50400001928E-02 0. -1.
</event>
<event>
 5   0  0.3026332E-07  0.3464071E+04  0.7818609E-02  0.8122358E-01
       -1   -1    0    0    0  501  0.00000000000E+00  0.00000000000E+00  0.15561742607E+04  0.15561742607E+04  0.50400001928E-02 0. -1.
        1   -1    0    0  501    0  0.00000000000E+00  0.00000000000E+00 -0.19277707737E+04  0.19277707737E+04  0.50400001928E-02 0.  1.
    10030    2    1    2    0    0  0.00000000000E+00  0.00000000000E+00 -0.37159651303E+03  0.34839450344E+04  0.34640711648E+04 0.  0.
        1    1    3    3  502    0  0.83774724274E+03  0.70328611538E+03 -0.15364532340E+04  0.18860329645E+04  0.50400001928E-02 0.  1.
       -1    1    3    3    0  502 -0.83774724274E+03 -0.70328611538E+03  0.11648567210E+04  0.15979120699E+04  0.50400001928E-02 0. -1.
</event>
<event>
 5   0  0.8845195E-07  0.3451037E+04  0.7818609E-02  0.8125493E-01
        2   -1    0    0  501    0  0.00000000000E+00  0.00000000000E+00  0.24298873145E+04  0.24298873145E+04  0.25500000920E-02 0. -1.
       -2   -1    0    0    0  501  0.00000000000E+00  0.00000000000E+00 -0.12253297895E+04  0.12253297895E+04  0.25500000920E-02 0.  1.
    10030    2    1    2    0    0  0.00000000000E+00  0.00000000000E+00  0.12045575250E+04  0.36552171040E+04  0.34510365467E+04 0.  0.
        5    1    3    3  502    0 -0.11316639646E+04 -0.73290721187E+03 -0.53826781069E+03  0.14517474422E+04  0.46999998093E+01 0.  1.
       -5    1    3    3    0  502  0.11316639646E+04  0.73290721187E+03  0.17428253356E+04  0.22034696618E+04  0.46999998093E+01 0. -1.
</event>
<event>
 5   0  0.8845195E-07  0.3494021E+04  0.7818609E-02  0.8115208E-01
        2   -1    0    0  501    0  0.00000000000E+00  0.00000000000E+00  0.20946155685E+04  0.20946155685E+04  0.25500000920E-02 0. -1.
       -2   -1    0    0    0  501  0.00000000000E+00  0.00000000000E+00 -0.14570907665E+04  0.14570907665E+04  0.25500000920E-02 0.  1.
    10030    2    1    2    0    0  0.00000000000E+00  0.00000000000E+00  0.63752480204E+03  0.35517063350E+04  0.34940206091E+04 0.  0.
        5    1    3    3  502    0 -0.92053688803E+03  0.12703452978E+04  0.11001256705E+04  0.19161064477E+04  0.46999998093E+01 0. -1.
       -5    1    3    3    0  502  0.92053688803E+03 -0.12703452978E+04 -0.46260086851E+03  0.16355998873E+04  0.46999998093E+01 0.  1.
</event>
<event>
 5   0  0.6188930E-07  0.3507421E+04  0.7818609E-02  0.8112034E-01
        2   -1    0    0  501    0  0.00000000000E+00  0.00000000000E+00  0.26742053327E+04  0.26742053327E+04  0.25500000920E-02 0. -1.
       -2   -1    0    0    0  501  0.00000000000E+00  0.00000000000E+00 -0.11500612418E+04  0.11500612418E+04  0.25500000920E-02 0.  1.
    10030    2    1    2    0    0  0.00000000000E+00  0.00000000000E+00  0.15241440909E+04  0.38242665745E+04  0.35074206510E+04 0.  0.
        3    1    3    3  502    0  0.74336289216E+03 -0.44559257137E+03 -0.90023744437E+03  0.12496273827E+04  0.10100000352E+00 0.  1.
       -3    1    3    3    0  502 -0.74336289216E+03  0.44559257137E+03  0.24243815353E+04  0.25746391918E+04  0.10100000352E+00 0. -1.
</event>
<event>
 5   0  0.8950809E-07  0.3511157E+04  0.7818609E-02  0.8111151E-01
       -2   -1    0    0    0  501  0.00000000000E+00  0.00000000000E+00  0.19884338112E+04  0.19884338112E+04  0.25500000920E-02 0.  1.
        2   -1    0    0  501    0  0.00000000000E+00  0.00000000000E+00 -0.15499914887E+04  0.15499914887E+04  0.25500000920E-02 0. -1.
    10030    2    1    2    0    0  0.00000000000E+00  0.00000000000E+00  0.43844232245E+03  0.35384252999E+04  0.35111567799E+04 0.  0.
        2    1    3    3  502    0 -0.13656837869E+04 -0.10564649939E+04 -0.10080610548E+03  0.17295584292E+04  0.25500000920E-02 0. -1.
       -2    1    3    3    0  502  0.13656837869E+04  0.10564649939E+04  0.53924842793E+03  0.18088668707E+04  0.25500000920E-02 0.  1.
</event>
<event>
 5   0  0.8845195E-07  0.3520889E+04  0.7818609E-02  0.8108857E-01
       -2   -1    0    0    0  501  0.00000000000E+00  0.00000000000E+00  0.13241126839E+04  0.13241126839E+04  0.25500000920E-02 0.  1.
        2   -1    0    0  501    0  0.00000000000E+00  0.00000000000E+00 -0.23405603537E+04  0.23405603537E+04  0.25500000920E-02 0. -1.
    10030    2    1    2    0    0  0.00000000000E+00  0.00000000000E+00 -0.10164476698E+04  0.36646730375E+04  0.35208894624E+04 0.  0.
        5    1    3    3  502    0 -0.17312905771E+04  0.88235318675E+02 -0.82732327431E+03  0.19208431545E+04  0.46999998093E+01 0. -1.
       -5    1    3    3    0  502  0.17312905771E+04 -0.88235318675E+02 -0.18912439550E+03  0.17438298830E+04  0.46999998093E+01 0.  1.
</event>
<event>
 5   0  0.8845195E-07  0.3501022E+04  0.7818609E-02  0.8113548E-01
       -2   -1    0    0    0  501  0.00000000000E+00  0.00000000000E+00  0.13056149359E+04  0.13056149359E+04  0.25500000920E-02 0. -1.
        2   -1    0    0  501    0  0.00000000000E+00  0.00000000000E+00 -0.23470075163E+04  0.23470075163E+04  0.25500000920E-02 0.  1.
    10030    2    1    2    0    0  0.00000000000E+00  0.00000000000E+00 -0.10413925804E+04  0.36526224522E+04  0.35010216040E+04 0.  0.
        5    1    3    3  502    0  0.27533945072E+03 -0.65955726218E+03 -0.21878386435E+04  0.23016271669E+04  0.46999998093E+01 0.  1.
       -5    1    3    3    0  502 -0.27533945072E+03  0.65955726218E+03  0.11464460631E+04  0.13509952853E+04  0.46999998093E+01 0. -1.
</event>
<event>
 5   0  0.6188930E-07  0.3523380E+04  0.7818609E-02  0.8108271E-01
       -2   -1    0    0    0  501  0.00000000000E+00  0.00000000000E+00  0.12128959359E+04  0.12128959359E+04  0.25500000920E-02 0.  1.
        2   -1    0    0  501    0  0.00000000000E+00  0.00000000000E+00 -0.25587943562E+04  0.25587943562E+04  0.25500000920E-02 0. -1.
    10030    2    1    2    0    0  0.00000000000E+00  0.00000000000E+00 -0.13458984203E+04  0.37716902921E+04  0.35233797839E+04 0.  0.
        3    1    3    3  502    0 -0.53913533706E+03 -0.12249600863E+04  0.55336732760E+03  0.14482436032E+04  0.10100000352E+00 0.  1.
       -3    1    3    3    0  502  0.53913533706E+03  0.12249600863E+04 -0.18992657479E+04  0.23234466889E+04  0.10100000352E+00 0. -1.
</event>
<event>
 5   0  0.6188930E-07  0.3511273E+04  0.7818609E-02  0.8111124E-01
       -2   -1    0    0    0  501  0.00000000000E+00  0.00000000000E+00  0.16128242119E+04  0.16128242119E+04  0.25500000920E-02 0.  1.
        2   -1    0    0  501    0  0.00000000000E+00  0.00000000000E+00 -0.19110939855E+04  0.19110939855E+04  0.25500000920E-02 0. -1.
    10030    2    1    2    0    0  0.00000000000E+00  0.00000000000E+00 -0.29826977366E+03  0.35239181974E+04  0.35112725050E+04 0.  0.
        3    1    3    3  502    0  0.70114701720E+03 -0.99256076253E+03 -0.14207714501E+04  0.18695923435E+04  0.10100000352E+00 0. -1.
       -3    1    3    3    0  502 -0.70114701720E+03  0.99256076253E+03  0.11225016765E+04  0.16543258539E+04  0.10100000352E+00 0.  1.
</event>
<event>
 5   0  0.9128871E-07  0.3484854E+04  0.7818609E-02  0.8117389E-01
        2   -1    0    0  501    0  0.00000000000E+00  0.00000000000E+00  0.18826137095E+04  0.18826137095E+04  0.25500000920E-02 0. -1.
       -2   -1    0    0    0  501  0.00000000000E+00  0.00000000000E+00 -0.16126789083E+04  0.16126789083E+04  0.25500000920E-02 0.  1.
    10030    2    1    2    0    0  0.00000000000E+00  0.00000000000E+00  0.26993480116E+03  0.34952926178E+04  0.34848537541E+04 0.  0.
        1    1    3    3  502    0  0.25121852084E+03 -0.10774215145E+04  0.14851437271E+04  0.18519178587E+04  0.50400001928E-02 0. -1.
       -1    1    3    3    0  502 -0.25121852084E+03  0.10774215145E+04 -0.12152089260E+04  0.16433747591E+04  0.50400001928E-02 0.  1.
</event>
<event>
 5   0  0.3061330E-07  0.3480706E+04  0.7818609E-02  0.8118378E-01
        1   -1    0    0  501    0  0.00000000000E+00  0.00000000000E+00  0.16014961908E+04  0.16014961909E+04  0.50400001928E-02 0.  1.
       -1   -1    0    0    0  501  0.00000000000E+00  0.00000000000E+00 -0.18912497856E+04  0.18912497856E+04  0.50400001928E-02 0. -1.
    10030    2    1    2    0    0  0.00000000000E+00  0.00000000000E+00 -0.28975359473E+03  0.34927459764E+04  0.34807064384E+04 0.  0.
        5    1    3    3  502    0 -0.23063695208E+03  0.57370968461E+03  0.14875479753E+04  0.16109491844E+04  0.46999998093E+01 0.  1.
       -5    1    3    3    0  502  0.23063695208E+03 -0.57370968461E+03 -0.17773015700E+04  0.18817967921E+04  0.46999998093E+01 0. -1.
</event>
<event>
 5   0  0.3026332E-07  0.3554532E+04  0.7818609E-02  0.8100987E-01
       -1   -1    0    0    0  501  0.00000000000E+00  0.00000000000E+00  0.20970993518E+04  0.20970993519E+04  0.50400001928E-02 0.  1.
        1   -1    0    0  501    0  0.00000000000E+00  0.00000000000E+00 -0.15062111329E+04  0.15062111329E+04  0.50400001928E-02 0. -1.
    10030    2    1    2    0    0  0.00000000000E+00  0.00000000000E+00  0.59088821897E+03  0.36033104847E+04  0.35545319751E+04 0.  0.
        1    1    3    3  502    0  0.34370487965E+03 -0.17114850543E+04  0.63373037721E+03  0.18571290549E+04  0.50400001928E-02 0.  1.
       -1    1    3    3    0  502 -0.34370487965E+03  0.17114850543E+04 -0.42842158245E+02  0.17461814299E+04  0.50400001928E-02 0. -1.
</event>
<event>
 5   0  0.3061330E-07  0.3490891E+04  0.7818609E-02  0.8115952E-01
        1   -1    0    0  501    0  0.00000000000E+00  0.00000000000E+00  0.19659606569E+04  0.19659606569E+04  0.50400001928E-02 0. -1.
       -1   -1    0    0    0  501  0.00000000000E+00  0.00000000000E+00 -0.15496644846E+04  0.15496644846E+04  0.50400001928E-02 0.  1.
    10030    2    1    2    0    0  0.00000000000E+00  0.00000000000E+00  0.41629617227E+03  0.35156251414E+04  0.34908906646E+04 0.  0.
        5    1    3    3  502    0  0.15279545017E+04  0.79196272787E+03  0.50125562016E+03  0.17925203509E+04  0.46999998093E+01 0. -1.
       -5    1    3    3    0  502 -0.15279545017E+04 -0.79196272787E+03 -0.84959447889E+02  0.17231047906E+04  0.46999998093E+01 0.  1.
</event>
<event>
 5   0  0.8950809E-07  0.3518016E+04  0.7818609E-02  0.8109534E-01
       -2   -1    0    0    0  501  0.00000000000E+00  0.00000000000E+00  0.14354180007E+04  0.14354180007E+04  0.25500000920E-02 0.  1.
        2   -1    0    0  501    0  0.00000000000E+00  0.00000000000E+00 -0.21555453666E+04  0.21555453666E+04  0.25500000920E-02 0. -1.
    10030    2    1    2    0    0  0.00000000000E+00  0.00000000000E+00 -0.72012736594E+03  0.35909633673E+04  0.35180157024E+04 0.  0.
        2    1    3    3  502    0  0.55235316832E+02 -0.10053942060E+04  0.11121469176E+04  0.15002463851E+04  0.25500000920E-02 0.  1.
       -2    1    3    3    0  502 -0.55235316832E+02  0.10053942060E+04 -0.18322742835E+04  0.20907169822E+04  0.25500000920E-02 0. -1.
</event>
<event>
 5   0  0.8845195E-07  0.3456894E+04  0.7818609E-02  0.8124082E-01
        2   -1    0    0  501    0  0.00000000000E+00  0.00000000000E+00  0.10929348132E+04  0.10929348132E+04  0.25500000920E-02 0.  1.
       -2   -1    0    0    0  501  0.00000000000E+00  0.00000000000E+00 -0.27334925054E+04  0.27334925054E+04  0.25500000920E-02 0. -1.
    10030    2    1    2    0    0  0.00000000000E+00  0.00000000000E+00 -0.16405576922E+04  0.38264273186E+04  0.34568940515E+04 0.  0.
        5    1    3    3  502    0  0.65082504241E+03  0.91386789679E+03  0.63510373041E+03  0.12892271355E+04  0.46999998093E+01 0.  1.
       -5    1    3    3    0  502 -0.65082504241E+03 -0.91386789679E+03 -0.22756614226E+04  0.25372001831E+04  0.46999998093E+01 0. -1.
</event>
<event>
 5   0  0.9128871E-07  0.3461694E+04  0.7818609E-02  0.8122928E-01
       -2   -1    0    0    0  501  0.00000000000E+00  0.00000000000E+00  0.16825817541E+04  0.16825817541E+04  0.25500000920E-02 0.  1.
        2   -1    0    0  501    0  0.00000000000E+00  0.00000000000E+00 -0.17804968959E+04  0.17804968959E+04  0.25500000920E-02 0. -1.
    10030    2    1    2    0    0  0.00000000000E+00  0.00000000000E+00 -0.97915141784E+02  0.34630786501E+04  0.34616941462E+04 0.  0.
        1    1    3    3  502    0 -0.41608164510E+03 -0.12516478781E+04  0.10722427623E+04  0.16998384887E+04  0.50400001928E-02 0.  1.
       -1    1    3    3    0  502  0.41608164510E+03  0.12516478781E+04 -0.11701579041E+04  0.17632401614E+04  0.50400001928E-02 0. -1.
</event>
<event>
 5   0  0.8845195E-07  0.3369708E+04  0.7818609E-02  0.8145381E-01
       -2   -1    0    0    0  501  0.00000000000E+00  0.00000000000E+00  0.12089461960E+04  0.12089461960E+04  0.25500000920E-02 0.  1.
        2   -1    0    0  501    0  0.00000000000E+00  0.00000000000E+00 -0.23481054702E+04  0.23481054702E+04  0.25500000920E-02 0. -1.
    10030    2    1    2    0    0  0.00000000000E+00  0.00000000000E+00 -0.11391592742E+04  0.35570516662E+04  0.33697081037E+04 0.  0.
        5    1    3    3  502    0 -0.12964834156E+04  0.10138918001E+04 -0.18917624537E+03  0.16567002055E+04  0.46999998093E+01 0.  1.
       -5    1    3    3    0  502  0.12964834156E+04 -0.10138918001E+04 -0.94998302886E+03  0.19003514607E+04  0.46999998093E+01 0. -1.
</event>
<event>
 5   0  0.3061330E-07  0.3570405E+04  0.7818609E-02  0.8097305E-01
        1   -1    0    0  501    0  0.00000000000E+00  0.00000000000E+00  0.21003736287E+04  0.21003736287E+04  0.50400001928E-02 0.  1.
       -1   -1    0    0    0  501  0.00000000000E+00  0.00000000000E+00 -0.15173245137E+04  0.15173245137E+04  0.50400001928E-02 0. -1.
    10030    2    1    2    0    0  0.00000000000E+00  0.00000000000E+00  0.58304911498E+03  0.36176981423E+04  0.35704052401E+04 0.  0.
        5    1    3    3  502    0 -0.84295853047E+02 -0.17164398985E+04 -0.19825648691E+03  0.17299131309E+04  0.46999998093E+01 0.  1.
       -5    1    3    3    0  502  0.84295853047E+02  0.17164398985E+04  0.78130560189E+03  0.18877850114E+04  0.46999998093E+01 0. -1.
</event>
<event>
 5   0  0.2972541E-07  0.3581226E+04  0.7818609E-02  0.8094806E-01
       -1   -1    0    0    0  501  0.00000000000E+00  0.00000000000E+00  0.14549045182E+04  0.14549045182E+04  0.50400001928E-02 0.  1.
        1   -1    0    0  501    0  0.00000000000E+00  0.00000000000E+00 -0.22037834804E+04  0.22037834804E+04  0.50400001928E-02 0. -1.
    10030    2    1    2    0    0  0.00000000000E+00  0.00000000000E+00 -0.74887896223E+03  0.36586879986E+04  0.35812257917E+04 0.  0.
        3    1    3    3  502    0 -0.24076746964E+02 -0.26183291682E+03  0.14350742942E+04  0.14589634698E+04  0.10100000352E+00 0.  1.
       -3    1    3    3    0  502  0.24076746964E+02  0.26183291682E+03 -0.21839532565E+04  0.21997245288E+04  0.10100000352E+00 0. -1.
</event>
<event>
 5   0  0.3061330E-07  0.3529613E+04  0.7818609E-02  0.8106808E-01
        1   -1    0    0  501    0  0.00000000000E+00  0.00000000000E+00  0.20769799765E+04  0.20769799765E+04  0.50400001928E-02 0.  1.
       -1   -1    0    0    0  501  0.00000000000E+00  0.00000000000E+00 -0.14995528278E+04  0.14995528279E+04  0.50400001928E-02 0. -1.
    10030    2    1    2    0    0  0.00000000000E+00  0.00000000000E+00  0.57742714862E+03  0.35765328043E+04  0.35296125550E+04 0.  0.
        5    1    3    3  502    0  0.38393195642E+03 -0.16450726719E+02 -0.14566366515E+04  0.15064815957E+04  0.46999998093E+01 0. -1.
       -5    1    3    3    0  502 -0.38393195642E+03  0.16450726719E+02  0.20340638001E+04  0.20700512087E+04  0.46999998093E+01 0.  1.
</event>
<event>
 5   0  0.9128871E-07  0.3269672E+04  0.7818609E-02  0.8170655E-01
       -2   -1    0    0    0  501  0.00000000000E+00  0.00000000000E+00  0.16230828657E+04  0.16230828657E+04  0.25500000920E-02 0.  1.
        2   -1    0    0  501    0  0.00000000000E+00  0.00000000000E+00 -0.16466744353E+04  0.16466744353E+04  0.25500000920E-02 0. -1.
    10030    2    1    2    0    0  0.00000000000E+00  0.00000000000E+00 -0.23591569639E+02  0.32697573010E+04  0.32696721923E+04 0.  0.
        1    1    3    3  502    0  0.93418655193E+03  0.46736847144E+03 -0.12694259352E+04  0.16439525562E+04  0.50400001928E-02 0. -1.
       -1    1    3    3    0  502 -0.93418655193E+03 -0.46736847144E+03  0.12458343656E+04  0.16258047449E+04  0.50400001928E-02 0.  1.
</event>
<event>
 5   0  0.9311672E-07  0.3401505E+04  0.7818609E-02  0.8137537E-01
        2   -1    0    0  501    0  0.00000000000E+00  0.00000000000E+00  0.22723463050E+04  0.22723463050E+04  0.25500000920E-02 0. -1.
       -2   -1    0    0    0  501  0.00000000000E+00  0.00000000000E+00 -0.12729394285E+04  0.12729394285E+04  0.25500000920E-02 0.  1.
    10030    2    1    2    0    0  0.00000000000E+00  0.00000000000E+00  0.99940687648E+03  0.35452857335E+04  0.34015050827E+04 0.  0.
        4    1    3    3  502    0  0.35274119245E+02  0.68702152653E+03  0.21208650288E+04  0.22296441251E+04  0.12699999809E+01 0. -1.
       -4    1    3    3    0  502 -0.35274119245E+02 -0.68702152653E+03 -0.11214581523E+04  0.13156416084E+04  0.12699999809E+01 0.  1.
</event>
<event>
 5   0  0.8845195E-07  0.2828778E+04  0.7818609E-02  0.8294389E-01
        2   -1    0    0  501    0  0.00000000000E+00  0.00000000000E+00  0.18649778103E+04  0.18649778103E+04  0.25500000920E-02 0.  1.
       -2   -1    0    0    0  501  0.00000000000E+00  0.00000000000E+00 -0.10726646315E+04  0.10726646315E+04  0.25500000920E-02 0. -1.
    10030    2    1    2    0    0  0.00000000000E+00  0.00000000000E+00  0.79231317883E+03  0.29376424418E+04  0.28287776411E+04 0.  0.
        5    1    3    3  502    0 -0.12523439356E+04  0.52992323736E+03  0.80008534209E+03  0.15777650697E+04  0.46999998093E+01 0.  1.
       -5    1    3    3    0  502  0.12523439356E+04 -0.52992323736E+03 -0.77721632544E+01  0.13598773721E+04  0.46999998093E+01 0. -1.
</event>
<event>
 5   0  0.2936607E-07  0.3525617E+04  0.7818609E-02  0.8107746E-01
       -1   -1    0    0    0  501  0.00000000000E+00  0.00000000000E+00  0.19232318447E+04  0.19232318447E+04  0.50400001928E-02 0. -1.
        1   -1    0    0  501    0  0.00000000000E+00  0.00000000000E+00 -0.16157669418E+04  0.16157669418E+04  0.50400001928E-02 0.  1.
    10030    2    1    2    0    0  0.00000000000E+00  0.00000000000E+00  0.30746490291E+03  0.35389987865E+04  0.35256173565E+04 0.  0.
        2    1    3    3  502    0  0.10631777941E+04  0.13829576666E+04  0.40881406133E+03  0.17916606448E+04  0.25500000920E-02 0. -1.
       -2    1    3    3    0  502 -0.10631777941E+04 -0.13829576666E+04 -0.10134915842E+03  0.17473381417E+04  0.25500000920E-02 0.  1.
</event>
<event>
 5   0  0.6188930E-07  0.3498266E+04  0.7818609E-02  0.8114201E-01
        2   -1    0    0  501    0  0.00000000000E+00  0.00000000000E+00  0.22156352793E+04  0.22156352793E+04  0.25500000920E-02 0. -1.
       -2   -1    0    0    0  501  0.00000000000E+00  0.00000000000E+00 -0.13808524464E+04  0.13808524464E+04  0.25500000920E-02 0.  1.
    10030    2    1    2    0    0  0.00000000000E+00  0.00000000000E+00  0.83478283290E+03  0.35964877258E+04  0.34982655107E+04 0.  0.
        3    1    3    3  502    0  0.64030212068E+03  0.86414393848E+03  0.18355174652E+04  0.21274059150E+04  0.10100000352E+00 0. -1.
       -3    1    3    3    0  502 -0.64030212068E+03 -0.86414393848E+03 -0.10007346323E+04  0.14690818107E+04  0.10100000352E+00 0.  1.
</event>
<event>
 5   0  0.2933506E-07  0.3513057E+04  0.7818609E-02  0.8110702E-01
       -1   -1    0    0    0  501  0.00000000000E+00  0.00000000000E+00  0.13740832651E+04  0.13740832651E+04  0.50400001928E-02 0.  1.
        1   -1    0    0  501    0  0.00000000000E+00  0.00000000000E+00 -0.22454193245E+04  0.22454193245E+04  0.50400001928E-02 0. -1.
    10030    2    1    2    0    0  0.00000000000E+00  0.00000000000E+00 -0.87133605943E+03  0.36195025896E+04  0.35130574245E+04 0.  0.
        4    1    3    3  502    0 -0.12498973421E+04 -0.22343993272E+03  0.81487272261E+03  0.15087040586E+04  0.12699999809E+01 0.  1.
       -4    1    3    3    0  502  0.12498973421E+04  0.22343993272E+03 -0.16862087820E+04  0.21107985311E+04  0.12699999809E+01 0. -1.
</event>
<event>
 5   0  0.6188930E-07  0.3488295E+04  0.7818609E-02  0.8116569E-01
        2   -1    0    0  501    0  0.00000000000E+00  0.00000000000E+00  0.19439914097E+04  0.19439914097E+04  0.25500000920E-02 0.  1.
       -2   -1    0    0    0  501  0.00000000000E+00  0.00000000000E+00 -0.15648480593E+04  0.15648480593E+04  0.25500000920E-02 0. -1.
    10030    2    1    2    0    0  0.00000000000E+00  0.00000000000E+00  0.37914335039E+03  0.35088394689E+04  0.34882953915E+04 0.  0.
        3    1    3    3  502    0 -0.17969727840E+03 -0.10520487138E+04 -0.11980284837E+04  0.16044842991E+04  0.10100000352E+00 0. -1.
       -3    1    3    3    0  502  0.17969727840E+03  0.10520487138E+04  0.15771718341E+04  0.19043551698E+04  0.10100000352E+00 0.  1.
</event>
<event>
 5   0  0.2936607E-07  0.3486954E+04  0.7818609E-02  0.8116889E-01
        1   -1    0    0  501    0  0.00000000000E+00  0.00000000000E+00  0.13911219896E+04  0.13911219897E+04  0.50400001928E-02 0.  1.
       -1   -1    0    0    0  501  0.00000000000E+00  0.00000000000E+00 -0.21850799581E+04  0.21850799582E+04  0.50400001928E-02 0. -1.
    10030    2    1    2    0    0  0.00000000000E+00  0.00000000000E+00 -0.79395796850E+03  0.35762019478E+04  0.34869544184E+04 0.  0.
        2    1    3    3  502    0 -0.41095720713E+03 -0.67839473531E+03 -0.19893307729E+04  0.21416213874E+04  0.25500000920E-02 0. -1.
       -2    1    3    3    0  502  0.41095720713E+03  0.67839473531E+03  0.11953728044E+04  0.14345805604E+04  0.25500000920E-02 0.  1.
</event>
<event>
 5   0  0.9128871E-07  0.3483670E+04  0.7818609E-02  0.8117671E-01
        2   -1    0    0  501    0  0.00000000000E+00  0.00000000000E+00  0.15281577234E+04  0.15281577234E+04  0.25500000920E-02 0.  1.
       -2   -1    0    0    0  501  0.00000000000E+00  0.00000000000E+00 -0.19853904829E+04  0.19853904829E+04  0.25500000920E-02 0. -1.
    10030    2    1    2    0    0  0.00000000000E+00  0.00000000000E+00 -0.45723275943E+03  0.35135482063E+04  0.34836703635E+04 0.  0.
        1    1    3    3  502    0 -0.13514433223E+03 -0.10784049858E+04  0.11442220929E+04  0.15781208768E+04  0.50400001928E-02 0.  1.
       -1    1    3    3    0  502  0.13514433223E+03  0.10784049858E+04 -0.16014548523E+04  0.19354273295E+04  0.50400001928E-02 0. -1.
</event>
<event>
 5   0  0.8950809E-07  0.3370838E+04  0.7818609E-02  0.8145101E-01
       -2   -1    0    0    0  501  0.00000000000E+00  0.00000000000E+00  0.17919394277E+04  0.17919394277E+04  0.25500000920E-02 0. -1.
        2   -1    0    0  501    0  0.00000000000E+00  0.00000000000E+00 -0.15852306429E+04  0.15852306429E+04  0.25500000920E-02 0.  1.
    10030    2    1    2    0    0  0.00000000000E+00  0.00000000000E+00  0.20670878490E+03  0.33771700706E+04  0.33708380507E+04 0.  0.
        2    1    3    3  502    0 -0.13585051403E+04 -0.35035196751E+03 -0.83239933401E+03  0.16313097096E+04  0.25500000920E-02 0.  1.
       -2    1    3    3    0  502  0.13585051403E+04  0.35035196751E+03  0.10391081189E+04  0.17458603610E+04  0.25500000920E-02 0. -1.
</event>
<event>
 5   0  0.3061330E-07  0.3466979E+04  0.7818609E-02  0.8121660E-01
        1   -1    0    0  501    0  0.00000000000E+00  0.00000000000E+00  0.19146794283E+04  0.19146794283E+04  0.50400001928E-02 0.  1.
       -1   -1    0    0    0  501  0.00000000000E+00  0.00000000000E+00 -0.15694461690E+04  0.15694461690E+04  0.50400001928E-02 0. -1.
    10030    2    1    2    0    0  0.00000000000E+00  0.00000000000E+00  0.34523325930E+03  0.34841255974E+04  0.34669792579E+04 0.  0.
        5    1    3    3  502    0 -0.48842515868E+03  0.57347907567E+03 -0.13963628376E+04  0.15865965619E+04  0.46999998093E+01 0. -1.
       -5    1    3    3    0  502  0.48842515868E+03 -0.57347907567E+03  0.17415960969E+04  0.18975290355E+04  0.46999998093E+01 0.  1.
</event>
<event>
 5   0  0.2933506E-07  0.3375519E+04  0.7818609E-02  0.8143941E-01
        1   -1    0    0  501    0  0.00000000000E+00  0.00000000000E+00  0.12773858082E+04  0.12773858082E+04  0.50400001928E-02 0. -1.
       -1   -1    0    0    0  501  0.00000000000E+00  0.00000000000E+00 -0.22299698816E+04  0.22299698816E+04  0.50400001928E-02 0.  1.
    10030    2    1    2    0    0  0.00000000000E+00  0.00000000000E+00 -0.95258407339E+03  0.35073556899E+04  0.33755188517E+04 0.  0.
        4    1    3    3  502    0  0.69613513897E+03 -0.94847534422E+03  0.78106138392E+03  0.14121855787E+04  0.12699999809E+01 0. -1.
       -4    1    3    3    0  502 -0.69613513897E+03  0.94847534422E+03 -0.17336454573E+04  0.20951701112E+04  0.12699999809E+01 0.  1.
</event>
<event>
 5   0  0.3061330E-07  0.3506727E+04  0.7818609E-02  0.8112198E-01
       -1   -1    0    0    0  501  0.00000000000E+00  0.00000000000E+00  0.13456394668E+04  0.13456394668E+04  0.50400001928E-02 0. -1.
        1   -1    0    0  501    0  0.00000000000E+00  0.00000000000E+00 -0.22846268156E+04  0.22846268156E+04  0.50400001928E-02 0.  1.
    10030    2    1    2    0    0  0.00000000000E+00  0.00000000000E+00 -0.93898734878E+03  0.36302662824E+04  0.35067272549E+04 0.  0.
        5    1    3    3  502    0  0.16498918000E+04  0.47333557752E+03 -0.99014102539E+02  0.17193066635E+04  0.46999998093E+01 0. -1.
       -5    1    3    3    0  502 -0.16498918000E+04 -0.47333557752E+03 -0.83997324624E+03  0.19109596189E+04  0.46999998093E+01 0.  1.
</event>
<event>
 5   0  0.9311672E-07  0.2929057E+04  0.7818609E-02  0.8264284E-01
        2   -1    0    0  501    0  0.00000000000E+00  0.00000000000E+00  0.18266815893E+04  0.18266815893E+04  0.25500000920E-02 0. -1.
       -2   -1    0    0    0  501  0.00000000000E+00  0.00000000000E+00 -0.11741753253E+04  0.11741753253E+04  0.25500000920E-02 0.  1.
    10030    2    1    2    0    0  0.00000000000E+00  0.00000000000E+00  0.65250626398E+03  0.30008569146E+04  0.29290574930E+04 0.  0.
        4    1    3    3  502    0 -0.13031614616E+04 -0.25693469913E+03  0.95830164738E+03  0.16378610731E+04  0.12699999809E+01 0. -1.
       -4    1    3    3    0  502  0.13031614616E+04  0.25693469913E+03 -0.30579538340E+03  0.13629958415E+04  0.12699999809E+01 0.  1.
</event>
<event>
 5   0  0.8845195E-07  0.3531532E+04  0.7818609E-02  0.8106358E-01
       -2   -1    0    0    0  501  0.00000000000E+00  0.00000000000E+00  0.23361024806E+04  0.23361024806E+04  0.25500000920E-02 0. -1.
        2   -1    0    0  501    0  0.00000000000E+00  0.00000000000E+00 -0.13346718478E+04  0.13346718478E+04  0.25500000920E-02 0.  1.
    10030    2    1    2    0    0  0.00000000000E+00  0.00000000000E+00  0.10014306328E+04  0.36707743285E+04  0.35315323669E+04 0.  0.
        5    1    3    3  502    0 -0.13555377003E+04 -0.10395278919E+04  0.96533789556E+03  0.19621416966E+04  0.46999998093E+01 0.  1.
       -5    1    3    3    0  502  0.13555377003E+04  0.10395278919E+04  0.36092737243E+02  0.17086326319E+04  0.46999998093E+01 0. -1.
</event>
<event>
 5   0  0.2933506E-07  0.3503355E+04  0.7818609E-02  0.8112995E-01
        1   -1    0    0  501    0  0.00000000000E+00  0.00000000000E+00  0.14143259266E+04  0.14143259266E+04  0.50400001928E-02 0. -1.
       -1   -1    0    0    0  501  0.00000000000E+00  0.00000000000E+00 -0.21694953437E+04  0.21694953437E+04  0.50400001928E-02 0.  1.
    10030    2    1    2    0    0  0.00000000000E+00  0.00000000000E+00 -0.75516941711E+03  0.35838212703E+04  0.35033546850E+04 0.  0.
        4    1    3    3  502    0  0.72063922067E+03  0.17083114679E+03 -0.20014541425E+04  0.21340863302E+04  0.12699999809E+01 0.  1.
       -4    1    3    3    0  502 -0.72063922067E+03 -0.17083114679E+03  0.12462847254E+04  0.14497349402E+04  0.12699999809E+01 0. -1.
</event>
<event>
 5   0  0.9311672E-07  0.3090741E+04  0.7818609E-02  0.8218283E-01
        2   -1    0    0  501    0  0.00000000000E+00  0.00000000000E+00  0.16991471801E+04  0.16991471801E+04  0.25500000920E-02 0.  1.
       -2   -1    0    0    0  501  0.00000000000E+00  0.00000000000E+00 -0.14055112501E+04  0.14055112501E+04  0.25500000920E-02 0. -1.
    10030    2    1    2    0    0  0.00000000000E+00  0.00000000000E+00  0.29363593001E+03  0.31046584302E+04  0.30907413202E+04 0.  0.
        4    1    3    3  502    0  0.71498944616E+03  0.48092261483E+03  0.14354320099E+04  0.16742052256E+04  0.12699999809E+01 0.  1.
       -4    1    3    3    0  502 -0.71498944616E+03 -0.48092261483E+03 -0.11417960799E+04  0.14304532046E+04  0.12699999809E+01 0. -1.
</event>
<event>
 5   0  0.3061330E-07  0.3576234E+04  0.7818609E-02  0.8095957E-01
        1   -1    0    0  501    0  0.00000000000E+00  0.00000000000E+00  0.20085140168E+04  0.20085140168E+04  0.50400001928E-02 0. -1.
       -1   -1    0    0    0  501  0.00000000000E+00  0.00000000000E+00 -0.15919048633E+04  0.15919048634E+04  0.50400001928E-02 0.  1.
    10030    2    1    2    0    0  0.00000000000E+00  0.00000000000E+00  0.41660915348E+03  0.36004188802E+04  0.35762344618E+04 0.  0.
        5    1    3    3  502    0  0.52985130724E+03 -0.16826762353E+04  0.50216788827E+03  0.18342127462E+04  0.46999998093E+01 0. -1.
       -5    1    3    3    0  502 -0.52985130724E+03  0.16826762353E+04 -0.85558734789E+02  0.17662061339E+04  0.46999998093E+01 0.  1.
</event>
<event>
 5   0  0.2972541E-07  0.3457218E+04  0.7818609E-02  0.8124004E-01
        1   -1    0    0  501    0  0.00000000000E+00  0.00000000000E+00  0.21458039957E+04  0.21458039957E+04  0.50400001928E-02 0. -1.
       -1   -1    0    0    0  501  0.00000000000E+00  0.00000000000E+00 -0.13925261902E+04  0.13925261902E+04  0.50400001928E-02 0.  1.
    10030    2    1    2    0    0  0.00000000000E+00  0.00000000000E+00  0.75327780550E+03  0.35383301860E+04  0.34572175304E+04 0.  0.
        3    1    3    3  502    0 -0.14076973459E+04  0.85359365722E+03  0.91612494760E+03  0.18840166876E+04  0.10100000352E+00 0.  1.
       -3    1    3    3    0  502  0.14076973459E+04 -0.85359365722E+03 -0.16284714210E+03  0.16543134984E+04  0.10100000352E+00 0. -1.
</event>
<event>
 5   0  0.2936607E-07  0.3514306E+04  0.7818609E-02  0.8110408E-01
       -1   -1    0    0    0  501  0.00000000000E+00  0.00000000000E+00  0.29011265744E+04  0.29011265744E+04  0.50400001928E-02 0. -1.
        1   -1    0    0  501    0  0.00000000000E+00  0.00000000000E+00 -0.10642715509E+04  0.10642715509E+04  0.50400001928E-02 0.  1.
    10030    2    1    2    0    0  0.00000000000E+00  0.00000000000E+00  0.18368550235E+04  0.39653981253E+04  0.35143058937E+04 0.  0.
        2    1    3    3  502    0  0.17048375345E+04 -0.42030137429E+03  0.84305335789E+03  0.19477841843E+04  0.25500000920E-02 0. -1.
       -2    1    3    3    0  502 -0.17048375345E+04  0.42030137429E+03  0.99380166560E+03  0.20176139410E+04  0.25500000920E-02 0.  1.
</event>
<event>
 5   0  0.2936607E-07  0.3469806E+04  0.7818609E-02  0.8120983E-01
       -1   -1    0    0    0  501  0.00000000000E+00  0.00000000000E+00  0.20572799886E+04  0.20572799886E+04  0.50400001928E-02 0.  1.
        1   -1    0    0  501    0  0.00000000000E+00  0.00000000000E+00 -0.14630426558E+04  0.14630426558E+04  0.50400001928E-02 0. -1.
    10030    2    1    2    0    0  0.00000000000E+00  0.00000000000E+00  0.59423733277E+03  0.35203226444E+04  0.34698059762E+04 0.  0.
        2    1    3    3  502    0  0.13196430672E+04  0.21496087786E+03  0.14187558375E+04  0.19494958657E+04  0.25500000920E-02 0.  1.
       -2    1    3    3    0  502 -0.13196430672E+04 -0.21496087786E+03 -0.82451850472E+03  0.15708267787E+04  0.25500000920E-02 0. -1.
</event>
<event>
 5   0  0.3026332E-07  0.3469292E+04  0.7818609E-02  0.8121106E-01
        1   -1    0    0  501    0  0.00000000000E+00  0.00000000000E+00  0.18650907618E+04  0.18650907618E+04  0.50400001928E-02 0.  1.
       -1   -1    0    0    0  501  0.00000000000E+00  0.00000000000E+00 -0.16133245403E+04  0.16133245403E+04  0.50400001928E-02 0. -1.
    10030    2    1    2    0    0  0.00000000000E+00  0.00000000000E+00  0.25176622158E+03  0.34784153021E+04  0.34692919715E+04 0.  0.
        1    1    3    3  502    0  0.25451079130E+03  0.77942951551E+03 -0.14067670836E+04  0.16282750812E+04  0.50400001928E-02 0. -1.
       -1    1    3    3    0  502 -0.25451079130E+03 -0.77942951551E+03  0.16585333052E+04  0.18501402209E+04  0.50400001928E-02 0.  1.
</event>
<event>
 5   0  0.3061330E-07  0.3503878E+04  0.7818609E-02  0.8112871E-01
        1   -1    0    0  501    0  0.00000000000E+00  0.00000000000E+00  0.22132492722E+04  0.22132492722E+04  0.50400001928E-02 0. -1.
       -1   -1    0    0    0  501  0.00000000000E+00  0.00000000000E+00 -0.13867804983E+04  0.13867804983E+04  0.50400001928E-02 0.  1.
    10030    2    1    2    0    0  0.00000000000E+00  0.00000000000E+00  0.82646877389E+03  0.36000297705E+04  0.35038783818E+04 0.  0.
        5    1    3    3  502    0  0.63270951288E+03 -0.10270927579E+04 -0.89207240528E+03  0.15003520011E+04  0.46999998093E+01 0.  1.
       -5    1    3    3    0  502 -0.63270951288E+03  0.10270927579E+04  0.17185411792E+04  0.20996777694E+04  0.46999998093E+01 0. -1.
</event>
<event>
 5   0  0.2936607E-07  0.3469916E+04  0.7818609E-02  0.8120957E-01
        1   -1    0    0  501    0  0.00000000000E+00  0.00000000000E+00  0.20014440590E+04  0.20014440590E+04  0.50400001928E-02 0.  1.
       -1   -1    0    0    0  501  0.00000000000E+00  0.00000000000E+00 -0.15039539934E+04  0.15039539934E+04  0.50400001928E-02 0. -1.
    10030    2    1    2    0    0  0.00000000000E+00  0.00000000000E+00  0.49749006562E+03  0.35053980524E+04  0.34699163016E+04 0.  0.
        2    1    3    3  502    0  0.14084323024E+04  0.98760301467E+03  0.47697222001E+03  0.17850892874E+04  0.25500000920E-02 0. -1.
       -2    1    3    3    0  502 -0.14084323024E+04 -0.98760301467E+03  0.20517845601E+02  0.17203087651E+04  0.25500000920E-02 0.  1.
</event>
<event>
 5   0  0.9311672E-07  0.3448638E+04  0.7818609E-02  0.8126071E-01
       -2   -1    0    0    0  501  0.00000000000E+00  0.00000000000E+00  0.19758875149E+04  0.19758875149E+04  0.25500000920E-02 0. -1.
        2   -1    0    0  501    0  0.00000000000E+00  0.00000000000E+00 -0.15047798897E+04  0.15047798897E+04  0.25500000920E-02 0.  1.
    10030    2    1    2    0    0  0.00000000000E+00  0.00000000000E+00  0.47110762520E+03  0.34806674045E+04  0.34486378740E+04 0.  0.
        4    1    3    3  502    0 -0.31126023121E+03 -0.46984371583E+03 -0.14091942405E+04  0.15177173878E+04  0.12699999809E+01 0.  1.
       -4    1    3    3    0  502  0.31126023121E+03  0.46984371583E+03  0.18803018657E+04  0.19629500167E+04  0.12699999809E+01 0. -1.
</event>
<event>
 5   0  0.9311672E-07  0.3515473E+04  0.7818609E-02  0.8110133E-01
       -2   -1    0    0    0  501  0.00000000000E+00  0.00000000000E+00  0.15468100175E+04  0.15468100175E+04  0.25500000920E-02 0. -1.
        2   -1    0    0  501    0  0.00000000000E+00  0.00000000000E+00 -0.19974255378E+04  0.19974255378E+04  0.25500000920E-02 0.  1.
    10030    2    1    2    0    0  0.00000000000E+00  0.00000000000E+00 -0.45061552028E+03  0.35442355554E+04  0.35154731296E+04 0.  0.
        4    1    3    3  502    0 -0.13761878311E+04  0.15512283083E+03 -0.13166057039E+04  0.19108658329E+04  0.12699999809E+01 0. -1.
       -4    1    3    3    0  502  0.13761878311E+04 -0.15512283083E+03  0.86599018362E+03  0.16333697224E+04  0.12699999809E+01 0.  1.
</event>
<event>
 5   0  0.9128871E-07  0.3508219E+04  0.7818609E-02  0.8111845E-01
        2   -1    0    0  501    0  0.00000000000E+00  0.00000000000E+00  0.13518843612E+04  0.13518843612E+04  0.25500000920E-02 0.  1.
       -2   -1    0    0    0  501  0.00000000000E+00  0.00000000000E+00 -0.22760079071E+04  0.22760079071E+04  0.25500000920E-02 0. -1.
    10030    2    1    2    0    0  0.00000000000E+00  0.00000000000E+00 -0.92412354593E+03  0.36278922683E+04  0.35082186337E+04 0.  0.
        1    1    3    3  502    0 -0.10788640353E+04  0.34495668958E+03 -0.18471381360E+04  0.21667630276E+04  0.50400001928E-02 0. -1.
       -1    1    3    3    0  502  0.10788640353E+04 -0.34495668958E+03  0.92301459009E+03  0.14611292406E+04  0.50400001928E-02 0.  1.
</event>
<event>
 5   0  0.2936607E-07  0.3497779E+04  0.7818609E-02  0.8114317E-01
        1   -1    0    0  501    0  0.00000000000E+00  0.00000000000E+00  0.23915317473E+04  0.23915317474E+04  0.50400001928E-02 0.  1.
       -1   -1    0    0    0  501  0.00000000000E+00  0.00000000000E+00 -0.12789351052E+04  0.12789351052E+04  0.50400001928E-02 0. -1.
    10030    2    1    2    0    0  0.00000000000E+00  0.00000000000E+00  0.11125966421E+04  0.36704668526E+04  0.34977786705E+04 0.  0.
        2    1    3    3  502    0  0.93872873919E+03 -0.11568479428E+04 -0.40495346827E+03  0.15438575452E+04  0.25500000920E-02 0. -1.
       -2    1    3    3    0  502 -0.93872873919E+03  0.11568479428E+04  0.15175501104E+04  0.21266093073E+04  0.25500000920E-02 0.  1.
</event>
<event>
 5   0  0.2936607E-07  0.3495316E+04  0.7818609E-02  0.8114901E-01
        1   -1    0    0  501    0  0.00000000000E+00  0.00000000000E+00  0.18487058465E+04  0.18487058465E+04  0.50400001928E-02 0.  1.
       -1   -1    0    0    0  501  0.00000000000E+00  0.00000000000E+00 -0.16521336172E+04  0.16521336172E+04  0.50400001928E-02 0. -1.
    10030    2    1    2    0    0  0.00000000000E+00  0.00000000000E+00  0.19657222927E+03  0.35008394637E+04  0.34953163389E+04 0.  0.
        2    1    3    3  502    0 -0.43773244385E+03 -0.77103727124E+03  0.16067206577E+04  0.18351183717E+04  0.25500000920E-02 0.  1.
       -2    1    3    3    0  502  0.43773244385E+03  0.77103727124E+03 -0.14101484285E+04  0.16657210920E+04  0.25500000920E-02 0. -1.
</event>
<event>
 5   0  0.6188930E-07  0.3496831E+04  0.7818609E-02  0.8114541E-01
       -2   -1    0    0    0  501  0.00000000000E+00  0.00000000000E+00  0.28010906064E+04  0.28010906064E+04  0.25500000920E-02 0.  1.
        2   -1    0    0  501    0  0.00000000000E+00  0.00000000000E+00 -0.10913449992E+04  0.10913449992E+04  0.25500000920E-02 0. -1.
    10030    2    1    2    0    0  0.00000000000E+00  0.00000000000E+00  0.17097456072E+04  0.38924356056E+04  0.34968306939E+04 0.  0.
        3    1    3    3  502    0 -0.30004237237E+03  0.10310966328E+04 -0.68099603894E+03  0.12715900702E+04  0.10100000352E+00 0. -1.
       -3    1    3    3    0  502  0.30004237237E+03 -0.10310966328E+04  0.23907416462E+04  0.26208455354E+04  0.10100000352E+00 0.  1.
</event>
<event>
 5   0  0.3061330E-07  0.3508386E+04  0.7818609E-02  0.8111806E-01
       -1   -1    0    0    0  501  0.00000000000E+00  0.00000000000E+00  0.11599595676E+04  0.11599595676E+04  0.50400001928E-02 0.  1.
        1   -1    0    0  501    0  0.00000000000E+00  0.00000000000E+00 -0.26528447009E+04  0.26528447010E+04  0.50400001928E-02 0. -1.
    10030    2    1    2    0    0  0.00000000000E+00  0.00000000000E+00 -0.14928851333E+04  0.38128042686E+04  0.35083857213E+04 0.  0.
        5    1    3    3  502    0 -0.42612717575E+02  0.16663107274E+04 -0.15242301339E+03  0.16738166414E+04  0.46999998093E+01 0.  1.
       -5    1    3    3    0  502  0.42612717575E+02 -0.16663107274E+04 -0.13404621200E+04  0.21389876272E+04  0.46999998093E+01 0. -1.
</event>
<event>
 5   0  0.3061330E-07  0.3601454E+04  0.7818609E-02  0.8090159E-01
        1   -1    0    0  501    0  0.00000000000E+00  0.00000000000E+00  0.19791791349E+04  0.19791791349E+04  0.50400001928E-02 0.  1.
       -1   -1    0    0    0  501  0.00000000000E+00  0.00000000000E+00 -0.16383653075E+04  0.16383653075E+04  0.50400001928E-02 0. -1.
    10030    2    1    2    0    0  0.00000000000E+00  0.00000000000E+00  0.34081382743E+03  0.36175444424E+04  0.36014543906E+04 0.  0.
        5    1    3    3  502    0  0.57021263937E+03 -0.83319657080E+03 -0.13273070269E+04  0.16676705350E+04  0.46999998093E+01 0. -1.
       -5    1    3    3    0  502 -0.57021263937E+03  0.83319657080E+03  0.16681208544E+04  0.19498739073E+04  0.46999998093E+01 0.  1.
</event>
<event>
 5   0  0.8950809E-07  0.3542858E+04  0.7818609E-02  0.8103708E-01
        2   -1    0    0  501    0  0.00000000000E+00  0.00000000000E+00  0.97009677402E+03  0.97009677402E+03  0.25500000920E-02 0.  1.
       -2   -1    0    0    0  501  0.00000000000E+00  0.00000000000E+00 -0.32346878666E+04  0.32346878666E+04  0.25500000920E-02 0. -1.
    10030    2    1    2    0    0  0.00000000000E+00  0.00000000000E+00 -0.22645910925E+04  0.42047846406E+04  0.35428577529E+04 0.  0.
        2    1    3    3  502    0 -0.63808989827E+02 -0.16089881584E+04 -0.20085021734E+04  0.25742951388E+04  0.25500000920E-02 0. -1.
       -2    1    3    3    0  502  0.63808989827E+02  0.16089881584E+04 -0.25608891914E+03  0.16304895018E+04  0.25500000920E-02 0.  1.
</event>
<event>
 5   0  0.2972541E-07  0.3471117E+04  0.7818609E-02  0.8120669E-01
       -1   -1    0    0    0  501  0.00000000000E+00  0.00000000000E+00  0.18642332662E+04  0.18642332662E+04  0.50400001928E-02 0.  1.
        1   -1    0    0  501    0  0.00000000000E+00  0.00000000000E+00 -0.16157648711E+04  0.16157648711E+04  0.50400001928E-02 0. -1.
    10030    2    1    2    0    0  0.00000000000E+00  0.00000000000E+00  0.24846839512E+03  0.34799981373E+04  0.34711166060E+04 0.  0.
        3    1    3    3  502    0  0.14498897432E+04 -0.89587017703E+03  0.45279055042E+03  0.17634576645E+04  0.10100000352E+00 0.  1.
       -3    1    3    3    0  502 -0.14498897432E+04  0.89587017703E+03 -0.20432215530E+03  0.17165404729E+04  0.10100000352E+00 0. -1.
</event>
<event>
 5   0  0.6188930E-07  0.3426764E+04  0.7818609E-02  0.8131369E-01
       -2   -1    0    0    0  501  0.00000000000E+00  0.00000000000E+00  0.14921595877E+04  0.14921595877E+04  0.25500000920E-02 0.  1.
        2   -1    0    0  501    0  0.00000000000E+00  0.00000000000E+00 -0.19674025642E+04  0.19674025642E+04  0.25500000920E-02 0. -1.
    10030    2    1    2    0    0  0.00000000000E+00  0.00000000000E+00 -0.47524297647E+03  0.34595621519E+04  0.34267644209E+04 0.  0.
        3    1    3    3  502    0  0.62847888267E+03 -0.71421534193E+03  0.12010046207E+04  0.15321557916E+04  0.10100000352E+00 0.  1.
       -3    1    3    3    0  502 -0.62847888267E+03  0.71421534193E+03 -0.16762475972E+04  0.19274063603E+04  0.10100000352E+00 0. -1.
</event>
<event>
 5   0  0.3061330E-07  0.3393297E+04  0.7818609E-02  0.8139553E-01
       -1   -1    0    0    0  501  0.00000000000E+00  0.00000000000E+00  0.14862845621E+04  0.14862845621E+04  0.50400001928E-02 0.  1.
        1   -1    0    0  501    0  0.00000000000E+00  0.00000000000E+00 -0.19367866706E+04  0.19367866707E+04  0.50400001928E-02 0. -1.
    10030    2    1    2    0    0  0.00000000000E+00  0.00000000000E+00 -0.45050210859E+03  0.34230712327E+04  0.33932969977E+04 0.  0.
        5    1    3    3  502    0 -0.15868749748E+04  0.97978496075E+02 -0.82275051219E+03  0.17901710719E+04  0.46999998093E+01 0.  1.
       -5    1    3    3    0  502  0.15868749748E+04 -0.97978496075E+02  0.37224840360E+03  0.16329001608E+04  0.46999998093E+01 0. -1.
</event>
<event>
 5   0  0.9311672E-07  0.3489087E+04  0.7818609E-02  0.8116381E-01
       -2   -1    0    0    0  501  0.00000000000E+00  0.00000000000E+00  0.14407829627E+04  0.14407829627E+04  0.25500000920E-02 0.  1.
        2   -1    0    0  501    0  0.00000000000E+00  0.00000000000E+00 -0.21123460016E+04  0.21123460016E+04  0.25500000920E-02 0. -1.
    10030    2    1    2    0    0  0.00000000000E+00  0.00000000000E+00 -0.67156303893E+03  0.35531289643E+04  0.34890870614E+04 0.  0.
        4    1    3    3  502    0 -0.11248997238E+04  0.11448275830E+04 -0.10319974439E+04  0.19081535370E+04  0.12699999809E+01 0. -1.
       -4    1    3    3    0  502  0.11248997238E+04 -0.11448275830E+04  0.36043440500E+03  0.16449754274E+04  0.12699999809E+01 0.  1.
</event>
<event>
 5   0  0.9311672E-07  0.3546206E+04  0.7818609E-02  0.8102926E-01
        2   -1    0    0  501    0  0.00000000000E+00  0.00000000000E+00  0.24864250297E+04  0.24864250297E+04  0.25500000920E-02 0.  1.
       -2   -1    0    0    0  501  0.00000000000E+00  0.00000000000E+00 -0.12644235042E+04  0.12644235042E+04  0.25500000920E-02 0. -1.
    10030    2    1    2    0    0  0.00000000000E+00  0.00000000000E+00  0.12220015255E+04  0.37508485339E+04  0.35462060002E+04 0.  0.
        4    1    3    3  502    0 -0.99097219141E+03  0.84051810070E+03 -0.66501537274E+03  0.14597066899E+04  0.12699999809E+01 0. -1.
       -4    1    3    3    0  502  0.99097219141E+03 -0.84051810070E+03  0.18870168983E+04  0.22911418439E+04  0.12699999809E+01 0.  1.
</event>
<event>
 5   0  0.2936607E-07  0.3401755E+04  0.7818609E-02  0.8137476E-01
        1   -1    0    0  501    0  0.00000000000E+00  0.00000000000E+00  0.24381622310E+04  0.24381622310E+04  0.50400001928E-02 0. -1.
       -1   -1    0    0    0  501  0.00000000000E+00  0.00000000000E+00 -0.11865429048E+04  0.11865429048E+04  0.50400001928E-02 0.  1.
    10030    2    1    2    0    0  0.00000000000E+00  0.00000000000E+00  0.12516193262E+04  0.36247051358E+04  0.34017548977E+04 0.  0.
        2    1    3    3  502    0 -0.12173176907E+04  0.11672498195E+03  0.18854457926E+04  0.22473079269E+04  0.25500000920E-02 0. -1.
       -2    1    3    3    0  502  0.12173176907E+04 -0.11672498195E+03 -0.63382646647E+03  0.13773972089E+04  0.25500000920E-02 0.  1.
</event>
<event>
 5   0  0.9128871E-07  0.3337270E+04  0.7818609E-02  0.8153476E-01
       -2   -1    0    0    0  501  0.00000000000E+00  0.00000000000E+00  0.13302397284E+04  0.13302397284E+04  0.25500000920E-02 0.  1.
        2   -1    0    0  501    0  0.00000000000E+00  0.00000000000E+00 -0.20931139271E+04  0.20931139271E+04  0.25500000920E-02 0. -1.
    10030    2    1    2    0    0  0.00000000000E+00  0.00000000000E+00 -0.76287419863E+03  0.34233536555E+04  0.33372703228E+04 0.  0.
        1    1    3    3  502    0 -0.95037580809E+03  0.15415479355E+03  0.10165689768E+04  0.14001394079E+04  0.50400001928E-02 0.  1.
       -1    1    3    3    0  502  0.95037580809E+03 -0.15415479355E+03 -0.17794431754E+04  0.20232142476E+04  0.50400001928E-02 0. -1.
</event>
<event>
 5   0  0.3026332E-07  0.3239358E+04  0.7818609E-02  0.8178500E-01
       -1   -1    0    0    0  501  0.00000000000E+00  0.00000000000E+00  0.11027475496E+04  0.11027475496E+04  0.50400001928E-02 0.  1.
        1   -1    0    0  501    0  0.00000000000E+00  0.00000000000E+00 -0.23789303245E+04  0.23789303245E+04  0.50400001928E-02 0. -1.
    10030    2    1    2    0    0  0.00000000000E+00  0.00000000000E+00 -0.12761827749E+04  0.34816778742E+04  0.32393577055E+04 0.  0.
        1    1    3    3  502    0  0.10985127579E+04 -0.10103628781E+04 -0.13142762886E+04  0.19886894145E+04  0.50400001928E-02 0. -1.
       -1    1    3    3    0  502 -0.10985127579E+04  0.10103628781E+04  0.38093513707E+02  0.14929884596E+04  0.50400001928E-02 0.  1.
</event>
<event>
 5   0  0.3061330E-07  0.3482732E+04  0.7818609E-02  0.8117894E-01
       -1   -1    0    0    0  501  0.00000000000E+00  0.00000000000E+00  0.10534507127E+04  0.10534507128E+04  0.50400001928E-02 0. -1.
        1   -1    0    0  501    0  0.00000000000E+00  0.00000000000E+00 -0.28784984245E+04  0.28784984245E+04  0.50400001928E-02 0.  1.
    10030    2    1    2    0    0  0.00000000000E+00  0.00000000000E+00 -0.18250477117E+04  0.39319491372E+04  0.34827323853E+04 0.  0.
        5    1    3    3  502    0  0.36007058560E+03  0.52175574149E+03 -0.27435863331E+04  0.28158778271E+04  0.46999998093E+01 0.  1.
       -5    1    3    3    0  502 -0.36007058560E+03 -0.52175574149E+03  0.91853862132E+03  0.11160713101E+04  0.46999998093E+01 0. -1.
</event>
<event>
 5   0  0.9128871E-07  0.3506860E+04  0.7818609E-02  0.8112166E-01
       -2   -1    0    0    0  501  0.00000000000E+00  0.00000000000E+00  0.25419817774E+04  0.25419817774E+04  0.25500000920E-02 0.  1.
        2   -1    0    0  501    0  0.00000000000E+00  0.00000000000E+00 -0.12094961186E+04  0.12094961186E+04  0.25500000920E-02 0. -1.
    10030    2    1    2    0    0  0.00000000000E+00  0.00000000000E+00  0.13324856587E+04  0.37514778960E+04  0.35068601873E+04 0.  0.
        1    1    3    3  502    0  0.17100804766E+04  0.37803237559E+03  0.75722464085E+03  0.19080547346E+04  0.50400001928E-02 0.  1.
       -1    1    3    3    0  502 -0.17100804766E+04 -0.37803237559E+03  0.57526101789E+03  0.18434231614E+04  0.50400001928E-02 0. -1.
</event>
<event>
 5   0  0.2972541E-07  0.3512857E+04  0.7818609E-02  0.8110750E-01
       -1   -1    0    0    0  501  0.00000000000E+00  0.00000000000E+00  0.19394538195E+04  0.19394538195E+04  0.50400001928E-02 0.  1.
        1   -1    0    0  501    0  0.00000000000E+00  0.00000000000E+00 -0.15906753619E+04  0.15906753619E+04  0.50400001928E-02 0. -1.
    10030    2    1    2    0    0  0.00000000000E+00  0.00000000000E+00  0.34877845760E+03  0.35301291814E+04  0.35128571882E+04 0.  0.
        3    1    3    3  502    0 -0.13271661005E+04  0.21176697548E+03 -0.96202295463E+03  0.16527865215E+04  0.10100000352E+00 0. -1.
       -3    1    3    3    0  502  0.13271661005E+04 -0.21176697548E+03  0.13108014122E+04  0.18773426599E+04  0.10100000352E+00 0.  1.
</event>
<event>
 5   0  0.2972541E-07  0.3510743E+04  0.7818609E-02  0.8111249E-01
        1   -1    0    0  501    0  0.00000000000E+00  0.00000000000E+00  0.18016812683E+04  0.18016812683E+04  0.50400001928E-02 0.  1.
       -1   -1    0    0    0  501  0.00000000000E+00  0.00000000000E+00 -0.17102518793E+04  0.17102518793E+04  0.50400001928E-02 0. -1.
    10030    2    1    2    0    0  0.00000000000E+00  0.00000000000E+00  0.91429389063E+02  0.35119331476E+04  0.35107428131E+04 0.  0.
        3    1    3    3  502    0  0.66052652669E+03 -0.16244016505E+04 -0.34016471011E+02  0.17538908589E+04  0.10100000352E+00 0.  1.
       -3    1    3    3    0  502 -0.66052652669E+03  0.16244016505E+04  0.12544586007E+03  0.17580422886E+04  0.10100000352E+00 0. -1.
</event>
<event>
 5   0  0.2933506E-07  0.3556459E+04  0.7818609E-02  0.8100539E-01
        1   -1    0    0  501    0  0.00000000000E+00  0.00000000000E+00  0.22807054326E+04  0.22807054326E+04  0.50400001928E-02 0. -1.
       -1   -1    0    0    0  501  0.00000000000E+00  0.00000000000E+00 -0.13864572671E+04  0.13864572671E+04  0.50400001928E-02 0.  1.
    10030    2    1    2    0    0  0.00000000000E+00  0.00000000000E+00  0.89424816546E+03  0.36671626997E+04  0.35564592624E+04 0.  0.
        4    1    3    3  502    0 -0.81470416486E+03 -0.11573688049E+04 -0.66288523358E+03  0.15629023874E+04  0.12699999809E+01 0.  1.
       -4    1    3    3    0  502  0.81470416486E+03  0.11573688049E+04  0.15571333990E+04  0.21042603123E+04  0.12699999809E+01 0. -1.
</event>
<event>
 5   0  0.6188930E-07  0.3508591E+04  0.7818609E-02  0.8111757E-01
       -2   -1    0    0    0  501  0.00000000000E+00  0.00000000000E+00  0.20532152707E+04  0.20532152707E+04  0.25500000920E-02 0.  1.
        2   -1    0    0  501    0  0.00000000000E+00  0.00000000000E+00 -0.14988942828E+04  0.14988942828E+04  0.25500000920E-02 0. -1.
    10030    2    1    2    0    0  0.00000000000E+00  0.00000000000E+00  0.55432098788E+03  0.35521095535E+04  0.35085909597E+04 0.  0.
        3    1    3    3  502    0 -0.13969629613E+04  0.10557487395E+04  0.16886784774E+03  0.17591552736E+04  0.10100000352E+00 0.  1.
       -3    1    3    3    0  502  0.13969629613E+04 -0.10557487395E+04  0.38545314014E+03  0.17929542799E+04  0.10100000352E+00 0. -1.
</event>
<event>
 5   0  0.9128871E-07  0.2860280E+04  0.7818609E-02  0.8284794E-01
       -2   -1    0    0    0  501  0.00000000000E+00  0.00000000000E+00  0.12864729996E+04  0.12864729996E+04  0.25500000920E-02 0. -1.
        2   -1    0    0  501    0  0.00000000000E+00  0.00000000000E+00 -0.15898508261E+04  0.15898508261E+04  0.25500000920E-02 0.  1.
    10030    2    1    2    0    0  0.00000000000E+00  0.00000000000E+00 -0.30337782644E+03  0.28763238257E+04  0.28602798193E+04 0.  0.
        1    1    3    3  502    0 -0.82280309514E+03 -0.38294551105E+03 -0.12631705563E+04  0.15553945005E+04  0.50400001928E-02 0.  1.
       -1    1    3    3    0  502  0.82280309514E+03  0.38294551105E+03  0.95979272988E+03  0.13209293252E+04  0.50400001928E-02 0. -1.
</event>
<event>
 5   0  0.2936607E-07  0.3511919E+04  0.7818609E-02  0.8110971E-01
        1   -1    0    0  501    0  0.00000000000E+00  0.00000000000E+00  0.21323731690E+04  0.21323731690E+04  0.50400001928E-02 0. -1.
       -1   -1    0    0    0  501  0.00000000000E+00  0.00000000000E+00 -0.14459918470E+04  0.14459918470E+04  0.50400001928E-02 0.  1.
    10030    2    1    2    0    0  0.00000000000E+00  0.00000000000E+00  0.68638132199E+03  0.35783650159E+04  0.35119192571E+04 0.  0.
        2    1    3    3  502    0 -0.11251887286E+04 -0.36990710158E+03 -0.97768242462E+03  0.15358202572E+04  0.25500000920E-02 0.  1.
       -2    1    3    3    0  502  0.11251887286E+04  0.36990710158E+03  0.16640637466E+04  0.20425447588E+04  0.25500000920E-02 0. -1.
</event>
<event>
 5   0  0.2972541E-07  0.3479629E+04  0.7818609E-02  0.8118635E-01
        1   -1    0    0  501    0  0.00000000000E+00  0.00000000000E+00  0.17550183142E+04  0.17550183142E+04  0.50400001928E-02 0. -1.
       -1   -1    0    0    0  501  0.00000000000E+00  0.00000000000E+00 -0.17247419306E+04  0.17247419306E+04  0.50400001928E-02 0.  1.
    10030    2    1    2    0    0  0.00000000000E+00  0.00000000000E+00  0.30276383596E+02  0.34797602448E+04  0.34796285293E+04 0.  0.
        3    1    3    3  502    0  0.79962963379E+03  0.13572730537E+04 -0.72337197045E+03  0.17334545599E+04  0.10100000352E+00 0. -1.
       -3    1    3    3    0  502 -0.79962963379E+03 -0.13572730537E+04  0.75364835405E+03  0.17463056849E+04  0.10100000352E+00 0.  1.
</event>
<event>
 5   0  0.6188930E-07  0.3488100E+04  0.7818609E-02  0.8116616E-01
        2   -1    0    0  501    0  0.00000000000E+00  0.00000000000E+00  0.18578844860E+04  0.18578844860E+04  0.25500000920E-02 0.  1.
       -2   -1    0    0    0  501  0.00000000000E+00  0.00000000000E+00 -0.16371901236E+04  0.16371901236E+04  0.25500000920E-02 0. -1.
    10030    2    1    2    0    0  0.00000000000E+00  0.00000000000E+00  0.22069436243E+03  0.34950746096E+04  0.34880998445E+04 0.  0.
        3    1    3    3  502    0  0.47928618360E+03 -0.40663254602E+03 -0.15197570585E+04  0.16446053631E+04  0.10100000352E+00 0. -1.
       -3    1    3    3    0  502 -0.47928618360E+03  0.40663254602E+03  0.17404514210E+04  0.18504692465E+04  0.10100000352E+00 0.  1.
</event>
<event>
 5   0  0.9128871E-07  0.3154432E+04  0.7818609E-02  0.8200956E-01
       -2   -1    0    0    0  501  0.00000000000E+00  0.00000000000E+00  0.17058925787E+04  0.17058925788E+04  0.25500000920E-02 0. -1.
        2   -1    0    0  501    0  0.00000000000E+00  0.00000000000E+00 -0.14582453928E+04  0.14582453928E+04  0.25500000920E-02 0.  1.
    10030    2    1    2    0    0  0.00000000000E+00  0.00000000000E+00  0.24764718591E+03  0.31641379716E+04  0.31544317990E+04 0.  0.
        1    1    3    3  502    0  0.96673480493E+03  0.26310193418E+03  0.13456896217E+04  0.16777006195E+04  0.50400001928E-02 0.  1.
       -1    1    3    3    0  502 -0.96673480493E+03 -0.26310193418E+03 -0.10980424358E+04  0.14864373521E+04  0.50400001928E-02 0. -1.
</event>
<event>
 5   0  0.2907000E-07  0.3755953E+04  0.7818609E-02  0.8055674E-01
       -3   -1    0    0    0  501  0.00000000000E+00  0.00000000000E+00  0.11699367554E+04  0.11699367598E+04  0.10100000352E+00 0. -1.
        3   -1    0    0  501    0  0.00000000000E+00  0.00000000000E+00 -0.30145182204E+04  0.30145182221E+04  0.10100000352E+00 0.  1.
    10030    2    1    2    0    0  0.00000000000E+00  0.00000000000E+00 -0.18445814650E+04  0.41844549819E+04  0.37559529702E+04 0.  0.
        2    1    3    3  502    0  0.32247484159E+03  0.26369226306E+03 -0.29623986836E+04  0.29915430122E+04  0.25500000920E-02 0.  1.
       -2    1    3    3    0  502 -0.32247484159E+03 -0.26369226306E+03  0.11178172187E+04  0.11929119697E+04  0.25500000920E-02 0. -1.
</event>
<event>
 5   0  0.3061330E-07  0.3438528E+04  0.7818609E-02  0.8128514E-01
        1   -1    0    0  501    0  0.00000000000E+00  0.00000000000E+00  0.20546068578E+04  0.20546068578E+04  0.50400001928E-02 0. -1.
       -1   -1    0    0    0  501  0.00000000000E+00  0.00000000000E+00 -0.14386543535E+04  0.14386543535E+04  0.50400001928E-02 0.  1.
    10030    2    1    2    0    0  0.00000000000E+00  0.00000000000E+00  0.61595250432E+03  0.34932612114E+04  0.34385282322E+04 0.  0.
        5    1    3    3  502    0 -0.65466983308E+03 -0.15499948051E+04  0.66682750587E+03  0.18099053839E+04  0.46999998093E+01 0. -1.
       -5    1    3    3    0  502  0.65466983308E+03  0.15499948051E+04 -0.50875001549E+02  0.16833558275E+04  0.46999998093E+01 0.  1.
</event>
<event>
 5   0  0.2936607E-07  0.3505278E+04  0.7818609E-02  0.8112540E-01
       -1   -1    0    0    0  501  0.00000000000E+00  0.00000000000E+00  0.18370723342E+04  0.18370723342E+04  0.50400001928E-02 0.  1.
        1   -1    0    0  501    0  0.00000000000E+00  0.00000000000E+00 -0.16720865297E+04  0.16720865297E+04  0.50400001928E-02 0. -1.
    10030    2    1    2    0    0  0.00000000000E+00  0.00000000000E+00  0.16498580455E+03  0.35091588639E+04  0.35052782510E+04 0.  0.
        2    1    3    3  502    0 -0.59922664048E+03 -0.99605004201E+03  0.13956445825E+04  0.18163182688E+04  0.25500000920E-02 0.  1.
       -2    1    3    3    0  502  0.59922664048E+03  0.99605004201E+03 -0.12306587779E+04  0.16928405952E+04  0.25500000920E-02 0. -1.
</event>
<event>
 5   0  0.2972541E-07  0.3506968E+04  0.7818609E-02  0.8112141E-01
       -1   -1    0    0    0  501  0.00000000000E+00  0.00000000000E+00  0.15762264995E+04  0.15762264995E+04  0.50400001928E-02 0. -1.
        1   -1    0    0  501    0  0.00000000000E+00  0.00000000000E+00 -0.19506756878E+04  0.19506756878E+04  0.50400001928E-02 0.  1.
    10030    2    1    2    0    0  0.00000000000E+00  0.00000000000E+00 -0.37444918833E+03  0.35269021874E+04  0.35069683267E+04 0.  0.
        3    1    3    3  502    0 -0.17437683845E+04 -0.18033612530E+03 -0.22561755071E+03  0.17675272519E+04  0.10100000352E+00 0.  1.
       -3    1    3    3    0  502  0.17437683845E+04  0.18033612530E+03 -0.14883163762E+03  0.17593749354E+04  0.10100000352E+00 0. -1.
</event>
<event>
 5   0  0.2936607E-07  0.2889271E+04  0.7818609E-02  0.8276077E-01
        1   -1    0    0  501    0  0.00000000000E+00  0.00000000000E+00  0.16536929381E+04  0.16536929382E+04  0.50400001928E-02 0. -1.
       -1   -1    0    0    0  501  0.00000000000E+00  0.00000000000E+00 -0.12620067809E+04  0.12620067809E+04  0.50400001928E-02 0.  1.
    10030    2    1    2    0    0  0.00000000000E+00  0.00000000000E+00  0.39168615727E+03  0.29156997190E+04  0.28892709817E+04 0.  0.
        2    1    3    3  502    0  0.14782402104E+02 -0.14369029609E+04  0.34573817317E+03  0.14779863068E+04  0.25500000920E-02 0. -1.
       -2    1    3    3    0  502 -0.14782402104E+02  0.14369029609E+04  0.45947984101E+02  0.14377134123E+04  0.25500000920E-02 0.  1.
</event>
<event>
 5   0  0.3061330E-07  0.3039203E+04  0.7818609E-02  0.8232624E-01
        1   -1    0    0  501    0  0.00000000000E+00  0.00000000000E+00  0.13219383804E+04  0.13219383804E+04  0.50400001928E-02 0.  1.
       -1   -1    0    0    0  501  0.00000000000E+00  0.00000000000E+00 -0.17468202383E+04  0.17468202383E+04  0.50400001928E-02 0. -1.
    10030    2    1    2    0    0  0.00000000000E+00  0.00000000000E+00 -0.42488185785E+03  0.30687586187E+04  0.30392029986E+04 0.  0.
        5    1    3    3  502    0 -0.12030630946E+04 -0.45228864769E+03 -0.10310287459E+04  0.16477160542E+04  0.46999998093E+01 0. -1.
       -5    1    3    3    0  502  0.12030630946E+04  0.45228864769E+03  0.60614688805E+03  0.14210425645E+04  0.46999998093E+01 0.  1.
</event>
<event>
 5   0  0.8845195E-07  0.3482933E+04  0.7818609E-02  0.8117847E-01
       -2   -1    0    0    0  501  0.00000000000E+00  0.00000000000E+00  0.19180956006E+04  0.19180956006E+04  0.25500000920E-02 0. -1.
        2   -1    0    0  501    0  0.00000000000E+00  0.00000000000E+00 -0.15811023461E+04  0.15811023461E+04  0.25500000920E-02 0.  1.
    10030    2    1    2    0    0  0.00000000000E+00  0.00000000000E+00  0.33699325452E+03  0.34991979467E+04  0.34829329331E+04 0.  0.
        5    1    3    3  502    0  0.80080859590E+03  0.12192556485E+04  0.11241508956E+04  0.18416340760E+04  0.46999998093E+01 0. -1.
       -5    1    3    3    0  502 -0.80080859590E+03 -0.12192556485E+04 -0.78715764108E+03  0.16575638707E+04  0.46999998093E+01 0.  1.
</event>
<event>
 5   0  0.6188930E-07  0.3487888E+04  0.7818609E-02  0.8116666E-01
        2   -1    0    0  501    0  0.00000000000E+00  0.00000000000E+00  0.23295850603E+04  0.23295850603E+04  0.25500000920E-02 0.  1.
       -2   -1    0    0    0  501  0.00000000000E+00  0.00000000000E+00 -0.13055292604E+04  0.13055292604E+04  0.25500000920E-02 0. -1.
    10030    2    1    2    0    0  0.00000000000E+00  0.00000000000E+00  0.10240558000E+04  0.36351143207E+04  0.34878884505E+04 0.  0.
        3    1    3    3  502    0 -0.88564613186E+02  0.74007851382E+02 -0.13015445057E+04  0.13066518141E+04  0.10100000352E+00 0. -1.
       -3    1    3    3    0  502  0.88564613186E+02 -0.74007851382E+02  0.23256003056E+04  0.23284625066E+04  0.10100000352E+00 0.  1.
</event>
<event>
 5   0  0.8950809E-07  0.3459160E+04  0.7818609E-02  0.8123537E-01
        2   -1    0    0  501    0  0.00000000000E+00  0.00000000000E+00  0.31445136333E+04  0.31445136333E+04  0.25500000920E-02 0.  1.
       -2   -1    0    0    0  501  0.00000000000E+00  0.00000000000E+00 -0.95132240086E+03  0.95132240087E+03  0.25500000920E-02 0. -1.
    10030    2    1    2    0    0  0.00000000000E+00  0.00000000000E+00  0.21931912325E+04  0.40958360342E+04  0.34591595853E+04 0.  0.
        2    1    3    3  502    0  0.48272480742E+03 -0.32709299845E+03 -0.83142781868E+03  0.10155221746E+04  0.25500000920E-02 0. -1.
       -2    1    3    3    0  502 -0.48272480742E+03  0.32709299845E+03  0.30246190511E+04  0.30803138596E+04  0.25500000920E-02 0.  1.
</event>
<event>
 5   0  0.9128871E-07  0.3524647E+04  0.7818609E-02  0.8107974E-01
        2   -1    0    0  501    0  0.00000000000E+00  0.00000000000E+00  0.18387966866E+04  0.18387966866E+04  0.25500000920E-02 0. -1.
       -2   -1    0    0    0  501  0.00000000000E+00  0.00000000000E+00 -0.16890309688E+04  0.16890309688E+04  0.25500000920E-02 0.  1.
    10030    2    1    2    0    0  0.00000000000E+00  0.00000000000E+00  0.14976571778E+03  0.35278276553E+04  0.35246472441E+04 0.  0.
        1    1    3    3  502    0 -0.10194805887E+04 -0.13036292787E+04 -0.53146455355E+03  0.17381727586E+04  0.50400001928E-02 0.  1.
       -1    1    3    3    0  502  0.10194805887E+04  0.13036292787E+04  0.68123027134E+03  0.17896548968E+04  0.50400001928E-02 0. -1.
</event>
<event>
 5   0  0.2936607E-07  0.3463929E+04  0.7818609E-02  0.8122392E-01
       -1   -1    0    0    0  501  0.00000000000E+00  0.00000000000E+00  0.95780212179E+03  0.95780212180E+03  0.50400001928E-02 0. -1.
        1   -1    0    0  501    0  0.00000000000E+00  0.00000000000E+00 -0.31318581356E+04  0.31318581356E+04  0.50400001928E-02 0.  1.
    10030    2    1    2    0    0  0.00000000000E+00  0.00000000000E+00 -0.21740560138E+04  0.40896602574E+04  0.34639286179E+04 0.  0.
        2    1    3    3  502    0  0.14718273606E+04 -0.83925572977E+03 -0.15111964627E+04  0.22703173144E+04  0.25500000920E-02 0.  1.
       -2    1    3    3    0  502 -0.14718273606E+04  0.83925572977E+03 -0.66285955112E+03  0.18193429429E+04  0.25500000920E-02 0. -1.
</event>
<event>
 5   0  0.9311672E-07  0.3497249E+04  0.7818609E-02  0.8114442E-01
       -2   -1    0    0    0  501  0.00000000000E+00  0.00000000000E+00  0.24705107834E+04  0.24705107834E+04  0.25500000920E-02 0.  1.
        2   -1    0    0  501    0  0.00000000000E+00  0.00000000000E+00 -0.12376744042E+04  0.12376744042E+04  0.25500000920E-02 0. -1.
    10030    2    1    2    0    0  0.00000000000E+00  0.00000000000E+00  0.12328363793E+04  0.37081851876E+04  0.34972491829E+04 0.  0.
        4    1    3    3  502    0  0.13861400854E+03  0.17257422715E+04  0.87675974605E+03  0.19406466696E+04  0.12699999809E+01 0.  1.
       -4    1    3    3    0  502 -0.13861400854E+03 -0.17257422715E+04  0.35607663321E+03  0.17675385180E+04  0.12699999809E+01 0. -1.
</event>
<event>
 5   0  0.2933506E-07  0.3513354E+04  0.7818609E-02  0.8110633E-01
        1   -1    0    0  501    0  0.00000000000E+00  0.00000000000E+00  0.18090474760E+04  0.18090474760E+04  0.50400001928E-02 0.  1.
       -1   -1    0    0    0  501  0.00000000000E+00  0.00000000000E+00 -0.17058222193E+04  0.17058222193E+04  0.50400001928E-02 0. -1.
    10030    2    1    2    0    0  0.00000000000E+00  0.00000000000E+00  0.10322525675E+03  0.35148696953E+04  0.35133536004E+04 0.  0.
        4    1    3    3  502    0  0.14286411399E+04 -0.41456792353E+03  0.98637640919E+03  0.17848871402E+04  0.12699999809E+01 0.  1.
       -4    1    3    3    0  502 -0.14286411399E+04  0.41456792353E+03 -0.88315115244E+03  0.17299825551E+04  0.12699999809E+01 0. -1.
</event>
<event>
 5   0  0.2936607E-07  0.3489783E+04  0.7818609E-02  0.8116216E-01
        1   -1    0    0  501    0  0.00000000000E+00  0.00000000000E+00  0.24906871519E+04  0.24906871519E+04  0.50400001928E-02 0.  1.
       -1   -1    0    0    0  501  0.00000000000E+00  0.00000000000E+00 -0.12224119930E+04  0.12224119930E+04  0.50400001928E-02 0. -1.
    10030    2    1    2    0    0  0.00000000000E+00  0.00000000000E+00  0.12682751589E+04  0.37130991449E+04  0.34897827126E+04 0.  0.
        2    1    3    3  502    0 -0.14040040916E+04  0.10289714365E+04  0.76285917686E+03  0.19005167271E+04  0.25500000920E-02 0.  1.
       -2    1    3    3    0  502  0.14040040916E+04 -0.10289714365E+04  0.50541598200E+03  0.18125824178E+04  0.25500000920E-02 0. -1.
</event>
<event>
 5   0  0.6188930E-07  0.3496789E+04  0.7818609E-02  0.8114551E-01
       -2   -1    0    0    0  501  0.00000000000E+00  0.00000000000E+00  0.29555803173E+04  0.29555803173E+04  0.25500000920E-02 0. -1.
        2   -1    0    0  501    0  0.00000000000E+00  0.00000000000E+00 -0.10342750847E+04  0.10342750847E+04  0.25500000920E-02 0.  1.
    10030    2    1    2    0    0  0.00000000000E+00  0.00000000000E+00  0.19213052326E+04  0.39898554020E+04  0.34967888600E+04 0.  0.
        3    1    3    3  502    0 -0.12512888163E+04  0.86127422231E+03 -0.27069466305E+02  0.15192925176E+04  0.10100000352E+00 0.  1.
       -3    1    3    3    0  502  0.12512888163E+04 -0.86127422231E+03  0.19483746989E+04  0.24705628844E+04  0.10100000352E+00 0. -1.
</event>
<event>
 5   0  0.2972541E-07  0.3469495E+04  0.7818609E-02  0.8121057E-01
        1   -1    0    0  501    0  0.00000000000E+00  0.00000000000E+00  0.29782482187E+04  0.29782482187E+04  0.50400001928E-02 0.  1.
       -1   -1    0    0    0  501  0.00000000000E+00  0.00000000000E+00 -0.10104428021E+04  0.10104428021E+04  0.50400001928E-02 0. -1.
    10030    2    1    2    0    0  0.00000000000E+00  0.00000000000E+00  0.19678054166E+04  0.39886910209E+04  0.34694953383E+04 0.  0.
        3    1    3    3  502    0 -0.43269929073E+03  0.16786684065E+04  0.90945774370E+03  0.19576183727E+04  0.10100000352E+00 0. -1.
       -3    1    3    3    0  502  0.43269929073E+03 -0.16786684065E+04  0.10583476729E+04  0.20310726482E+04  0.10100000352E+00 0.  1.
</event>
<event>
 5   0  0.6188930E-07  0.2904275E+04  0.7818609E-02  0.8271607E-01
       -2   -1    0    0    0  501  0.00000000000E+00  0.00000000000E+00  0.11532207937E+04  0.11532207937E+04  0.25500000920E-02 0. -1.
        2   -1    0    0  501    0  0.00000000000E+00  0.00000000000E+00 -0.18285342126E+04  0.18285342126E+04  0.25500000920E-02 0.  1.
    10030    2    1    2    0    0  0.00000000000E+00  0.00000000000E+00 -0.67531341889E+03  0.29817550063E+04  0.29042752459E+04 0.  0.
        3    1    3    3  502    0 -0.22562577442E+02 -0.75666735636E+03  0.93461590679E+03  0.12027308350E+04  0.10100000352E+00 0. -1.
       -3    1    3    3    0  502  0.22562577442E+02  0.75666735636E+03 -0.16099293257E+04  0.17790241713E+04  0.10100000352E+00 0.  1.
</event>
<event>
 5   0  0.2907000E-07  0.3105124E+04  0.7818609E-02  0.8214333E-01
       -3   -1    0    0    0  501  0.00000000000E+00  0.00000000000E+00  0.14647544413E+04  0.14647544448E+04  0.10100000352E+00 0.  1.
        3   -1    0    0  501    0  0.00000000000E+00  0.00000000000E+00 -0.16456328800E+04  0.16456328831E+04  0.10100000352E+00 0. -1.
    10030    2    1    2    0    0  0.00000000000E+00  0.00000000000E+00 -0.18087843874E+03  0.31103873279E+04  0.31051235596E+04 0.  0.
        1    1    3    3  502    0 -0.95704666811E+03  0.63895004292E+03 -0.11344404282E+04  0.16159054946E+04  0.50400001928E-02 0. -1.
       -1    1    3    3    0  502  0.95704666811E+03 -0.63895004292E+03  0.95356198950E+03  0.14944818333E+04  0.50400001928E-02 0.  1.
</event>
<event>
 5   0  0.2933506E-07  0.3465536E+04  0.7818609E-02  0.8122006E-01
       -1   -1    0    0    0  501  0.00000000000E+00  0.00000000000E+00  0.12720760079E+04  0.12720760079E+04  0.50400001928E-02 0. -1.
        1   -1    0    0  501    0  0.00000000000E+00  0.00000000000E+00 -0.23603034239E+04  0.23603034239E+04  0.50400001928E-02 0.  1.
    10030    2    1    2    0    0  0.00000000000E+00  0.00000000000E+00 -0.10882274160E+04  0.36323794318E+04  0.34655362395E+04 0.  0.
        4    1    3    3  502    0  0.11084662825E+04  0.37933869467E+03 -0.18822479911E+04  0.22170824201E+04  0.12699999809E+01 0.  1.
       -4    1    3    3    0  502 -0.11084662825E+04 -0.37933869467E+03  0.79402057507E+03  0.14152970117E+04  0.12699999809E+01 0. -1.
</event>
<event>
 5   0  0.3061330E-07  0.3498478E+04  0.7818609E-02  0.8114151E-01
       -1   -1    0    0    0  501  0.00000000000E+00  0.00000000000E+00  0.13106474458E+04  0.13106474458E+04  0.50400001928E-02 0. -1.
        1   -1    0    0  501    0  0.00000000000E+00  0.00000000000E+00 -0.23345995513E+04  0.23345995513E+04  0.50400001928E-02 0.  1.
    10030    2    1    2    0    0  0.00000000000E+00  0.00000000000E+00 -0.10239521055E+04  0.36452469971E+04  0.34984779198E+04 0.  0.
        5    1    3    3  502    0  0.39869004826E+03 -0.10211454983E+04 -0.19322922807E+04  0.22215911935E+04  0.46999998093E+01 0.  1.
       -5    1    3    3    0  502 -0.39869004826E+03  0.10211454983E+04  0.90834017516E+03  0.14236558036E+04  0.46999998093E+01 0. -1.
</event>
<event>
 5   0  0.6188930E-07  0.3497559E+04  0.7818609E-02  0.8114369E-01
       -2   -1    0    0    0  501  0.00000000000E+00  0.00000000000E+00  0.11897401238E+04  0.11897401238E+04  0.25500000920E-02 0. -1.
        2   -1    0    0  501    0  0.00000000000E+00  0.00000000000E+00 -0.25705022142E+04  0.25705022142E+04  0.25500000920E-02 0.  1.
    10030    2    1    2    0    0  0.00000000000E+00  0.00000000000E+00 -0.13807620904E+04  0.37602423380E+04  0.34975589330E+04 0.  0.
        3    1    3    3  502    0  0.11591714681E+04  0.30851769914E+03 -0.20584990668E+04  0.23824945081E+04  0.10100000352E+00 0.  1.
       -3    1    3    3    0  502 -0.11591714681E+04 -0.30851769914E+03  0.67773697637E+03  0.13777478298E+04  0.10100000352E+00 0. -1.
</event>
<event>
 5   0  0.3026332E-07  0.3313001E+04  0.7818609E-02  0.8159595E-01
       -1   -1    0    0    0  501  0.00000000000E+00  0.00000000000E+00  0.11876380172E+04  0.11876380172E+04  0.50400001928E-02 0.  1.
        1   -1    0    0  501    0  0.00000000000E+00  0.00000000000E+00 -0.23104630733E+04  0.23104630733E+04  0.50400001928E-02 0. -1.
    10030    2    1    2    0    0  0.00000000000E+00  0.00000000000E+00 -0.11228250561E+04  0.34981010904E+04  0.33130009255E+04 0.  0.
        1    1    3    3  502    0 -0.96273716927E+03  0.10445019717E+04 -0.14611647751E+04  0.20378541964E+04  0.50400001928E-02 0. -1.
       -1    1    3    3    0  502  0.96273716927E+03 -0.10445019717E+04  0.33833971901E+03  0.14602468940E+04  0.50400001928E-02 0.  1.
</event>
<event>
 5   0  0.8845195E-07  0.3474521E+04  0.7818609E-02  0.8119855E-01
       -2   -1    0    0    0  501  0.00000000000E+00  0.00000000000E+00  0.15294843612E+04  0.15294843612E+04  0.25500000920E-02 0.  1.
        2   -1    0    0  501    0  0.00000000000E+00  0.00000000000E+00 -0.19732622086E+04  0.19732622086E+04  0.25500000920E-02 0. -1.
    10030    2    1    2    0    0  0.00000000000E+00  0.00000000000E+00 -0.44377784748E+03  0.35027465698E+04  0.34745207949E+04 0.  0.
        5    1    3    3  502    0 -0.38233980768E+03 -0.12496827755E+04 -0.13758100030E+04  0.18975684499E+04  0.46999998093E+01 0. -1.
       -5    1    3    3    0  502  0.38233980768E+03  0.12496827755E+04  0.93203215549E+03  0.16051781199E+04  0.46999998093E+01 0.  1.
</event>
<event>
 5   0  0.2936607E-07  0.3527412E+04  0.7818609E-02  0.8107324E-01
       -1   -1    0    0    0  501  0.00000000000E+00  0.00000000000E+00  0.20262066012E+04  0.20262066012E+04  0.50400001928E-02 0.  1.
        1   -1    0    0  501    0  0.00000000000E+00  0.00000000000E+00 -0.15352129587E+04  0.15352129587E+04  0.50400001928E-02 0. -1.
    10030    2    1    2    0    0  0.00000000000E+00  0.00000000000E+00  0.49099364252E+03  0.35614195600E+04  0.35274118735E+04 0.  0.
        2    1    3    3  502    0 -0.69466005360E+03 -0.81393674801E+03  0.16610167117E+04  0.19758598473E+04  0.25500000920E-02 0.  1.
       -2    1    3    3    0  502  0.69466005360E+03  0.81393674801E+03 -0.11700230692E+04  0.15855597126E+04  0.25500000920E-02 0. -1.
</event>
<event>
 5   0  0.3026332E-07  0.3536185E+04  0.7818609E-02  0.8105268E-01
       -1   -1    0    0    0  501  0.00000000000E+00  0.00000000000E+00  0.10501750805E+04  0.10501750805E+04  0.50400001928E-02 0. -1.
        1   -1    0    0  501    0  0.00000000000E+00  0.00000000000E+00 -0.29767901893E+04  0.29767901893E+04  0.50400001928E-02 0.  1.
    10030    2    1    2    0    0  0.00000000000E+00  0.00000000000E+00 -0.19266151088E+04  0.40269652698E+04  0.35361848802E+04 0.  0.
        1    1    3    3  502    0 -0.14703714479E+04 -0.97613576065E+03 -0.84215816954E+03  0.19555213118E+04  0.50400001928E-02 0. -1.
       -1    1    3    3    0  502  0.14703714479E+04  0.97613576065E+03 -0.10844569392E+04  0.20714439580E+04  0.50400001928E-02 0.  1.
</event>
<event>
 5   0  0.2907000E-07  0.3392029E+04  0.7818609E-02  0.8139865E-01
        3   -1    0    0  501    0  0.00000000000E+00  0.00000000000E+00  0.12056841791E+04  0.12056841834E+04  0.10100000352E+00 0. -1.
       -3   -1    0    0    0  501  0.00000000000E+00  0.00000000000E+00 -0.23857539816E+04  0.23857539837E+04  0.10100000352E+00 0.  1.
    10030    2    1    2    0    0  0.00000000000E+00  0.00000000000E+00 -0.11800698024E+04  0.35914381671E+04  0.33920293880E+04 0.  0.
        4    1    3    3  502    0 -0.94767984006E+03 -0.13877843194E+04 -0.34761688714E+03  0.17160657066E+04  0.12699999809E+01 0. -1.
       -4    1    3    3    0  502  0.94767984006E+03  0.13877843194E+04 -0.83245291528E+03  0.18753724604E+04  0.12699999809E+01 0.  1.
</event>
<event>
 5   0  0.2972541E-07  0.3507128E+04  0.7818609E-02  0.8112103E-01
        1   -1    0    0  501    0  0.00000000000E+00  0.00000000000E+00  0.15948782089E+04  0.15948782089E+04  0.50400001928E-02 0.  1.
       -1   -1    0    0    0  501  0.00000000000E+00  0.00000000000E+00 -0.19280388787E+04  0.19280388787E+04  0.50400001928E-02 0. -1.
    10030    2    1    2    0    0  0.00000000000E+00  0.00000000000E+00 -0.33316066980E+03  0.35229170876E+04  0.35071282802E+04 0.  0.
        3    1    3    3  502    0 -0.30129552450E+03 -0.51635649426E+03 -0.18225114707E+04  0.19180591996E+04  0.10100000352E+00 0. -1.
       -3    1    3    3    0  502  0.30129552450E+03  0.51635649426E+03  0.14893508009E+04  0.16048578880E+04  0.10100000352E+00 0.  1.
</event>
<event>
 5   0  0.8950809E-07  0.3336596E+04  0.7818609E-02  0.8153646E-01
        2   -1    0    0  501    0  0.00000000000E+00  0.00000000000E+00  0.11385608144E+04  0.11385608144E+04  0.25500000920E-02 0. -1.
       -2   -1    0    0    0  501  0.00000000000E+00  0.00000000000E+00 -0.24445048705E+04  0.24445048705E+04  0.25500000920E-02 0.  1.
    10030    2    1    2    0    0  0.00000000000E+00  0.00000000000E+00 -0.13059440560E+04  0.35830656849E+04  0.33365955441E+04 0.  0.
        2    1    3    3  502    0  0.96732565267E+03 -0.12169236559E+04 -0.13031686104E+04  0.20285143652E+04  0.25500000920E-02 0.  1.
       -2    1    3    3    0  502 -0.96732565267E+03  0.12169236559E+04 -0.27754456621E+01  0.15545513197E+04  0.25500000920E-02 0. -1.
</event>
<event>
 5   0  0.9128871E-07  0.3569006E+04  0.7818609E-02  0.8097628E-01
       -2   -1    0    0    0  501  0.00000000000E+00  0.00000000000E+00  0.21215558253E+04  0.21215558253E+04  0.25500000920E-02 0.  1.
        2   -1    0    0  501    0  0.00000000000E+00  0.00000000000E+00 -0.15009981072E+04  0.15009981072E+04  0.25500000920E-02 0. -1.
    10030    2    1    2    0    0  0.00000000000E+00  0.00000000000E+00  0.62055771803E+03  0.36225539325E+04  0.35690061799E+04 0.  0.
        1    1    3    3  502    0 -0.55851265544E+03  0.13254524858E+04  0.13823891061E+04  0.19949336628E+04  0.50400001928E-02 0.  1.
       -1    1    3    3    0  502  0.55851265544E+03 -0.13254524858E+04 -0.76183138809E+03  0.16276202697E+04  0.50400001928E-02 0. -1.
</event>
<event>
 5   0  0.2933506E-07  0.3536896E+04  0.7818609E-02  0.8105101E-01
        1   -1    0    0  501    0  0.00000000000E+00  0.00000000000E+00  0.26468395516E+04  0.26468395516E+04  0.50400001928E-02 0.  1.
       -1   -1    0    0    0  501  0.00000000000E+00  0.00000000000E+00 -0.11815630229E+04  0.11815630230E+04  0.50400001928E-02 0. -1.
    10030    2    1    2    0    0  0.00000000000E+00  0.00000000000E+00  0.14652765286E+04  0.38284025745E+04  0.35368956682E+04 0.  0.
        4    1    3    3  502    0 -0.15954640894E+04  0.41941592495E+03  0.42949072730E+02  0.16502307761E+04  0.12699999809E+01 0. -1.
       -4    1    3    3    0  502  0.15954640894E+04 -0.41941592495E+03  0.14223274559E+04  0.21781717984E+04  0.12699999809E+01 0.  1.
</event>
<event>
 5   0  0.3026332E-07  0.3387984E+04  0.7818609E-02  0.8140862E-01
        1   -1    0    0  501    0  0.00000000000E+00  0.00000000000E+00  0.25682097859E+04  0.25682097860E+04  0.50400001928E-02 0.  1.
       -1   -1    0    0    0  501  0.00000000000E+00  0.00000000000E+00 -0.11173574829E+04  0.11173574830E+04  0.50400001928E-02 0. -1.
    10030    2    1    2    0    0  0.00000000000E+00  0.00000000000E+00  0.14508523030E+04  0.36855672689E+04  0.33879837202E+04 0.  0.
        1    1    3    3  502    0  0.73744360868E+03  0.13166900406E+04 -0.11165046350E+03  0.15132618957E+04  0.50400001928E-02 0.  1.
       -1    1    3    3    0  502 -0.73744360868E+03 -0.13166900406E+04  0.15625027665E+04  0.21723053732E+04  0.50400001928E-02 0. -1.
</event>
<event>
 5   0  0.3026332E-07  0.3516818E+04  0.7818609E-02  0.8109816E-01
        1   -1    0    0  501    0  0.00000000000E+00  0.00000000000E+00  0.14982671594E+04  0.14982671594E+04  0.50400001928E-02 0. -1.
       -1   -1    0    0    0  501  0.00000000000E+00  0.00000000000E+00 -0.20637187242E+04  0.20637187242E+04  0.50400001928E-02 0.  1.
    10030    2    1    2    0    0  0.00000000000E+00  0.00000000000E+00 -0.56545156474E+03  0.35619858836E+04  0.35168178746E+04 0.  0.
        1    1    3    3  502    0 -0.95205192076E+03  0.38090907245E+03  0.11640838915E+04  0.15513174684E+04  0.50400001928E-02 0. -1.
       -1    1    3    3    0  502  0.95205192076E+03 -0.38090907245E+03 -0.17295354563E+04  0.20106684152E+04  0.50400001928E-02 0.  1.
</event>
<event>
 5   0  0.2936607E-07  0.3401915E+04  0.7818609E-02  0.8137436E-01
       -1   -1    0    0    0  501  0.00000000000E+00  0.00000000000E+00  0.14420453317E+04  0.14420453317E+04  0.50400001928E-02 0.  1.
        1   -1    0    0  501    0  0.00000000000E+00  0.00000000000E+00 -0.20063565641E+04  0.20063565641E+04  0.50400001928E-02 0. -1.
    10030    2    1    2    0    0  0.00000000000E+00  0.00000000000E+00 -0.56431123244E+03  0.34484018958E+04  0.34019154117E+04 0.  0.
        2    1    3    3  502    0  0.52103672079E+03 -0.14074622812E+04 -0.10936117164E+04  0.18569910941E+04  0.25500000920E-02 0. -1.
       -2    1    3    3    0  502 -0.52103672079E+03  0.14074622812E+04  0.52930048397E+03  0.15914108017E+04  0.25500000920E-02 0.  1.
</event>
<event>
 5   0  0.9128871E-07  0.3502299E+04  0.7818609E-02  0.8113245E-01
        2   -1    0    0  501    0  0.00000000000E+00  0.00000000000E+00  0.31265489866E+04  0.31265489866E+04  0.25500000920E-02 0. -1.
       -2   -1    0    0    0  501  0.00000000000E+00  0.00000000000E+00 -0.98080157291E+03  0.98080157292E+03  0.25500000920E-02 0.  1.
    10030    2    1    2    0    0  0.00000000000E+00  0.00000000000E+00  0.21457474137E+04  0.41073505596E+04  0.35022987673E+04 0.  0.
        1    1    3    3  502    0  0.32735790002E+02  0.79727935692E+02 -0.97831271102E+03  0.98210179526E+03  0.50400001928E-02 0.  1.
       -1    1    3    3    0  502 -0.32735790002E+02 -0.79727935692E+02  0.31240601247E+04  0.31252487643E+04  0.50400001928E-02 0. -1.
</event>
<event>
 5   0  0.6188930E-07  0.3499676E+04  0.7818609E-02  0.8113867E-01
        2   -1    0    0  501    0  0.00000000000E+00  0.00000000000E+00  0.15312120352E+04  0.15312120352E+04  0.25500000920E-02 0. -1.
       -2   -1    0    0    0  501  0.00000000000E+00  0.00000000000E+00 -0.19996794960E+04  0.19996794960E+04  0.25500000920E-02 0.  1.
    10030    2    1    2    0    0  0.00000000000E+00  0.00000000000E+00 -0.46846746088E+03  0.35308915312E+04  0.34996761626E+04 0.  0.
        3    1    3    3  502    0 -0.52975565084E+03  0.71283246559E+03  0.12869151520E+04  0.15636245688E+04  0.10100000352E+00 0. -1.
       -3    1    3    3    0  502  0.52975565084E+03 -0.71283246559E+03 -0.17553826129E+04  0.19672669624E+04  0.10100000352E+00 0.  1.
</event>
<event>
 5   0  0.2972541E-07  0.3518259E+04  0.7818609E-02  0.8109476E-01
        1   -1    0    0  501    0  0.00000000000E+00  0.00000000000E+00  0.18366501484E+04  0.18366501484E+04  0.50400001928E-02 0. -1.
       -1   -1    0    0    0  501  0.00000000000E+00  0.00000000000E+00 -0.16848812623E+04  0.16848812624E+04  0.50400001928E-02 0.  1.
    10030    2    1    2    0    0  0.00000000000E+00  0.00000000000E+00  0.15176888607E+03  0.35215314108E+04  0.35182594677E+04 0.  0.
        3    1    3    3  502    0  0.89997287606E+03  0.18837692043E+03  0.15769792407E+04  0.18254590046E+04  0.10100000352E+00 0. -1.
       -3    1    3    3    0  502 -0.89997287606E+03 -0.18837692043E+03 -0.14252103546E+04  0.16960724061E+04  0.10100000352E+00 0.  1.
</event>
<event>
 5   0  0.9311672E-07  0.3476196E+04  0.7818609E-02  0.8119454E-01
       -2   -1    0    0    0  501  0.00000000000E+00  0.00000000000E+00  0.13302168337E+04  0.13302168337E+04  0.25500000920E-02 0.  1.
        2   -1    0    0  501    0  0.00000000000E+00  0.00000000000E+00 -0.22710471872E+04  0.22710471872E+04  0.25500000920E-02 0. -1.
    10030    2    1    2    0    0  0.00000000000E+00  0.00000000000E+00 -0.94083035345E+03  0.36012640209E+04  0.34761963113E+04 0.  0.
        4    1    3    3  502    0 -0.10766859684E+03 -0.37124272674E+03 -0.22259536988E+04  0.22592665118E+04  0.12699999809E+01 0. -1.
       -4    1    3    3    0  502  0.10766859684E+03  0.37124272674E+03  0.12851233454E+04  0.13419975092E+04  0.12699999809E+01 0.  1.
</event>
<event>
 5   0  0.2972541E-07  0.3488295E+04  0.7818609E-02  0.8116569E-01
       -1   -1    0    0    0  501  0.00000000000E+00  0.00000000000E+00  0.15332969004E+04  0.15332969004E+04  0.50400001928E-02 0. -1.
        1   -1    0    0  501    0  0.00000000000E+00  0.00000000000E+00 -0.19839934842E+04  0.19839934842E+04  0.50400001928E-02 0.  1.
    10030    2    1    2    0    0  0.00000000000E+00  0.00000000000E+00 -0.45069658373E+03  0.35172903846E+04  0.34882953199E+04 0.  0.
        3    1    3    3  502    0  0.12015952769E+04  0.53725659654E+03  0.92853052035E+03  0.16107901159E+04  0.10100000352E+00 0. -1.
       -3    1    3    3    0  502 -0.12015952769E+04 -0.53725659654E+03 -0.13792271041E+04  0.19065002688E+04  0.10100000352E+00 0.  1.
</event>
<event>
 5   0  0.2972541E-07  0.3531378E+04  0.7818609E-02  0.8106394E-01
       -1   -1    0    0    0  501  0.00000000000E+00  0.00000000000E+00  0.30105549589E+04  0.30105549589E+04  0.50400001928E-02 0. -1.
        1   -1    0    0  501    0  0.00000000000E+00  0.00000000000E+00 -0.10355757658E+04  0.10355757659E+04  0.50400001928E-02 0.  1.
    10030    2    1    2    0    0  0.00000000000E+00  0.00000000000E+00  0.19749791931E+04  0.40461307248E+04  0.35313780637E+04 0.  0.
        3    1    3    3  502    0 -0.15050669544E+04  0.39228898896E+03  0.19451058504E+04  0.24904927158E+04  0.10100000352E+00 0.  1.
       -3    1    3    3    0  502  0.15050669544E+04 -0.39228898896E+03  0.29873342693E+02  0.15556380090E+04  0.10100000352E+00 0. -1.
</event>
<event>
 5   0  0.6188930E-07  0.3450704E+04  0.7818609E-02  0.8125573E-01
        2   -1    0    0  501    0  0.00000000000E+00  0.00000000000E+00  0.21465207458E+04  0.21465207458E+04  0.25500000920E-02 0. -1.
       -2   -1    0    0    0  501  0.00000000000E+00  0.00000000000E+00 -0.13868210732E+04  0.13868210732E+04  0.25500000920E-02 0.  1.
    10030    2    1    2    0    0  0.00000000000E+00  0.00000000000E+00  0.75969967263E+03  0.35333418189E+04  0.34507043943E+04 0.  0.
        3    1    3    3  502    0  0.21863754482E+02 -0.12920456835E+04  0.15504602623E+04  0.20183624816E+04  0.10100000352E+00 0. -1.
       -3    1    3    3    0  502 -0.21863754482E+02  0.12920456835E+04 -0.79076058969E+03  0.15149793373E+04  0.10100000352E+00 0.  1.
</event>
<event>
 5   0  0.2933506E-07  0.3362202E+04  0.7818609E-02  0.8147246E-01
        1   -1    0    0  501    0  0.00000000000E+00  0.00000000000E+00  0.19725933968E+04  0.19725933968E+04  0.50400001928E-02 0.  1.
       -1   -1    0    0    0  501  0.00000000000E+00  0.00000000000E+00 -0.14326824546E+04  0.14326824546E+04  0.50400001928E-02 0. -1.
    10030    2    1    2    0    0  0.00000000000E+00  0.00000000000E+00  0.53991094224E+03  0.34052758515E+04  0.33622016297E+04 0.  0.
        4    1    3    3  502    0  0.84286849461E+03 -0.12892373655E+04 -0.41212467758E+03  0.15944932256E+04  0.12699999809E+01 0. -1.
       -4    1    3    3    0  502 -0.84286849461E+03  0.12892373655E+04  0.95203561982E+03  0.18107826258E+04  0.12699999809E+01 0.  1.
</event>
<event>
 5   0  0.2972541E-07  0.3399664E+04  0.7818609E-02  0.8137989E-01
       -1   -1    0    0    0  501  0.00000000000E+00  0.00000000000E+00  0.12343385674E+04  0.12343385674E+04  0.50400001928E-02 0.  1.
        1   -1    0    0  501    0  0.00000000000E+00  0.00000000000E+00 -0.23408722061E+04  0.23408722061E+04  0.50400001928E-02 0. -1.
    10030    2    1    2    0    0  0.00000000000E+00  0.00000000000E+00 -0.11065336386E+04  0.35752107735E+04  0.33996640101E+04 0.  0.
        3    1    3    3  502    0 -0.91863073190E+03 -0.96765804475E+03 -0.16608274599E+04  0.21303972341E+04  0.10100000352E+00 0. -1.
       -3    1    3    3    0  502  0.91863073190E+03  0.96765804475E+03  0.55429382125E+03  0.14448135394E+04  0.10100000352E+00 0.  1.
</event>
<event>
 5   0  0.8950809E-07  0.3532547E+04  0.7818609E-02  0.8106120E-01
        2   -1    0    0  501    0  0.00000000000E+00  0.00000000000E+00  0.21618447076E+04  0.21618447076E+04  0.25500000920E-02 0. -1.
       -2   -1    0    0    0  501  0.00000000000E+00  0.00000000000E+00 -0.14430836001E+04  0.14430836001E+04  0.25500000920E-02 0.  1.
    10030    2    1    2    0    0  0.00000000000E+00  0.00000000000E+00  0.71876110748E+03  0.36049283076E+04  0.35325473208E+04 0.  0.
        2    1    3    3  502    0 -0.49755148494E+03  0.95631629879E+03 -0.10684389748E+04  0.15177813368E+04  0.25500000920E-02 0.  1.
       -2    1    3    3    0  502  0.49755148494E+03 -0.95631629879E+03  0.17872000823E+04  0.20871469708E+04  0.25500000920E-02 0. -1.
</event>
<event>
 5   0  0.2933506E-07  0.3518527E+04  0.7818609E-02  0.8109413E-01
       -1   -1    0    0    0  501  0.00000000000E+00  0.00000000000E+00  0.18954254103E+04  0.18954254104E+04  0.50400001928E-02 0. -1.
        1   -1    0    0  501    0  0.00000000000E+00  0.00000000000E+00 -0.16328826785E+04  0.16328826785E+04  0.50400001928E-02 0.  1.
    10030    2    1    2    0    0  0.00000000000E+00  0.00000000000E+00  0.26254273189E+03  0.35283080888E+04  0.35185265785E+04 0.  0.
        4    1    3    3  502    0 -0.13192103623E+04  0.11313379480E+04 -0.14291915588E+03  0.17437514246E+04  0.12699999809E+01 0. -1.
       -4    1    3    3    0  502  0.13192103623E+04 -0.11313379480E+04  0.40546188777E+03  0.17845566643E+04  0.12699999809E+01 0.  1.
</event>
<event>
 5   0  0.9128871E-07  0.3503359E+04  0.7818609E-02  0.8112994E-01
        2   -1    0    0  501    0  0.00000000000E+00  0.00000000000E+00  0.15747159151E+04  0.15747159151E+04  0.25500000920E-02 0.  1.
       -2   -1    0    0    0  501  0.00000000000E+00  0.00000000000E+00 -0.19485299076E+04  0.19485299076E+04  0.25500000920E-02 0. -1.
    10030    2    1    2    0    0  0.00000000000E+00  0.00000000000E+00 -0.37381399250E+03  0.35232458228E+04  0.35033589920E+04 0.  0.
        1    1    3    3  502    0  0.13724082473E+04  0.91270942637E+03 -0.78343354290E+03  0.18249139735E+04  0.50400001928E-02 0. -1.
       -1    1    3    3    0  502 -0.13724082473E+04 -0.91270942637E+03  0.40961955039E+03  0.16983318493E+04  0.50400001928E-02 0.  1.
</event>
<event>
 5   0  0.8845195E-07  0.3494256E+04  0.7818609E-02  0.8115152E-01
        2   -1    0    0  501    0  0.00000000000E+00  0.00000000000E+00  0.25288927594E+04  0.25288927594E+04  0.25500000920E-02 0.  1.
       -2   -1    0    0    0  501  0.00000000000E+00  0.00000000000E+00 -0.12070328952E+04  0.12070328952E+04  0.25500000920E-02 0. -1.
    10030    2    1    2    0    0  0.00000000000E+00  0.00000000000E+00  0.13218598642E+04  0.37359256545E+04  0.34942562865E+04 0.  0.
        5    1    3    3  502    0 -0.52788137329E+03 -0.16634662683E+04  0.74815604174E+03  0.18988255114E+04  0.46999998093E+01 0.  1.
       -5    1    3    3    0  502  0.52788137329E+03  0.16634662683E+04  0.57370382247E+03  0.18371001431E+04  0.46999998093E+01 0. -1.
</event>
<event>
 5   0  0.2933506E-07  0.3524006E+04  0.7818609E-02  0.8108124E-01
        1   -1    0    0  501    0  0.00000000000E+00  0.00000000000E+00  0.20451382097E+04  0.20451382097E+04  0.50400001928E-02 0. -1.
       -1   -1    0    0    0  501  0.00000000000E+00  0.00000000000E+00 -0.15180654908E+04  0.15180654908E+04  0.50400001928E-02 0.  1.
    10030    2    1    2    0    0  0.00000000000E+00  0.00000000000E+00  0.52707271890E+03  0.35632037005E+04  0.35240055278E+04 0.  0.
        4    1    3    3  502    0 -0.38376602063E+03  0.69792546812E+03 -0.13256571860E+04  0.15465267231E+04  0.12699999809E+01 0.  1.
       -4    1    3    3    0  502  0.38376602063E+03 -0.69792546812E+03  0.18527299049E+04  0.20166769774E+04  0.12699999809E+01 0. -1.
</event>
<event>
 5   0  0.6188930E-07  0.3515661E+04  0.7818609E-02  0.8110089E-01
        2   -1    0    0  501    0  0.00000000000E+00  0.00000000000E+00  0.10519493705E+04  0.10519493705E+04  0.25500000920E-02 0.  1.
       -2   -1    0    0    0  501  0.00000000000E+00  0.00000000000E+00 -0.29373729588E+04  0.29373729588E+04  0.25500000920E-02 0. -1.
    10030    2    1    2    0    0  0.00000000000E+00  0.00000000000E+00 -0.18854235883E+04  0.39893223292E+04  0.35156607543E+04 0.  0.
        3    1    3    3  502    0 -0.17564529692E+04  0.68365123136E+02 -0.92805657376E+03  0.19877348509E+04  0.10100000352E+00 0. -1.
       -3    1    3    3    0  502  0.17564529692E+04 -0.68365123136E+02 -0.95736701450E+03  0.20015874784E+04  0.10100000352E+00 0.  1.
</event>
<event>
 5   0  0.3026332E-07  0.3452055E+04  0.7818609E-02  0.8125247E-01
       -1   -1    0    0    0  501  0.00000000000E+00  0.00000000000E+00  0.17165665658E+04  0.17165665658E+04  0.50400001928E-02 0.  1.
        1   -1    0    0  501    0  0.00000000000E+00  0.00000000000E+00 -0.17355405985E+04  0.17355405985E+04  0.50400001928E-02 0. -1.
    10030    2    1    2    0    0  0.00000000000E+00  0.00000000000E+00 -0.18974032738E+02  0.34521071643E+04  0.34520550199E+04 0.  0.
        1    1    3    3  502    0  0.13196564527E+03  0.13928575642E+04 -0.10202959528E+04  0.17316093546E+04  0.50400001928E-02 0. -1.
       -1    1    3    3    0  502 -0.13196564527E+03 -0.13928575642E+04  0.10013219200E+04  0.17204978097E+04  0.50400001928E-02 0.  1.
</event>
<event>
 5   0  0.8950809E-07  0.3488053E+04  0.7818609E-02  0.8116627E-01
       -2   -1    0    0    0  501  0.00000000000E+00  0.00000000000E+00  0.12442948660E+04  0.12442948660E+04  0.25500000920E-02 0. -1.
        2   -1    0    0  501    0  0.00000000000E+00  0.00000000000E+00 -0.24444592401E+04  0.24444592401E+04  0.25500000920E-02 0.  1.
    10030    2    1    2    0    0  0.00000000000E+00  0.00000000000E+00 -0.12001643741E+04  0.36887541061E+04  0.34880527993E+04 0.  0.
        2    1    3    3  502    0 -0.78790101821E+03 -0.68765768594E+03 -0.20760859019E+04  0.23246061558E+04  0.25500000920E-02 0.  1.
       -2    1    3    3    0  502  0.78790101821E+03  0.68765768594E+03  0.87592152782E+03  0.13641479503E+04  0.25500000920E-02 0. -1.
</event>
<event>
 5   0  0.6188930E-07  0.3422859E+04  0.7818609E-02  0.8132319E-01
       -2   -1    0    0    0  501  0.00000000000E+00  0.00000000000E+00  0.18914428016E+04  0.18914428016E+04  0.25500000920E-02 0. -1.
        2   -1    0    0  501    0  0.00000000000E+00  0.00000000000E+00 -0.15485488297E+04  0.15485488297E+04  0.25500000920E-02 0.  1.
    10030    2    1    2    0    0  0.00000000000E+00  0.00000000000E+00  0.34289397197E+03  0.34399916313E+04  0.34228593526E+04 0.  0.
        3    1    3    3  502    0  0.94354555420E+03  0.41980120643E+03  0.15430049660E+04  0.18567109632E+04  0.10100000352E+00 0. -1.
       -3    1    3    3    0  502 -0.94354555420E+03 -0.41980120643E+03 -0.12001109940E+04  0.15832806681E+04  0.10100000352E+00 0.  1.
</event>
<event>
 5   0  0.8950809E-07  0.3493655E+04  0.7818609E-02  0.8115295E-01
        2   -1    0    0  501    0  0.00000000000E+00  0.00000000000E+00  0.35746780603E+04  0.35746780603E+04  0.25500000920E-02 0. -1.
       -2   -1    0    0    0  501  0.00000000000E+00  0.00000000000E+00 -0.85361720885E+03  0.85361720885E+03  0.25500000920E-02 0.  1.
    10030    2    1    2    0    0  0.00000000000E+00  0.00000000000E+00  0.27210608514E+04  0.44282952691E+04  0.34936552253E+04 0.  0.
        2    1    3    3  502    0 -0.10341280906E+04 -0.13369128835E+04  0.80130946200E+03  0.18705223388E+04  0.25500000920E-02 0. -1.
       -2    1    3    3    0  502  0.10341280906E+04  0.13369128835E+04  0.19197513894E+04  0.25577729303E+04  0.25500000920E-02 0.  1.
</event>
<event>
 5   0  0.8950809E-07  0.2992401E+04  0.7818609E-02  0.8245904E-01
        2   -1    0    0  501    0  0.00000000000E+00  0.00000000000E+00  0.94259492679E+03  0.94259492679E+03  0.25500000920E-02 0. -1.
       -2   -1    0    0    0  501  0.00000000000E+00  0.00000000000E+00 -0.23749498865E+04  0.23749498865E+04  0.25500000920E-02 0.  1.
    10030    2    1    2    0    0  0.00000000000E+00  0.00000000000E+00 -0.14323549597E+04  0.33175448133E+04  0.29924008518E+04 0.  0.
        2    1    3    3  502    0  0.60736363149E+03  0.23607731370E+03  0.77701154144E+03  0.10140858023E+04  0.25500000920E-02 0. -1.
       -2    1    3    3    0  502 -0.60736363149E+03 -0.23607731370E+03 -0.22093665011E+04  0.23034590110E+04  0.25500000920E-02 0.  1.
</event>
<event>
 5   0  0.3061330E-07  0.3489345E+04  0.7818609E-02  0.8116320E-01
       -1   -1    0    0    0  501  0.00000000000E+00  0.00000000000E+00  0.22787861505E+04  0.22787861505E+04  0.50400001928E-02 0.  1.
        1   -1    0    0  501    0  0.00000000000E+00  0.00000000000E+00 -0.13357469050E+04  0.13357469050E+04  0.50400001928E-02 0. -1.
    10030    2    1    2    0    0  0.00000000000E+00  0.00000000000E+00  0.94303924548E+03  0.36145330555E+04  0.34893446649E+04 0.  0.
        5    1    3    3  502    0 -0.91337221135E+03  0.11520925119E+04 -0.50148492989E+03  0.15534076018E+04  0.46999998093E+01 0.  1.
       -5    1    3    3    0  502  0.91337221135E+03 -0.11520925119E+04  0.14445241754E+04  0.20611254537E+04  0.46999998093E+01 0. -1.
</event>
<event>
 5   0  0.2933506E-07  0.3466510E+04  0.7818609E-02  0.8121773E-01
        1   -1    0    0  501    0  0.00000000000E+00  0.00000000000E+00  0.20559038399E+04  0.20559038399E+04  0.50400001928E-02 0. -1.
       -1   -1    0    0    0  501  0.00000000000E+00  0.00000000000E+00 -0.14612422201E+04  0.14612422201E+04  0.50400001928E-02 0.  1.
    10030    2    1    2    0    0  0.00000000000E+00  0.00000000000E+00  0.59466161983E+03  0.35171460600E+04  0.34665103440E+04 0.  0.
        4    1    3    3  502    0 -0.98281763628E+03  0.14022547814E+04  0.25228956756E+02  0.17125673976E+04  0.12699999809E+01 0.  1.
       -4    1    3    3    0  502  0.98281763628E+03 -0.14022547814E+04  0.56943266307E+03  0.18045786624E+04  0.12699999809E+01 0. -1.
</event>
<event>
 5   0  0.8950809E-07  0.3504492E+04  0.7818609E-02  0.8112726E-01
       -2   -1    0    0    0  501  0.00000000000E+00  0.00000000000E+00  0.14086183367E+04  0.14086183367E+04  0.25500000920E-02 0. -1.
        2   -1    0    0  501    0  0.00000000000E+00  0.00000000000E+00 -0.21797008839E+04  0.21797008839E+04  0.25500000920E-02 0.  1.
    10030    2    1    2    0    0  0.00000000000E+00  0.00000000000E+00 -0.77108254713E+03  0.35883192206E+04  0.35044923362E+04 0.  0.
        2    1    3    3  502    0 -0.47580281215E+03  0.30528327648E+03 -0.20837611531E+04  0.21590846991E+04  0.25500000920E-02 0.  1.
       -2    1    3    3    0  502  0.47580281215E+03 -0.30528327648E+03  0.13126786059E+04  0.14292345215E+04  0.25500000920E-02 0. -1.
</event>
<event>
 5   0  0.8950809E-07  0.3566043E+04  0.7818609E-02  0.8098315E-01
       -2   -1    0    0    0  501  0.00000000000E+00  0.00000000000E+00  0.17570614381E+04  0.17570614381E+04  0.25500000920E-02 0.  1.
        2   -1    0    0  501    0  0.00000000000E+00  0.00000000000E+00 -0.18093646141E+04  0.18093646141E+04  0.25500000920E-02 0. -1.
    10030    2    1    2    0    0  0.00000000000E+00  0.00000000000E+00 -0.52303175986E+02  0.35664260522E+04  0.35660425073E+04 0.  0.
        2    1    3    3  502    0  0.17668550014E+03 -0.56500312626E+03  0.16559087585E+04  0.17585448858E+04  0.25500000920E-02 0.  1.
       -2    1    3    3    0  502 -0.17668550014E+03  0.56500312626E+03 -0.17082119345E+04  0.18078811664E+04  0.25500000920E-02 0. -1.
</event>
<event>
 5   0  0.3061330E-07  0.3718611E+04  0.7818609E-02  0.8063850E-01
        1   -1    0    0  501    0  0.00000000000E+00  0.00000000000E+00  0.20310891754E+04  0.20310891755E+04  0.50400001928E-02 0. -1.
       -1   -1    0    0    0  501  0.00000000000E+00  0.00000000000E+00 -0.17020510431E+04  0.17020510431E+04  0.50400001928E-02 0.  1.
    10030    2    1    2    0    0  0.00000000000E+00  0.00000000000E+00  0.32903813234E+03  0.37331402186E+04  0.37186112729E+04 0.  0.
        5    1    3    3  502    0 -0.15441056199E+04 -0.70664842324E+03 -0.59565884456E+03  0.17995682006E+04  0.46999998093E+01 0.  1.
       -5    1    3    3    0  502  0.15441056199E+04  0.70664842324E+03  0.92469697689E+03  0.19335720180E+04  0.46999998093E+01 0. -1.
</event>
<event>
 5   0  0.6188930E-07  0.3526559E+04  0.7818609E-02  0.8107525E-01
        2   -1    0    0  501    0  0.00000000000E+00  0.00000000000E+00  0.18443645858E+04  0.18443645858E+04  0.25500000920E-02 0. -1.
       -2   -1    0    0    0  501  0.00000000000E+00  0.00000000000E+00 -0.16857590619E+04  0.16857590619E+04  0.25500000920E-02 0.  1.
    10030    2    1    2    0    0  0.00000000000E+00  0.00000000000E+00  0.15860552391E+03  0.35301236476E+04  0.35265588405E+04 0.  0.
        3    1    3    3  502    0  0.75701746187E+03  0.10067895812E+04  0.13144274894E+04  0.18205549521E+04  0.10100000352E+00 0. -1.
       -3    1    3    3    0  502 -0.75701746187E+03 -0.10067895812E+04 -0.11558219655E+04  0.17095686955E+04  0.10100000352E+00 0.  1.
</event>
<event>
 5   0  0.8845195E-07  0.3434237E+04  0.7818609E-02  0.8129554E-01
       -2   -1    0    0    0  501  0.00000000000E+00  0.00000000000E+00  0.12267770068E+04  0.12267770068E+04  0.25500000920E-02 0.  1.
        2   -1    0    0  501    0  0.00000000000E+00  0.00000000000E+00 -0.24034493288E+04  0.24034493288E+04  0.25500000920E-02 0. -1.
    10030    2    1    2    0    0  0.00000000000E+00  0.00000000000E+00 -0.11766723220E+04  0.36302263355E+04  0.34342372507E+04 0.  0.
        5    1    3    3  502    0 -0.10579426338E+04  0.12531201423E+04 -0.11262188030E+04  0.19894581146E+04  0.46999998093E+01 0.  1.
       -5    1    3    3    0  502  0.10579426338E+04 -0.12531201423E+04 -0.50453518997E+02  0.16407682210E+04  0.46999998093E+01 0. -1.
</event>
<event>
 5   0  0.2933506E-07  0.3469496E+04  0.7818609E-02  0.8121057E-01
        1   -1    0    0  501    0  0.00000000000E+00  0.00000000000E+00  0.14966130681E+04  0.14966130681E+04  0.50400001928E-02 0. -1.
       -1   -1    0    0    0  501  0.00000000000E+00  0.00000000000E+00 -0.20107739337E+04  0.20107739337E+04  0.50400001928E-02 0.  1.
    10030    2    1    2    0    0  0.00000000000E+00  0.00000000000E+00 -0.51416086564E+03  0.35073870018E+04  0.34694959554E+04 0.  0.
        4    1    3    3  502    0 -0.22932145832E+03 -0.30768410052E+02  0.14809438772E+04  0.14989100729E+04  0.12699999809E+01 0. -1.
       -4    1    3    3    0  502  0.22932145832E+03  0.30768410052E+02 -0.19951047428E+04  0.20084769289E+04  0.12699999809E+01 0.  1.
</event>
<event>
 5   0  0.8950809E-07  0.3578184E+04  0.7818609E-02  0.8095507E-01
        2   -1    0    0  501    0  0.00000000000E+00  0.00000000000E+00  0.23915727257E+04  0.23915727257E+04  0.25500000920E-02 0.  1.
       -2   -1    0    0    0  501  0.00000000000E+00  0.00000000000E+00 -0.13383872101E+04  0.13383872101E+04  0.25500000920E-02 0. -1.
    10030    2    1    2    0    0  0.00000000000E+00  0.00000000000E+00  0.10531855156E+04  0.37299599357E+04  0.35781840914E+04 0.  0.
        2    1    3    3  502    0 -0.12736862258E+04  0.38786134817E+03 -0.71914454906E+03  0.15132355764E+04  0.25500000920E-02 0. -1.
       -2    1    3    3    0  502  0.12736862258E+04 -0.38786134817E+03  0.17723300647E+04  0.22167243593E+04  0.25500000920E-02 0.  1.
</event>
<event>
 5   0  0.6188930E-07  0.3423246E+04  0.7818609E-02  0.8132225E-01
       -2   -1    0    0    0  501  0.00000000000E+00  0.00000000000E+00  0.11720796015E+04  0.11720796015E+04  0.25500000920E-02 0. -1.
        2   -1    0    0  501    0  0.00000000000E+00  0.00000000000E+00 -0.24995337542E+04  0.24995337542E+04  0.25500000920E-02 0.  1.
    10030    2    1    2    0    0  0.00000000000E+00  0.00000000000E+00 -0.13274541528E+04  0.36716133557E+04  0.34232455516E+04 0.  0.
        3    1    3    3  502    0  0.13599986725E+04  0.34716748818E+03  0.38689945176E+03  0.14559577089E+04  0.10100000352E+00 0. -1.
       -3    1    3    3    0  502 -0.13599986725E+04 -0.34716748818E+03 -0.17143536045E+04  0.22156556469E+04  0.10100000352E+00 0.  1.
</event>
<event>
 5   0  0.8845195E-07  0.3535795E+04  0.7818609E-02  0.8105359E-01
        2   -1    0    0  501    0  0.00000000000E+00  0.00000000000E+00  0.21142575782E+04  0.21142575782E+04  0.25500000920E-02 0.  1.
       -2   -1    0    0    0  501  0.00000000000E+00  0.00000000000E+00 -0.14782782456E+04  0.14782782456E+04  0.25500000920E-02 0. -1.
    10030    2    1    2    0    0  0.00000000000E+00  0.00000000000E+00  0.63597933255E+03  0.35925358238E+04  0.35357946680E+04 0.  0.
        5    1    3    3  502    0 -0.64667172937E+03 -0.43996671742E+02  0.19891699416E+04  0.20921135675E+04  0.46999998093E+01 0.  1.
       -5    1    3    3    0  502  0.64667172937E+03  0.43996671742E+02 -0.13531906091E+04  0.15004222563E+04  0.46999998093E+01 0. -1.
</event>
<event>
 5   0  0.3061330E-07  0.3567969E+04  0.7818609E-02  0.8097868E-01
       -1   -1    0    0    0  501  0.00000000000E+00  0.00000000000E+00  0.18725636740E+04  0.18725636740E+04  0.50400001928E-02 0.  1.
        1   -1    0    0  501    0  0.00000000000E+00  0.00000000000E+00 -0.16995958777E+04  0.16995958777E+04  0.50400001928E-02 0. -1.
    10030    2    1    2    0    0  0.00000000000E+00  0.00000000000E+00  0.17296779629E+03  0.35721595517E+04  0.35679694511E+04 0.  0.
        5    1    3    3  502    0  0.93479569666E+03  0.79342101683E+03 -0.12108849228E+04  0.17232597862E+04  0.46999998093E+01 0. -1.
       -5    1    3    3    0  502 -0.93479569666E+03 -0.79342101683E+03  0.13838527191E+04  0.18488997654E+04  0.46999998093E+01 0.  1.
</event>
<event>
 5   0  0.9311672E-07  0.3452298E+04  0.7818609E-02  0.8125189E-01
       -2   -1    0    0    0  501  0.00000000000E+00  0.00000000000E+00  0.12900717294E+04  0.12900717294E+04  0.25500000920E-02 0.  1.
        2   -1    0    0  501    0  0.00000000000E+00  0.00000000000E+00 -0.23096312074E+04  0.23096312074E+04  0.25500000920E-02 0. -1.
    10030    2    1    2    0    0  0.00000000000E+00  0.00000000000E+00 -0.10195594780E+04  0.35997029369E+04  0.34522977427E+04 0.  0.
        4    1    3    3  502    0 -0.10140336763E+04  0.76053096847E+03 -0.17315245581E+04  0.21458915534E+04  0.12699999809E+01 0. -1.
       -4    1    3    3    0  502  0.10140336763E+04 -0.76053096847E+03  0.71196508001E+03  0.14538113835E+04  0.12699999809E+01 0.  1.
</event>
<event>
 5   0  0.3026332E-07  0.3513516E+04  0.7818609E-02  0.8110594E-01
       -1   -1    0    0    0  501  0.00000000000E+00  0.00000000000E+00  0.17826369308E+04  0.17826369308E+04  0.50400001928E-02 0.  1.
        1   -1    0    0  501    0  0.00000000000E+00  0.00000000000E+00 -0.17312549375E+04  0.17312549375E+04  0.50400001928E-02 0. -1.
    10030    2    1    2    0    0  0.00000000000E+00  0.00000000000E+00  0.51381993328E+02  0.35138918683E+04  0.35135161808E+04 0.  0.
        1    1    3    3  502    0  0.16086550348E+04  0.25389587003E+03  0.68452152416E+03  0.17665797041E+04  0.50400001928E-02 0.  1.
       -1    1    3    3    0  502 -0.16086550348E+04 -0.25389587003E+03 -0.63313953083E+03  0.17473121642E+04  0.50400001928E-02 0. -1.
</event>
<event>
 5   0  0.8845195E-07  0.3495463E+04  0.7818609E-02  0.8114866E-01
       -2   -1    0    0    0  501  0.00000000000E+00  0.00000000000E+00  0.15184894899E+04  0.15184894899E+04  0.25500000920E-02 0. -1.
        2   -1    0    0  501    0  0.00000000000E+00  0.00000000000E+00 -0.20115819474E+04  0.20115819474E+04  0.25500000920E-02 0.  1.
    10030    2    1    2    0    0  0.00000000000E+00  0.00000000000E+00 -0.49309245748E+03  0.35300714372E+04  0.34954633713E+04 0.  0.
        5    1    3    3  502    0 -0.10688431442E+04  0.16669841618E+03  0.11397537334E+04  0.15713925963E+04  0.46999998093E+01 0. -1.
       -5    1    3    3    0  502  0.10688431442E+04 -0.16669841618E+03 -0.16328461909E+04  0.19586788409E+04  0.46999998093E+01 0.  1.
</event>
<event>
 5   0  0.8950809E-07  0.3471175E+04  0.7818609E-02  0.8120655E-01
       -2   -1    0    0    0  501  0.00000000000E+00  0.00000000000E+00  0.16160602622E+04  0.16160602622E+04  0.25500000920E-02 0. -1.
        2   -1    0    0  501    0  0.00000000000E+00  0.00000000000E+00 -0.18639547814E+04  0.18639547814E+04  0.25500000920E-02 0.  1.
    10030    2    1    2    0    0  0.00000000000E+00  0.00000000000E+00 -0.24789451917E+03  0.34800150435E+04  0.34711745866E+04 0.  0.
        2    1    3    3  502    0  0.78050520534E+03  0.14709574244E+04  0.36654218421E+03  0.17050681197E+04  0.25500000920E-02 0.  1.
       -2    1    3    3    0  502 -0.78050520534E+03 -0.14709574244E+04 -0.61443670338E+03  0.17749469238E+04  0.25500000920E-02 0. -1.
</event>
<event>
 5   0  0.6188930E-07  0.3685878E+04  0.7818609E-02  0.8071099E-01
       -2   -1    0    0    0  501  0.00000000000E+00  0.00000000000E+00  0.28016154545E+04  0.28016154545E+04  0.25500000920E-02 0. -1.
        2   -1    0    0  501    0  0.00000000000E+00  0.00000000000E+00 -0.12123089814E+04  0.12123089814E+04  0.25500000920E-02 0.  1.
    10030    2    1    2    0    0  0.00000000000E+00  0.00000000000E+00  0.15893064731E+04  0.40139244358E+04  0.36858776853E+04 0.  0.
        3    1    3    3  502    0 -0.62374730141E+03  0.52828096259E+03 -0.10041054728E+04  0.12947468023E+04  0.10100000352E+00 0.  1.
       -3    1    3    3    0  502  0.62374730141E+03 -0.52828096259E+03  0.25934119459E+04  0.27191776335E+04  0.10100000352E+00 0. -1.
</event>
<event>
 5   0  0.2933506E-07  0.3478776E+04  0.7818609E-02  0.8118838E-01
        1   -1    0    0  501    0  0.00000000000E+00  0.00000000000E+00  0.22767153766E+04  0.22767153766E+04  0.50400001928E-02 0. -1.
       -1   -1    0    0    0  501  0.00000000000E+00  0.00000000000E+00 -0.13288750755E+04  0.13288750755E+04  0.50400001928E-02 0.  1.
    10030    2    1    2    0    0  0.00000000000E+00  0.00000000000E+00  0.94784030109E+03  0.36055904522E+04  0.34787758296E+04 0.  0.
        4    1    3    3  502    0  0.56348040101E+03  0.14634124956E+04 -0.30609821791E+03  0.15977434169E+04  0.12699999809E+01 0.  1.
       -4    1    3    3    0  502 -0.56348040101E+03 -0.14634124956E+04  0.12539385190E+04  0.20078470352E+04  0.12699999809E+01 0. -1.
</event>
<event>
 5   0  0.6188930E-07  0.3502858E+04  0.7818609E-02  0.8113113E-01
        2   -1    0    0  501    0  0.00000000000E+00  0.00000000000E+00  0.22784868506E+04  0.22784868506E+04  0.25500000920E-02 0. -1.
       -2   -1    0    0    0  501  0.00000000000E+00  0.00000000000E+00 -0.13462901381E+04  0.13462901381E+04  0.25500000920E-02 0.  1.
    10030    2    1    2    0    0  0.00000000000E+00  0.00000000000E+00  0.93219671248E+03  0.36247769887E+04  0.35028584766E+04 0.  0.
        3    1    3    3  502    0 -0.13638830451E+04 -0.88300053877E+03 -0.21060225499E+03  0.16383590059E+04  0.10100000352E+00 0.  1.
       -3    1    3    3    0  502  0.13638830451E+04  0.88300053877E+03  0.11427989675E+04  0.19864179828E+04  0.10100000352E+00 0. -1.
</event>
<event>
 5   0  0.2907000E-07  0.3197902E+04  0.7818609E-02  0.8189372E-01
        3   -1    0    0  501    0  0.00000000000E+00  0.00000000000E+00  0.22542972865E+04  0.22542972888E+04  0.10100000352E+00 0. -1.
       -3   -1    0    0    0  501  0.00000000000E+00  0.00000000000E+00 -0.11341202000E+04  0.11341202045E+04  0.10100000352E+00 0.  1.
    10030    2    1    2    0    0  0.00000000000E+00  0.00000000000E+00  0.11201770865E+04  0.33884174932E+04  0.31979018752E+04 0.  0.
        3    1    3    3  502    0  0.22110521158E+03  0.66656084532E+03  0.20821391580E+04  0.21973835256E+04  0.10100000352E+00 0. -1.
       -3    1    3    3    0  502 -0.22110521158E+03 -0.66656084532E+03 -0.96196207144E+03  0.11910339677E+04  0.10100000352E+00 0.  1.
</event>
<event>
 5   0  0.3026332E-07  0.3492337E+04  0.7818609E-02  0.8115608E-01
        1   -1    0    0  501    0  0.00000000000E+00  0.00000000000E+00  0.19118872296E+04  0.19118872296E+04  0.50400001928E-02 0.  1.
       -1   -1    0    0    0  501  0.00000000000E+00  0.00000000000E+00 -0.15948140442E+04  0.15948140442E+04  0.50400001928E-02 0. -1.
    10030    2    1    2    0    0  0.00000000000E+00  0.00000000000E+00  0.31707318540E+03  0.35067012739E+04  0.34923370999E+04 0.  0.
        1    1    3    3  502    0 -0.50896633959E+03 -0.40040839661E+03 -0.14697778515E+04  0.16061197189E+04  0.50400001928E-02 0. -1.
       -1    1    3    3    0  502  0.50896633959E+03  0.40040839661E+03  0.17868510369E+04  0.19005815549E+04  0.50400001928E-02 0.  1.
</event>
<event>
 5   0  0.8950809E-07  0.3528874E+04  0.7818609E-02  0.8106981E-01
       -2   -1    0    0    0  501  0.00000000000E+00  0.00000000000E+00  0.14109935432E+04  0.14109935432E+04  0.25500000920E-02 0. -1.
        2   -1    0    0  501    0  0.00000000000E+00  0.00000000000E+00 -0.22064155871E+04  0.22064155871E+04  0.25500000920E-02 0.  1.
    10030    2    1    2    0    0  0.00000000000E+00  0.00000000000E+00 -0.79542204398E+03  0.36174091303E+04  0.35288741247E+04 0.  0.
        2    1    3    3  502    0  0.15900053033E+04  0.71711923968E+03 -0.67058740856E+03  0.18687065957E+04  0.25500000920E-02 0. -1.
       -2    1    3    3    0  502 -0.15900053033E+04 -0.71711923968E+03 -0.12483463542E+03  0.17487025346E+04  0.25500000920E-02 0.  1.
</event>
<event>
 5   0  0.6188930E-07  0.3500310E+04  0.7818609E-02  0.8113716E-01
       -2   -1    0    0    0  501  0.00000000000E+00  0.00000000000E+00  0.18500156972E+04  0.18500156972E+04  0.25500000920E-02 0. -1.
        2   -1    0    0  501    0  0.00000000000E+00  0.00000000000E+00 -0.16556846241E+04  0.16556846241E+04  0.25500000920E-02 0.  1.
    10030    2    1    2    0    0  0.00000000000E+00  0.00000000000E+00  0.19433107307E+03  0.35057003213E+04  0.35003100115E+04 0.  0.
        3    1    3    3  502    0 -0.63442091870E+03  0.11286461594E+03 -0.15325508510E+04  0.16625102840E+04  0.10100000352E+00 0.  1.
       -3    1    3    3    0  502  0.63442091870E+03 -0.11286461594E+03  0.17268819240E+04  0.18431900372E+04  0.10100000352E+00 0. -1.
</event>
<event>
 5   0  0.9128871E-07  0.3491304E+04  0.7818609E-02  0.8115854E-01
        2   -1    0    0  501    0  0.00000000000E+00  0.00000000000E+00  0.15784075254E+04  0.15784075254E+04  0.25500000920E-02 0.  1.
       -2   -1    0    0    0  501  0.00000000000E+00  0.00000000000E+00 -0.19306171237E+04  0.19306171237E+04  0.25500000920E-02 0. -1.
    10030    2    1    2    0    0  0.00000000000E+00  0.00000000000E+00 -0.35220959836E+03  0.35090246491E+04  0.34913038233E+04 0.  0.
        1    1    3    3  502    0  0.72451841760E+03  0.90029455798E+03  0.11389104446E+04  0.16225209488E+04  0.50400001928E-02 0.  1.
       -1    1    3    3    0  502 -0.72451841760E+03 -0.90029455798E+03 -0.14911200430E+04  0.18865037003E+04  0.50400001928E-02 0. -1.
</event>
<event>
 5   0  0.2933506E-07  0.3465588E+04  0.7818609E-02  0.8121994E-01
       -1   -1    0    0    0  501  0.00000000000E+00  0.00000000000E+00  0.17215267695E+04  0.17215267695E+04  0.50400001928E-02 0.  1.
        1   -1    0    0  501    0  0.00000000000E+00  0.00000000000E+00 -0.17441354465E+04  0.17441354465E+04  0.50400001928E-02 0. -1.
    10030    2    1    2    0    0  0.00000000000E+00  0.00000000000E+00 -0.22608677031E+02  0.34656622160E+04  0.34655884700E+04 0.  0.
        4    1    3    3  502    0 -0.17232409200E+04 -0.17680400228E+03  0.30593141780E+02  0.17325577846E+04  0.12699999809E+01 0.  1.
       -4    1    3    3    0  502  0.17232409200E+04  0.17680400228E+03 -0.53201818811E+02  0.17331044314E+04  0.12699999809E+01 0. -1.
</event>
<event>
 5   0  0.6188930E-07  0.3529390E+04  0.7818609E-02  0.8106860E-01
       -2   -1    0    0    0  501  0.00000000000E+00  0.00000000000E+00  0.12320461571E+04  0.12320461571E+04  0.25500000920E-02 0.  1.
        2   -1    0    0  501    0  0.00000000000E+00  0.00000000000E+00 -0.25276237267E+04  0.25276237267E+04  0.25500000920E-02 0. -1.
    10030    2    1    2    0    0  0.00000000000E+00  0.00000000000E+00 -0.12955775696E+04  0.37596698837E+04  0.35293903717E+04 0.  0.
        3    1    3    3  502    0 -0.12520488036E+03 -0.26262571208E+03 -0.25018989531E+04  0.25187590017E+04  0.10100000352E+00 0. -1.
       -3    1    3    3    0  502  0.12520488036E+03  0.26262571208E+03  0.12063213835E+04  0.12409108821E+04  0.10100000352E+00 0.  1.
</event>
<event>
 5   0  0.2933506E-07  0.3462072E+04  0.7818609E-02  0.8122838E-01
        1   -1    0    0  501    0  0.00000000000E+00  0.00000000000E+00  0.23070180205E+04  0.23070180206E+04  0.50400001928E-02 0.  1.
       -1   -1    0    0    0  501  0.00000000000E+00  0.00000000000E+00 -0.12988567081E+04  0.12988567081E+04  0.50400001928E-02 0. -1.
    10030    2    1    2    0    0  0.00000000000E+00  0.00000000000E+00  0.10081613124E+04  0.36058747287E+04  0.34620721147E+04 0.  0.
        4    1    3    3  502    0 -0.13790547108E+04  0.94458844111E+03  0.97270846097E+03  0.19339603361E+04  0.12699999809E+01 0.  1.
       -4    1    3    3    0  502  0.13790547108E+04 -0.94458844111E+03  0.35452851462E+02  0.16719143926E+04  0.12699999809E+01 0. -1.
</event>
<event>
 5   0  0.6188930E-07  0.3494459E+04  0.7818609E-02  0.8115104E-01
        2   -1    0    0  501    0  0.00000000000E+00  0.00000000000E+00  0.17870704759E+04  0.17870704759E+04  0.25500000920E-02 0.  1.
       -2   -1    0    0    0  501  0.00000000000E+00  0.00000000000E+00 -0.17082765124E+04  0.17082765124E+04  0.25500000920E-02 0. -1.
    10030    2    1    2    0    0  0.00000000000E+00  0.00000000000E+00  0.78793963506E+02  0.34953469882E+04  0.34944587677E+04 0.  0.
        3    1    3    3  502    0 -0.15391604724E+04 -0.62542581791E+03 -0.50170086557E+03  0.17354757798E+04  0.10100000352E+00 0. -1.
       -3    1    3    3    0  502  0.15391604724E+04  0.62542581791E+03  0.58049482908E+03  0.17598712084E+04  0.10100000352E+00 0.  1.
</event>
<event>
 5   0  0.2936607E-07  0.3481323E+04  0.7818609E-02  0.8118231E-01
        1   -1    0    0  501    0  0.00000000000E+00  0.00000000000E+00  0.16710639135E+04  0.16710639135E+04  0.50400001928E-02 0. -1.
       -1   -1    0    0    0  501  0.00000000000E+00  0.00000000000E+00 -0.18131574003E+04  0.18131574003E+04  0.50400001928E-02 0.  1.
    10030    2    1    2    0    0  0.00000000000E+00  0.00000000000E+00 -0.14209348680E+03  0.34842213138E+04  0.34813226803E+04 0.  0.
        2    1    3    3  502    0 -0.94477009222E+03 -0.14057622572E+04  0.33071476100E+03  0.17257260223E+04  0.25500000920E-02 0.  1.
       -2    1    3    3    0  502  0.94477009222E+03  0.14057622572E+04 -0.47280824780E+03  0.17584952915E+04  0.25500000920E-02 0. -1.
</event>
<event>
 5   0  0.2972541E-07  0.3513381E+04  0.7818609E-02  0.8110626E-01
       -1   -1    0    0    0  501  0.00000000000E+00  0.00000000000E+00  0.13161991864E+04  0.13161991864E+04  0.50400001928E-02 0. -1.
        1   -1    0    0  501    0  0.00000000000E+00  0.00000000000E+00 -0.23446001600E+04  0.23446001600E+04  0.50400001928E-02 0.  1.
    10030    2    1    2    0    0  0.00000000000E+00  0.00000000000E+00 -0.10284009736E+04  0.36607993464E+04  0.35133806074E+04 0.  0.
        3    1    3    3  502    0  0.91533763578E+03  0.83237499947E+03  0.78523157727E+03  0.14653599446E+04  0.10100000352E+00 0. -1.
       -3    1    3    3    0  502 -0.91533763578E+03 -0.83237499947E+03 -0.18136325508E+04  0.21954394018E+04  0.10100000352E+00 0.  1.
</event>
<event>
 5   0  0.9128871E-07  0.3509115E+04  0.7818609E-02  0.8111633E-01
        2   -1    0    0  501    0  0.00000000000E+00  0.00000000000E+00  0.17008869316E+04  0.17008869316E+04  0.25500000920E-02 0. -1.
       -2   -1    0    0    0  501  0.00000000000E+00  0.00000000000E+00 -0.18099218097E+04  0.18099218097E+04  0.25500000920E-02 0.  1.
    10030    2    1    2    0    0  0.00000000000E+00  0.00000000000E+00 -0.10903487814E+03  0.35108087414E+04  0.35091151896E+04 0.  0.
        1    1    3    3  502    0  0.14928217532E+04 -0.73502625339E+03  0.50225088761E+03  0.17381128658E+04  0.50400001928E-02 0. -1.
       -1    1    3    3    0  502 -0.14928217532E+04  0.73502625339E+03 -0.61128576575E+03  0.17726958756E+04  0.50400001928E-02 0.  1.
</event>
<event>
 5   0  0.9311672E-07  0.3453047E+04  0.7818609E-02  0.8125008E-01
       -2   -1    0    0    0  501  0.00000000000E+00  0.00000000000E+00  0.11888983645E+04  0.11888983645E+04  0.25500000920E-02 0. -1.
        2   -1    0    0  501    0  0.00000000000E+00  0.00000000000E+00 -0.25072646670E+04  0.25072646670E+04  0.25500000920E-02 0.  1.
    10030    2    1    2    0    0  0.00000000000E+00  0.00000000000E+00 -0.13183663025E+04  0.36961630315E+04  0.34530466907E+04 0.  0.
        4    1    3    3  502    0 -0.32946749230E+03  0.21443331432E+03 -0.24587239548E+04  0.24899509179E+04  0.12699999809E+01 0.  1.
       -4    1    3    3    0  502  0.32946749230E+03 -0.21443331432E+03  0.11403576523E+04  0.12062121136E+04  0.12699999809E+01 0. -1.
</event>
<event>
 5   0  0.6188930E-07  0.3419213E+04  0.7818609E-02  0.8133207E-01
        2   -1    0    0  501    0  0.00000000000E+00  0.00000000000E+00  0.20096695300E+04  0.20096695301E+04  0.25500000920E-02 0. -1.
       -2   -1    0    0    0  501  0.00000000000E+00  0.00000000000E+00 -0.14543459048E+04  0.14543459048E+04  0.25500000920E-02 0.  1.
    10030    2    1    2    0    0  0.00000000000E+00  0.00000000000E+00  0.55532362529E+03  0.34640154348E+04  0.34192131557E+04 0.  0.
        3    1    3    3  502    0  0.12677731112E+04  0.95366810385E+03 -0.36788691354E+03  0.16285184387E+04  0.10100000352E+00 0.  1.
       -3    1    3    3    0  502 -0.12677731112E+04 -0.95366810385E+03  0.92321053883E+03  0.18354969962E+04  0.10100000352E+00 0. -1.
</event>
<event>
 5   0  0.2936607E-07  0.3481670E+04  0.7818609E-02  0.8118148E-01
        1   -1    0    0  501    0  0.00000000000E+00  0.00000000000E+00  0.18127117804E+04  0.18127117804E+04  0.50400001928E-02 0. -1.
       -1   -1    0    0    0  501  0.00000000000E+00  0.00000000000E+00 -0.16718087128E+04  0.16718087128E+04  0.50400001928E-02 0.  1.
    10030    2    1    2    0    0  0.00000000000E+00  0.00000000000E+00  0.14090306766E+03  0.34845204932E+04  0.34816704888E+04 0.  0.
        2    1    3    3  502    0  0.93646693077E+03  0.45977872547E+03 -0.13242962683E+04  0.16858610249E+04  0.25500000920E-02 0.  1.
       -2    1    3    3    0  502 -0.93646693077E+03 -0.45977872547E+03  0.14651993360E+04  0.17986594683E+04  0.25500000920E-02 0. -1.
</event>
<event>
 5   0  0.2936607E-07  0.3584431E+04  0.7818609E-02  0.8094067E-01
       -1   -1    0    0    0  501  0.00000000000E+00  0.00000000000E+00  0.11326987947E+04  0.11326987948E+04  0.50400001928E-02 0.  1.
        1   -1    0    0  501    0  0.00000000000E+00  0.00000000000E+00 -0.28357367760E+04  0.28357367760E+04  0.50400001928E-02 0. -1.
    10030    2    1    2    0    0  0.00000000000E+00  0.00000000000E+00 -0.17030379813E+04  0.39684355708E+04  0.35844305704E+04 0.  0.
        2    1    3    3  502    0 -0.88644936297E+03 -0.14589745907E+04 -0.14555261815E+04  0.22434250142E+04  0.25500000920E-02 0.  1.
       -2    1    3    3    0  502  0.88644936297E+03  0.14589745907E+04 -0.24751179980E+03  0.17250105566E+04  0.25500000920E-02 0. -1.
</event>
<event>
 5   0  0.8845195E-07  0.3279740E+04  0.7818609E-02  0.8168070E-01
        2   -1    0    0  501    0  0.00000000000E+00  0.00000000000E+00  0.26393461011E+04  0.26393461011E+04  0.25500000920E-02 0. -1.
       -2   -1    0    0    0  501  0.00000000000E+00  0.00000000000E+00 -0.10188787599E+04  0.10188787599E+04  0.25500000920E-02 0.  1.
    10030    2    1    2    0    0  0.00000000000E+00  0.00000000000E+00  0.16204673412E+04  0.36582248610E+04  0.32797400399E+04 0.  0.
        5    1    3    3  502    0  0.19700740784E+03  0.15979123543E+03 -0.99685563614E+03  0.10286342435E+04  0.46999998093E+01 0.  1.
       -5    1    3    3    0  502 -0.19700740784E+03 -0.15979123543E+03  0.26173229773E+04  0.26295906174E+04  0.46999998093E+01 0. -1.
</event>
<event>
 5   0  0.2933506E-07  0.3312743E+04  0.7818609E-02  0.8159661E-01
       -1   -1    0    0    0  501  0.00000000000E+00  0.00000000000E+00  0.31030965404E+04  0.31030965404E+04  0.50400001928E-02 0. -1.
        1   -1    0    0  501    0  0.00000000000E+00  0.00000000000E+00 -0.88413812008E+03  0.88413812010E+03  0.50400001928E-02 0.  1.
    10030    2    1    2    0    0  0.00000000000E+00  0.00000000000E+00  0.22189584203E+04  0.39872346605E+04  0.33127426352E+04 0.  0.
        4    1    3    3  502    0 -0.15848532698E+04 -0.23248205156E+03  0.60202496482E+03  0.17112111098E+04  0.12699999809E+01 0. -1.
       -4    1    3    3    0  502  0.15848532698E+04  0.23248205156E+03  0.16169334555E+04  0.22760235507E+04  0.12699999809E+01 0.  1.
</event>
<event>
 5   0  0.6188930E-07  0.3265300E+04  0.7818609E-02  0.8171781E-01
        2   -1    0    0  501    0  0.00000000000E+00  0.00000000000E+00  0.22164191180E+04  0.22164191180E+04  0.25500000920E-02 0.  1.
       -2   -1    0    0    0  501  0.00000000000E+00  0.00000000000E+00 -0.12026359331E+04  0.12026359331E+04  0.25500000920E-02 0. -1.
    10030    2    1    2    0    0  0.00000000000E+00  0.00000000000E+00  0.10137831849E+04  0.34190550510E+04  0.32652995416E+04 0.  0.
        3    1    3    3  502    0  0.15102447078E+04  0.56809791785E+03  0.24622995727E+03  0.16322388072E+04  0.10100000352E+00 0. -1.
       -3    1    3    3    0  502 -0.15102447078E+04 -0.56809791785E+03  0.76755322765E+03  0.17868162438E+04  0.10100000352E+00 0.  1.
</event>
<event>
 5   0  0.8845195E-07  0.3393097E+04  0.7818609E-02  0.8139603E-01
        2   -1    0    0  501    0  0.00000000000E+00  0.00000000000E+00  0.16772513052E+04  0.16772513052E+04  0.25500000920E-02 0. -1.
       -2   -1    0    0    0  501  0.00000000000E+00  0.00000000000E+00 -0.17160672470E+04  0.17160672470E+04  0.25500000920E-02 0.  1.
    10030    2    1    2    0    0  0.00000000000E+00  0.00000000000E+00 -0.38815941852E+02  0.33933185522E+04  0.33930965384E+04 0.  0.
        5    1    3    3  502    0  0.13621609128E+04 -0.25447993663E+03  0.95943671579E+03  0.16854623378E+04  0.46999998093E+01 0. -1.
       -5    1    3    3    0  502 -0.13621609128E+04  0.25447993663E+03 -0.99825265764E+03  0.17078562144E+04  0.46999998093E+01 0.  1.
</event>
<event>
 5   0  0.2933506E-07  0.3504164E+04  0.7818609E-02  0.8112804E-01
       -1   -1    0    0    0  501  0.00000000000E+00  0.00000000000E+00  0.99495407124E+03  0.99495407126E+03  0.50400001928E-02 0. -1.
        1   -1    0    0  501    0  0.00000000000E+00  0.00000000000E+00 -0.30853589898E+04  0.30853589898E+04  0.50400001928E-02 0.  1.
    10030    2    1    2    0    0  0.00000000000E+00  0.00000000000E+00 -0.20904049185E+04  0.40803130610E+04  0.35041635168E+04 0.  0.
        4    1    3    3  502    0  0.73394805845E+03  0.10405783392E+04 -0.24465287278E+04  0.27580767686E+04  0.12699999809E+01 0.  1.
       -4    1    3    3    0  502 -0.73394805845E+03 -0.10405783392E+04  0.35612380929E+03  0.13222362924E+04  0.12699999809E+01 0. -1.
</event>
<event>
 5   0  0.3061330E-07  0.3480487E+04  0.7818609E-02  0.8118430E-01
        1   -1    0    0  501    0  0.00000000000E+00  0.00000000000E+00  0.13205608164E+04  0.13205608164E+04  0.50400001928E-02 0.  1.
       -1   -1    0    0    0  501  0.00000000000E+00  0.00000000000E+00 -0.22933044035E+04  0.22933044035E+04  0.50400001928E-02 0. -1.
    10030    2    1    2    0    0  0.00000000000E+00  0.00000000000E+00 -0.97274358711E+03  0.36138652200E+04  0.34804872851E+04 0.  0.
        5    1    3    3  502    0  0.10649807709E+04 -0.68564798792E+03 -0.17254722302E+04  0.21404610982E+04  0.46999998093E+01 0. -1.
       -5    1    3    3    0  502 -0.10649807709E+04  0.68564798792E+03  0.75272864313E+03  0.14734041217E+04  0.46999998093E+01 0.  1.
</event>
<event>
 5   0  0.9311672E-07  0.3722914E+04  0.7818609E-02  0.8062903E-01
       -2   -1    0    0    0  501  0.00000000000E+00  0.00000000000E+00  0.17025091256E+04  0.17025091256E+04  0.25500000920E-02 0. -1.
        2   -1    0    0  501    0  0.00000000000E+00  0.00000000000E+00 -0.20352445999E+04  0.20352445999E+04  0.25500000920E-02 0.  1.
    10030    2    1    2    0    0  0.00000000000E+00  0.00000000000E+00 -0.33273547428E+03  0.37377537256E+04  0.37229141834E+04 0.  0.
        4    1    3    3  502    0  0.11505341376E+03 -0.42248471335E+03 -0.19828029708E+04  0.20305762372E+04  0.12699999809E+01 0.  1.
       -4    1    3    3    0  502 -0.11505341376E+03  0.42248471335E+03  0.16500674965E+04  0.17071774884E+04  0.12699999809E+01 0. -1.
</event>
<event>
 5   0  0.2972541E-07  0.3502424E+04  0.7818609E-02  0.8113216E-01
       -1   -1    0    0    0  501  0.00000000000E+00  0.00000000000E+00  0.25852901384E+04  0.25852901384E+04  0.50400001928E-02 0. -1.
        1   -1    0    0  501    0  0.00000000000E+00  0.00000000000E+00 -0.11862279423E+04  0.11862279423E+04  0.50400001928E-02 0.  1.
    10030    2    1    2    0    0  0.00000000000E+00  0.00000000000E+00  0.13990621961E+04  0.37715180806E+04  0.35024239612E+04 0.  0.
        3    1    3    3  502    0  0.86466053166E+03 -0.28585437633E+03  0.23102457149E+04  0.24832611286E+04  0.10100000352E+00 0. -1.
       -3    1    3    3    0  502 -0.86466053166E+03  0.28585437633E+03 -0.91118351877E+03  0.12882569521E+04  0.10100000352E+00 0.  1.
</event>
<event>
 5   0  0.8950809E-07  0.3503911E+04  0.7818609E-02  0.8112864E-01
       -2   -1    0    0    0  501  0.00000000000E+00  0.00000000000E+00  0.17455809914E+04  0.17455809914E+04  0.25500000920E-02 0. -1.
        2   -1    0    0  501    0  0.00000000000E+00  0.00000000000E+00 -0.17583532958E+04  0.17583532958E+04  0.25500000920E-02 0.  1.
    10030    2    1    2    0    0  0.00000000000E+00  0.00000000000E+00 -0.12772304421E+02  0.35039342872E+04  0.35039110088E+04 0.  0.
        2    1    3    3  502    0 -0.16257139391E+04  0.58149400111E+03 -0.30348576008E+03  0.17530501110E+04  0.25500000920E-02 0.  1.
       -2    1    3    3    0  502  0.16257139391E+04 -0.58149400111E+03  0.29071345566E+03  0.17508841762E+04  0.25500000920E-02 0. -1.
</event>
<event>
 5   0  0.2936607E-07  0.3488199E+04  0.7818609E-02  0.8116592E-01
       -1   -1    0    0    0  501  0.00000000000E+00  0.00000000000E+00  0.22663214539E+04  0.22663214539E+04  0.50400001928E-02 0. -1.
        1   -1    0    0  501    0  0.00000000000E+00  0.00000000000E+00 -0.13422117691E+04  0.13422117691E+04  0.50400001928E-02 0.  1.
    10030    2    1    2    0    0  0.00000000000E+00  0.00000000000E+00  0.92410968480E+03  0.36085332230E+04  0.34881991502E+04 0.  0.
        2    1    3    3  502    0 -0.10303964859E+04  0.13462309138E+04  0.38253235989E+02  0.16957352097E+04  0.25500000920E-02 0.  1.
       -2    1    3    3    0  502  0.10303964859E+04 -0.13462309138E+04  0.88585644882E+03  0.19127980132E+04  0.25500000920E-02 0. -1.
</event>
<event>
 5   0  0.2933506E-07  0.3417914E+04  0.7818609E-02  0.8133524E-01
        1   -1    0    0  501    0  0.00000000000E+00  0.00000000000E+00  0.21715913504E+04  0.21715913504E+04  0.50400001928E-02 0.  1.
       -1   -1    0    0    0  501  0.00000000000E+00  0.00000000000E+00 -0.13448819280E+04  0.13448819280E+04  0.50400001928E-02 0. -1.
    10030    2    1    2    0    0  0.00000000000E+00  0.00000000000E+00  0.82670942234E+03  0.35164732784E+04  0.34179139616E+04 0.  0.
        4    1    3    3  502    0  0.86309236961E+03  0.14450364948E+04  0.10906708162E+03  0.16866997810E+04  0.12699999809E+01 0. -1.
       -4    1    3    3    0  502 -0.86309236961E+03 -0.14450364948E+04  0.71764234072E+03  0.18297734975E+04  0.12699999809E+01 0.  1.
</event>
<event>
 5   0  0.8950809E-07  0.3494439E+04  0.7818609E-02  0.8115109E-01
        2   -1    0    0  501    0  0.00000000000E+00  0.00000000000E+00  0.14434550557E+04  0.14434550557E+04  0.25500000920E-02 0.  1.
       -2   -1    0    0    0  501  0.00000000000E+00  0.00000000000E+00 -0.21149085337E+04  0.21149085337E+04  0.25500000920E-02 0. -1.
    10030    2    1    2    0    0  0.00000000000E+00  0.00000000000E+00 -0.67145347804E+03  0.35583635894E+04  0.34944386761E+04 0.  0.
        2    1    3    3  502    0  0.44141269873E+03 -0.15581433292E+04  0.33210571484E+03  0.16531636370E+04  0.25500000920E-02 0.  1.
       -2    1    3    3    0  502 -0.44141269873E+03  0.15581433292E+04 -0.10035591929E+04  0.19051999524E+04  0.25500000920E-02 0. -1.
</event>
<event>
 5   0  0.9128871E-07  0.3395636E+04  0.7818609E-02  0.8138978E-01
       -2   -1    0    0    0  501  0.00000000000E+00  0.00000000000E+00  0.15568717603E+04  0.15568717603E+04  0.25500000920E-02 0. -1.
        2   -1    0    0  501    0  0.00000000000E+00  0.00000000000E+00 -0.18515248082E+04  0.18515248082E+04  0.25500000920E-02 0.  1.
    10030    2    1    2    0    0  0.00000000000E+00  0.00000000000E+00 -0.29465304788E+03  0.34083965686E+04  0.33956364278E+04 0.  0.
        1    1    3    3  502    0  0.50739317006E+03  0.14976351409E+04 -0.76789555022E+03  0.17578459603E+04  0.50400001928E-02 0.  1.
       -1    1    3    3    0  502 -0.50739317006E+03 -0.14976351409E+04  0.47324250234E+03  0.16505506082E+04  0.50400001928E-02 0. -1.
</event>
<event>
 5   0  0.8845195E-07  0.2809878E+04  0.7818609E-02  0.8300208E-01
        2   -1    0    0  501    0  0.00000000000E+00  0.00000000000E+00  0.10946475772E+04  0.10946475772E+04  0.25500000920E-02 0. -1.
       -2   -1    0    0    0  501  0.00000000000E+00  0.00000000000E+00 -0.18031864475E+04  0.18031864475E+04  0.25500000920E-02 0.  1.
    10030    2    1    2    0    0  0.00000000000E+00  0.00000000000E+00 -0.70853887028E+03  0.28978340247E+04  0.28098780586E+04 0.  0.
        5    1    3    3  502    0 -0.26471668340E+03  0.12847134055E+04  0.16474125790E+03  0.13220155932E+04  0.46999998093E+01 0.  1.
       -5    1    3    3    0  502  0.26471668340E+03 -0.12847134055E+04 -0.87328012817E+03  0.15758184315E+04  0.46999998093E+01 0. -1.
</event>
<event>
 5   0  0.3026332E-07  0.3486007E+04  0.7818609E-02  0.8117114E-01
       -1   -1    0    0    0  501  0.00000000000E+00  0.00000000000E+00  0.13732466146E+04  0.13732466146E+04  0.50400001928E-02 0.  1.
        1   -1    0    0  501    0  0.00000000000E+00  0.00000000000E+00 -0.22123207415E+04  0.22123207415E+04  0.50400001928E-02 0. -1.
    10030    2    1    2    0    0  0.00000000000E+00  0.00000000000E+00 -0.83907412693E+03  0.35855673561E+04  0.34860074404E+04 0.  0.
        1    1    3    3  502    0 -0.46215703233E+03 -0.70019215183E+03  0.11519071248E+04  0.14250432261E+04  0.50400001928E-02 0.  1.
       -1    1    3    3    0  502  0.46215703233E+03  0.70019215183E+03 -0.19909812517E+04  0.21605241301E+04  0.50400001928E-02 0. -1.
</event>
<event>
 5   0  0.2933506E-07  0.3452808E+04  0.7818609E-02  0.8125066E-01
        1   -1    0    0  501    0  0.00000000000E+00  0.00000000000E+00  0.14529679179E+04  0.14529679180E+04  0.50400001928E-02 0. -1.
       -1   -1    0    0    0  501  0.00000000000E+00  0.00000000000E+00 -0.20512978653E+04  0.20512978653E+04  0.50400001928E-02 0.  1.
    10030    2    1    2    0    0  0.00000000000E+00  0.00000000000E+00 -0.59832994736E+03  0.35042657833E+04  0.34528075466E+04 0.  0.
        4    1    3    3  502    0  0.50544704029E+03 -0.77947478737E+03 -0.17759837988E+04  0.20042898297E+04  0.12699999809E+01 0.  1.
       -4    1    3    3    0  502 -0.50544704029E+03  0.77947478737E+03  0.11776538515E+04  0.14999759536E+04  0.12699999809E+01 0. -1.
</event>
<event>
 5   0  0.9311672E-07  0.3496011E+04  0.7818609E-02  0.8114736E-01
       -2   -1    0    0    0  501  0.00000000000E+00  0.00000000000E+00  0.18416877087E+04  0.18416877087E+04  0.25500000920E-02 0.  1.
        2   -1    0    0  501    0  0.00000000000E+00  0.00000000000E+00 -0.16590889248E+04  0.16590889248E+04  0.25500000920E-02 0. -1.
    10030    2    1    2    0    0  0.00000000000E+00  0.00000000000E+00  0.18259878387E+03  0.35007766335E+04  0.34960112588E+04 0.  0.
        4    1    3    3  502    0 -0.40796571861E+03 -0.74472024509E+02 -0.16091141927E+04  0.16616955822E+04  0.12699999809E+01 0. -1.
       -4    1    3    3    0  502  0.40796571861E+03  0.74472024509E+02  0.17917129765E+04  0.18390810513E+04  0.12699999809E+01 0.  1.
</event>
<event>
 5   0  0.2972541E-07  0.3496539E+04  0.7818609E-02  0.8114611E-01
       -1   -1    0    0    0  501  0.00000000000E+00  0.00000000000E+00  0.13849670749E+04  0.13849670749E+04  0.50400001928E-02 0. -1.
        1   -1    0    0  501    0  0.00000000000E+00  0.00000000000E+00 -0.22068733909E+04  0.22068733909E+04  0.50400001928E-02 0.  1.
    10030    2    1    2    0    0  0.00000000000E+00  0.00000000000E+00 -0.82190631597E+03  0.35918404658E+04  0.34965394235E+04 0.  0.
        3    1    3    3  502    0 -0.11592519749E+04 -0.12253618203E+04 -0.88289894615E+03  0.19039136774E+04  0.10100000352E+00 0.  1.
       -3    1    3    3    0  502  0.11592519749E+04  0.12253618203E+04  0.60992630176E+02  0.16879267884E+04  0.10100000352E+00 0. -1.
</event>
<event>
 5   0  0.3026332E-07  0.3494867E+04  0.7818609E-02  0.8115008E-01
       -1   -1    0    0    0  501  0.00000000000E+00  0.00000000000E+00  0.25349058277E+04  0.25349058277E+04  0.50400001928E-02 0. -1.
        1   -1    0    0  501    0  0.00000000000E+00  0.00000000000E+00 -0.12045904772E+04  0.12045904772E+04  0.50400001928E-02 0.  1.
    10030    2    1    2    0    0  0.00000000000E+00  0.00000000000E+00  0.13303153506E+04  0.37394963049E+04  0.34948667618E+04 0.  0.
        1    1    3    3  502    0  0.80645721002E+03  0.11568742615E+04 -0.43895882905E+03  0.14769617944E+04  0.50400001928E-02 0.  1.
       -1    1    3    3    0  502 -0.80645721002E+03 -0.11568742615E+04  0.17692741796E+04  0.22625345105E+04  0.50400001928E-02 0. -1.
</event>
<event>
 5   0  0.3026332E-07  0.3518953E+04  0.7818609E-02  0.8109313E-01
        1   -1    0    0  501    0  0.00000000000E+00  0.00000000000E+00  0.24191053252E+04  0.24191053252E+04  0.50400001928E-02 0. -1.
       -1   -1    0    0    0  501  0.00000000000E+00  0.00000000000E+00 -0.12797117947E+04  0.12797117947E+04  0.50400001928E-02 0.  1.
    10030    2    1    2    0    0  0.00000000000E+00  0.00000000000E+00  0.11393935305E+04  0.36988171199E+04  0.35189530360E+04 0.  0.
        1    1    3    3  502    0  0.47880103794E+03  0.85704367513E+03 -0.96506612571E+03  0.13766360892E+04  0.50400001928E-02 0.  1.
       -1    1    3    3    0  502 -0.47880103794E+03 -0.85704367513E+03  0.21044596562E+04  0.23221810307E+04  0.50400001928E-02 0. -1.
</event>
<event>
 5   0  0.9311672E-07  0.3533537E+04  0.7818609E-02  0.8105888E-01
        2   -1    0    0  501    0  0.00000000000E+00  0.00000000000E+00  0.18938945966E+04  0.18938945966E+04  0.25500000920E-02 0. -1.
       -2   -1    0    0    0  501  0.00000000000E+00  0.00000000000E+00 -0.16481753465E+04  0.16481753465E+04  0.25500000920E-02 0.  1.
    10030    2    1    2    0    0  0.00000000000E+00  0.00000000000E+00  0.24571925016E+03  0.35420699431E+04  0.35335366889E+04 0.  0.
        4    1    3    3  502    0 -0.40196344963E+03 -0.11278916090E+04 -0.11794138275E+04  0.16806941083E+04  0.12699999809E+01 0.  1.
       -4    1    3    3    0  502  0.40196344963E+03  0.11278916090E+04  0.14251330776E+04  0.18613758348E+04  0.12699999809E+01 0. -1.
</event>
<event>
 5   0  0.6188930E-07  0.3479411E+04  0.7818609E-02  0.8118687E-01
       -2   -1    0    0    0  501  0.00000000000E+00  0.00000000000E+00  0.13897528314E+04  0.13897528314E+04  0.25500000920E-02 0.  1.
        2   -1    0    0  501    0  0.00000000000E+00  0.00000000000E+00 -0.21777793446E+04  0.21777793446E+04  0.25500000920E-02 0. -1.
    10030    2    1    2    0    0  0.00000000000E+00  0.00000000000E+00 -0.78802651327E+03  0.35675321760E+04  0.34794108756E+04 0.  0.
        3    1    3    3  502    0  0.74276102456E+03  0.14128068352E+04 -0.11035346807E+04  0.19404911479E+04  0.10100000352E+00 0. -1.
       -3    1    3    3    0  502 -0.74276102456E+03 -0.14128068352E+04  0.31550816742E+03  0.16270410281E+04  0.10100000352E+00 0.  1.
</event>
<event>
 5   0  0.2907000E-07  0.3509379E+04  0.7818609E-02  0.8111571E-01
       -3   -1    0    0    0  501  0.00000000000E+00  0.00000000000E+00  0.17820386442E+04  0.17820386470E+04  0.10100000352E+00 0. -1.
        3   -1    0    0  501    0  0.00000000000E+00  0.00000000000E+00 -0.17277604518E+04  0.17277604548E+04  0.10100000352E+00 0.  1.
    10030    2    1    2    0    0  0.00000000000E+00  0.00000000000E+00  0.54278192384E+02  0.35097991018E+04  0.35093793772E+04 0.  0.
        3    1    3    3  502    0  0.13220857106E+04  0.82714141835E+03 -0.77723462338E+03  0.17424601063E+04  0.10100000352E+00 0.  1.
       -3    1    3    3    0  502 -0.13220857106E+04 -0.82714141835E+03  0.83151281576E+03  0.17673389955E+04  0.10100000352E+00 0. -1.
</event>
<event>
 5   0  0.8845195E-07  0.3581512E+04  0.7818609E-02  0.8094740E-01
       -2   -1    0    0    0  501  0.00000000000E+00  0.00000000000E+00  0.13238058712E+04  0.13238058712E+04  0.25500000920E-02 0. -1.
        2   -1    0    0  501    0  0.00000000000E+00  0.00000000000E+00 -0.24224142970E+04  0.24224142970E+04  0.25500000920E-02 0.  1.
    10030    2    1    2    0    0  0.00000000000E+00  0.00000000000E+00 -0.10986084259E+04  0.37462201682E+04  0.35815115629E+04 0.  0.
        5    1    3    3  502    0  0.11032154116E+03 -0.20563243499E+02 -0.24187261992E+04  0.24213327334E+04  0.46999998093E+01 0.  1.
       -5    1    3    3    0  502 -0.11032154116E+03  0.20563243499E+02  0.13201177733E+04  0.13248874348E+04  0.46999998093E+01 0. -1.
</event>
<event>
 5   0  0.6188930E-07  0.3540403E+04  0.7818609E-02  0.8104281E-01
       -2   -1    0    0    0  501  0.00000000000E+00  0.00000000000E+00  0.17328293712E+04  0.17328293712E+04  0.25500000920E-02 0.  1.
        2   -1    0    0  501    0  0.00000000000E+00  0.00000000000E+00 -0.18083800355E+04  0.18083800355E+04  0.25500000920E-02 0. -1.
    10030    2    1    2    0    0  0.00000000000E+00  0.00000000000E+00 -0.75550664288E+02  0.35412094068E+04  0.35404033894E+04 0.  0.
        3    1    3    3  502    0  0.11416027654E+03  0.13323226596E+04 -0.11979953545E+04  0.17953576573E+04  0.10100000352E+00 0. -1.
       -3    1    3    3    0  502 -0.11416027654E+03 -0.13323226596E+04  0.11224446902E+04  0.17458517494E+04  0.10100000352E+00 0.  1.
</event>
<event>
 5   0  0.2972541E-07  0.3566790E+04  0.7818609E-02  0.8098142E-01
       -1   -1    0    0    0  501  0.00000000000E+00  0.00000000000E+00  0.12755042270E+04  0.12755042270E+04  0.50400001928E-02 0.  1.
        1   -1    0    0  501    0  0.00000000000E+00  0.00000000000E+00 -0.24935214216E+04  0.24935214216E+04  0.50400001928E-02 0. -1.
    10030    2    1    2    0    0  0.00000000000E+00  0.00000000000E+00 -0.12180171946E+04  0.37690256487E+04  0.35667896565E+04 0.  0.
        3    1    3    3  502    0 -0.39414123512E+03  0.11415651538E+03 -0.24429590184E+04  0.24771814223E+04  0.10100000352E+00 0. -1.
       -3    1    3    3    0  502  0.39414123512E+03 -0.11415651538E+03  0.12249418238E+04  0.12918442264E+04  0.10100000352E+00 0.  1.
</event>
<event>
 5   0  0.8845195E-07  0.3508697E+04  0.7818609E-02  0.8111732E-01
       -2   -1    0    0    0  501  0.00000000000E+00  0.00000000000E+00  0.11425369813E+04  0.11425369813E+04  0.25500000920E-02 0.  1.
        2   -1    0    0  501    0  0.00000000000E+00  0.00000000000E+00 -0.26937753621E+04  0.26937753621E+04  0.25500000920E-02 0. -1.
    10030    2    1    2    0    0  0.00000000000E+00  0.00000000000E+00 -0.15512383808E+04  0.38363123434E+04  0.35086966073E+04 0.  0.
        5    1    3    3  502    0 -0.95051097360E+03  0.58215965595E+03 -0.22568604623E+04  0.25171059199E+04  0.46999998093E+01 0. -1.
       -5    1    3    3    0  502  0.95051097360E+03 -0.58215965595E+03  0.70562208143E+03  0.13192064235E+04  0.46999998093E+01 0.  1.
</event>
<event>
 5   0  0.8950809E-07  0.3502132E+04  0.7818609E-02  0.8113285E-01
        2   -1    0    0  501    0  0.00000000000E+00  0.00000000000E+00  0.25016145516E+04  0.25016145516E+04  0.25500000920E-02 0. -1.
       -2   -1    0    0    0  501  0.00000000000E+00  0.00000000000E+00 -0.12257009458E+04  0.12257009458E+04  0.25500000920E-02 0.  1.
    10030    2    1    2    0    0  0.00000000000E+00  0.00000000000E+00  0.12759136058E+04  0.37273154974E+04  0.35021315349E+04 0.  0.
        2    1    3    3  502    0  0.33318477154E+03 -0.17080126381E+04  0.43072691996E+03  0.17927199847E+04  0.25500000920E-02 0.  1.
       -2    1    3    3    0  502 -0.33318477154E+03  0.17080126381E+04  0.84518668581E+03  0.19345955127E+04  0.25500000920E-02 0. -1.
</event>
<event>
 5   0  0.6188930E-07  0.3521259E+04  0.7818609E-02  0.8108770E-01
        2   -1    0    0  501    0  0.00000000000E+00  0.00000000000E+00  0.28892267139E+04  0.28892267139E+04  0.25500000920E-02 0.  1.
       -2   -1    0    0    0  501  0.00000000000E+00  0.00000000000E+00 -0.10728878578E+04  0.10728878578E+04  0.25500000920E-02 0. -1.
    10030    2    1    2    0    0  0.00000000000E+00  0.00000000000E+00  0.18163388561E+04  0.39621145717E+04  0.35212590134E+04 0.  0.
        3    1    3    3  502    0  0.10695184263E+04 -0.58751047425E+03 -0.51989205787E+03  0.13263958623E+04  0.10100000352E+00 0. -1.
       -3    1    3    3    0  502 -0.10695184263E+04  0.58751047425E+03  0.23362309140E+04  0.26357187094E+04  0.10100000352E+00 0.  1.
</event>
<event>
 5   0  0.2933506E-07  0.3480608E+04  0.7818609E-02  0.8118401E-01
        1   -1    0    0  501    0  0.00000000000E+00  0.00000000000E+00  0.17105947396E+04  0.17105947396E+04  0.50400001928E-02 0.  1.
       -1   -1    0    0    0  501  0.00000000000E+00  0.00000000000E+00 -0.17705289420E+04  0.17705289420E+04  0.50400001928E-02 0. -1.
    10030    2    1    2    0    0  0.00000000000E+00  0.00000000000E+00 -0.59934202371E+02  0.34811236816E+04  0.34806077024E+04 0.  0.
        4    1    3    3  502    0  0.64507001226E+03 -0.11582698169E+04 -0.11574991149E+04  0.17599744610E+04  0.12699999809E+01 0. -1.
       -4    1    3    3    0  502 -0.64507001226E+03  0.11582698169E+04  0.10975649125E+04  0.17211492206E+04  0.12699999809E+01 0.  1.
</event>
<event>
 5   0  0.8950809E-07  0.3476968E+04  0.7818609E-02  0.8119270E-01
        2   -1    0    0  501    0  0.00000000000E+00  0.00000000000E+00  0.12876854233E+04  0.12876854233E+04  0.25500000920E-02 0. -1.
       -2   -1    0    0    0  501  0.00000000000E+00  0.00000000000E+00 -0.23471002902E+04  0.23471002902E+04  0.25500000920E-02 0.  1.
    10030    2    1    2    0    0  0.00000000000E+00  0.00000000000E+00 -0.10594148669E+04  0.36347857136E+04  0.34769681223E+04 0.  0.
        2    1    3    3  502    0 -0.14538831363E+03  0.11899914267E+04  0.78644967654E+03  0.14337783828E+04  0.25500000920E-02 0. -1.
       -2    1    3    3    0  502  0.14538831363E+03 -0.11899914267E+04 -0.18458645434E+04  0.22010073308E+04  0.25500000920E-02 0.  1.
</event>
<event>
 5   0  0.3061330E-07  0.3491282E+04  0.7818609E-02  0.8115859E-01
        1   -1    0    0  501    0  0.00000000000E+00  0.00000000000E+00  0.24345223570E+04  0.24345223570E+04  0.50400001928E-02 0.  1.
       -1   -1    0    0    0  501  0.00000000000E+00  0.00000000000E+00 -0.12516879187E+04  0.12516879187E+04  0.50400001928E-02 0. -1.
    10030    2    1    2    0    0  0.00000000000E+00  0.00000000000E+00  0.11828344383E+04  0.36862102757E+04  0.34912818403E+04 0.  0.
        5    1    3    3  502    0  0.94410812155E+03  0.11681567212E+04  0.15306397127E+04  0.21444836886E+04  0.46999998093E+01 0.  1.
       -5    1    3    3    0  502 -0.94410812155E+03 -0.11681567212E+04 -0.34780527443E+03  0.15417265871E+04  0.46999998093E+01 0. -1.
</event>
<event>
 5   0  0.2972541E-07  0.3456598E+04  0.7818609E-02  0.8124153E-01
       -1   -1    0    0    0  501  0.00000000000E+00  0.00000000000E+00  0.14481349149E+04  0.14481349149E+04  0.50400001928E-02 0. -1.
        1   -1    0    0  501    0  0.00000000000E+00  0.00000000000E+00 -0.20626646979E+04  0.20626646979E+04  0.50400001928E-02 0.  1.
    10030    2    1    2    0    0  0.00000000000E+00  0.00000000000E+00 -0.61452978307E+03  0.35107996128E+04  0.34565976143E+04 0.  0.
        3    1    3    3  502    0  0.16286428157E+04  0.11500829638E+03 -0.88299769802E+03  0.18561759815E+04  0.10100000352E+00 0.  1.
       -3    1    3    3    0  502 -0.16286428157E+04 -0.11500829638E+03  0.26846791495E+03  0.16546236312E+04  0.10100000352E+00 0. -1.
</event>
<event>
 5   0  0.9311672E-07  0.3508319E+04  0.7818609E-02  0.8111821E-01
        2   -1    0    0  501    0  0.00000000000E+00  0.00000000000E+00  0.19959102450E+04  0.19959102450E+04  0.25500000920E-02 0. -1.
       -2   -1    0    0    0  501  0.00000000000E+00  0.00000000000E+00 -0.15416905231E+04  0.15416905231E+04  0.25500000920E-02 0.  1.
    10030    2    1    2    0    0  0.00000000000E+00  0.00000000000E+00  0.45421972197E+03  0.35376007681E+04  0.35083192042E+04 0.  0.
        4    1    3    3  502    0  0.33367757240E+03  0.15869381233E+04  0.90154278483E+03  0.18553960050E+04  0.12699999809E+01 0.  1.
       -4    1    3    3    0  502 -0.33367757240E+03 -0.15869381233E+04 -0.44732306286E+03  0.16822047631E+04  0.12699999809E+01 0. -1.
</event>
<event>
 5   0  0.2972541E-07  0.3331645E+04  0.7818609E-02  0.8154890E-01
        1   -1    0    0  501    0  0.00000000000E+00  0.00000000000E+00  0.27448811929E+04  0.27448811929E+04  0.50400001928E-02 0. -1.
       -1   -1    0    0    0  501  0.00000000000E+00  0.00000000000E+00 -0.10109596409E+04  0.10109596409E+04  0.50400001928E-02 0.  1.
    10030    2    1    2    0    0  0.00000000000E+00  0.00000000000E+00  0.17339215520E+04  0.37558408339E+04  0.33316447020E+04 0.  0.
        3    1    3    3  502    0  0.19623153266E+03 -0.59762163783E+03  0.26058568121E+04  0.26806991946E+04  0.10100000352E+00 0. -1.
       -3    1    3    3    0  502 -0.19623153266E+03  0.59762163783E+03 -0.87193526011E+03  0.10751416392E+04  0.10100000352E+00 0.  1.
</event>
<event>
 5   0  0.2933506E-07  0.3503324E+04  0.7818609E-02  0.8113003E-01
        1   -1    0    0  501    0  0.00000000000E+00  0.00000000000E+00  0.24086075766E+04  0.24086075766E+04  0.50400001928E-02 0.  1.
       -1   -1    0    0    0  501  0.00000000000E+00  0.00000000000E+00 -0.12738975455E+04  0.12738975455E+04  0.50400001928E-02 0. -1.
    10030    2    1    2    0    0  0.00000000000E+00  0.00000000000E+00  0.11347100312E+04  0.36825051221E+04  0.35033237246E+04 0.  0.
        4    1    3    3  502    0 -0.15257308630E+04  0.52904117735E+03  0.12807250925E+04  0.20610671045E+04  0.12699999809E+01 0.  1.
       -4    1    3    3    0  502  0.15257308630E+04 -0.52904117735E+03 -0.14601506136E+03  0.16214380176E+04  0.12699999809E+01 0. -1.
</event>
<event>
 5   0  0.2972541E-07  0.3556782E+04  0.7818609E-02  0.8100464E-01
        1   -1    0    0  501    0  0.00000000000E+00  0.00000000000E+00  0.22215406156E+04  0.22215406156E+04  0.50400001928E-02 0. -1.
       -1   -1    0    0    0  501  0.00000000000E+00  0.00000000000E+00 -0.14236399265E+04  0.14236399265E+04  0.50400001928E-02 0.  1.
    10030    2    1    2    0    0  0.00000000000E+00  0.00000000000E+00  0.79790068905E+03  0.36451805421E+04  0.35567816456E+04 0.  0.
        3    1    3    3  502    0 -0.80831876385E+03  0.98362168932E+03 -0.87359560658E+03  0.15440402021E+04  0.10100000352E+00 0.  1.
       -3    1    3    3    0  502  0.80831876385E+03 -0.98362168932E+03  0.16714962956E+04  0.21011403400E+04  0.10100000352E+00 0. -1.
</event>
<event>
 5   0  0.6188930E-07  0.3513378E+04  0.7818609E-02  0.8110627E-01
       -2   -1    0    0    0  501  0.00000000000E+00  0.00000000000E+00  0.13765901239E+04  0.13765901239E+04  0.25500000920E-02 0. -1.
        2   -1    0    0  501    0  0.00000000000E+00  0.00000000000E+00 -0.22417393144E+04  0.22417393144E+04  0.25500000920E-02 0.  1.
    10030    2    1    2    0    0  0.00000000000E+00  0.00000000000E+00 -0.86514919054E+03  0.36183294383E+04  0.35133779760E+04 0.  0.
        3    1    3    3  502    0 -0.15748263372E+04  0.23189066007E+03  0.33265902009E+03  0.16261959613E+04  0.10100000352E+00 0. -1.
       -3    1    3    3    0  502  0.15748263372E+04 -0.23189066007E+03 -0.11978082106E+04  0.19921334770E+04  0.10100000352E+00 0.  1.
</event>
<event>
 5   0  0.2933506E-07  0.3521473E+04  0.7818609E-02  0.8108720E-01
       -1   -1    0    0    0  501  0.00000000000E+00  0.00000000000E+00  0.21643031166E+04  0.21643031166E+04  0.50400001928E-02 0.  1.
        1   -1    0    0  501    0  0.00000000000E+00  0.00000000000E+00 -0.14324212583E+04  0.14324212583E+04  0.50400001928E-02 0. -1.
    10030    2    1    2    0    0  0.00000000000E+00  0.00000000000E+00  0.73188185826E+03  0.35967243749E+04  0.35214734380E+04 0.  0.
        4    1    3    3  502    0  0.29914564544E+03 -0.49619434328E+03  0.20641480759E+04  0.21439230013E+04  0.12699999809E+01 0.  1.
       -4    1    3    3    0  502 -0.29914564544E+03  0.49619434328E+03 -0.13322662177E+04  0.14528013736E+04  0.12699999809E+01 0. -1.
</event>
<event>
 5   0  0.3061330E-07  0.3511925E+04  0.7818609E-02  0.8110970E-01
       -1   -1    0    0    0  501  0.00000000000E+00  0.00000000000E+00  0.20848901643E+04  0.20848901643E+04  0.50400001928E-02 0.  1.
        1   -1    0    0  501    0  0.00000000000E+00  0.00000000000E+00 -0.14789287573E+04  0.14789287573E+04  0.50400001928E-02 0. -1.
    10030    2    1    2    0    0  0.00000000000E+00  0.00000000000E+00  0.60596140696E+03  0.35638189216E+04  0.35119248397E+04 0.  0.
        5    1    3    3  502    0  0.11856274940E+04 -0.32904360734E+03 -0.96828753413E+03  0.15657538405E+04  0.46999998093E+01 0. -1.
       -5    1    3    3    0  502 -0.11856274940E+04  0.32904360734E+03  0.15742489411E+04  0.19980650812E+04  0.46999998093E+01 0.  1.
</event>
<event>
 5   0  0.8845195E-07  0.3432824E+04  0.7818609E-02  0.8129897E-01
        2   -1    0    0  501    0  0.00000000000E+00  0.00000000000E+00  0.21542368682E+04  0.21542368682E+04  0.25500000920E-02 0. -1.
       -2   -1    0    0    0  501  0.00000000000E+00  0.00000000000E+00 -0.13675699869E+04  0.13675699869E+04  0.25500000920E-02 0.  1.
    10030    2    1    2    0    0  0.00000000000E+00  0.00000000000E+00  0.78666688127E+03  0.35218068551E+04  0.34328237272E+04 0.  0.
        5    1    3    3  502    0 -0.50757204587E+02  0.70872816096E+03  0.19962597230E+04  0.21189494736E+04  0.46999998093E+01 0. -1.
       -5    1    3    3    0  502  0.50757204587E+02 -0.70872816096E+03 -0.12095928417E+04  0.14028573815E+04  0.46999998093E+01 0.  1.
</event>
<event>
 5   0  0.3061330E-07  0.3472086E+04  0.7818609E-02  0.8120437E-01
       -1   -1    0    0    0  501  0.00000000000E+00  0.00000000000E+00  0.27654292243E+04  0.27654292243E+04  0.50400001928E-02 0. -1.
        1   -1    0    0  501    0  0.00000000000E+00  0.00000000000E+00 -0.10898290831E+04  0.10898290831E+04  0.50400001928E-02 0.  1.
    10030    2    1    2    0    0  0.00000000000E+00  0.00000000000E+00  0.16756001412E+04  0.38552583074E+04  0.34720859413E+04 0.  0.
        5    1    3    3  502    0 -0.15734135937E+04  0.68827831225E+03  0.55587903536E+03  0.18050986022E+04  0.46999998093E+01 0.  1.
       -5    1    3    3    0  502  0.15734135937E+04 -0.68827831225E+03  0.11197211059E+04  0.20501597052E+04  0.46999998093E+01 0. -1.
</event>
<event>
 5   0  0.9311672E-07  0.3488138E+04  0.7818609E-02  0.8116607E-01
       -2   -1    0    0    0  501  0.00000000000E+00  0.00000000000E+00  0.19498557660E+04  0.19498557660E+04  0.25500000920E-02 0.  1.
        2   -1    0    0  501    0  0.00000000000E+00  0.00000000000E+00 -0.15600010411E+04  0.15600010411E+04  0.25500000920E-02 0. -1.
    10030    2    1    2    0    0  0.00000000000E+00  0.00000000000E+00  0.38985472491E+03  0.35098568072E+04  0.34881381997E+04 0.  0.
        4    1    3    3  502    0 -0.85362660429E+03  0.82592486943E+03 -0.10901089269E+04  0.16121939570E+04  0.12699999809E+01 0. -1.
       -4    1    3    3    0  502  0.85362660429E+03 -0.82592486943E+03  0.14799636518E+04  0.18976628502E+04  0.12699999809E+01 0.  1.
</event>
<event>
 5   0  0.2936607E-07  0.3556284E+04  0.7818609E-02  0.8100579E-01
        1   -1    0    0  501    0  0.00000000000E+00  0.00000000000E+00  0.23776859963E+04  0.23776859963E+04  0.50400001928E-02 0.  1.
       -1   -1    0    0    0  501  0.00000000000E+00  0.00000000000E+00 -0.13297754274E+04  0.13297754275E+04  0.50400001928E-02 0. -1.
    10030    2    1    2    0    0  0.00000000000E+00  0.00000000000E+00  0.10479105688E+04  0.37074614237E+04  0.35562836850E+04 0.  0.
        2    1    3    3  502    0  0.39764962251E+02 -0.14427141666E+04  0.16067528960E+04  0.21597824630E+04  0.25500000920E-02 0.  1.
       -2    1    3    3    0  502 -0.39764962251E+02  0.14427141666E+04 -0.55884232718E+03  0.15476789607E+04  0.25500000920E-02 0. -1.
</event>
<event>
 5   0  0.8845195E-07  0.3449870E+04  0.7818609E-02  0.8125774E-01
       -2   -1    0    0    0  501  0.00000000000E+00  0.00000000000E+00  0.20116409299E+04  0.20116409299E+04  0.25500000920E-02 0. -1.
        2   -1    0    0  501    0  0.00000000000E+00  0.00000000000E+00 -0.14790915598E+04  0.14790915598E+04  0.25500000920E-02 0.  1.
    10030    2    1    2    0    0  0.00000000000E+00  0.00000000000E+00  0.53254937015E+03  0.34907324897E+04  0.34498702125E+04 0.  0.
        5    1    3    3  502    0 -0.49118021990E+02 -0.16819818424E+04 -0.11756470379E+03  0.16868073535E+04  0.46999998093E+01 0. -1.
       -5    1    3    3    0  502  0.49118021990E+02  0.16819818424E+04  0.65011407394E+03  0.18039251363E+04  0.46999998093E+01 0.  1.
</event>
<event>
 5   0  0.3026332E-07  0.3500225E+04  0.7818609E-02  0.8113737E-01
        1   -1    0    0  501    0  0.00000000000E+00  0.00000000000E+00  0.12632108881E+04  0.12632108881E+04  0.50400001928E-02 0.  1.
       -1   -1    0    0    0  501  0.00000000000E+00  0.00000000000E+00 -0.24246893121E+04  0.24246893121E+04  0.50400001928E-02 0. -1.
    10030    2    1    2    0    0  0.00000000000E+00  0.00000000000E+00 -0.11614784240E+04  0.36879002003E+04  0.35002251010E+04 0.  0.
        1    1    3    3  502    0  0.30628330808E+03 -0.94693002323E+03  0.93603457888E+03  0.13662527828E+04  0.50400001928E-02 0.  1.
       -1    1    3    3    0  502 -0.30628330808E+03  0.94693002323E+03 -0.20975130029E+04  0.23216474174E+04  0.50400001928E-02 0. -1.
</event>
<event>
 5   0  0.6188930E-07  0.3498483E+04  0.7818609E-02  0.8114149E-01
        2   -1    0    0  501    0  0.00000000000E+00  0.00000000000E+00  0.18250601200E+04  0.18250601200E+04  0.25500000920E-02 0. -1.
       -2   -1    0    0    0  501  0.00000000000E+00  0.00000000000E+00 -0.16765729317E+04  0.16765729317E+04  0.25500000920E-02 0.  1.
    10030    2    1    2    0    0  0.00000000000E+00  0.00000000000E+00  0.14848718832E+03  0.35016330516E+04  0.34984833261E+04 0.  0.
        3    1    3    3  502    0  0.91415236309E+03 -0.14406278355E+04 -0.31180208900E+03  0.17344462103E+04  0.10100000352E+00 0.  1.
       -3    1    3    3    0  502 -0.91415236309E+03  0.14406278355E+04  0.46028927732E+03  0.17671868414E+04  0.10100000352E+00 0. -1.
</event>
<event>
 5   0  0.2936607E-07  0.3417780E+04  0.7818609E-02  0.8133556E-01
        1   -1    0    0  501    0  0.00000000000E+00  0.00000000000E+00  0.18269118058E+04  0.18269118058E+04  0.50400001928E-02 0. -1.
       -1   -1    0    0    0  501  0.00000000000E+00  0.00000000000E+00 -0.15984927017E+04  0.15984927017E+04  0.50400001928E-02 0.  1.
    10030    2    1    2    0    0  0.00000000000E+00  0.00000000000E+00  0.22841910411E+03  0.34254045075E+04  0.34177800914E+04 0.  0.
        2    1    3    3  502    0  0.58202371324E+03 -0.59893862959E+03 -0.13800309133E+04  0.16130605712E+04  0.25500000920E-02 0.  1.
       -2    1    3    3    0  502 -0.58202371324E+03  0.59893862959E+03  0.16084500174E+04  0.18123439363E+04  0.25500000920E-02 0. -1.
</event>
<event>
 5   0  0.2907000E-07  0.3395819E+04  0.7818609E-02  0.8138933E-01
       -3   -1    0    0    0  501  0.00000000000E+00  0.00000000000E+00  0.13304320567E+04  0.13304320605E+04  0.10100000352E+00 0.  1.
        3   -1    0    0  501    0  0.00000000000E+00  0.00000000000E+00 -0.21668870938E+04  0.21668870962E+04  0.10100000352E+00 0. -1.
    10030    2    1    2    0    0  0.00000000000E+00  0.00000000000E+00 -0.83645503718E+03  0.34973191567E+04  0.33958186427E+04 0.  0.
        2    1    3    3  502    0 -0.13088481068E+04 -0.10529314936E+04 -0.16355517303E+03  0.16877495050E+04  0.25500000920E-02 0.  1.
       -2    1    3    3    0  502  0.13088481068E+04  0.10529314936E+04 -0.67289986415E+03  0.18095696517E+04  0.25500000920E-02 0. -1.
</event>
<event>
 5   0  0.2936607E-07  0.3471280E+04  0.7818609E-02  0.8120630E-01
        1   -1    0    0  501    0  0.00000000000E+00  0.00000000000E+00  0.19153525557E+04  0.19153525557E+04  0.50400001928E-02 0. -1.
       -1   -1    0    0    0  501  0.00000000000E+00  0.00000000000E+00 -0.15727892353E+04  0.15727892353E+04  0.50400001928E-02 0.  1.
    10030    2    1    2    0    0  0.00000000000E+00  0.00000000000E+00  0.34256332033E+03  0.34881417910E+04  0.34712798109E+04 0.  0.
        2    1    3    3  502    0 -0.48883763232E+03  0.11737021774E+04  0.13585058235E+04  0.18606657691E+04  0.25500000920E-02 0.  1.
       -2    1    3    3    0  502  0.48883763232E+03 -0.11737021774E+04 -0.10159425032E+04  0.16274760219E+04  0.25500000920E-02 0. -1.
</event>
<event>
 5   0  0.8845195E-07  0.3497441E+04  0.7818609E-02  0.8114397E-01
        2   -1    0    0  501    0  0.00000000000E+00  0.00000000000E+00  0.25320713682E+04  0.25320713682E+04  0.25500000920E-02 0.  1.
       -2   -1    0    0    0  501  0.00000000000E+00  0.00000000000E+00 -0.12077160935E+04  0.12077160935E+04  0.25500000920E-02 0. -1.
    10030    2    1    2    0    0  0.00000000000E+00  0.00000000000E+00  0.13243552747E+04  0.37397874617E+04  0.34974409738E+04 0.  0.
        5    1    3    3  502    0 -0.14446184729E+04 -0.55815941564E+03 -0.20621481328E+03  0.15623735484E+04  0.46999998093E+01 0.  1.
       -5    1    3    3    0  502  0.14446184729E+04  0.55815941564E+03  0.15305700880E+04  0.21774139133E+04  0.46999998093E+01 0. -1.
</event>
<event>
 5   0  0.9311672E-07  0.3482575E+04  0.7818609E-02  0.8117932E-01
       -2   -1    0    0    0  501  0.00000000000E+00  0.00000000000E+00  0.18271669847E+04  0.18271669847E+04  0.25500000920E-02 0.  1.
        2   -1    0    0  501    0  0.00000000000E+00  0.00000000000E+00 -0.16594447149E+04  0.16594447149E+04  0.25500000920E-02 0. -1.
    10030    2    1    2    0    0  0.00000000000E+00  0.00000000000E+00  0.16772226979E+03  0.34866116997E+04  0.34825752518E+04 0.  0.
        4    1    3    3  502    0  0.59048900694E+03  0.36036701277E+03 -0.15159707552E+04  0.16663464810E+04  0.12699999809E+01 0. -1.
       -4    1    3    3    0  502 -0.59048900694E+03 -0.36036701277E+03  0.16836930250E+04  0.18202652187E+04  0.12699999809E+01 0.  1.
</event>
<event>
 5   0  0.8845195E-07  0.3541324E+04  0.7818609E-02  0.8104066E-01
       -2   -1    0    0    0  501  0.00000000000E+00  0.00000000000E+00  0.16075922415E+04  0.16075922415E+04  0.25500000920E-02 0. -1.
        2   -1    0    0  501    0  0.00000000000E+00  0.00000000000E+00 -0.19502733293E+04  0.19502733293E+04  0.25500000920E-02 0.  1.
    10030    2    1    2    0    0  0.00000000000E+00  0.00000000000E+00 -0.34268108779E+03  0.35578655708E+04  0.35413242004E+04 0.  0.
        5    1    3    3  502    0  0.87236870312E+03  0.13676299107E+04  0.54175184057E+03  0.17102502371E+04  0.46999998093E+01 0. -1.
       -5    1    3    3    0  502 -0.87236870312E+03 -0.13676299107E+04 -0.88443292836E+03  0.18476153337E+04  0.46999998093E+01 0.  1.
</event>
<event>
 5   0  0.3026332E-07  0.3617064E+04  0.7818609E-02  0.8086594E-01
        1   -1    0    0  501    0  0.00000000000E+00  0.00000000000E+00  0.12290320926E+04  0.12290320926E+04  0.50400001928E-02 0.  1.
       -1   -1    0    0    0  501  0.00000000000E+00  0.00000000000E+00 -0.26612714947E+04  0.26612714947E+04  0.50400001928E-02 0. -1.
    10030    2    1    2    0    0  0.00000000000E+00  0.00000000000E+00 -0.14322394021E+04  0.38903035873E+04  0.36170640437E+04 0.  0.
        1    1    3    3  502    0  0.44243769961E+03 -0.17326251828E+04 -0.42543091052E+03  0.18381329119E+04  0.50400001928E-02 0. -1.
       -1    1    3    3    0  502 -0.44243769961E+03  0.17326251828E+04 -0.10068084916E+04  0.20521706754E+04  0.50400001928E-02 0.  1.
</event>
<event>
 5   0  0.2972541E-07  0.3506781E+04  0.7818609E-02  0.8112185E-01
       -1   -1    0    0    0  501  0.00000000000E+00  0.00000000000E+00  0.14473213916E+04  0.14473213916E+04  0.50400001928E-02 0. -1.
        1   -1    0    0  501    0  0.00000000000E+00  0.00000000000E+00 -0.21241843235E+04  0.21241843235E+04  0.50400001928E-02 0.  1.
    10030    2    1    2    0    0  0.00000000000E+00  0.00000000000E+00 -0.67686293190E+03  0.35715057150E+04  0.35067805241E+04 0.  0.
        3    1    3    3  502    0 -0.11329015960E+04  0.81783268257E+03 -0.14172564919E+04  0.19902091088E+04  0.10100000352E+00 0.  1.
       -3    1    3    3    0  502  0.11329015960E+04 -0.81783268257E+03  0.74039355997E+03  0.15812966062E+04  0.10100000352E+00 0. -1.
</event>
<event>
 5   0  0.8950809E-07  0.3559134E+04  0.7818609E-02  0.8099917E-01
       -2   -1    0    0    0  501  0.00000000000E+00  0.00000000000E+00  0.21225429909E+04  0.21225429909E+04  0.25500000920E-02 0. -1.
        2   -1    0    0  501    0  0.00000000000E+00  0.00000000000E+00 -0.14920119103E+04  0.14920119103E+04  0.25500000920E-02 0.  1.
    10030    2    1    2    0    0  0.00000000000E+00  0.00000000000E+00  0.63053108053E+03  0.36145549012E+04  0.35591344019E+04 0.  0.
        2    1    3    3  502    0  0.87614441038E+03  0.15223858002E+04  0.60532073432E+03  0.18578753306E+04  0.25500000920E-02 0.  1.
       -2    1    3    3    0  502 -0.87614441038E+03 -0.15223858002E+04  0.25210346210E+02  0.17566795707E+04  0.25500000920E-02 0. -1.
</event>
<event>
 5   0  0.3026332E-07  0.3500508E+04  0.7818609E-02  0.8113670E-01
        1   -1    0    0  501    0  0.00000000000E+00  0.00000000000E+00  0.20002683381E+04  0.20002683381E+04  0.50400001928E-02 0. -1.
       -1   -1    0    0    0  501  0.00000000000E+00  0.00000000000E+00 -0.15314890124E+04  0.15314890124E+04  0.50400001928E-02 0.  1.
    10030    2    1    2    0    0  0.00000000000E+00  0.00000000000E+00  0.46877932569E+03  0.35317573505E+04  0.35005079526E+04 0.  0.
        1    1    3    3  502    0 -0.13128478200E+04  0.65824776788E+03 -0.72622840303E+03  0.16383733445E+04  0.50400001928E-02 0. -1.
       -1    1    3    3    0  502  0.13128478200E+04 -0.65824776788E+03  0.11950077287E+04  0.18933840060E+04  0.50400001928E-02 0.  1.
</event>
<event>
 5   0  0.8845195E-07  0.3537386E+04  0.7818609E-02  0.8104987E-01
        2   -1    0    0  501    0  0.00000000000E+00  0.00000000000E+00  0.14359389540E+04  0.14359389540E+04  0.25500000920E-02 0. -1.
       -2   -1    0    0    0  501  0.00000000000E+00  0.00000000000E+00 -0.21785568886E+04  0.21785568886E+04  0.25500000920E-02 0.  1.
    10030    2    1    2    0    0  0.00000000000E+00  0.00000000000E+00 -0.74261793462E+03  0.36144958426E+04  0.35373858709E+04 0.  0.
        5    1    3    3  502    0  0.96002654761E+02 -0.17483751530E+04 -0.62618663130E+03  0.18596139310E+04  0.46999998093E+01 0.  1.
       -5    1    3    3    0  502 -0.96002654761E+02  0.17483751530E+04 -0.11643130332E+03  0.17548819116E+04  0.46999998093E+01 0. -1.
</event>
<event>
 5   0  0.3026332E-07  0.3428440E+04  0.7818609E-02  0.8130961E-01
       -1   -1    0    0    0  501  0.00000000000E+00  0.00000000000E+00  0.32101812675E+04  0.32101812675E+04  0.50400001928E-02 0. -1.
        1   -1    0    0  501    0  0.00000000000E+00  0.00000000000E+00 -0.91538440842E+03  0.91538440844E+03  0.50400001928E-02 0.  1.
    10030    2    1    2    0    0  0.00000000000E+00  0.00000000000E+00  0.22947968591E+04  0.41255656759E+04  0.34284398087E+04 0.  0.
        1    1    3    3  502    0  0.13961120693E+04  0.19030343168E+03 -0.27445731199E+02  0.14092897411E+04  0.50400001928E-02 0.  1.
       -1    1    3    3    0  502 -0.13961120693E+04 -0.19030343168E+03  0.23222425903E+04  0.27162759348E+04  0.50400001928E-02 0. -1.
</event>
<event>
 5   0  0.8950809E-07  0.3477139E+04  0.7818609E-02  0.8119229E-01
        2   -1    0    0  501    0  0.00000000000E+00  0.00000000000E+00  0.21483619950E+04  0.21483619950E+04  0.25500000920E-02 0.  1.
       -2   -1    0    0    0  501  0.00000000000E+00  0.00000000000E+00 -0.14069438603E+04  0.14069438603E+04  0.25500000920E-02 0. -1.
    10030    2    1    2    0    0  0.00000000000E+00  0.00000000000E+00  0.74141813468E+03  0.35553058554E+04  0.34771394673E+04 0.  0.
        2    1    3    3  502    0  0.72503811174E+03 -0.39945475648E+03  0.19339270854E+04  0.21036440616E+04  0.25500000920E-02 0.  1.
       -2    1    3    3    0  502 -0.72503811174E+03  0.39945475648E+03 -0.11925089508E+04  0.14516617938E+04  0.25500000920E-02 0. -1.
</event>
<event>
 5   0  0.3061330E-07  0.3587601E+04  0.7818609E-02  0.8093338E-01
        1   -1    0    0  501    0  0.00000000000E+00  0.00000000000E+00  0.22794305496E+04  0.22794305496E+04  0.50400001928E-02 0.  1.
       -1   -1    0    0    0  501  0.00000000000E+00  0.00000000000E+00 -0.14116330274E+04  0.14116330274E+04  0.50400001928E-02 0. -1.
    10030    2    1    2    0    0  0.00000000000E+00  0.00000000000E+00  0.86779752217E+03  0.36910635770E+04  0.35876005617E+04 0.  0.
        5    1    3    3  502    0 -0.16580523982E+04 -0.59754432498E+03  0.77744533372E+03  0.19263022381E+04  0.46999998093E+01 0.  1.
       -5    1    3    3    0  502  0.16580523982E+04  0.59754432498E+03  0.90352188450E+02  0.17647613390E+04  0.46999998093E+01 0. -1.
</event>
<event>
 5   0  0.6188930E-07  0.3510608E+04  0.7818609E-02  0.8111281E-01
       -2   -1    0    0    0  501  0.00000000000E+00  0.00000000000E+00  0.12614579527E+04  0.12614579527E+04  0.25500000920E-02 0.  1.
        2   -1    0    0  501    0  0.00000000000E+00  0.00000000000E+00 -0.24424843808E+04  0.24424843808E+04  0.25500000920E-02 0. -1.
    10030    2    1    2    0    0  0.00000000000E+00  0.00000000000E+00 -0.11810264281E+04  0.37039423335E+04  0.35106075522E+04 0.  0.
        3    1    3    3  502    0  0.13338592858E+04  0.23368900123E+03 -0.17688445534E+04  0.22276898814E+04  0.10100000352E+00 0. -1.
       -3    1    3    3    0  502 -0.13338592858E+04 -0.23368900123E+03  0.58781812521E+03  0.14762524521E+04  0.10100000352E+00 0.  1.
</event>
<event>
 5   0  0.3026332E-07  0.3456066E+04  0.7818609E-02  0.8124281E-01
       -1   -1    0    0    0  501  0.00000000000E+00  0.00000000000E+00  0.17059595549E+04  0.17059595549E+04  0.50400001928E-02 0. -1.
        1   -1    0    0  501    0  0.00000000000E+00  0.00000000000E+00 -0.17503919784E+04  0.17503919784E+04  0.50400001928E-02 0.  1.
    10030    2    1    2    0    0  0.00000000000E+00  0.00000000000E+00 -0.44432423481E+02  0.34563515333E+04  0.34560659255E+04 0.  0.
        1    1    3    3  502    0  0.11107018917E+04  0.64201042420E+03 -0.11800086671E+04  0.17430595318E+04  0.50400001928E-02 0.  1.
       -1    1    3    3    0  502 -0.11107018917E+04 -0.64201042420E+03  0.11355762436E+04  0.17132920014E+04  0.50400001928E-02 0. -1.
</event>
<event>
 5   0  0.2936607E-07  0.3419846E+04  0.7818609E-02  0.8133053E-01
       -1   -1    0    0    0  501  0.00000000000E+00  0.00000000000E+00  0.18283500907E+04  0.18283500907E+04  0.50400001928E-02 0.  1.
        1   -1    0    0  501    0  0.00000000000E+00  0.00000000000E+00 -0.15991669072E+04  0.15991669072E+04  0.50400001928E-02 0. -1.
    10030    2    1    2    0    0  0.00000000000E+00  0.00000000000E+00  0.22918318344E+03  0.34275169979E+04  0.34198461719E+04 0.  0.
        2    1    3    3  502    0  0.27644086793E+03  0.38988557483E+03  0.17600434978E+04  0.18237827253E+04  0.25500000920E-02 0.  1.
       -2    1    3    3    0  502 -0.27644086793E+03 -0.38988557483E+03 -0.15308603144E+04  0.16037342726E+04  0.25500000920E-02 0. -1.
</event>
<event>
 5   0  0.6188930E-07  0.3513822E+04  0.7818609E-02  0.8110522E-01
        2   -1    0    0  501    0  0.00000000000E+00  0.00000000000E+00  0.16721736054E+04  0.16721736054E+04  0.25500000920E-02 0.  1.
       -2   -1    0    0    0  501  0.00000000000E+00  0.00000000000E+00 -0.18459423814E+04  0.18459423814E+04  0.25500000920E-02 0. -1.
    10030    2    1    2    0    0  0.00000000000E+00  0.00000000000E+00 -0.17376877597E+03  0.35181159868E+04  0.35138219233E+04 0.  0.
        3    1    3    3  502    0  0.15539998025E+04  0.56297126269E+03 -0.68333387445E+03  0.17885181640E+04  0.10100000352E+00 0. -1.
       -3    1    3    3    0  502 -0.15539998025E+04 -0.56297126269E+03  0.50956509848E+03  0.17295978228E+04  0.10100000352E+00 0.  1.
</event>
<event>
 5   0  0.2972541E-07  0.3486770E+04  0.7818609E-02  0.8116933E-01
       -1   -1    0    0    0  501  0.00000000000E+00  0.00000000000E+00  0.12569562553E+04  0.12569562554E+04  0.50400001928E-02 0.  1.
        1   -1    0    0  501    0  0.00000000000E+00  0.00000000000E+00 -0.24180561155E+04  0.24180561155E+04  0.50400001928E-02 0. -1.
    10030    2    1    2    0    0  0.00000000000E+00  0.00000000000E+00 -0.11610998601E+04  0.36750123708E+04  0.34867697143E+04 0.  0.
        3    1    3    3  502    0 -0.97565238466E+03  0.12687753391E+04  0.14792433221E+03  0.16073487659E+04  0.10100000352E+00 0.  1.
       -3    1    3    3    0  502  0.97565238466E+03 -0.12687753391E+04 -0.13090241923E+04  0.20676636049E+04  0.10100000352E+00 0. -1.
</event>
<event>
 5   0  0.9128871E-07  0.3461945E+04  0.7818609E-02  0.8122868E-01
       -2   -1    0    0    0  501  0.00000000000E+00  0.00000000000E+00  0.14572860866E+04  0.14572860866E+04  0.25500000920E-02 0.  1.
        2   -1    0    0  501    0  0.00000000000E+00  0.00000000000E+00 -0.20560587455E+04  0.20560587455E+04  0.25500000920E-02 0. -1.
    10030    2    1    2    0    0  0.00000000000E+00  0.00000000000E+00 -0.59877265886E+03  0.35133448321E+04  0.34619450042E+04 0.  0.
        1    1    3    3  502    0  0.24516692447E+03 -0.73606282218E+03  0.12709630600E+04  0.14890407647E+04  0.50400001928E-02 0.  1.
       -1    1    3    3    0  502 -0.24516692447E+03  0.73606282218E+03 -0.18697357188E+04  0.20243040674E+04  0.50400001928E-02 0. -1.
</event>
<event>
 5   0  0.2933506E-07  0.3483432E+04  0.7818609E-02  0.8117728E-01
        1   -1    0    0  501    0  0.00000000000E+00  0.00000000000E+00  0.15750805427E+04  0.15750805427E+04  0.50400001928E-02 0. -1.
       -1   -1    0    0    0  501  0.00000000000E+00  0.00000000000E+00 -0.19259808810E+04  0.19259808810E+04  0.50400001928E-02 0.  1.
    10030    2    1    2    0    0  0.00000000000E+00  0.00000000000E+00 -0.35090033824E+03  0.35010614237E+04  0.34834322220E+04 0.  0.
        4    1    3    3  502    0  0.11706714912E+04 -0.94947589861E+03 -0.10525621191E+04  0.18384408747E+04  0.12699999809E+01 0.  1.
       -4    1    3    3    0  502 -0.11706714912E+04  0.94947589861E+03  0.70166178090E+03  0.16626205490E+04  0.12699999809E+01 0. -1.
</event>
<event>
 5   0  0.8950809E-07  0.3510819E+04  0.7818609E-02  0.8111231E-01
       -2   -1    0    0    0  501  0.00000000000E+00  0.00000000000E+00  0.22372838639E+04  0.22372838639E+04  0.25500000920E-02 0. -1.
        2   -1    0    0  501    0  0.00000000000E+00  0.00000000000E+00 -0.13773227766E+04  0.13773227766E+04  0.25500000920E-02 0.  1.
    10030    2    1    2    0    0  0.00000000000E+00  0.00000000000E+00  0.85996108734E+03  0.36146066405E+04  0.35108187213E+04 0.  0.
        2    1    3    3  502    0 -0.59464630152E+03  0.16315614205E+04  0.69420950364E+03  0.18701667647E+04  0.25500000920E-02 0.  1.
       -2    1    3    3    0  502  0.59464630152E+03 -0.16315614205E+04  0.16575158370E+03  0.17444398758E+04  0.25500000920E-02 0. -1.
</event>
<event>
 5   0  0.3026332E-07  0.3497854E+04  0.7818609E-02  0.8114299E-01
       -1   -1    0    0    0  501  0.00000000000E+00  0.00000000000E+00  0.11801764259E+04  0.11801764260E+04  0.50400001928E-02 0.  1.
        1   -1    0    0  501    0  0.00000000000E+00  0.00000000000E+00 -0.25917694193E+04  0.25917694193E+04  0.50400001928E-02 0. -1.
    10030    2    1    2    0    0  0.00000000000E+00  0.00000000000E+00 -0.14115929934E+04  0.37719458453E+04  0.34978537249E+04 0.  0.
        1    1    3    3  502    0  0.38734626795E+03 -0.12400705036E+04  0.55682142505E+03  0.14134574930E+04  0.50400001928E-02 0.  1.
       -1    1    3    3    0  502 -0.38734626795E+03  0.12400705036E+04 -0.19684144184E+04  0.23584883523E+04  0.50400001928E-02 0. -1.
</event>
<event>
 5   0  0.9311672E-07  0.3507889E+04  0.7818609E-02  0.8111923E-01
        2   -1    0    0  501    0  0.00000000000E+00  0.00000000000E+00  0.24670598496E+04  0.24670598496E+04  0.25500000920E-02 0.  1.
       -2   -1    0    0    0  501  0.00000000000E+00  0.00000000000E+00 -0.12469587294E+04  0.12469587294E+04  0.25500000920E-02 0. -1.
    10030    2    1    2    0    0  0.00000000000E+00  0.00000000000E+00  0.12201011202E+04  0.37140185791E+04  0.35078892887E+04 0.  0.
        4    1    3    3  502    0 -0.34901717899E+03 -0.17157822934E+04  0.50105294949E+03  0.18212022240E+04  0.12699999809E+01 0.  1.
       -4    1    3    3    0  502  0.34901717899E+03  0.17157822934E+04  0.71904817070E+03  0.18928163551E+04  0.12699999809E+01 0. -1.
</event>
<event>
 5   0  0.9128871E-07  0.3454253E+04  0.7818609E-02  0.8124718E-01
        2   -1    0    0  501    0  0.00000000000E+00  0.00000000000E+00  0.10782234475E+04  0.10782234475E+04  0.25500000920E-02 0.  1.
       -2   -1    0    0    0  501  0.00000000000E+00  0.00000000000E+00 -0.27665570516E+04  0.27665570516E+04  0.25500000920E-02 0. -1.
    10030    2    1    2    0    0  0.00000000000E+00  0.00000000000E+00 -0.16883336041E+04  0.38447804991E+04  0.34542534255E+04 0.  0.
        1    1    3    3  502    0  0.10922997001E+04  0.79490087838E+03  0.35358822741E+03  0.13964278270E+04  0.50400001928E-02 0.  1.
       -1    1    3    3    0  502 -0.10922997001E+04 -0.79490087838E+03 -0.20419218315E+04  0.24483526722E+04  0.50400001928E-02 0. -1.
</event>
<event>
 5   0  0.2972541E-07  0.3476857E+04  0.7818609E-02  0.8119297E-01
        1   -1    0    0  501    0  0.00000000000E+00  0.00000000000E+00  0.22504532879E+04  0.22504532879E+04  0.50400001928E-02 0.  1.
       -1   -1    0    0    0  501  0.00000000000E+00  0.00000000000E+00 -0.13428997545E+04  0.13428997545E+04  0.50400001928E-02 0. -1.
    10030    2    1    2    0    0  0.00000000000E+00  0.00000000000E+00  0.90755353346E+03  0.35933530424E+04  0.34768567229E+04 0.  0.
        3    1    3    3  502    0 -0.26896930518E+03  0.69700326315E+03 -0.11685235507E+04  0.13869409990E+04  0.10100000352E+00 0. -1.
       -3    1    3    3    0  502  0.26896930518E+03 -0.69700326315E+03  0.20760770841E+04  0.22064120434E+04  0.10100000352E+00 0.  1.
</event>
<event>
 5   0  0.3061330E-07  0.3501725E+04  0.7818609E-02  0.8113381E-01
       -1   -1    0    0    0  501  0.00000000000E+00  0.00000000000E+00  0.20034741499E+04  0.20034741499E+04  0.50400001928E-02 0.  1.
        1   -1    0    0  501    0  0.00000000000E+00  0.00000000000E+00 -0.15301022799E+04  0.15301022799E+04  0.50400001928E-02 0. -1.
    10030    2    1    2    0    0  0.00000000000E+00  0.00000000000E+00  0.47337186995E+03  0.35335764298E+04  0.35017254973E+04 0.  0.
        5    1    3    3  502    0 -0.13205173357E+03  0.17449262117E+04  0.29459370413E+03  0.17745457686E+04  0.46999998093E+01 0.  1.
       -5    1    3    3    0  502  0.13205173357E+03 -0.17449262117E+04  0.17877816582E+03  0.17590306612E+04  0.46999998093E+01 0. -1.
</event>
<event>
 5   0  0.3026332E-07  0.3649174E+04  0.7818609E-02  0.8079320E-01
       -1   -1    0    0    0  501  0.00000000000E+00  0.00000000000E+00  0.21432753729E+04  0.21432753729E+04  0.50400001928E-02 0. -1.
        1   -1    0    0  501    0  0.00000000000E+00  0.00000000000E+00 -0.15532850735E+04  0.15532850736E+04  0.50400001928E-02 0.  1.
    10030    2    1    2    0    0  0.00000000000E+00  0.00000000000E+00  0.58999029937E+03  0.36965604465E+04  0.36491739587E+04 0.  0.
        1    1    3    3  502    0  0.16916343651E+04 -0.67924202603E+03  0.21574179821E+03  0.18356309756E+04  0.50400001928E-02 0. -1.
       -1    1    3    3    0  502 -0.16916343651E+04  0.67924202603E+03  0.37424850115E+03  0.18609294709E+04  0.50400001928E-02 0.  1.
</event>
<event>
 5   0  0.3061330E-07  0.3662372E+04  0.7818609E-02  0.8076352E-01
       -1   -1    0    0    0  501  0.00000000000E+00  0.00000000000E+00  0.26377335460E+04  0.26377335460E+04  0.50400001928E-02 0. -1.
        1   -1    0    0  501    0  0.00000000000E+00  0.00000000000E+00 -0.12712588879E+04  0.12712588879E+04  0.50400001928E-02 0.  1.
    10030    2    1    2    0    0  0.00000000000E+00  0.00000000000E+00  0.13664746582E+04  0.39089924339E+04  0.36623720261E+04 0.  0.
        5    1    3    3  502    0 -0.16672614138E+04  0.22057457856E+03  0.14564552577E+04  0.22247916250E+04  0.46999998093E+01 0. -1.
       -5    1    3    3    0  502  0.16672614138E+04 -0.22057457856E+03 -0.89980599586E+02  0.16842008090E+04  0.46999998093E+01 0.  1.
</event>
<event>
 5   0  0.8950809E-07  0.3469704E+04  0.7818609E-02  0.8121008E-01
       -2   -1    0    0    0  501  0.00000000000E+00  0.00000000000E+00  0.13815240177E+04  0.13815240177E+04  0.25500000920E-02 0. -1.
        2   -1    0    0  501    0  0.00000000000E+00  0.00000000000E+00 -0.21785439275E+04  0.21785439275E+04  0.25500000920E-02 0.  1.
    10030    2    1    2    0    0  0.00000000000E+00  0.00000000000E+00 -0.79701990972E+03  0.35600679452E+04  0.34697035951E+04 0.  0.
        2    1    3    3  502    0  0.39469666737E+03  0.12728436879E+04  0.74118147094E+03  0.15248824499E+04  0.25500000920E-02 0. -1.
       -2    1    3    3    0  502 -0.39469666737E+03 -0.12728436879E+04 -0.15382013807E+04  0.20351854954E+04  0.25500000920E-02 0.  1.
</event>
<event>
 5   0  0.3026332E-07  0.3479406E+04  0.7818609E-02  0.8118688E-01
        1   -1    0    0  501    0  0.00000000000E+00  0.00000000000E+00  0.19698511576E+04  0.19698511576E+04  0.50400001928E-02 0. -1.
       -1   -1    0    0    0  501  0.00000000000E+00  0.00000000000E+00 -0.15364443622E+04  0.15364443622E+04  0.50400001928E-02 0.  1.
    10030    2    1    2    0    0  0.00000000000E+00  0.00000000000E+00  0.43340679541E+03  0.35062955198E+04  0.34794061019E+04 0.  0.
        1    1    3    3  502    0 -0.77889326696E+03 -0.14478742618E+04  0.78991571182E+03  0.18240014888E+04  0.50400001928E-02 0. -1.
       -1    1    3    3    0  502  0.77889326696E+03  0.14478742618E+04 -0.35650891641E+03  0.16822940310E+04  0.50400001928E-02 0.  1.
</event>
<event>
 5   0  0.9128871E-07  0.3487539E+04  0.7818609E-02  0.8116749E-01
        2   -1    0    0  501    0  0.00000000000E+00  0.00000000000E+00  0.12192955714E+04  0.12192955714E+04  0.25500000920E-02 0.  1.
       -2   -1    0    0    0  501  0.00000000000E+00  0.00000000000E+00 -0.24938427008E+04  0.24938427008E+04  0.25500000920E-02 0. -1.
    10030    2    1    2    0    0  0.00000000000E+00  0.00000000000E+00 -0.12745471294E+04  0.37131382722E+04  0.34875385938E+04 0.  0.
        1    1    3    3  502    0 -0.70943554189E+03 -0.95833786094E+03 -0.19919898651E+04  0.23215800366E+04  0.50400001928E-02 0. -1.
       -1    1    3    3    0  502  0.70943554189E+03  0.95833786094E+03  0.71744273574E+03  0.13915582355E+04  0.50400001928E-02 0.  1.
</event>
<event>
 5   0  0.9311672E-07  0.3457069E+04  0.7818609E-02  0.8124040E-01
       -2   -1    0    0    0  501  0.00000000000E+00  0.00000000000E+00  0.16616030370E+04  0.16616030370E+04  0.25500000920E-02 0.  1.
        2   -1    0    0  501    0  0.00000000000E+00  0.00000000000E+00 -0.17981620065E+04  0.17981620065E+04  0.25500000920E-02 0. -1.
    10030    2    1    2    0    0  0.00000000000E+00  0.00000000000E+00 -0.13655896951E+03  0.34597650435E+04  0.34570689614E+04 0.  0.
        4    1    3    3  502    0  0.85320011711E+03 -0.27000458952E+03  0.14117169301E+04  0.16714661892E+04  0.12699999809E+01 0.  1.
       -4    1    3    3    0  502 -0.85320011711E+03  0.27000458952E+03 -0.15482758996E+04  0.17882988543E+04  0.12699999809E+01 0. -1.
</event>
<event>
 5   0  0.2972541E-07  0.3623120E+04  0.7818609E-02  0.8085216E-01
       -1   -1    0    0    0  501  0.00000000000E+00  0.00000000000E+00  0.18146442030E+04  0.18146442030E+04  0.50400001928E-02 0.  1.
        1   -1    0    0  501    0  0.00000000000E+00  0.00000000000E+00 -0.18084809090E+04  0.18084809090E+04  0.50400001928E-02 0. -1.
    10030    2    1    2    0    0  0.00000000000E+00  0.00000000000E+00  0.61632940553E+01  0.36231251120E+04  0.36231198698E+04 0.  0.
        3    1    3    3  502    0 -0.13341155508E+04 -0.11197054458E+04 -0.49506041864E+03  0.18107151671E+04  0.10100000352E+00 0. -1.
       -3    1    3    3    0  502  0.13341155508E+04  0.11197054458E+04  0.50122371269E+03  0.18124099449E+04  0.10100000352E+00 0.  1.
</event>
<event>
 5   0  0.6188930E-07  0.3193433E+04  0.7818609E-02  0.8190554E-01
        2   -1    0    0  501    0  0.00000000000E+00  0.00000000000E+00  0.15408203733E+04  0.15408203733E+04  0.25500000920E-02 0. -1.
       -2   -1    0    0    0  501  0.00000000000E+00  0.00000000000E+00 -0.16546399985E+04  0.16546399985E+04  0.25500000920E-02 0.  1.
    10030    2    1    2    0    0  0.00000000000E+00  0.00000000000E+00 -0.11381962515E+03  0.31954603718E+04  0.31934326486E+04 0.  0.
        3    1    3    3  502    0 -0.73351247847E+03  0.87079230404E+02  0.13595736018E+04  0.15472762317E+04  0.10100000352E+00 0. -1.
       -3    1    3    3    0  502  0.73351247847E+03 -0.87079230404E+02 -0.14733932269E+04  0.16481841401E+04  0.10100000352E+00 0.  1.
</event>
<event>
 5   0  0.6188930E-07  0.3444464E+04  0.7818609E-02  0.8127079E-01
        2   -1    0    0  501    0  0.00000000000E+00  0.00000000000E+00  0.15327607903E+04  0.15327607903E+04  0.25500000920E-02 0. -1.
       -2   -1    0    0    0  501  0.00000000000E+00  0.00000000000E+00 -0.19351241121E+04  0.19351241121E+04  0.25500000920E-02 0.  1.
    10030    2    1    2    0    0  0.00000000000E+00  0.00000000000E+00 -0.40236332172E+03  0.34678849024E+04  0.34444635945E+04 0.  0.
        3    1    3    3  502    0  0.74450528519E+03 -0.43160803634E+03 -0.17031394512E+04  0.19082079596E+04  0.10100000352E+00 0.  1.
       -3    1    3    3    0  502 -0.74450528519E+03  0.43160803634E+03  0.13007761295E+04  0.15596769428E+04  0.10100000352E+00 0. -1.
</event>
<event>
 5   0  0.2936607E-07  0.3598477E+04  0.7818609E-02  0.8090841E-01
       -1   -1    0    0    0  501  0.00000000000E+00  0.00000000000E+00  0.20988790234E+04  0.20988790234E+04  0.50400001928E-02 0. -1.
        1   -1    0    0  501    0  0.00000000000E+00  0.00000000000E+00 -0.15423752362E+04  0.15423752363E+04  0.50400001928E-02 0.  1.
    10030    2    1    2    0    0  0.00000000000E+00  0.00000000000E+00  0.55650378720E+03  0.36412542597E+04  0.35984769165E+04 0.  0.
        2    1    3    3  502    0 -0.15433399108E+04  0.21955486585E+03  0.11873509112E+04  0.19595674537E+04  0.25500000920E-02 0. -1.
       -2    1    3    3    0  502  0.15433399108E+04 -0.21955486585E+03 -0.63084712400E+03  0.16816868060E+04  0.25500000920E-02 0.  1.
</event>
<event>
 5   0  0.2972541E-07  0.3500668E+04  0.7818609E-02  0.8113632E-01
       -1   -1    0    0    0  501  0.00000000000E+00  0.00000000000E+00  0.13756346236E+04  0.13756346236E+04  0.50400001928E-02 0. -1.
        1   -1    0    0  501    0  0.00000000000E+00  0.00000000000E+00 -0.22270951017E+04  0.22270951017E+04  0.50400001928E-02 0.  1.
    10030    2    1    2    0    0  0.00000000000E+00  0.00000000000E+00 -0.85146047805E+03  0.36027297253E+04  0.35006680117E+04 0.  0.
        3    1    3    3  502    0  0.17365977691E+04 -0.36096317887E+02 -0.20357965433E+03  0.17488623278E+04  0.10100000352E+00 0. -1.
       -3    1    3    3    0  502 -0.17365977691E+04  0.36096317887E+02 -0.64788082372E+03  0.18538673975E+04  0.10100000352E+00 0.  1.
</event>
<event>
 5   0  0.2933506E-07  0.3535302E+04  0.7818609E-02  0.8105474E-01
        1   -1    0    0  501    0  0.00000000000E+00  0.00000000000E+00  0.15893821410E+04  0.15893821410E+04  0.50400001928E-02 0.  1.
       -1   -1    0    0    0  501  0.00000000000E+00  0.00000000000E+00 -0.19659146230E+04  0.19659146230E+04  0.50400001928E-02 0. -1.
    10030    2    1    2    0    0  0.00000000000E+00  0.00000000000E+00 -0.37653248199E+03  0.35552967640E+04  0.35353017368E+04 0.  0.
        4    1    3    3  502    0 -0.14022554835E+04  0.86591605261E+03  0.45445478045E+03  0.17095794253E+04  0.12699999809E+01 0.  1.
       -4    1    3    3    0  502  0.14022554835E+04 -0.86591605261E+03 -0.83098726244E+03  0.18457173387E+04  0.12699999809E+01 0. -1.
</event>
<event>
 5   0  0.6188930E-07  0.3529067E+04  0.7818609E-02  0.8106936E-01
       -2   -1    0    0    0  501  0.00000000000E+00  0.00000000000E+00  0.19604350701E+04  0.19604350701E+04  0.25500000920E-02 0. -1.
        2   -1    0    0  501    0  0.00000000000E+00  0.00000000000E+00 -0.15882081953E+04  0.15882081953E+04  0.25500000920E-02 0.  1.
    10030    2    1    2    0    0  0.00000000000E+00  0.00000000000E+00  0.37222687473E+03  0.35486432654E+04  0.35290673242E+04 0.  0.
        3    1    3    3  502    0 -0.32756289850E+03 -0.10865718544E+04  0.15447720624E+04  0.19168350430E+04  0.10100000352E+00 0. -1.
       -3    1    3    3    0  502  0.32756289850E+03  0.10865718544E+04 -0.11725451877E+04  0.16318082224E+04  0.10100000352E+00 0.  1.
</event>
<event>
 5   0  0.6188930E-07  0.3493439E+04  0.7818609E-02  0.8115347E-01
        2   -1    0    0  501    0  0.00000000000E+00  0.00000000000E+00  0.19987994398E+04  0.19987994398E+04  0.25500000920E-02 0. -1.
       -2   -1    0    0    0  501  0.00000000000E+00  0.00000000000E+00 -0.15264309206E+04  0.15264309206E+04  0.25500000920E-02 0.  1.
    10030    2    1    2    0    0  0.00000000000E+00  0.00000000000E+00  0.47236851914E+03  0.35252303604E+04  0.34934391474E+04 0.  0.
        3    1    3    3  502    0 -0.60005576855E+01  0.13948907173E+04 -0.82470273871E+03  0.16204600388E+04  0.10100000352E+00 0.  1.
       -3    1    3    3    0  502  0.60005576855E+01 -0.13948907173E+04  0.12970712578E+04  0.19047703216E+04  0.10100000352E+00 0. -1.
</event>
<event>
 5   0  0.9311672E-07  0.3616788E+04  0.7818609E-02  0.8086657E-01
       -2   -1    0    0    0  501  0.00000000000E+00  0.00000000000E+00  0.22696790865E+04  0.22696790865E+04  0.25500000920E-02 0.  1.
        2   -1    0    0  501    0  0.00000000000E+00  0.00000000000E+00 -0.14408596565E+04  0.14408596565E+04  0.25500000920E-02 0. -1.
    10030    2    1    2    0    0  0.00000000000E+00  0.00000000000E+00  0.82881943000E+03  0.37105387430E+04  0.36167880938E+04 0.  0.
        4    1    3    3  502    0 -0.13735866815E+04  0.46761571288E+03  0.15216834116E+04  0.21026000201E+04  0.12699999809E+01 0.  1.
       -4    1    3    3    0  502  0.13735866815E+04 -0.46761571288E+03 -0.69286398164E+03  0.16079387228E+04  0.12699999809E+01 0. -1.
</event>
<event>
 5   0  0.6188930E-07  0.3470043E+04  0.7818609E-02  0.8120926E-01
       -2   -1    0    0    0  501  0.00000000000E+00  0.00000000000E+00  0.17429041490E+04  0.17429041490E+04  0.25500000920E-02 0. -1.
        2   -1    0    0  501    0  0.00000000000E+00  0.00000000000E+00 -0.17271744305E+04  0.17271744305E+04  0.25500000920E-02 0.  1.
    10030    2    1    2    0    0  0.00000000000E+00  0.00000000000E+00  0.15729718505E+02  0.34700785795E+04  0.34700429283E+04 0.  0.
        3    1    3    3  502    0 -0.16164827291E+04  0.12772368264E+03 -0.60936892658E+03  0.17322413953E+04  0.10100000352E+00 0.  1.
       -3    1    3    3    0  502  0.16164827291E+04 -0.12772368264E+03  0.62509864509E+03  0.17378371843E+04  0.10100000352E+00 0. -1.
</event>
<event>
 5   0  0.3061330E-07  0.3449386E+04  0.7818609E-02  0.8125891E-01
        1   -1    0    0  501    0  0.00000000000E+00  0.00000000000E+00  0.20421641164E+04  0.20421641164E+04  0.50400001928E-02 0. -1.
       -1   -1    0    0    0  501  0.00000000000E+00  0.00000000000E+00 -0.14565755920E+04  0.14565755920E+04  0.50400001928E-02 0.  1.
    10030    2    1    2    0    0  0.00000000000E+00  0.00000000000E+00  0.58558852440E+03  0.34987397084E+04  0.34493862682E+04 0.  0.
        5    1    3    3  502    0 -0.15009406539E+04 -0.82179400543E+03  0.51122655066E+03  0.17859291447E+04  0.46999998093E+01 0. -1.
       -5    1    3    3    0  502  0.15009406539E+04  0.82179400543E+03  0.74361973748E+02  0.17128105637E+04  0.46999998093E+01 0.  1.
</event>
<event>
 5   0  0.2933506E-07  0.3594189E+04  0.7818609E-02  0.8091824E-01
       -1   -1    0    0    0  501  0.00000000000E+00  0.00000000000E+00  0.12632779165E+04  0.12632779166E+04  0.50400001928E-02 0.  1.
        1   -1    0    0  501    0  0.00000000000E+00  0.00000000000E+00 -0.25564831916E+04  0.25564831916E+04  0.50400001928E-02 0. -1.
    10030    2    1    2    0    0  0.00000000000E+00  0.00000000000E+00 -0.12932052750E+04  0.38197611082E+04  0.35941890657E+04 0.  0.
        4    1    3    3  502    0  0.91375108744E+03 -0.16177635555E+03 -0.22821607291E+04  0.24636095156E+04  0.12699999809E+01 0. -1.
       -4    1    3    3    0  502 -0.91375108744E+03  0.16177635555E+03  0.98895545404E+03  0.13561515926E+04  0.12699999809E+01 0.  1.
</event>
<event>
 5   0  0.3061330E-07  0.3385435E+04  0.7818609E-02  0.8141490E-01
        1   -1    0    0  501    0  0.00000000000E+00  0.00000000000E+00  0.18089981406E+04  0.18089981406E+04  0.50400001928E-02 0.  1.
       -1   -1    0    0    0  501  0.00000000000E+00  0.00000000000E+00 -0.15839110013E+04  0.15839110014E+04  0.50400001928E-02 0. -1.
    10030    2    1    2    0    0  0.00000000000E+00  0.00000000000E+00  0.22508713924E+03  0.33929091420E+04  0.33854347173E+04 0.  0.
        5    1    3    3  502    0 -0.15230946982E+04  0.73769726545E+03  0.14805131733E+03  0.16988101711E+04  0.46999998093E+01 0.  1.
       -5    1    3    3    0  502  0.15230946982E+04 -0.73769726545E+03  0.77035821916E+02  0.16940989708E+04  0.46999998093E+01 0. -1.
</event>
<event>
 5   0  0.2933506E-07  0.3491692E+04  0.7818609E-02  0.8115762E-01
       -1   -1    0    0    0  501  0.00000000000E+00  0.00000000000E+00  0.13392815768E+04  0.13392815768E+04  0.50400001928E-02 0.  1.
        1   -1    0    0  501    0  0.00000000000E+00  0.00000000000E+00 -0.22758307300E+04  0.22758307300E+04  0.50400001928E-02 0. -1.
    10030    2    1    2    0    0  0.00000000000E+00  0.00000000000E+00 -0.93654915317E+03  0.36151123068E+04  0.34916919501E+04 0.  0.
        4    1    3    3  502    0  0.14909008056E+04 -0.21850012607E+03 -0.13811716974E+04  0.20440558671E+04  0.12699999809E+01 0. -1.
       -4    1    3    3    0  502 -0.14909008056E+04  0.21850012607E+03  0.44462254423E+03  0.15710564398E+04  0.12699999809E+01 0.  1.
</event>
<event>
 5   0  0.6188930E-07  0.3476683E+04  0.7818609E-02  0.8119338E-01
       -2   -1    0    0    0  501  0.00000000000E+00  0.00000000000E+00  0.11396399742E+04  0.11396399742E+04  0.25500000920E-02 0. -1.
        2   -1    0    0  501    0  0.00000000000E+00  0.00000000000E+00 -0.26515671527E+04  0.26515671527E+04  0.25500000920E-02 0.  1.
    10030    2    1    2    0    0  0.00000000000E+00  0.00000000000E+00 -0.15119271785E+04  0.37912071270E+04  0.34766834320E+04 0.  0.
        3    1    3    3  502    0  0.32286987164E+03 -0.62191660368E+03 -0.24907333830E+04  0.25874269094E+04  0.10100000352E+00 0.  1.
       -3    1    3    3    0  502 -0.32286987164E+03  0.62191660368E+03  0.97880620455E+03  0.12037802176E+04  0.10100000352E+00 0. -1.
</event>
<event>
 5   0  0.3026332E-07  0.3473531E+04  0.7818609E-02  0.8120092E-01
        1   -1    0    0  501    0  0.00000000000E+00  0.00000000000E+00  0.16456343946E+04  0.16456343946E+04  0.50400001928E-02 0. -1.
       -1   -1    0    0    0  501  0.00000000000E+00  0.00000000000E+00 -0.18329429580E+04  0.18329429580E+04  0.50400001928E-02 0.  1.
    10030    2    1    2    0    0  0.00000000000E+00  0.00000000000E+00 -0.18730856336E+03  0.34785773526E+04  0.34735307541E+04 0.  0.
        1    1    3    3  502    0  0.11978314395E+04  0.57159235583E+03  0.10281678429E+04  0.16788826915E+04  0.50400001928E-02 0. -1.
       -1    1    3    3    0  502 -0.11978314395E+04 -0.57159235583E+03 -0.12154764062E+04  0.17996946610E+04  0.50400001928E-02 0.  1.
</event>
<event>
 5   0  0.8845195E-07  0.3476872E+04  0.7818609E-02  0.8119293E-01
       -2   -1    0    0    0  501  0.00000000000E+00  0.00000000000E+00  0.12741846473E+04  0.12741846473E+04  0.25500000920E-02 0.  1.
        2   -1    0    0  501    0  0.00000000000E+00  0.00000000000E+00 -0.23718376523E+04  0.23718376523E+04  0.25500000920E-02 0. -1.
    10030    2    1    2    0    0  0.00000000000E+00  0.00000000000E+00 -0.10976530049E+04  0.36460222996E+04  0.34768716528E+04 0.  0.
        5    1    3    3  502    0 -0.11869294614E+04 -0.12158286244E+04 -0.93426252029E+03  0.19390485649E+04  0.46999998093E+01 0. -1.
       -5    1    3    3    0  502  0.11869294614E+04  0.12158286244E+04 -0.16339048463E+03  0.17069737347E+04  0.46999998093E+01 0.  1.
</event>
<event>
 5   0  0.6188930E-07  0.3507580E+04  0.7818609E-02  0.8111996E-01
        2   -1    0    0  501    0  0.00000000000E+00  0.00000000000E+00  0.25652467088E+04  0.25652467088E+04  0.25500000920E-02 0. -1.
       -2   -1    0    0    0  501  0.00000000000E+00  0.00000000000E+00 -0.11990190166E+04  0.11990190166E+04  0.25500000920E-02 0.  1.
    10030    2    1    2    0    0  0.00000000000E+00  0.00000000000E+00  0.13662276922E+04  0.37642657255E+04  0.35075801267E+04 0.  0.
        3    1    3    3  502    0 -0.41916248840E+03  0.53475742984E+03  0.24182564483E+04  0.25118970839E+04  0.10100000352E+00 0. -1.
       -3    1    3    3    0  502  0.41916248840E+03 -0.53475742984E+03 -0.10520287561E+04  0.12523686415E+04  0.10100000352E+00 0.  1.
</event>
<event>
 5   0  0.2972541E-07  0.3343615E+04  0.7818609E-02  0.8151885E-01
       -1   -1    0    0    0  501  0.00000000000E+00  0.00000000000E+00  0.14450681482E+04  0.14450681482E+04  0.50400001928E-02 0.  1.
        1   -1    0    0  501    0  0.00000000000E+00  0.00000000000E+00 -0.19341233862E+04  0.19341233862E+04  0.50400001928E-02 0. -1.
    10030    2    1    2    0    0  0.00000000000E+00  0.00000000000E+00 -0.48905523797E+03  0.33791915345E+04  0.33436148703E+04 0.  0.
        3    1    3    3  502    0  0.32495136172E+02 -0.33799526122E+03 -0.18989068097E+04  0.19290266490E+04  0.10100000352E+00 0. -1.
       -3    1    3    3    0  502 -0.32495136172E+02  0.33799526122E+03  0.14098515717E+04  0.14501648854E+04  0.10100000352E+00 0.  1.
</event>
<event>
 5   0  0.9311672E-07  0.3533696E+04  0.7818609E-02  0.8105851E-01
       -2   -1    0    0    0  501  0.00000000000E+00  0.00000000000E+00  0.16975347914E+04  0.16975347914E+04  0.25500000920E-02 0. -1.
        2   -1    0    0  501    0  0.00000000000E+00  0.00000000000E+00 -0.18389914751E+04  0.18389914751E+04  0.25500000920E-02 0.  1.
    10030    2    1    2    0    0  0.00000000000E+00  0.00000000000E+00 -0.14145668373E+03  0.35365262665E+04  0.35336960877E+04 0.  0.
        4    1    3    3  502    0 -0.60063248152E+03  0.89430003624E+03 -0.14722850651E+04  0.18243236715E+04  0.12699999809E+01 0.  1.
       -4    1    3    3    0  502  0.60063248152E+03 -0.89430003624E+03  0.13308283814E+04  0.17122025950E+04  0.12699999809E+01 0. -1.
</event>
<event>
 5   0  0.8845195E-07  0.3477571E+04  0.7818609E-02  0.8119126E-01
        2   -1    0    0  501    0  0.00000000000E+00  0.00000000000E+00  0.22220960569E+04  0.22220960569E+04  0.25500000920E-02 0.  1.
       -2   -1    0    0    0  501  0.00000000000E+00  0.00000000000E+00 -0.13605959833E+04  0.13605959833E+04  0.25500000920E-02 0. -1.
    10030    2    1    2    0    0  0.00000000000E+00  0.00000000000E+00  0.86150007359E+03  0.35826920402E+04  0.34775709738E+04 0.  0.
        5    1    3    3  502    0 -0.20227171300E+02 -0.17053484861E+04  0.81792560854E+02  0.17074351263E+04  0.46999998093E+01 0. -1.
       -5    1    3    3    0  502  0.20227171300E+02  0.17053484861E+04  0.77970751274E+03  0.18752569139E+04  0.46999998093E+01 0.  1.
</event>
<event>
 5   0  0.2907000E-07  0.3454916E+04  0.7818609E-02  0.8124558E-01
        4   -1    0    0  501    0  0.00000000000E+00  0.00000000000E+00  0.21120461617E+04  0.21120465435E+04  0.12699999809E+01 0. -1.
       -4   -1    0    0    0  501  0.00000000000E+00  0.00000000000E+00 -0.14129000884E+04  0.14129006591E+04  0.12699999809E+01 0.  1.
    10030    2    1    2    0    0  0.00000000000E+00  0.00000000000E+00  0.69914607330E+03  0.35249472026E+04  0.34549164316E+04 0.  0.
        5    1    3    3  502    0  0.17123219420E+04 -0.22355464130E+03  0.30319072485E+03  0.17532740277E+04  0.46999998093E+01 0. -1.
       -5    1    3    3    0  502 -0.17123219420E+04  0.22355464130E+03  0.39595534845E+03  0.17716731749E+04  0.46999998093E+01 0.  1.
</event>
<event>
 5   0  0.2933506E-07  0.3509654E+04  0.7818609E-02  0.8111506E-01
        1   -1    0    0  501    0  0.00000000000E+00  0.00000000000E+00  0.25645841806E+04  0.25645841806E+04  0.50400001928E-02 0. -1.
       -1   -1    0    0    0  501  0.00000000000E+00  0.00000000000E+00 -0.12007475976E+04  0.12007475976E+04  0.50400001928E-02 0.  1.
    10030    2    1    2    0    0  0.00000000000E+00  0.00000000000E+00  0.13638365830E+04  0.37653317782E+04  0.35096542814E+04 0.  0.
        4    1    3    3  502    0 -0.10858308153E+04 -0.13345455323E+04  0.10525973471E+04  0.20169291324E+04  0.12699999809E+01 0. -1.
       -4    1    3    3    0  502  0.10858308153E+04  0.13345455323E+04  0.31123923592E+03  0.17484026458E+04  0.12699999809E+01 0.  1.
</event>
<event>
 5   0  0.3026332E-07  0.3528382E+04  0.7818609E-02  0.8107097E-01
        1   -1    0    0  501    0  0.00000000000E+00  0.00000000000E+00  0.23977831395E+04  0.23977831395E+04  0.50400001928E-02 0. -1.
       -1   -1    0    0    0  501  0.00000000000E+00  0.00000000000E+00 -0.12980195449E+04  0.12980195449E+04  0.50400001928E-02 0.  1.
    10030    2    1    2    0    0  0.00000000000E+00  0.00000000000E+00  0.10997635945E+04  0.36958026844E+04  0.35283817138E+04 0.  0.
        1    1    3    3  502    0 -0.39192293733E+03  0.15923051228E+03 -0.12441069071E+04  0.13140623810E+04  0.50400001928E-02 0.  1.
       -1    1    3    3    0  502  0.39192293733E+03 -0.15923051228E+03  0.23438705016E+04  0.23817403034E+04  0.50400001928E-02 0. -1.
</event>
<event>
 5   0  0.3061330E-07  0.3499779E+04  0.7818609E-02  0.8113842E-01
       -1   -1    0    0    0  501  0.00000000000E+00  0.00000000000E+00  0.25182227916E+04  0.25182227916E+04  0.50400001928E-02 0. -1.
        1   -1    0    0  501    0  0.00000000000E+00  0.00000000000E+00 -0.12159821935E+04  0.12159821935E+04  0.50400001928E-02 0.  1.
    10030    2    1    2    0    0  0.00000000000E+00  0.00000000000E+00  0.13022405981E+04  0.37342049851E+04  0.34997794638E+04 0.  0.
        5    1    3    3  502    0 -0.90597571161E+03 -0.10011898882E+04 -0.53650351609E+03  0.14529388476E+04  0.46999998093E+01 0.  1.
       -5    1    3    3    0  502  0.90597571161E+03  0.10011898882E+04  0.18387441142E+04  0.22812661374E+04  0.46999998093E+01 0. -1.
</event>
<event>
 5   0  0.6188930E-07  0.3510425E+04  0.7818609E-02  0.8111324E-01
       -2   -1    0    0    0  501  0.00000000000E+00  0.00000000000E+00  0.12993077154E+04  0.12993077154E+04  0.25500000920E-02 0.  1.
        2   -1    0    0  501    0  0.00000000000E+00  0.00000000000E+00 -0.23710869753E+04  0.23710869753E+04  0.25500000920E-02 0. -1.
    10030    2    1    2    0    0  0.00000000000E+00  0.00000000000E+00 -0.10717792599E+04  0.36703946907E+04  0.35104253879E+04 0.  0.
        3    1    3    3  502    0 -0.88456555130E+03  0.79840313248E+03  0.81158487171E+03  0.14417259763E+04  0.10100000352E+00 0.  1.
       -3    1    3    3    0  502  0.88456555130E+03 -0.79840313248E+03 -0.18833641316E+04  0.22286687145E+04  0.10100000352E+00 0. -1.
</event>
<event>
 5   0  0.2933506E-07  0.3458974E+04  0.7818609E-02  0.8123582E-01
        1   -1    0    0  501    0  0.00000000000E+00  0.00000000000E+00  0.15209520633E+04  0.15209520634E+04  0.50400001928E-02 0. -1.
       -1   -1    0    0    0  501  0.00000000000E+00  0.00000000000E+00 -0.19666135152E+04  0.19666135152E+04  0.50400001928E-02 0.  1.
    10030    2    1    2    0    0  0.00000000000E+00  0.00000000000E+00 -0.44566145186E+03  0.34875655786E+04  0.34589737691E+04 0.  0.
        4    1    3    3  502    0 -0.49139091985E+03  0.86649464514E+02 -0.18924625969E+04  0.19571380788E+04  0.12699999809E+01 0.  1.
       -4    1    3    3    0  502  0.49139091985E+03 -0.86649464514E+02  0.14468011451E+04  0.15304274998E+04  0.12699999809E+01 0. -1.
</event>
<event>
 5   0  0.9128871E-07  0.3367487E+04  0.7818609E-02  0.8145932E-01
       -2   -1    0    0    0  501  0.00000000000E+00  0.00000000000E+00  0.13369783037E+04  0.13369783037E+04  0.25500000920E-02 0.  1.
        2   -1    0    0  501    0  0.00000000000E+00  0.00000000000E+00 -0.21204479928E+04  0.21204479928E+04  0.25500000920E-02 0. -1.
    10030    2    1    2    0    0  0.00000000000E+00  0.00000000000E+00 -0.78346968910E+03  0.34574262965E+04  0.33674874672E+04 0.  0.
        1    1    3    3  502    0 -0.48645686647E+03  0.15041601315E+04 -0.98674288773E+03  0.18635448776E+04  0.50400001928E-02 0. -1.
       -1    1    3    3    0  502  0.48645686647E+03 -0.15041601315E+04  0.20327319864E+03  0.15938814189E+04  0.50400001928E-02 0.  1.
</event>
<event>
 5   0  0.2972541E-07  0.3505602E+04  0.7818609E-02  0.8112464E-01
       -1   -1    0    0    0  501  0.00000000000E+00  0.00000000000E+00  0.16775345921E+04  0.16775345921E+04  0.50400001928E-02 0. -1.
        1   -1    0    0  501    0  0.00000000000E+00  0.00000000000E+00 -0.18314448903E+04  0.18314448903E+04  0.50400001928E-02 0.  1.
    10030    2    1    2    0    0  0.00000000000E+00  0.00000000000E+00 -0.15391029824E+03  0.35089794824E+04  0.35056024630E+04 0.  0.
        3    1    3    3  502    0 -0.15452459244E+04  0.62119782914E+03  0.47005132919E+03  0.17304970303E+04  0.10100000352E+00 0. -1.
       -3    1    3    3    0  502  0.15452459244E+04 -0.62119782914E+03 -0.62396162744E+03  0.17784824521E+04  0.10100000352E+00 0.  1.
</event>
<event>
 5   0  0.8845195E-07  0.3339615E+04  0.7818609E-02  0.8152888E-01
        2   -1    0    0  501    0  0.00000000000E+00  0.00000000000E+00  0.19755479491E+04  0.19755479491E+04  0.25500000920E-02 0.  1.
       -2   -1    0    0    0  501  0.00000000000E+00  0.00000000000E+00 -0.14113843830E+04  0.14113843830E+04  0.25500000920E-02 0. -1.
    10030    2    1    2    0    0  0.00000000000E+00  0.00000000000E+00  0.56416356607E+03  0.33869323321E+04  0.33396152613E+04 0.  0.
        5    1    3    3  502    0  0.40529211498E+03 -0.71672993050E+03  0.17553414355E+04  0.19388680040E+04  0.46999998093E+01 0.  1.
       -5    1    3    3    0  502 -0.40529211498E+03  0.71672993050E+03 -0.11911778694E+04  0.14480643281E+04  0.46999998093E+01 0. -1.
</event>
<event>
 5   0  0.3061330E-07  0.3494074E+04  0.7818609E-02  0.8115196E-01
        1   -1    0    0  501    0  0.00000000000E+00  0.00000000000E+00  0.32068301195E+04  0.32068301195E+04  0.50400001928E-02 0. -1.
       -1   -1    0    0    0  501  0.00000000000E+00  0.00000000000E+00 -0.95176177541E+03  0.95176177542E+03  0.50400001928E-02 0.  1.
    10030    2    1    2    0    0  0.00000000000E+00  0.00000000000E+00  0.22550683441E+04  0.41585918949E+04  0.34940740278E+04 0.  0.
        5    1    3    3  502    0  0.14289040933E+04  0.94971879756E+03  0.73570581959E+03  0.18668202499E+04  0.46999998093E+01 0.  1.
       -5    1    3    3    0  502 -0.14289040933E+04 -0.94971879756E+03  0.15193625245E+04  0.22917716451E+04  0.46999998093E+01 0. -1.
</event>
<event>
 5   0  0.6188930E-07  0.3450711E+04  0.7818609E-02  0.8125571E-01
        2   -1    0    0  501    0  0.00000000000E+00  0.00000000000E+00  0.22774513201E+04  0.22774513201E+04  0.25500000920E-02 0. -1.
       -2   -1    0    0    0  501  0.00000000000E+00  0.00000000000E+00 -0.13070980392E+04  0.13070980392E+04  0.25500000920E-02 0.  1.
    10030    2    1    2    0    0  0.00000000000E+00  0.00000000000E+00  0.97035328092E+03  0.35845493593E+04  0.34507113208E+04 0.  0.
        3    1    3    3  502    0  0.68492476545E+02 -0.16723146569E+04  0.49970565237E+02  0.16744624805E+04  0.10100000352E+00 0.  1.
       -3    1    3    3    0  502 -0.68492476545E+02  0.16723146569E+04  0.92038271568E+03  0.19100868788E+04  0.10100000352E+00 0. -1.
</event>
<event>
 5   0  0.6188930E-07  0.3499672E+04  0.7818609E-02  0.8113868E-01
        2   -1    0    0  501    0  0.00000000000E+00  0.00000000000E+00  0.19941989318E+04  0.19941989318E+04  0.25500000920E-02 0. -1.
       -2   -1    0    0    0  501  0.00000000000E+00  0.00000000000E+00 -0.15354166046E+04  0.15354166046E+04  0.25500000920E-02 0.  1.
    10030    2    1    2    0    0  0.00000000000E+00  0.00000000000E+00  0.45878232725E+03  0.35296155364E+04  0.34996720720E+04 0.  0.
        3    1    3    3  502    0  0.11246607793E+02 -0.27469717682E+03 -0.15134979514E+04  0.15382656091E+04  0.10100000352E+00 0.  1.
       -3    1    3    3    0  502 -0.11246607793E+02  0.27469717682E+03  0.19722802787E+04  0.19913499273E+04  0.10100000352E+00 0. -1.
</event>
<event>
 5   0  0.8845195E-07  0.3504265E+04  0.7818609E-02  0.8112780E-01
        2   -1    0    0  501    0  0.00000000000E+00  0.00000000000E+00  0.12845067429E+04  0.12845067429E+04  0.25500000920E-02 0. -1.
       -2   -1    0    0    0  501  0.00000000000E+00  0.00000000000E+00 -0.23899974087E+04  0.23899974087E+04  0.25500000920E-02 0.  1.
    10030    2    1    2    0    0  0.00000000000E+00  0.00000000000E+00 -0.11054906658E+04  0.36745041516E+04  0.35042647086E+04 0.  0.
        5    1    3    3  502    0  0.17434354835E+04 -0.13748228403E+03 -0.66508073931E+03  0.18710486748E+04  0.46999998093E+01 0. -1.
       -5    1    3    3    0  502 -0.17434354835E+04  0.13748228403E+03 -0.44040992653E+03  0.18034554769E+04  0.46999998093E+01 0.  1.
</event>
<event>
 5   0  0.2936607E-07  0.3430259E+04  0.7818609E-02  0.8130520E-01
        1   -1    0    0  501    0  0.00000000000E+00  0.00000000000E+00  0.21628184639E+04  0.21628184639E+04  0.50400001928E-02 0. -1.
       -1   -1    0    0    0  501  0.00000000000E+00  0.00000000000E+00 -0.13601088305E+04  0.13601088305E+04  0.50400001928E-02 0.  1.
    10030    2    1    2    0    0  0.00000000000E+00  0.00000000000E+00  0.80270963342E+03  0.35229272945E+04  0.34302585860E+04 0.  0.
        2    1    3    3  502    0  0.40822161037E+03 -0.14012063124E+04  0.13266061928E+04  0.19722849702E+04  0.25500000920E-02 0. -1.
       -2    1    3    3    0  502 -0.40822161037E+03  0.14012063124E+04 -0.52389655935E+03  0.15506423243E+04  0.25500000920E-02 0.  1.
</event>
<event>
 5   0  0.8950809E-07  0.3506116E+04  0.7818609E-02  0.8112342E-01
        2   -1    0    0  501    0  0.00000000000E+00  0.00000000000E+00  0.24768954856E+04  0.24768954856E+04  0.25500000920E-02 0. -1.
       -2   -1    0    0    0  501  0.00000000000E+00  0.00000000000E+00 -0.12407519274E+04  0.12407519274E+04  0.25500000920E-02 0.  1.
    10030    2    1    2    0    0  0.00000000000E+00  0.00000000000E+00  0.12361435582E+04  0.37176474130E+04  0.35061162831E+04 0.  0.
        2    1    3    3  502    0  0.38972401185E+03  0.96092843522E+03  0.21168369831E+04  0.23571735354E+04  0.25500000920E-02 0. -1.
       -2    1    3    3    0  502 -0.38972401185E+03 -0.96092843522E+03 -0.88069342484E+03  0.13604738776E+04  0.25500000920E-02 0.  1.
</event>
<event>
 5   0  0.6188930E-07  0.3537520E+04  0.7818609E-02  0.8104955E-01
       -2   -1    0    0    0  501  0.00000000000E+00  0.00000000000E+00  0.21109208086E+04  0.21109208086E+04  0.25500000920E-02 0.  1.
        2   -1    0    0  501    0  0.00000000000E+00  0.00000000000E+00 -0.14820600373E+04  0.14820600373E+04  0.25500000920E-02 0. -1.
    10030    2    1    2    0    0  0.00000000000E+00  0.00000000000E+00  0.62886077134E+03  0.35929808459E+04  0.35375196804E+04 0.  0.
        3    1    3    3  502    0  0.73255449316E+02  0.16155520234E+04  0.10419966595E+04  0.19238325681E+04  0.10100000352E+00 0.  1.
       -3    1    3    3    0  502 -0.73255449316E+02 -0.16155520234E+04 -0.41313588821E+03  0.16691482779E+04  0.10100000352E+00 0. -1.
</event>
<event>
 5   0  0.3026332E-07  0.3817462E+04  0.7818609E-02  0.8042418E-01
       -1   -1    0    0    0  501  0.00000000000E+00  0.00000000000E+00  0.17580075051E+04  0.17580075051E+04  0.50400001928E-02 0. -1.
        1   -1    0    0  501    0  0.00000000000E+00  0.00000000000E+00 -0.20723769108E+04  0.20723769108E+04  0.50400001928E-02 0.  1.
    10030    2    1    2    0    0  0.00000000000E+00  0.00000000000E+00 -0.31436940570E+03  0.38303844160E+04  0.38174620693E+04 0.  0.
        1    1    3    3  502    0  0.16995066195E+04  0.11292918196E+03 -0.10215986995E+04  0.19861368665E+04  0.50400001928E-02 0.  1.
       -1    1    3    3    0  502 -0.16995066195E+04 -0.11292918196E+03  0.70722929378E+03  0.18442475495E+04  0.50400001928E-02 0. -1.
</event>
<event>
 5   0  0.6188930E-07  0.3492158E+04  0.7818609E-02  0.8115651E-01
        2   -1    0    0  501    0  0.00000000000E+00  0.00000000000E+00  0.16301674686E+04  0.16301674686E+04  0.25500000920E-02 0. -1.
       -2   -1    0    0    0  501  0.00000000000E+00  0.00000000000E+00 -0.18702327396E+04  0.18702327396E+04  0.25500000920E-02 0.  1.
    10030    2    1    2    0    0  0.00000000000E+00  0.00000000000E+00 -0.24006527097E+03  0.35004002082E+04  0.34921583989E+04 0.  0.
        3    1    3    3  502    0  0.30954942421E+03  0.10309409064E+04  0.12580329860E+04  0.16556892833E+04  0.10100000352E+00 0.  1.
       -3    1    3    3    0  502 -0.30954942421E+03 -0.10309409064E+04 -0.14980982570E+04  0.18447109249E+04  0.10100000352E+00 0. -1.
</event>
<event>
 5   0  0.2933506E-07  0.3510381E+04  0.7818609E-02  0.8111334E-01
       -1   -1    0    0    0  501  0.00000000000E+00  0.00000000000E+00  0.15472870567E+04  0.15472870567E+04  0.50400001928E-02 0. -1.
        1   -1    0    0  501    0  0.00000000000E+00  0.00000000000E+00 -0.19910294500E+04  0.19910294500E+04  0.50400001928E-02 0.  1.
    10030    2    1    2    0    0  0.00000000000E+00  0.00000000000E+00 -0.44374239329E+03  0.35383165067E+04  0.35103812314E+04 0.  0.
        4    1    3    3  502    0  0.12503319181E+04 -0.94955236744E+03  0.56904690289E+03  0.16699687406E+04  0.12699999809E+01 0. -1.
       -4    1    3    3    0  502 -0.12503319181E+04  0.94955236744E+03 -0.10127892962E+04  0.18683477661E+04  0.12699999809E+01 0.  1.
</event>
<event>
 5   0  0.6188930E-07  0.3357116E+04  0.7818609E-02  0.8148512E-01
        2   -1    0    0  501    0  0.00000000000E+00  0.00000000000E+00  0.18282427270E+04  0.18282427270E+04  0.25500000920E-02 0. -1.
       -2   -1    0    0    0  501  0.00000000000E+00  0.00000000000E+00 -0.15411286407E+04  0.15411286407E+04  0.25500000920E-02 0.  1.
    10030    2    1    2    0    0  0.00000000000E+00  0.00000000000E+00  0.28711408633E+03  0.33693713676E+04  0.33571161604E+04 0.  0.
        3    1    3    3  502    0  0.63488820459E+02  0.78782979320E+03  0.16297905044E+04  0.18113320269E+04  0.10100000352E+00 0. -1.
       -3    1    3    3    0  502 -0.63488820459E+02 -0.78782979320E+03 -0.13426764181E+04  0.15580393407E+04  0.10100000352E+00 0.  1.
</event>
<event>
 5   0  0.2972541E-07  0.2811181E+04  0.7818609E-02  0.8299806E-01
       -1   -1    0    0    0  501  0.00000000000E+00  0.00000000000E+00  0.93094275821E+03  0.93094275822E+03  0.50400001928E-02 0. -1.
        1   -1    0    0  501    0  0.00000000000E+00  0.00000000000E+00 -0.21222405166E+04  0.21222405166E+04  0.50400001928E-02 0.  1.
    10030    2    1    2    0    0  0.00000000000E+00  0.00000000000E+00 -0.11912977584E+04  0.30531832748E+04  0.28111808480E+04 0.  0.
        3    1    3    3  502    0  0.12904539673E+04 -0.10543118820E+03 -0.11898253562E+04  0.17584287207E+04  0.10100000352E+00 0. -1.
       -3    1    3    3    0  502 -0.12904539673E+04  0.10543118820E+03 -0.14724021618E+01  0.12947545541E+04  0.10100000352E+00 0.  1.
</event>
<event>
 5   0  0.8950809E-07  0.3518844E+04  0.7818609E-02  0.8109339E-01
       -2   -1    0    0    0  501  0.00000000000E+00  0.00000000000E+00  0.18437648286E+04  0.18437648286E+04  0.25500000920E-02 0.  1.
        2   -1    0    0  501    0  0.00000000000E+00  0.00000000000E+00 -0.16789373675E+04  0.16789373675E+04  0.25500000920E-02 0. -1.
    10030    2    1    2    0    0  0.00000000000E+00  0.00000000000E+00  0.16482746107E+03  0.35227021960E+04  0.35188439394E+04 0.  0.
        2    1    3    3  502    0  0.14116842426E+04  0.34748841431E+03  0.10744417602E+04  0.18077681530E+04  0.25500000920E-02 0.  1.
       -2    1    3    3    0  502 -0.14116842426E+04 -0.34748841431E+03 -0.90961429913E+03  0.17149340431E+04  0.25500000920E-02 0. -1.
</event>
<event>
 5   0  0.3061330E-07  0.3401647E+04  0.7818609E-02  0.8137502E-01
       -1   -1    0    0    0  501  0.00000000000E+00  0.00000000000E+00  0.12710639498E+04  0.12710639498E+04  0.50400001928E-02 0.  1.
        1   -1    0    0  501    0  0.00000000000E+00  0.00000000000E+00 -0.22758897408E+04  0.22758897408E+04  0.50400001928E-02 0. -1.
    10030    2    1    2    0    0  0.00000000000E+00  0.00000000000E+00 -0.10048257910E+04  0.35469536906E+04  0.34016474851E+04 0.  0.
        5    1    3    3  502    0 -0.12058420454E+04  0.70214597205E+03 -0.15164326659E+04  0.20607411591E+04  0.46999998093E+01 0. -1.
       -5    1    3    3    0  502  0.12058420454E+04 -0.70214597205E+03  0.51160687489E+03  0.14862125315E+04  0.46999998093E+01 0.  1.
</event>
<event>
 5   0  0.2936607E-07  0.3514118E+04  0.7818609E-02  0.8110452E-01
        1   -1    0    0  501    0  0.00000000000E+00  0.00000000000E+00  0.25165508585E+04  0.25165508585E+04  0.50400001928E-02 0.  1.
       -1   -1    0    0    0  501  0.00000000000E+00  0.00000000000E+00 -0.12267806529E+04  0.12267806530E+04  0.50400001928E-02 0. -1.
    10030    2    1    2    0    0  0.00000000000E+00  0.00000000000E+00  0.12897702055E+04  0.37433315114E+04  0.35141177586E+04 0.  0.
        2    1    3    3  502    0  0.26410089719E+03 -0.12599731473E+04  0.19186993265E+04  0.23105602614E+04  0.25500000920E-02 0.  1.
       -2    1    3    3    0  502 -0.26410089719E+03  0.12599731473E+04 -0.62892912095E+03  0.14327712501E+04  0.25500000920E-02 0. -1.
</event>
<event>
 5   0  0.3061330E-07  0.3523631E+04  0.7818609E-02  0.8108212E-01
        1   -1    0    0  501    0  0.00000000000E+00  0.00000000000E+00  0.21879405689E+04  0.21879405689E+04  0.50400001928E-02 0. -1.
       -1   -1    0    0    0  501  0.00000000000E+00  0.00000000000E+00 -0.14186827078E+04  0.14186827078E+04  0.50400001928E-02 0.  1.
    10030    2    1    2    0    0  0.00000000000E+00  0.00000000000E+00  0.76925786113E+03  0.36066232766E+04  0.35236307699E+04 0.  0.
        5    1    3    3  502    0 -0.11328605625E+04  0.54370785716E+03 -0.87935767511E+03  0.15337155208E+04  0.46999998093E+01 0.  1.
       -5    1    3    3    0  502  0.11328605625E+04 -0.54370785716E+03  0.16486155362E+04  0.20729077559E+04  0.46999998093E+01 0. -1.
</event>
<event>
 5   0  0.6188930E-07  0.3561591E+04  0.7818609E-02  0.8099347E-01
        2   -1    0    0  501    0  0.00000000000E+00  0.00000000000E+00  0.20657606085E+04  0.20657606085E+04  0.25500000920E-02 0. -1.
       -2   -1    0    0    0  501  0.00000000000E+00  0.00000000000E+00 -0.15351403591E+04  0.15351403591E+04  0.25500000920E-02 0.  1.
    10030    2    1    2    0    0  0.00000000000E+00  0.00000000000E+00  0.53062024939E+03  0.36009009676E+04  0.35615909268E+04 0.  0.
        3    1    3    3  502    0  0.52653609662E+03  0.10417791681E+04  0.16250286513E+04  0.20008153898E+04  0.10100000352E+00 0. -1.
       -3    1    3    3    0  502 -0.52653609662E+03 -0.10417791681E+04 -0.10944084019E+04  0.16000855779E+04  0.10100000352E+00 0.  1.
</event>
<event>
 5   0  0.3061330E-07  0.3473549E+04  0.7818609E-02  0.8120087E-01
       -1   -1    0    0    0  501  0.00000000000E+00  0.00000000000E+00  0.15660202344E+04  0.15660202344E+04  0.50400001928E-02 0. -1.
        1   -1    0    0  501    0  0.00000000000E+00  0.00000000000E+00 -0.19261476391E+04  0.19261476391E+04  0.50400001928E-02 0.  1.
    10030    2    1    2    0    0  0.00000000000E+00  0.00000000000E+00 -0.36012740472E+03  0.34921678736E+04  0.34735492957E+04 0.  0.
        5    1    3    3  502    0  0.36801173405E+02  0.21770572271E+03  0.15518464186E+04  0.15674818994E+04  0.46999998093E+01 0. -1.
       -5    1    3    3    0  502 -0.36801173405E+02 -0.21770572271E+03 -0.19119738233E+04  0.19246859742E+04  0.46999998093E+01 0.  1.
</event>
<event>
 5   0  0.9128871E-07  0.3560912E+04  0.7818609E-02  0.8099504E-01
       -2   -1    0    0    0  501  0.00000000000E+00  0.00000000000E+00  0.20659036304E+04  0.20659036304E+04  0.25500000920E-02 0. -1.
        2   -1    0    0  501    0  0.00000000000E+00  0.00000000000E+00 -0.15344488198E+04  0.15344488198E+04  0.25500000920E-02 0.  1.
    10030    2    1    2    0    0  0.00000000000E+00  0.00000000000E+00  0.53145481060E+03  0.36003524501E+04  0.35609118986E+04 0.  0.
        1    1    3    3  502    0  0.10539544515E+04  0.58337415281E+03 -0.10598537302E+04  0.16045046954E+04  0.50400001928E-02 0.  1.
       -1    1    3    3    0  502 -0.10539544515E+04 -0.58337415281E+03  0.15913085408E+04  0.19958477547E+04  0.50400001928E-02 0. -1.
</event>
<event>
 5   0  0.6188930E-07  0.3518525E+04  0.7818609E-02  0.8109414E-01
       -2   -1    0    0    0  501  0.00000000000E+00  0.00000000000E+00  0.18919894538E+04  0.18919894538E+04  0.25500000920E-02 0. -1.
        2   -1    0    0  501    0  0.00000000000E+00  0.00000000000E+00 -0.16358462895E+04  0.16358462895E+04  0.25500000920E-02 0.  1.
    10030    2    1    2    0    0  0.00000000000E+00  0.00000000000E+00  0.25614316435E+03  0.35278357433E+04  0.35185246498E+04 0.  0.
        3    1    3    3  502    0  0.81296895025E+03  0.43062694975E+03  0.16315883900E+04  0.18730826914E+04  0.10100000352E+00 0.  1.
       -3    1    3    3    0  502 -0.81296895025E+03 -0.43062694975E+03 -0.13754452257E+04  0.16547530520E+04  0.10100000352E+00 0. -1.
</event>
<event>
 5   0  0.8845195E-07  0.3644987E+04  0.7818609E-02  0.8080264E-01
       -2   -1    0    0    0  501  0.00000000000E+00  0.00000000000E+00  0.12036074268E+04  0.12036074268E+04  0.25500000920E-02 0. -1.
        2   -1    0    0  501    0  0.00000000000E+00  0.00000000000E+00 -0.27596065885E+04  0.27596065885E+04  0.25500000920E-02 0.  1.
    10030    2    1    2    0    0  0.00000000000E+00  0.00000000000E+00 -0.15559991617E+04  0.39632140153E+04  0.36449872346E+04 0.  0.
        5    1    3    3  502    0  0.14733095727E+03 -0.11701950107E+04 -0.22886881966E+04  0.25747191158E+04  0.46999998093E+01 0.  1.
       -5    1    3    3    0  502 -0.14733095727E+03  0.11701950107E+04  0.73268903490E+03  0.13884948995E+04  0.46999998093E+01 0. -1.
</event>
<event>
 5   0  0.2972541E-07  0.3512690E+04  0.7818609E-02  0.8110789E-01
       -1   -1    0    0    0  501  0.00000000000E+00  0.00000000000E+00  0.20388706851E+04  0.20388706851E+04  0.50400001928E-02 0.  1.
        1   -1    0    0  501    0  0.00000000000E+00  0.00000000000E+00 -0.15129684879E+04  0.15129684879E+04  0.50400001928E-02 0. -1.
    10030    2    1    2    0    0  0.00000000000E+00  0.00000000000E+00  0.52590219722E+03  0.35518391730E+04  0.35126896234E+04 0.  0.
        3    1    3    3  502    0 -0.60466632285E+03 -0.12702971717E+04 -0.80018081901E+03  0.16185072195E+04  0.10100000352E+00 0. -1.
       -3    1    3    3    0  502  0.60466632285E+03  0.12702971717E+04  0.13260830162E+04  0.19333319535E+04  0.10100000352E+00 0.  1.
</event>
<event>
 5   0  0.3061330E-07  0.3567034E+04  0.7818609E-02  0.8098085E-01
        1   -1    0    0  501    0  0.00000000000E+00  0.00000000000E+00  0.30038044573E+04  0.30038044573E+04  0.50400001928E-02 0.  1.
       -1   -1    0    0    0  501  0.00000000000E+00  0.00000000000E+00 -0.10589680303E+04  0.10589680303E+04  0.50400001928E-02 0. -1.
    10030    2    1    2    0    0  0.00000000000E+00  0.00000000000E+00  0.19448364270E+04  0.40627724876E+04  0.35670340001E+04 0.  0.
        5    1    3    3  502    0  0.12439852926E+04 -0.10927289365E+04  0.21745989885E+03  0.16699900702E+04  0.46999998093E+01 0. -1.
       -5    1    3    3    0  502 -0.12439852926E+04  0.10927289365E+04  0.17273765281E+04  0.23927824174E+04  0.46999998093E+01 0.  1.
</event>
<event>
 5   0  0.6188930E-07  0.3488035E+04  0.7818609E-02  0.8116631E-01
       -2   -1    0    0    0  501  0.00000000000E+00  0.00000000000E+00  0.15733528374E+04  0.15733528374E+04  0.25500000920E-02 0. -1.
        2   -1    0    0  501    0  0.00000000000E+00  0.00000000000E+00 -0.19331941506E+04  0.19331941506E+04  0.25500000920E-02 0.  1.
    10030    2    1    2    0    0  0.00000000000E+00  0.00000000000E+00 -0.35984131324E+03  0.35065469880E+04  0.34880346914E+04 0.  0.
        3    1    3    3  502    0 -0.14420753193E+04 -0.97124962718E+03 -0.31735550266E+03  0.17673770368E+04  0.10100000352E+00 0. -1.
       -3    1    3    3    0  502  0.14420753193E+04  0.97124962718E+03 -0.42485810580E+02  0.17391699512E+04  0.10100000352E+00 0.  1.
</event>
<event>
 5   0  0.2936607E-07  0.3423206E+04  0.7818609E-02  0.8132234E-01
       -1   -1    0    0    0  501  0.00000000000E+00  0.00000000000E+00  0.15095157736E+04  0.15095157736E+04  0.50400001928E-02 0. -1.
        1   -1    0    0  501    0  0.00000000000E+00  0.00000000000E+00 -0.19407444244E+04  0.19407444244E+04  0.50400001928E-02 0.  1.
    10030    2    1    2    0    0  0.00000000000E+00  0.00000000000E+00 -0.43122865079E+03  0.34502601979E+04  0.34232057029E+04 0.  0.
        2    1    3    3  502    0  0.82918798232E+03 -0.11146405234E+02  0.12935192568E+04  0.15365119655E+04  0.25500000920E-02 0. -1.
       -2    1    3    3    0  502 -0.82918798232E+03  0.11146405234E+02 -0.17247479076E+04  0.19137482324E+04  0.25500000920E-02 0.  1.
</event>
<event>
 5   0  0.9128871E-07  0.3481859E+04  0.7818609E-02  0.8118103E-01
       -2   -1    0    0    0  501  0.00000000000E+00  0.00000000000E+00  0.22920776506E+04  0.22920776506E+04  0.25500000920E-02 0. -1.
        2   -1    0    0  501    0  0.00000000000E+00  0.00000000000E+00 -0.13223090270E+04  0.13223090270E+04  0.25500000920E-02 0.  1.
    10030    2    1    2    0    0  0.00000000000E+00  0.00000000000E+00  0.96976862365E+03  0.36143866776E+04  0.34818586806E+04 0.  0.
        1    1    3    3  502    0  0.13344025446E+04 -0.76905996626E+03 -0.35764362288E+03  0.15811364089E+04  0.50400001928E-02 0.  1.
       -1    1    3    3    0  502 -0.13344025446E+04  0.76905996626E+03  0.13274122465E+04  0.20332502686E+04  0.50400001928E-02 0. -1.
</event>
<event>
 5   0  0.3061330E-07  0.3493189E+04  0.7818609E-02  0.8115406E-01
        1   -1    0    0  501    0  0.00000000000E+00  0.00000000000E+00  0.22223595092E+04  0.22223595092E+04  0.50400001928E-02 0.  1.
       -1   -1    0    0    0  501  0.00000000000E+00  0.00000000000E+00 -0.13726818502E+04  0.13726818502E+04  0.50400001928E-02 0. -1.
    10030    2    1    2    0    0  0.00000000000E+00  0.00000000000E+00  0.84967765904E+03  0.35950413594E+04  0.34931891233E+04 0.  0.
        5    1    3    3  502    0  0.98363245858E+03 -0.70221154433E+03 -0.87285337619E+03  0.14908148687E+04  0.46999998093E+01 0. -1.
       -5    1    3    3    0  502 -0.98363245858E+03  0.70221154433E+03  0.17225310352E+04  0.21042264906E+04  0.46999998093E+01 0.  1.
</event>
<event>
 5   0  0.3026332E-07  0.3516375E+04  0.7818609E-02  0.8109920E-01
       -1   -1    0    0    0  501  0.00000000000E+00  0.00000000000E+00  0.27420608548E+04  0.27420608548E+04  0.50400001928E-02 0.  1.
        1   -1    0    0  501    0  0.00000000000E+00  0.00000000000E+00 -0.11273360791E+04  0.11273360791E+04  0.50400001928E-02 0. -1.
    10030    2    1    2    0    0  0.00000000000E+00  0.00000000000E+00  0.16147247757E+04  0.38693969339E+04  0.35163754821E+04 0.  0.
        1    1    3    3  502    0  0.10913329295E+03 -0.88817887977E+03  0.24727244581E+04  0.26296650060E+04  0.50400001928E-02 0.  1.
       -1    1    3    3    0  502 -0.10913329295E+03  0.88817887977E+03 -0.85799968240E+03  0.12397319279E+04  0.50400001928E-02 0. -1.
</event>
<event>
 5   0  0.3026332E-07  0.3526862E+04  0.7818609E-02  0.8107453E-01
       -1   -1    0    0    0  501  0.00000000000E+00  0.00000000000E+00  0.24162438042E+04  0.24162438042E+04  0.50400001928E-02 0. -1.
        1   -1    0    0  501    0  0.00000000000E+00  0.00000000000E+00 -0.12869926506E+04  0.12869926506E+04  0.50400001928E-02 0.  1.
    10030    2    1    2    0    0  0.00000000000E+00  0.00000000000E+00  0.11292511536E+04  0.37032364548E+04  0.35268615046E+04 0.  0.
        1    1    3    3  502    0  0.89991384851E+03  0.13903706251E+03 -0.10210312331E+04  0.13680939363E+04  0.50400001928E-02 0.  1.
       -1    1    3    3    0  502 -0.89991384851E+03 -0.13903706251E+03  0.21502823867E+04  0.23351425185E+04  0.50400001928E-02 0. -1.
</event>
<event>
 5   0  0.2936607E-07  0.3521158E+04  0.7818609E-02  0.8108794E-01
        1   -1    0    0  501    0  0.00000000000E+00  0.00000000000E+00  0.17295084276E+04  0.17295084276E+04  0.50400001928E-02 0.  1.
       -1   -1    0    0    0  501  0.00000000000E+00  0.00000000000E+00 -0.17922075939E+04  0.17922075939E+04  0.50400001928E-02 0. -1.
    10030    2    1    2    0    0  0.00000000000E+00  0.00000000000E+00 -0.62699166280E+02  0.35217160216E+04  0.35211578424E+04 0.  0.
        2    1    3    3  502    0  0.10344865150E+03 -0.53709844930E+03 -0.17050728898E+04  0.17906562839E+04  0.25500000920E-02 0. -1.
       -2    1    3    3    0  502 -0.10344865150E+03  0.53709844930E+03  0.16423737235E+04  0.17310597377E+04  0.25500000920E-02 0.  1.
</event>
<event>
 5   0  0.9311672E-07  0.2964461E+04  0.7818609E-02  0.8253953E-01
        2   -1    0    0  501    0  0.00000000000E+00  0.00000000000E+00  0.13231094302E+04  0.13231094302E+04  0.25500000920E-02 0. -1.
       -2   -1    0    0    0  501  0.00000000000E+00  0.00000000000E+00 -0.16604878831E+04  0.16604878831E+04  0.25500000920E-02 0.  1.
    10030    2    1    2    0    0  0.00000000000E+00  0.00000000000E+00 -0.33737845294E+03  0.29835973134E+04  0.29644609472E+04 0.  0.
        4    1    3    3  502    0  0.43621750628E+03  0.76827193537E+03 -0.13665308597E+04  0.16272478861E+04  0.12699999809E+01 0.  1.
       -4    1    3    3    0  502 -0.43621750628E+03 -0.76827193537E+03  0.10291524068E+04  0.13563494272E+04  0.12699999809E+01 0. -1.
</event>
<event>
 5   0  0.6188930E-07  0.3499523E+04  0.7818609E-02  0.8113903E-01
        2   -1    0    0  501    0  0.00000000000E+00  0.00000000000E+00  0.13556480518E+04  0.13556480518E+04  0.25500000920E-02 0.  1.
       -2   -1    0    0    0  501  0.00000000000E+00  0.00000000000E+00 -0.22584513055E+04  0.22584513055E+04  0.25500000920E-02 0. -1.
    10030    2    1    2    0    0  0.00000000000E+00  0.00000000000E+00 -0.90280325364E+03  0.36140993573E+04  0.34995228889E+04 0.  0.
        3    1    3    3  502    0  0.47332017654E+03  0.15100551412E+04 -0.12224146487E+04  0.19996489948E+04  0.10100000352E+00 0. -1.
       -3    1    3    3    0  502 -0.47332017654E+03 -0.15100551412E+04  0.31961139504E+03  0.16144503625E+04  0.10100000352E+00 0.  1.
</event>
<event>
 5   0  0.2933506E-07  0.3504070E+04  0.7818609E-02  0.8112826E-01
        1   -1    0    0  501    0  0.00000000000E+00  0.00000000000E+00  0.16500220764E+04  0.16500220764E+04  0.50400001928E-02 0. -1.
       -1   -1    0    0    0  501  0.00000000000E+00  0.00000000000E+00 -0.18603547862E+04  0.18603547862E+04  0.50400001928E-02 0.  1.
    10030    2    1    2    0    0  0.00000000000E+00  0.00000000000E+00 -0.21033270980E+03  0.35103768627E+04  0.35040699007E+04 0.  0.
        4    1    3    3  502    0 -0.38360786318E+03  0.13776890265E+04  0.90880302740E+03  0.16944340063E+04  0.12699999809E+01 0. -1.
       -4    1    3    3    0  502  0.38360786318E+03 -0.13776890265E+04 -0.11191357372E+04  0.18159428563E+04  0.12699999809E+01 0.  1.
</event>
<event>
 5   0  0.6188930E-07  0.3511144E+04  0.7818609E-02  0.8111154E-01
       -2   -1    0    0    0  501  0.00000000000E+00  0.00000000000E+00  0.16397066694E+04  0.16397066694E+04  0.25500000920E-02 0.  1.
        2   -1    0    0  501    0  0.00000000000E+00  0.00000000000E+00 -0.18796245377E+04  0.18796245377E+04  0.25500000920E-02 0. -1.
    10030    2    1    2    0    0  0.00000000000E+00  0.00000000000E+00 -0.23991786838E+03  0.35193312071E+04  0.35111439107E+04 0.  0.
        3    1    3    3  502    0 -0.46216132922E+03 -0.37019501946E+03 -0.17765060775E+04  0.18725948040E+04  0.10100000352E+00 0. -1.
       -3    1    3    3    0  502  0.46216132922E+03  0.37019501946E+03  0.15365882091E+04  0.16467364031E+04  0.10100000352E+00 0.  1.
</event>
<event>
 5   0  0.6188930E-07  0.2965018E+04  0.7818609E-02  0.8253791E-01
        2   -1    0    0  501    0  0.00000000000E+00  0.00000000000E+00  0.22381931066E+04  0.22381931066E+04  0.25500000920E-02 0.  1.
       -2   -1    0    0    0  501  0.00000000000E+00  0.00000000000E+00 -0.98196762487E+03  0.98196762487E+03  0.25500000920E-02 0. -1.
    10030    2    1    2    0    0  0.00000000000E+00  0.00000000000E+00  0.12562254818E+04  0.32201607315E+04  0.29650181577E+04 0.  0.
        3    1    3    3  502    0  0.87901035847E+03  0.11976205702E+03 -0.66188125505E+03  0.11068373713E+04  0.10100000352E+00 0. -1.
       -3    1    3    3    0  502 -0.87901035847E+03 -0.11976205702E+03  0.19181067368E+04  0.21133233602E+04  0.10100000352E+00 0.  1.
</event>
<event>
 5   0  0.9311672E-07  0.3488216E+04  0.7818609E-02  0.8116588E-01
       -2   -1    0    0    0  501  0.00000000000E+00  0.00000000000E+00  0.10716094496E+04  0.10716094496E+04  0.25500000920E-02 0. -1.
        2   -1    0    0  501    0  0.00000000000E+00  0.00000000000E+00 -0.28386400951E+04  0.28386400951E+04  0.25500000920E-02 0.  1.
    10030    2    1    2    0    0  0.00000000000E+00  0.00000000000E+00 -0.17670306455E+04  0.39102495447E+04  0.34882164784E+04 0.  0.
        4    1    3    3  502    0 -0.24300072039E+03  0.43515758724E+03 -0.27571090273E+04  0.28017964375E+04  0.12699999809E+01 0.  1.
       -4    1    3    3    0  502  0.24300072039E+03 -0.43515758724E+03  0.99007838183E+03  0.11084531072E+04  0.12699999809E+01 0. -1.
</event>
<event>
 5   0  0.8950809E-07  0.3508173E+04  0.7818609E-02  0.8111856E-01
       -2   -1    0    0    0  501  0.00000000000E+00  0.00000000000E+00  0.11494848120E+04  0.11494848120E+04  0.25500000920E-02 0.  1.
        2   -1    0    0  501    0  0.00000000000E+00  0.00000000000E+00 -0.26766950203E+04  0.26766950203E+04  0.25500000920E-02 0. -1.
    10030    2    1    2    0    0  0.00000000000E+00  0.00000000000E+00 -0.15272102083E+04  0.38261798323E+04  0.35081734690E+04 0.  0.
        2    1    3    3  502    0  0.10886453610E+03 -0.11117716075E+03 -0.26691529928E+04  0.26736846387E+04  0.25500000920E-02 0. -1.
       -2    1    3    3    0  502 -0.10886453610E+03  0.11117716075E+03  0.11419427845E+04  0.11524951936E+04  0.25500000920E-02 0.  1.
</event>
<event>
 5   0  0.8950809E-07  0.3541639E+04  0.7818609E-02  0.8103992E-01
        2   -1    0    0  501    0  0.00000000000E+00  0.00000000000E+00  0.22393087650E+04  0.22393087650E+04  0.25500000920E-02 0.  1.
       -2   -1    0    0    0  501  0.00000000000E+00  0.00000000000E+00 -0.14003432102E+04  0.14003432102E+04  0.25500000920E-02 0. -1.
    10030    2    1    2    0    0  0.00000000000E+00  0.00000000000E+00  0.83896555484E+03  0.36396519752E+04  0.35416385048E+04 0.  0.
        2    1    3    3  502    0 -0.17560618145E+04  0.13262440446E+03  0.22871554303E+03  0.17758527892E+04  0.25500000920E-02 0. -1.
       -2    1    3    3    0  502  0.17560618145E+04 -0.13262440446E+03  0.61025001182E+03  0.18637991861E+04  0.25500000920E-02 0.  1.
</event>
<event>
 5   0  0.8950809E-07  0.3481225E+04  0.7818609E-02  0.8118254E-01
       -2   -1    0    0    0  501  0.00000000000E+00  0.00000000000E+00  0.12279765111E+04  0.12279765111E+04  0.25500000920E-02 0.  1.
        2   -1    0    0  501    0  0.00000000000E+00  0.00000000000E+00 -0.24672550545E+04  0.24672550545E+04  0.25500000920E-02 0. -1.
    10030    2    1    2    0    0  0.00000000000E+00  0.00000000000E+00 -0.12392785434E+04  0.36952315657E+04  0.34812246431E+04 0.  0.
        2    1    3    3  502    0  0.15140904556E+04 -0.43919191172E+03 -0.14028117619E+04  0.21102701918E+04  0.25500000920E-02 0. -1.
       -2    1    3    3    0  502 -0.15140904556E+04  0.43919191172E+03  0.16353321850E+03  0.15849613739E+04  0.25500000920E-02 0.  1.
</event>
<event>
 5   0  0.6188930E-07  0.3149707E+04  0.7818609E-02  0.8202227E-01
       -2   -1    0    0    0  501  0.00000000000E+00  0.00000000000E+00  0.10854528348E+04  0.10854528348E+04  0.25500000920E-02 0. -1.
        2   -1    0    0  501    0  0.00000000000E+00  0.00000000000E+00 -0.22849112840E+04  0.22849112840E+04  0.25500000920E-02 0.  1.
    10030    2    1    2    0    0  0.00000000000E+00  0.00000000000E+00 -0.11994584492E+04  0.33703641188E+04  0.31497069264E+04 0.  0.
        3    1    3    3  502    0  0.90362909851E+03 -0.88677213195E+03  0.40250475450E+03  0.13285030859E+04  0.10100000352E+00 0. -1.
       -3    1    3    3    0  502 -0.90362909851E+03  0.88677213195E+03 -0.16019632037E+04  0.20418610329E+04  0.10100000352E+00 0.  1.
</event>
<event>
 5   0  0.9311672E-07  0.3406986E+04  0.7818609E-02  0.8136194E-01
        2   -1    0    0  501    0  0.00000000000E+00  0.00000000000E+00  0.30317666547E+04  0.30317666547E+04  0.25500000920E-02 0. -1.
       -2   -1    0    0    0  501  0.00000000000E+00  0.00000000000E+00 -0.95716098848E+03  0.95716098849E+03  0.25500000920E-02 0.  1.
    10030    2    1    2    0    0  0.00000000000E+00  0.00000000000E+00  0.20746056662E+04  0.39889276432E+04  0.34069862155E+04 0.  0.
        4    1    3    3  502    0  0.92475360586E+03  0.13655180243E+04  0.53771131720E+03  0.17346307330E+04  0.12699999809E+01 0.  1.
       -4    1    3    3    0  502 -0.92475360586E+03 -0.13655180243E+04  0.15368943490E+04  0.22542969102E+04  0.12699999809E+01 0. -1.
</event>
<event>
 5   0  0.9128871E-07  0.3423938E+04  0.7818609E-02  0.8132056E-01
       -2   -1    0    0    0  501  0.00000000000E+00  0.00000000000E+00  0.18590698541E+04  0.18590698541E+04  0.25500000920E-02 0. -1.
        2   -1    0    0  501    0  0.00000000000E+00  0.00000000000E+00 -0.15765072235E+04  0.15765072235E+04  0.25500000920E-02 0.  1.
    10030    2    1    2    0    0  0.00000000000E+00  0.00000000000E+00  0.28256263057E+03  0.34355770776E+04  0.34239375310E+04 0.  0.
        1    1    3    3  502    0  0.10490848819E+04  0.11935839275E+03  0.14934571362E+04  0.18289996536E+04  0.50400001928E-02 0. -1.
       -1    1    3    3    0  502 -0.10490848819E+04 -0.11935839275E+03 -0.12108945056E+04  0.16065774239E+04  0.50400001928E-02 0.  1.
</event>
<event>
 5   0  0.2933506E-07  0.3476227E+04  0.7818609E-02  0.8119447E-01
        1   -1    0    0  501    0  0.00000000000E+00  0.00000000000E+00  0.18722438269E+04  0.18722438269E+04  0.50400001928E-02 0. -1.
       -1   -1    0    0    0  501  0.00000000000E+00  0.00000000000E+00 -0.16135922071E+04  0.16135922071E+04  0.50400001928E-02 0.  1.
    10030    2    1    2    0    0  0.00000000000E+00  0.00000000000E+00  0.25865161979E+03  0.34858360339E+04  0.34762267180E+04 0.  0.
        4    1    3    3  502    0 -0.62419831495E+03  0.11790958923E+04 -0.98782102293E+03  0.16600248932E+04  0.12699999809E+01 0.  1.
       -4    1    3    3    0  502  0.62419831495E+03 -0.11790958923E+04  0.12464726427E+04  0.18258111407E+04  0.12699999809E+01 0. -1.
</event>
<event>
 5   0  0.2972541E-07  0.3440465E+04  0.7818609E-02  0.8128046E-01
       -1   -1    0    0    0  501  0.00000000000E+00  0.00000000000E+00  0.12995397195E+04  0.12995397195E+04  0.50400001928E-02 0. -1.
        1   -1    0    0  501    0  0.00000000000E+00  0.00000000000E+00 -0.22771133283E+04  0.22771133283E+04  0.50400001928E-02 0.  1.
    10030    2    1    2    0    0  0.00000000000E+00  0.00000000000E+00 -0.97757360877E+03  0.35766530478E+04  0.34404646291E+04 0.  0.
        3    1    3    3  502    0  0.11137517807E+04 -0.91008077664E+03  0.49223556661E+03  0.15201927221E+04  0.10100000352E+00 0. -1.
       -3    1    3    3    0  502 -0.11137517807E+04  0.91008077664E+03 -0.14698091754E+04  0.20564603257E+04  0.10100000352E+00 0.  1.
</event>
<event>
 5   0  0.2933506E-07  0.3505840E+04  0.7818609E-02  0.8112407E-01
       -1   -1    0    0    0  501  0.00000000000E+00  0.00000000000E+00  0.14690611149E+04  0.14690611149E+04  0.50400001928E-02 0.  1.
        1   -1    0    0  501    0  0.00000000000E+00  0.00000000000E+00 -0.20916269919E+04  0.20916269919E+04  0.50400001928E-02 0. -1.
    10030    2    1    2    0    0  0.00000000000E+00  0.00000000000E+00 -0.62256587699E+03  0.35606881067E+04  0.35058396316E+04 0.  0.
        4    1    3    3  502    0  0.57832387943E+03 -0.60337626110E+03  0.12536689167E+04  0.15067212044E+04  0.12699999809E+01 0.  1.
       -4    1    3    3    0  502 -0.57832387943E+03  0.60337626110E+03 -0.18762347937E+04  0.20539669024E+04  0.12699999809E+01 0. -1.
</event>
<event>
 5   0  0.9311672E-07  0.3435615E+04  0.7818609E-02  0.8129220E-01
       -2   -1    0    0    0  501  0.00000000000E+00  0.00000000000E+00  0.11188080123E+04  0.11188080123E+04  0.25500000920E-02 0. -1.
        2   -1    0    0  501    0  0.00000000000E+00  0.00000000000E+00 -0.26375059195E+04  0.26375059195E+04  0.25500000920E-02 0.  1.
    10030    2    1    2    0    0  0.00000000000E+00  0.00000000000E+00 -0.15186979072E+04  0.37563139318E+04  0.34356150863E+04 0.  0.
        4    1    3    3  502    0 -0.15934382485E+04 -0.52981059708E+03 -0.11552493385E+04  0.20382216189E+04  0.12699999809E+01 0.  1.
       -4    1    3    3    0  502  0.15934382485E+04  0.52981059708E+03 -0.36344856864E+03  0.17180923129E+04  0.12699999809E+01 0. -1.
</event>
<event>
 5   0  0.8950809E-07  0.3467168E+04  0.7818609E-02  0.8121615E-01
        2   -1    0    0  501    0  0.00000000000E+00  0.00000000000E+00  0.13724424135E+04  0.13724424135E+04  0.25500000920E-02 0. -1.
       -2   -1    0    0    0  501  0.00000000000E+00  0.00000000000E+00 -0.21897555909E+04  0.21897555909E+04  0.25500000920E-02 0.  1.
    10030    2    1    2    0    0  0.00000000000E+00  0.00000000000E+00 -0.81731317737E+03  0.35621980043E+04  0.34671679787E+04 0.  0.
        2    1    3    3  502    0 -0.66957225174E+03 -0.16501041536E+03 -0.20427717631E+04  0.21560315196E+04  0.25500000920E-02 0.  1.
       -2    1    3    3    0  502  0.66957225174E+03  0.16501041536E+03  0.12254585857E+04  0.14061664847E+04  0.25500000920E-02 0. -1.
</event>
<event>
 5   0  0.8950809E-07  0.3511532E+04  0.7818609E-02  0.8111062E-01
        2   -1    0    0  501    0  0.00000000000E+00  0.00000000000E+00  0.14620597095E+04  0.14620597095E+04  0.25500000920E-02 0.  1.
       -2   -1    0    0    0  501  0.00000000000E+00  0.00000000000E+00 -0.21084734960E+04  0.21084734960E+04  0.25500000920E-02 0. -1.
    10030    2    1    2    0    0  0.00000000000E+00  0.00000000000E+00 -0.64641378642E+03  0.35705332055E+04  0.35115319432E+04 0.  0.
        2    1    3    3  502    0 -0.42334733804E+03  0.17006391670E+04 -0.43137859474E+03  0.18048501426E+04  0.25500000920E-02 0.  1.
       -2    1    3    3    0  502  0.42334733804E+03 -0.17006391670E+04 -0.21503519169E+03  0.17656830629E+04  0.25500000920E-02 0. -1.
</event>
<event>
 5   0  0.9128871E-07  0.3527582E+04  0.7818609E-02  0.8107284E-01
       -2   -1    0    0    0  501  0.00000000000E+00  0.00000000000E+00  0.31961198504E+04  0.31961198504E+04  0.25500000920E-02 0. -1.
        2   -1    0    0  501    0  0.00000000000E+00  0.00000000000E+00 -0.97335456460E+03  0.97335456461E+03  0.25500000920E-02 0.  1.
    10030    2    1    2    0    0  0.00000000000E+00  0.00000000000E+00  0.22227652858E+04  0.41694744150E+04  0.35275815202E+04 0.  0.
        1    1    3    3  502    0 -0.84584599917E+03 -0.99881348167E+01 -0.71795350125E+03  0.11095100032E+04  0.50400001928E-02 0.  1.
       -1    1    3    3    0  502  0.84584599917E+03  0.99881348167E+01  0.29407187870E+04  0.30599644118E+04  0.50400001928E-02 0. -1.
</event>
<event>
 5   0  0.6188930E-07  0.3500810E+04  0.7818609E-02  0.8113598E-01
       -2   -1    0    0    0  501  0.00000000000E+00  0.00000000000E+00  0.10136465120E+04  0.10136465120E+04  0.25500000920E-02 0.  1.
        2   -1    0    0  501    0  0.00000000000E+00  0.00000000000E+00 -0.30226692475E+04  0.30226692475E+04  0.25500000920E-02 0. -1.
    10030    2    1    2    0    0  0.00000000000E+00  0.00000000000E+00 -0.20090227355E+04  0.40363157595E+04  0.35008102717E+04 0.  0.
        3    1    3    3  502    0  0.90426448787E+03  0.12136185061E+04 -0.20184361157E+04  0.25228255004E+04  0.10100000352E+00 0.  1.
       -3    1    3    3    0  502 -0.90426448787E+03 -0.12136185061E+04  0.94133802130E+01  0.15134902591E+04  0.10100000352E+00 0. -1.
</event>
<event>
 5   0  0.2936607E-07  0.3431394E+04  0.7818609E-02  0.8130244E-01
        1   -1    0    0  501    0  0.00000000000E+00  0.00000000000E+00  0.23427038554E+04  0.23427038554E+04  0.50400001928E-02 0. -1.
       -1   -1    0    0    0  501  0.00000000000E+00  0.00000000000E+00 -0.12565039503E+04  0.12565039503E+04  0.50400001928E-02 0.  1.
    10030    2    1    2    0    0  0.00000000000E+00  0.00000000000E+00  0.10861999050E+04  0.35992078057E+04  0.34313942640E+04 0.  0.
        2    1    3    3  502    0  0.12110183958E+04 -0.11095762959E+04  0.22974517491E+02  0.16426359731E+04  0.25500000920E-02 0.  1.
       -2    1    3    3    0  502 -0.12110183958E+04  0.11095762959E+04  0.10632253876E+04  0.19565718326E+04  0.25500000920E-02 0. -1.
</event>
<event>
 5   0  0.2972541E-07  0.3470466E+04  0.7818609E-02  0.8120825E-01
       -1   -1    0    0    0  501  0.00000000000E+00  0.00000000000E+00  0.16420111841E+04  0.16420111841E+04  0.50400001928E-02 0.  1.
        1   -1    0    0  501    0  0.00000000000E+00  0.00000000000E+00 -0.18337477346E+04  0.18337477346E+04  0.50400001928E-02 0. -1.
    10030    2    1    2    0    0  0.00000000000E+00  0.00000000000E+00 -0.19173655051E+03  0.34757589187E+04  0.34704664177E+04 0.  0.
        3    1    3    3  502    0  0.10120084617E+04  0.26110439402E+03 -0.14831512968E+04  0.18144074544E+04  0.10100000352E+00 0. -1.
       -3    1    3    3    0  502 -0.10120084617E+04 -0.26110439402E+03  0.12914147463E+04  0.16613514644E+04  0.10100000352E+00 0.  1.
</event>
<event>
 5   0  0.3026332E-07  0.3481897E+04  0.7818609E-02  0.8118093E-01
       -1   -1    0    0    0  501  0.00000000000E+00  0.00000000000E+00  0.12363345982E+04  0.12363345982E+04  0.50400001928E-02 0.  1.
        1   -1    0    0  501    0  0.00000000000E+00  0.00000000000E+00 -0.24515227502E+04  0.24515227503E+04  0.50400001928E-02 0. -1.
    10030    2    1    2    0    0  0.00000000000E+00  0.00000000000E+00 -0.12151881520E+04  0.36878573485E+04  0.34818974106E+04 0.  0.
        1    1    3    3  502    0 -0.10444399839E+04 -0.93516890759E+03 -0.17008862025E+04  0.22041800379E+04  0.50400001928E-02 0. -1.
       -1    1    3    3    0  502  0.10444399839E+04  0.93516890759E+03  0.48569805048E+03  0.14836773106E+04  0.50400001928E-02 0.  1.
</event>
<event>
 5   0  0.2936607E-07  0.3754003E+04  0.7818609E-02  0.8056098E-01
        1   -1    0    0  501    0  0.00000000000E+00  0.00000000000E+00  0.19027398004E+04  0.19027398004E+04  0.50400001928E-02 0. -1.
       -1   -1    0    0    0  501  0.00000000000E+00  0.00000000000E+00 -0.18516110988E+04  0.18516110988E+04  0.50400001928E-02 0.  1.
    10030    2    1    2    0    0  0.00000000000E+00  0.00000000000E+00  0.51128701608E+02  0.37543508992E+04  0.37540027344E+04 0.  0.
        2    1    3    3  502    0 -0.16123437678E+04  0.94755892899E+03 -0.13449355831E+03  0.18749956978E+04  0.25500000920E-02 0. -1.
       -2    1    3    3    0  502  0.16123437678E+04 -0.94755892899E+03  0.18562225992E+03  0.18793552014E+04  0.25500000920E-02 0.  1.
</event>
<event>
 5   0  0.6188930E-07  0.3452388E+04  0.7818609E-02  0.8125167E-01
        2   -1    0    0  501    0  0.00000000000E+00  0.00000000000E+00  0.12557580456E+04  0.12557580456E+04  0.25500000920E-02 0. -1.
       -2   -1    0    0    0  501  0.00000000000E+00  0.00000000000E+00 -0.23728661603E+04  0.23728661603E+04  0.25500000920E-02 0.  1.
    10030    2    1    2    0    0  0.00000000000E+00  0.00000000000E+00 -0.11171081147E+04  0.36286242059E+04  0.34523880268E+04 0.  0.
        3    1    3    3  502    0  0.97612498130E+02 -0.11300485743E+04  0.80910397184E+03  0.13932649524E+04  0.10100000352E+00 0. -1.
       -3    1    3    3    0  502 -0.97612498130E+02  0.11300485743E+04 -0.19262120865E+04  0.22353592536E+04  0.10100000352E+00 0.  1.
</event>
<event>
 5   0  0.2936607E-07  0.3324305E+04  0.7818609E-02  0.8156738E-01
       -1   -1    0    0    0  501  0.00000000000E+00  0.00000000000E+00  0.18813189338E+04  0.18813189338E+04  0.50400001928E-02 0.  1.
        1   -1    0    0  501    0  0.00000000000E+00  0.00000000000E+00 -0.14685183443E+04  0.14685183443E+04  0.50400001928E-02 0. -1.
    10030    2    1    2    0    0  0.00000000000E+00  0.00000000000E+00  0.41280058958E+03  0.33498372781E+04  0.33243052602E+04 0.  0.
        2    1    3    3  502    0  0.14820240689E+02  0.33451528855E+03 -0.14341799256E+04  0.14727498691E+04  0.25500000920E-02 0. -1.
       -2    1    3    3    0  502 -0.14820240689E+02 -0.33451528855E+03  0.18469805152E+04  0.18770874091E+04  0.25500000920E-02 0.  1.
</event>
<event>
 5   0  0.6188930E-07  0.3522982E+04  0.7818609E-02  0.8108365E-01
        2   -1    0    0  501    0  0.00000000000E+00  0.00000000000E+00  0.20670290766E+04  0.20670290766E+04  0.25500000920E-02 0.  1.
       -2   -1    0    0    0  501  0.00000000000E+00  0.00000000000E+00 -0.15011157420E+04  0.15011157420E+04  0.25500000920E-02 0. -1.
    10030    2    1    2    0    0  0.00000000000E+00  0.00000000000E+00  0.56591333465E+03  0.35681448186E+04  0.35229816270E+04 0.  0.
        3    1    3    3  502    0 -0.14440120118E+04 -0.10075739161E+04  0.33333351795E+03  0.17920622564E+04  0.10100000352E+00 0. -1.
       -3    1    3    3    0  502  0.14440120118E+04  0.10075739161E+04  0.23257981670E+03  0.17760825622E+04  0.10100000352E+00 0.  1.
</event>
<event>
 5   0  0.9128871E-07  0.3505132E+04  0.7818609E-02  0.8112575E-01
        2   -1    0    0  501    0  0.00000000000E+00  0.00000000000E+00  0.19640613453E+04  0.19640613453E+04  0.25500000920E-02 0. -1.
       -2   -1    0    0    0  501  0.00000000000E+00  0.00000000000E+00 -0.15638454129E+04  0.15638454129E+04  0.25500000920E-02 0.  1.
    10030    2    1    2    0    0  0.00000000000E+00  0.00000000000E+00  0.40021593241E+03  0.35279067581E+04  0.35051324228E+04 0.  0.
        1    1    3    3  502    0 -0.88940456047E+03 -0.91415014060E+03  0.14099067233E+04  0.19011964444E+04  0.50400001928E-02 0. -1.
       -1    1    3    3    0  502  0.88940456047E+03  0.91415014060E+03 -0.10096907909E+04  0.16267103138E+04  0.50400001928E-02 0.  1.
</event>
<event>
 5   0  0.3061330E-07  0.3640107E+04  0.7818609E-02  0.8081366E-01
        1   -1    0    0  501    0  0.00000000000E+00  0.00000000000E+00  0.15470465331E+04  0.15470465331E+04  0.50400001928E-02 0. -1.
       -1   -1    0    0    0  501  0.00000000000E+00  0.00000000000E+00 -0.21412373738E+04  0.21412373738E+04  0.50400001928E-02 0.  1.
    10030    2    1    2    0    0  0.00000000000E+00  0.00000000000E+00 -0.59419084069E+03  0.36882839069E+04  0.36401065126E+04 0.  0.
        5    1    3    3  502    0 -0.67334491104E+03 -0.16850904018E+04 -0.43912458834E+03  0.18670231722E+04  0.46999998093E+01 0. -1.
       -5    1    3    3    0  502  0.67334491104E+03  0.16850904018E+04 -0.15506625235E+03  0.18212607347E+04  0.46999998093E+01 0.  1.
</event>
<event>
 5   0  0.3026332E-07  0.3053275E+04  0.7818609E-02  0.8228679E-01
       -1   -1    0    0    0  501  0.00000000000E+00  0.00000000000E+00  0.19910669762E+04  0.19910669762E+04  0.50400001928E-02 0.  1.
        1   -1    0    0  501    0  0.00000000000E+00  0.00000000000E+00 -0.11705392021E+04  0.11705392021E+04  0.50400001928E-02 0. -1.
    10030    2    1    2    0    0  0.00000000000E+00  0.00000000000E+00  0.82052777416E+03  0.31616061783E+04  0.30532749301E+04 0.  0.
        1    1    3    3  502    0 -0.13786011884E+04 -0.22158131357E+03  0.10494014408E+04  0.17466776747E+04  0.50400001928E-02 0.  1.
       -1    1    3    3    0  502  0.13786011884E+04  0.22158131357E+03 -0.22887366668E+03  0.14149285037E+04  0.50400001928E-02 0. -1.
</event>
<event>
 5   0  0.2933506E-07  0.3487813E+04  0.7818609E-02  0.8116684E-01
       -1   -1    0    0    0  501  0.00000000000E+00  0.00000000000E+00  0.21255398775E+04  0.21255398775E+04  0.50400001928E-02 0.  1.
        1   -1    0    0  501    0  0.00000000000E+00  0.00000000000E+00 -0.14307941299E+04  0.14307941299E+04  0.50400001928E-02 0. -1.
    10030    2    1    2    0    0  0.00000000000E+00  0.00000000000E+00  0.69474574753E+03  0.35563340074E+04  0.34878130567E+04 0.  0.
        4    1    3    3  502    0  0.58915376305E+03 -0.13279189930E+04 -0.63632768179E+03  0.15859967024E+04  0.12699999809E+01 0. -1.
       -4    1    3    3    0  502 -0.58915376305E+03  0.13279189930E+04  0.13310734293E+04  0.19703373050E+04  0.12699999809E+01 0.  1.
</event>
<event>
 5   0  0.3061330E-07  0.3478973E+04  0.7818609E-02  0.8118791E-01
        1   -1    0    0  501    0  0.00000000000E+00  0.00000000000E+00  0.22366581116E+04  0.22366581116E+04  0.50400001928E-02 0.  1.
       -1   -1    0    0    0  501  0.00000000000E+00  0.00000000000E+00 -0.13528277772E+04  0.13528277772E+04  0.50400001928E-02 0. -1.
    10030    2    1    2    0    0  0.00000000000E+00  0.00000000000E+00  0.88383033440E+03  0.35894858887E+04  0.34789729642E+04 0.  0.
        5    1    3    3  502    0 -0.40444331343E+03 -0.62913799894E+03 -0.11784508957E+04  0.13957641703E+04  0.46999998093E+01 0. -1.
       -5    1    3    3    0  502  0.40444331343E+03  0.62913799894E+03  0.20622812302E+04  0.21937217184E+04  0.46999998093E+01 0.  1.
</event>
<event>
 5   0  0.8950809E-07  0.3509026E+04  0.7818609E-02  0.8111654E-01
       -2   -1    0    0    0  501  0.00000000000E+00  0.00000000000E+00  0.18131471646E+04  0.18131471646E+04  0.25500000920E-02 0.  1.
        2   -1    0    0  501    0  0.00000000000E+00  0.00000000000E+00 -0.16977744892E+04  0.16977744892E+04  0.25500000920E-02 0. -1.
    10030    2    1    2    0    0  0.00000000000E+00  0.00000000000E+00  0.11537267542E+03  0.35109216538E+04  0.35090255064E+04 0.  0.
        2    1    3    3  502    0  0.12366663037E+04  0.17351744937E+03  0.12907739532E+04  0.17959814170E+04  0.25500000920E-02 0.  1.
       -2    1    3    3    0  502 -0.12366663037E+04 -0.17351744937E+03 -0.11754012778E+04  0.17149402368E+04  0.25500000920E-02 0. -1.
</event>
<event>
 5   0  0.2936607E-07  0.3330761E+04  0.7818609E-02  0.8155112E-01
        1   -1    0    0  501    0  0.00000000000E+00  0.00000000000E+00  0.16815072706E+04  0.16815072706E+04  0.50400001928E-02 0.  1.
       -1   -1    0    0    0  501  0.00000000000E+00  0.00000000000E+00 -0.16494088871E+04  0.16494088871E+04  0.50400001928E-02 0. -1.
    10030    2    1    2    0    0  0.00000000000E+00  0.00000000000E+00  0.32098383521E+02  0.33309161577E+04  0.33307614960E+04 0.  0.
        2    1    3    3  502    0 -0.30258507479E+03  0.86568193038E+03  0.14062684476E+04  0.16788549309E+04  0.25500000920E-02 0.  1.
       -2    1    3    3    0  502  0.30258507479E+03 -0.86568193038E+03 -0.13741700641E+04  0.16520612268E+04  0.25500000920E-02 0. -1.
</event>
<event>
 5   0  0.6188930E-07  0.3510993E+04  0.7818609E-02  0.8111190E-01
       -2   -1    0    0    0  501  0.00000000000E+00  0.00000000000E+00  0.16300312569E+04  0.16300312569E+04  0.25500000920E-02 0.  1.
        2   -1    0    0  501    0  0.00000000000E+00  0.00000000000E+00 -0.18906191204E+04  0.18906191204E+04  0.25500000920E-02 0. -1.
    10030    2    1    2    0    0  0.00000000000E+00  0.00000000000E+00 -0.26058786350E+03  0.35206503774E+04  0.35109931708E+04 0.  0.
        3    1    3    3  502    0 -0.43867042995E+03 -0.16994108613E+04 -0.93597790778E+02  0.17576090516E+04  0.10100000352E+00 0.  1.
       -3    1    3    3    0  502  0.43867042995E+03  0.16994108613E+04 -0.16699007272E+03  0.17630413258E+04  0.10100000352E+00 0. -1.
</event>
<event>
 5   0  0.3026332E-07  0.3392079E+04  0.7818609E-02  0.8139853E-01
       -1   -1    0    0    0  501  0.00000000000E+00  0.00000000000E+00  0.12677290050E+04  0.12677290051E+04  0.50400001928E-02 0. -1.
        1   -1    0    0  501    0  0.00000000000E+00  0.00000000000E+00 -0.22690569018E+04  0.22690569018E+04  0.50400001928E-02 0.  1.
    10030    2    1    2    0    0  0.00000000000E+00  0.00000000000E+00 -0.10013278967E+04  0.35367859068E+04  0.33920785654E+04 0.  0.
        1    1    3    3  502    0 -0.64581808206E+03 -0.15651067229E+04 -0.60445553525E+03  0.17977782241E+04  0.50400001928E-02 0.  1.
       -1    1    3    3    0  502  0.64581808206E+03  0.15651067229E+04 -0.39687236146E+03  0.17390076827E+04  0.50400001928E-02 0. -1.
</event>
<event>
 5   0  0.6188930E-07  0.3492996E+04  0.7818609E-02  0.8115452E-01
       -2   -1    0    0    0  501  0.00000000000E+00  0.00000000000E+00  0.12900812561E+04  0.12900812561E+04  0.25500000920E-02 0. -1.
        2   -1    0    0  501    0  0.00000000000E+00  0.00000000000E+00 -0.23643900593E+04  0.23643900593E+04  0.25500000920E-02 0.  1.
    10030    2    1    2    0    0  0.00000000000E+00  0.00000000000E+00 -0.10743088031E+04  0.36544713154E+04  0.34929960193E+04 0.  0.
        3    1    3    3  502    0  0.34111850418E+03 -0.12991117542E+03 -0.23240365599E+04  0.23525272983E+04  0.10100000352E+00 0.  1.
       -3    1    3    3    0  502 -0.34111850418E+03  0.12991117542E+03  0.12497277568E+04  0.13019440171E+04  0.10100000352E+00 0. -1.
</event>
<event>
 5   0  0.6188930E-07  0.3563885E+04  0.7818609E-02  0.8098815E-01
       -2   -1    0    0    0  501  0.00000000000E+00  0.00000000000E+00  0.25368725955E+04  0.25368725955E+04  0.25500000920E-02 0.  1.
        2   -1    0    0  501    0  0.00000000000E+00  0.00000000000E+00 -0.12516664698E+04  0.12516664698E+04  0.25500000920E-02 0. -1.
    10030    2    1    2    0    0  0.00000000000E+00  0.00000000000E+00  0.12852061257E+04  0.37885390653E+04  0.35638846030E+04 0.  0.
        3    1    3    3  502    0 -0.10821300481E+03  0.12284662422E+04  0.20099501352E+04  0.23581219050E+04  0.10100000352E+00 0.  1.
       -3    1    3    3    0  502  0.10821300481E+03 -0.12284662422E+04 -0.72474400953E+03  0.14304171602E+04  0.10100000352E+00 0. -1.
</event>
<event>
 5   0  0.8845195E-07  0.3480885E+04  0.7818609E-02  0.8118335E-01
        2   -1    0    0  501    0  0.00000000000E+00  0.00000000000E+00  0.20948073285E+04  0.20948073285E+04  0.25500000920E-02 0. -1.
       -2   -1    0    0    0  501  0.00000000000E+00  0.00000000000E+00 -0.14460234173E+04  0.14460234173E+04  0.25500000920E-02 0.  1.
    10030    2    1    2    0    0  0.00000000000E+00  0.00000000000E+00  0.64878391126E+03  0.35408307458E+04  0.34808852045E+04 0.  0.
        5    1    3    3  502    0  0.25359770710E+03  0.16735066678E+04  0.73656371715E+03  0.18459373130E+04  0.46999998093E+01 0. -1.
       -5    1    3    3    0  502 -0.25359770710E+03 -0.16735066678E+04 -0.87779805891E+02  0.16948934328E+04  0.46999998093E+01 0.  1.
</event>
<event>
 5   0  0.6188930E-07  0.3504646E+04  0.7818609E-02  0.8112690E-01
       -2   -1    0    0    0  501  0.00000000000E+00  0.00000000000E+00  0.23726881361E+04  0.23726881361E+04  0.25500000920E-02 0.  1.
        2   -1    0    0  501    0  0.00000000000E+00  0.00000000000E+00 -0.12941588853E+04  0.12941588854E+04  0.25500000920E-02 0. -1.
    10030    2    1    2    0    0  0.00000000000E+00  0.00000000000E+00  0.10785292507E+04  0.36668470214E+04  0.35046457358E+04 0.  0.
        3    1    3    3  502    0 -0.18468763961E+03  0.14152063495E+03 -0.12779246904E+04  0.12989338470E+04  0.10100000352E+00 0. -1.
       -3    1    3    3    0  502  0.18468763961E+03 -0.14152063495E+03  0.23564539412E+04  0.23679131744E+04  0.10100000352E+00 0.  1.
</event>
<event>
 5   0  0.3026332E-07  0.3443394E+04  0.7818609E-02  0.8127337E-01
        1   -1    0    0  501    0  0.00000000000E+00  0.00000000000E+00  0.15840167496E+04  0.15840167496E+04  0.50400001928E-02 0.  1.
       -1   -1    0    0    0  501  0.00000000000E+00  0.00000000000E+00 -0.18713447410E+04  0.18713447410E+04  0.50400001928E-02 0. -1.
    10030    2    1    2    0    0  0.00000000000E+00  0.00000000000E+00 -0.28732799134E+03  0.34553614906E+04  0.34433944962E+04 0.  0.
        1    1    3    3  502    0  0.21953312661E+02 -0.14137166827E+04 -0.11295061891E+04  0.18096577130E+04  0.50400001928E-02 0. -1.
       -1    1    3    3    0  502 -0.21953312661E+02  0.14137166827E+04  0.84217819772E+03  0.16457037776E+04  0.50400001928E-02 0.  1.
</event>
<event>
 5   0  0.2936607E-07  0.3457539E+04  0.7818609E-02  0.8123927E-01
        1   -1    0    0  501    0  0.00000000000E+00  0.00000000000E+00  0.16334496178E+04  0.16334496178E+04  0.50400001928E-02 0.  1.
       -1   -1    0    0    0  501  0.00000000000E+00  0.00000000000E+00 -0.18296520295E+04  0.18296520295E+04  0.50400001928E-02 0. -1.
    10030    2    1    2    0    0  0.00000000000E+00  0.00000000000E+00 -0.19620241168E+03  0.34631016472E+04  0.34575392453E+04 0.  0.
        2    1    3    3  502    0 -0.92306302474E+03  0.34201888735E+03  0.13253191828E+04  0.16509067821E+04  0.25500000920E-02 0.  1.
       -2    1    3    3    0  502  0.92306302474E+03 -0.34201888735E+03 -0.15215215944E+04  0.18121948652E+04  0.25500000920E-02 0. -1.
</event>
<event>
 5   0  0.3061330E-07  0.3495962E+04  0.7818609E-02  0.8114747E-01
        1   -1    0    0  501    0  0.00000000000E+00  0.00000000000E+00  0.21935709354E+04  0.21935709354E+04  0.50400001928E-02 0.  1.
       -1   -1    0    0    0  501  0.00000000000E+00  0.00000000000E+00 -0.13929060977E+04  0.13929060977E+04  0.50400001928E-02 0. -1.
    10030    2    1    2    0    0  0.00000000000E+00  0.00000000000E+00  0.80066483771E+03  0.35864770331E+04  0.34959624321E+04 0.  0.
        5    1    3    3  502    0  0.12349111728E+04 -0.17521630956E+03 -0.85600103272E+03  0.15127677343E+04  0.46999998093E+01 0. -1.
       -5    1    3    3    0  502 -0.12349111728E+04  0.17521630956E+03  0.16566658704E+04  0.20737092988E+04  0.46999998093E+01 0.  1.
</event>
<event>
 5   0  0.8950809E-07  0.3441623E+04  0.7818609E-02  0.8127765E-01
        2   -1    0    0  501    0  0.00000000000E+00  0.00000000000E+00  0.21398868400E+04  0.21398868400E+04  0.25500000920E-02 0. -1.
       -2   -1    0    0    0  501  0.00000000000E+00  0.00000000000E+00 -0.13838081404E+04  0.13838081404E+04  0.25500000920E-02 0.  1.
    10030    2    1    2    0    0  0.00000000000E+00  0.00000000000E+00  0.75607869960E+03  0.35236949804E+04  0.34416233546E+04 0.  0.
        2    1    3    3  502    0  0.14770633250E+04  0.93382841775E+02 -0.52082372414E+03  0.15689785762E+04  0.25500000920E-02 0.  1.
       -2    1    3    3    0  502 -0.14770633250E+04 -0.93382841775E+02  0.12769024237E+04  0.19547164042E+04  0.25500000920E-02 0. -1.
</event>
<event>
 5   0  0.2972541E-07  0.3381485E+04  0.7818609E-02  0.8142465E-01
       -1   -1    0    0    0  501  0.00000000000E+00  0.00000000000E+00  0.18307435181E+04  0.18307435181E+04  0.50400001928E-02 0.  1.
        1   -1    0    0  501    0  0.00000000000E+00  0.00000000000E+00 -0.15614478136E+04  0.15614478136E+04  0.50400001928E-02 0. -1.
    10030    2    1    2    0    0  0.00000000000E+00  0.00000000000E+00  0.26929570450E+03  0.33921913318E+04  0.33814851552E+04 0.  0.
        3    1    3    3  502    0 -0.14307004386E+04 -0.69462131278E+03 -0.44093521042E+03  0.16504018853E+04  0.10100000352E+00 0. -1.
       -3    1    3    3    0  502  0.14307004386E+04  0.69462131278E+03  0.71023091492E+03  0.17417894465E+04  0.10100000352E+00 0.  1.
</event>
<event>
 5   0  0.2933506E-07  0.2953495E+04  0.7818609E-02  0.8257137E-01
        1   -1    0    0  501    0  0.00000000000E+00  0.00000000000E+00  0.16149724364E+04  0.16149724364E+04  0.50400001928E-02 0.  1.
       -1   -1    0    0    0  501  0.00000000000E+00  0.00000000000E+00 -0.13503527454E+04  0.13503527454E+04  0.50400001928E-02 0. -1.
    10030    2    1    2    0    0  0.00000000000E+00  0.00000000000E+00  0.26461969093E+03  0.29653251818E+04  0.29534945155E+04 0.  0.
        4    1    3    3  502    0 -0.77824801629E+03  0.79817196739E+03 -0.84009043035E+03  0.13958875343E+04  0.12699999809E+01 0. -1.
       -4    1    3    3    0  502  0.77824801629E+03 -0.79817196739E+03  0.11047101213E+04  0.15694376475E+04  0.12699999809E+01 0.  1.
</event>
<event>
 5   0  0.9311672E-07  0.3445838E+04  0.7818609E-02  0.8126747E-01
        2   -1    0    0  501    0  0.00000000000E+00  0.00000000000E+00  0.22158729972E+04  0.22158729972E+04  0.25500000920E-02 0.  1.
       -2   -1    0    0    0  501  0.00000000000E+00  0.00000000000E+00 -0.13396302208E+04  0.13396302208E+04  0.25500000920E-02 0. -1.
    10030    2    1    2    0    0  0.00000000000E+00  0.00000000000E+00  0.87624277642E+03  0.35555032180E+04  0.34458383203E+04 0.  0.
        4    1    3    3  502    0  0.95932354869E+03 -0.56162408837E+03 -0.92010156985E+03  0.14430217599E+04  0.12699999809E+01 0. -1.
       -4    1    3    3    0  502 -0.95932354869E+03  0.56162408837E+03  0.17963443463E+04  0.21124814581E+04  0.12699999809E+01 0.  1.
</event>
<event>
 5   0  0.2907000E-07  0.3344364E+04  0.7818609E-02  0.8151698E-01
        3   -1    0    0  501    0  0.00000000000E+00  0.00000000000E+00  0.16218001681E+04  0.16218001712E+04  0.10100000352E+00 0. -1.
       -3   -1    0    0    0  501  0.00000000000E+00  0.00000000000E+00 -0.17241284520E+04  0.17241284550E+04  0.10100000352E+00 0.  1.
    10030    2    1    2    0    0  0.00000000000E+00  0.00000000000E+00 -0.10232828392E+03  0.33459286262E+04  0.33443635110E+04 0.  0.
        4    1    3    3  502    0  0.64871778107E+03  0.14826768350E+04 -0.47210426011E+03  0.16858378931E+04  0.12699999809E+01 0.  1.
       -4    1    3    3    0  502 -0.64871778107E+03 -0.14826768350E+04  0.36977597619E+03  0.16600907331E+04  0.12699999809E+01 0. -1.
</event>
<event>
 5   0  0.2933506E-07  0.3540710E+04  0.7818609E-02  0.8104209E-01
        1   -1    0    0  501    0  0.00000000000E+00  0.00000000000E+00  0.20606630172E+04  0.20606630172E+04  0.50400001928E-02 0.  1.
       -1   -1    0    0    0  501  0.00000000000E+00  0.00000000000E+00 -0.15209458522E+04  0.15209458522E+04  0.50400001928E-02 0. -1.
    10030    2    1    2    0    0  0.00000000000E+00  0.00000000000E+00  0.53971716503E+03  0.35816088694E+04  0.35407100241E+04 0.  0.
        4    1    3    3  502    0  0.81429061810E+03 -0.10770089859E+04  0.14281342877E+04  0.19653464639E+04  0.12699999809E+01 0. -1.
       -4    1    3    3    0  502 -0.81429061810E+03  0.10770089859E+04 -0.88841712271E+03  0.16162624054E+04  0.12699999809E+01 0.  1.
</event>
<event>
 5   0  0.2933506E-07  0.3505601E+04  0.7818609E-02  0.8112464E-01
        1   -1    0    0  501    0  0.00000000000E+00  0.00000000000E+00  0.17606832276E+04  0.17606832276E+04  0.50400001928E-02 0.  1.
       -1   -1    0    0    0  501  0.00000000000E+00  0.00000000000E+00 -0.17449530801E+04  0.17449530801E+04  0.50400001928E-02 0. -1.
    10030    2    1    2    0    0  0.00000000000E+00  0.00000000000E+00  0.15730147494E+02  0.35056363077E+04  0.35056010162E+04 0.  0.
        4    1    3    3  502    0 -0.45018160675E+03  0.78237514476E+03  0.15103893219E+04  0.17595601333E+04  0.12699999809E+01 0.  1.
       -4    1    3    3    0  502  0.45018160675E+03 -0.78237514476E+03 -0.14946591744E+04  0.17460761744E+04  0.12699999809E+01 0. -1.
</event>
<event>
 5   0  0.3026332E-07  0.3486729E+04  0.7818609E-02  0.8116942E-01
        1   -1    0    0  501    0  0.00000000000E+00  0.00000000000E+00  0.17133502078E+04  0.17133502078E+04  0.50400001928E-02 0. -1.
       -1   -1    0    0    0  501  0.00000000000E+00  0.00000000000E+00 -0.17739048185E+04  0.17739048186E+04  0.50400001928E-02 0.  1.
    10030    2    1    2    0    0  0.00000000000E+00  0.00000000000E+00 -0.60554610740E+02  0.34872550264E+04  0.34867292350E+04 0.  0.
        1    1    3    3  502    0 -0.17038924155E+04 -0.34823544129E+03  0.91408223881E+02  0.17415144989E+04  0.50400001928E-02 0.  1.
       -1    1    3    3    0  502  0.17038924155E+04  0.34823544129E+03 -0.15196283462E+03  0.17457405275E+04  0.50400001928E-02 0. -1.
</event>
<event>
 5   0  0.9128871E-07  0.2963171E+04  0.7818609E-02  0.8254326E-01
       -2   -1    0    0    0  501  0.00000000000E+00  0.00000000000E+00  0.16315784579E+04  0.16315784579E+04  0.25500000920E-02 0. -1.
        2   -1    0    0  501    0  0.00000000000E+00  0.00000000000E+00 -0.13453820191E+04  0.13453820191E+04  0.25500000920E-02 0.  1.
    10030    2    1    2    0    0  0.00000000000E+00  0.00000000000E+00  0.28619643880E+03  0.29769604770E+04  0.29631714901E+04 0.  0.
        1    1    3    3  502    0  0.11611584344E+04  0.37359219916E+03  0.98798506332E+03  0.15697052355E+04  0.50400001928E-02 0. -1.
       -1    1    3    3    0  502 -0.11611584344E+04 -0.37359219916E+03 -0.70178862451E+03  0.14072552415E+04  0.50400001928E-02 0.  1.
</event>
<event>
 5   0  0.2972541E-07  0.3492532E+04  0.7818609E-02  0.8115562E-01
       -1   -1    0    0    0  501  0.00000000000E+00  0.00000000000E+00  0.22426857297E+04  0.22426857297E+04  0.50400001928E-02 0. -1.
        1   -1    0    0  501    0  0.00000000000E+00  0.00000000000E+00 -0.13597288618E+04  0.13597288618E+04  0.50400001928E-02 0.  1.
    10030    2    1    2    0    0  0.00000000000E+00  0.00000000000E+00  0.88295686790E+03  0.36024145914E+04  0.34925317548E+04 0.  0.
        3    1    3    3  502    0 -0.57447014937E+03 -0.15078480283E+04 -0.24722857673E+03  0.16324042417E+04  0.10100000352E+00 0.  1.
       -3    1    3    3    0  502  0.57447014937E+03  0.15078480283E+04  0.11301854446E+04  0.19700103498E+04  0.10100000352E+00 0. -1.
</event>
<event>
 5   0  0.8950809E-07  0.3493230E+04  0.7818609E-02  0.8115396E-01
        2   -1    0    0  501    0  0.00000000000E+00  0.00000000000E+00  0.25352358916E+04  0.25352358916E+04  0.25500000920E-02 0. -1.
       -2   -1    0    0    0  501  0.00000000000E+00  0.00000000000E+00 -0.12033056059E+04  0.12033056059E+04  0.25500000920E-02 0.  1.
    10030    2    1    2    0    0  0.00000000000E+00  0.00000000000E+00  0.13319302857E+04  0.37385414975E+04  0.34932297724E+04 0.  0.
        2    1    3    3  502    0 -0.99023215880E+03 -0.11270430699E+02 -0.87381173139E+03  0.13206943980E+04  0.25500000920E-02 0.  1.
       -2    1    3    3    0  502  0.99023215880E+03  0.11270430699E+02  0.22057420171E+04  0.24178470995E+04  0.25500000920E-02 0. -1.
</event>
<event>
 5   0  0.6188930E-07  0.3466362E+04  0.7818609E-02  0.8121808E-01
       -2   -1    0    0    0  501  0.00000000000E+00  0.00000000000E+00  0.14986151042E+04  0.14986151042E+04  0.25500000920E-02 0.  1.
        2   -1    0    0  501    0  0.00000000000E+00  0.00000000000E+00 -0.20044620083E+04  0.20044620083E+04  0.25500000920E-02 0. -1.
    10030    2    1    2    0    0  0.00000000000E+00  0.00000000000E+00 -0.50584690410E+03  0.35030771125E+04  0.34663623824E+04 0.  0.
        3    1    3    3  502    0 -0.22338726202E+02  0.17310506537E+04 -0.33675778779E+03  0.17636442958E+04  0.10100000352E+00 0. -1.
       -3    1    3    3    0  502  0.22338726202E+02 -0.17310506537E+04 -0.16908911631E+03  0.17394328167E+04  0.10100000352E+00 0.  1.
</event>
<event>
 5   0  0.3061330E-07  0.3489546E+04  0.7818609E-02  0.8116272E-01
       -1   -1    0    0    0  501  0.00000000000E+00  0.00000000000E+00  0.18704634040E+04  0.18704634040E+04  0.50400001928E-02 0.  1.
        1   -1    0    0  501    0  0.00000000000E+00  0.00000000000E+00 -0.16275286237E+04  0.16275286237E+04  0.50400001928E-02 0. -1.
    10030    2    1    2    0    0  0.00000000000E+00  0.00000000000E+00  0.24293478031E+03  0.34979920277E+04  0.34895459473E+04 0.  0.
        5    1    3    3  502    0  0.29075091898E+03  0.62052907809E+03 -0.14869779699E+04  0.16372898358E+04  0.46999998093E+01 0. -1.
       -5    1    3    3    0  502 -0.29075091898E+03 -0.62052907809E+03  0.17299127502E+04  0.18607021919E+04  0.46999998093E+01 0.  1.
</event>
<event>
 5   0  0.3061330E-07  0.3523643E+04  0.7818609E-02  0.8108210E-01
       -1   -1    0    0    0  501  0.00000000000E+00  0.00000000000E+00  0.22728941221E+04  0.22728941221E+04  0.50400001928E-02 0.  1.
        1   -1    0    0  501    0  0.00000000000E+00  0.00000000000E+00 -0.13656663889E+04  0.13656663889E+04  0.50400001928E-02 0. -1.
    10030    2    1    2    0    0  0.00000000000E+00  0.00000000000E+00  0.90722773323E+03  0.36385605111E+04  0.35236430626E+04 0.  0.
        5    1    3    3  502    0 -0.14556611448E+04  0.74583291199E+03 -0.22255223074E+03  0.16506870347E+04  0.46999998093E+01 0. -1.
       -5    1    3    3    0  502  0.14556611448E+04 -0.74583291199E+03  0.11297799640E+04  0.19878734764E+04  0.46999998093E+01 0.  1.
</event>
<event>
 5   0  0.9311672E-07  0.2914259E+04  0.7818609E-02  0.8268648E-01
        2   -1    0    0  501    0  0.00000000000E+00  0.00000000000E+00  0.16059797513E+04  0.16059797513E+04  0.25500000920E-02 0.  1.
       -2   -1    0    0    0  501  0.00000000000E+00  0.00000000000E+00 -0.13220753510E+04  0.13220753510E+04  0.25500000920E-02 0. -1.
    10030    2    1    2    0    0  0.00000000000E+00  0.00000000000E+00  0.28390440028E+03  0.29280551023E+04  0.29142589064E+04 0.  0.
        4    1    3    3  502    0 -0.18222260239E+00 -0.12051765230E+04 -0.68093303581E+03  0.13842405488E+04  0.12699999809E+01 0. -1.
       -4    1    3    3    0  502  0.18222260239E+00  0.12051765230E+04  0.96483743609E+03  0.15438145535E+04  0.12699999809E+01 0.  1.
</event>
<event>
 5   0  0.9311672E-07  0.3520602E+04  0.7818609E-02  0.8108925E-01
        2   -1    0    0  501    0  0.00000000000E+00  0.00000000000E+00  0.13014062053E+04  0.13014062053E+04  0.25500000920E-02 0.  1.
       -2   -1    0    0    0  501  0.00000000000E+00  0.00000000000E+00 -0.23810087149E+04  0.23810087149E+04  0.25500000920E-02 0. -1.
    10030    2    1    2    0    0  0.00000000000E+00  0.00000000000E+00 -0.10796025096E+04  0.36824149202E+04  0.35206019465E+04 0.  0.
        4    1    3    3  502    0 -0.32319706684E+03  0.94929742415E+03  0.97342595458E+03  0.13975627519E+04  0.12699999809E+01 0.  1.
       -4    1    3    3    0  502  0.32319706684E+03 -0.94929742415E+03 -0.20530284642E+04  0.22848521683E+04  0.12699999809E+01 0. -1.
</event>
<event>
 5   0  0.8950809E-07  0.3459126E+04  0.7818609E-02  0.8123545E-01
       -2   -1    0    0    0  501  0.00000000000E+00  0.00000000000E+00  0.11407293760E+04  0.11407293760E+04  0.25500000920E-02 0.  1.
        2   -1    0    0  501    0  0.00000000000E+00  0.00000000000E+00 -0.26223465591E+04  0.26223465591E+04  0.25500000920E-02 0. -1.
    10030    2    1    2    0    0  0.00000000000E+00  0.00000000000E+00 -0.14816171831E+04  0.37630759350E+04  0.34591257588E+04 0.  0.
        2    1    3    3  502    0  0.34115148096E+03  0.13244294440E+04 -0.18925583804E+04  0.23350106870E+04  0.25500000920E-02 0. -1.
       -2    1    3    3    0  502 -0.34115148096E+03 -0.13244294440E+04  0.41094119729E+03  0.14280652481E+04  0.25500000920E-02 0.  1.
</event>
<event>
 5   0  0.2972541E-07  0.3505667E+04  0.7818609E-02  0.8112448E-01
        1   -1    0    0  501    0  0.00000000000E+00  0.00000000000E+00  0.17136054999E+04  0.17136054999E+04  0.50400001928E-02 0. -1.
       -1   -1    0    0    0  501  0.00000000000E+00  0.00000000000E+00 -0.17929594991E+04  0.17929594991E+04  0.50400001928E-02 0.  1.
    10030    2    1    2    0    0  0.00000000000E+00  0.00000000000E+00 -0.79353999260E+02  0.35065649990E+04  0.35056669886E+04 0.  0.
        3    1    3    3  502    0  0.13963081851E+03  0.88284506939E+03 -0.15478805602E+04  0.17874133325E+04  0.10100000352E+00 0.  1.
       -3    1    3    3    0  502 -0.13963081851E+03 -0.88284506939E+03  0.14685265610E+04  0.17191516665E+04  0.10100000352E+00 0. -1.
</event>
<event>
 5   0  0.6188930E-07  0.3528636E+04  0.7818609E-02  0.8107037E-01
        2   -1    0    0  501    0  0.00000000000E+00  0.00000000000E+00  0.21355876814E+04  0.21355876814E+04  0.25500000920E-02 0. -1.
       -2   -1    0    0    0  501  0.00000000000E+00  0.00000000000E+00 -0.14575929356E+04  0.14575929356E+04  0.25500000920E-02 0.  1.
    10030    2    1    2    0    0  0.00000000000E+00  0.00000000000E+00  0.67799474580E+03  0.35931806170E+04  0.35286357237E+04 0.  0.
        3    1    3    3  502    0  0.15806582794E+04 -0.49920562204E+03 -0.27631602523E+03  0.16804872523E+04  0.10100000352E+00 0.  1.
       -3    1    3    3    0  502 -0.15806582794E+04  0.49920562204E+03  0.95431077103E+03  0.19126933646E+04  0.10100000352E+00 0. -1.
</event>
<event>
 5   0  0.3061330E-07  0.3517533E+04  0.7818609E-02  0.8109647E-01
        1   -1    0    0  501    0  0.00000000000E+00  0.00000000000E+00  0.33672306197E+04  0.33672306197E+04  0.50400001928E-02 0. -1.
       -1   -1    0    0    0  501  0.00000000000E+00  0.00000000000E+00 -0.91863631062E+03  0.91863631063E+03  0.50400001928E-02 0.  1.
    10030    2    1    2    0    0  0.00000000000E+00  0.00000000000E+00  0.24485943091E+04  0.42858669304E+04  0.35175334048E+04 0.  0.
        5    1    3    3  502    0 -0.18013251929E+03 -0.62084682253E+03  0.32172174096E+04  0.32815253240E+04  0.46999998093E+01 0. -1.
       -5    1    3    3    0  502  0.18013251929E+03  0.62084682253E+03 -0.76862310051E+03  0.10043416063E+04  0.46999998093E+01 0.  1.
</event>
<event>
 5   0  0.2972541E-07  0.3337334E+04  0.7818609E-02  0.8153460E-01
        1   -1    0    0  501    0  0.00000000000E+00  0.00000000000E+00  0.18245295167E+04  0.18245295168E+04  0.50400001928E-02 0. -1.
       -1   -1    0    0    0  501  0.00000000000E+00  0.00000000000E+00 -0.15261195097E+04  0.15261195098E+04  0.50400001928E-02 0.  1.
    10030    2    1    2    0    0  0.00000000000E+00  0.00000000000E+00  0.29841000700E+03  0.33506490265E+04  0.33373343205E+04 0.  0.
        3    1    3    3  502    0 -0.13212347729E+04  0.11725419687E+03  0.11656869627E+04  0.17658527620E+04  0.10100000352E+00 0. -1.
       -3    1    3    3    0  502  0.13212347729E+04 -0.11725419687E+03 -0.86727695568E+03  0.15847962645E+04  0.10100000352E+00 0.  1.
</event>
<event>
 5   0  0.3061330E-07  0.3313958E+04  0.7818609E-02  0.8159353E-01
       -1   -1    0    0    0  501  0.00000000000E+00  0.00000000000E+00  0.14860825498E+04  0.14860825498E+04  0.50400001928E-02 0.  1.
        1   -1    0    0  501    0  0.00000000000E+00  0.00000000000E+00 -0.18475277125E+04  0.18475277125E+04  0.50400001928E-02 0. -1.
    10030    2    1    2    0    0  0.00000000000E+00  0.00000000000E+00 -0.36144516274E+03  0.33336102623E+04  0.33139575699E+04 0.  0.
        5    1    3    3  502    0  0.20077255769E+03  0.16251616039E+04 -0.43539731992E+03  0.16944181228E+04  0.46999998093E+01 0. -1.
       -5    1    3    3    0  502 -0.20077255769E+03 -0.16251616039E+04  0.73952157182E+02  0.16391921395E+04  0.46999998093E+01 0.  1.
</event>
<event>
 5   0  0.9311672E-07  0.3456030E+04  0.7818609E-02  0.8124290E-01
       -2   -1    0    0    0  501  0.00000000000E+00  0.00000000000E+00  0.11773744323E+04  0.11773744323E+04  0.25500000920E-02 0. -1.
        2   -1    0    0  501    0  0.00000000000E+00  0.00000000000E+00 -0.25361814733E+04  0.25361814733E+04  0.25500000920E-02 0.  1.
    10030    2    1    2    0    0  0.00000000000E+00  0.00000000000E+00 -0.13588070410E+04  0.37135559057E+04  0.34560296425E+04 0.  0.
        4    1    3    3  502    0  0.19544260689E+03 -0.47308317174E+03 -0.24528508717E+04  0.25056904262E+04  0.12699999809E+01 0.  1.
       -4    1    3    3    0  502 -0.19544260689E+03  0.47308317174E+03  0.10940438308E+04  0.12078654795E+04  0.12699999809E+01 0. -1.
</event>
<event>
 5   0  0.2936607E-07  0.3539693E+04  0.7818609E-02  0.8104447E-01
       -1   -1    0    0    0  501  0.00000000000E+00  0.00000000000E+00  0.14124361641E+04  0.14124361641E+04  0.50400001928E-02 0.  1.
        1   -1    0    0  501    0  0.00000000000E+00  0.00000000000E+00 -0.22176976954E+04  0.22176976954E+04  0.50400001928E-02 0. -1.
    10030    2    1    2    0    0  0.00000000000E+00  0.00000000000E+00 -0.80526153135E+03  0.36301338595E+04  0.35396928828E+04 0.  0.
        2    1    3    3  502    0 -0.32617151193E+03  0.15610323685E+04 -0.11898010910E+04  0.19896825242E+04  0.25500000920E-02 0. -1.
       -2    1    3    3    0  502  0.32617151193E+03 -0.15610323685E+04  0.38453955966E+03  0.16404513354E+04  0.25500000920E-02 0.  1.
</event>
<event>
 5   0  0.2972541E-07  0.3537179E+04  0.7818609E-02  0.8105035E-01
       -1   -1    0    0    0  501  0.00000000000E+00  0.00000000000E+00  0.12341868005E+04  0.12341868006E+04  0.50400001928E-02 0. -1.
        1   -1    0    0  501    0  0.00000000000E+00  0.00000000000E+00 -0.25343882233E+04  0.25343882233E+04  0.50400001928E-02 0.  1.
    10030    2    1    2    0    0  0.00000000000E+00  0.00000000000E+00 -0.13002014227E+04  0.37685750238E+04  0.35371788152E+04 0.  0.
        3    1    3    3  502    0  0.58798964803E+03  0.55609673330E+03  0.10253294609E+04  0.13062449680E+04  0.10100000352E+00 0. -1.
       -3    1    3    3    0  502 -0.58798964803E+03 -0.55609673330E+03 -0.23255308836E+04  0.24623300558E+04  0.10100000352E+00 0.  1.
</event>
<event>
 5   0  0.8950809E-07  0.3398596E+04  0.7818609E-02  0.8138251E-01
        2   -1    0    0  501    0  0.00000000000E+00  0.00000000000E+00  0.23021933472E+04  0.23021933472E+04  0.25500000920E-02 0. -1.
       -2   -1    0    0    0  501  0.00000000000E+00  0.00000000000E+00 -0.12542878517E+04  0.12542878517E+04  0.25500000920E-02 0.  1.
    10030    2    1    2    0    0  0.00000000000E+00  0.00000000000E+00  0.10479054955E+04  0.35564811989E+04  0.33985956793E+04 0.  0.
        2    1    3    3  502    0 -0.23493096884E+03  0.49801090269E+03 -0.11583391905E+04  0.12825588094E+04  0.25500000920E-02 0.  1.
       -2    1    3    3    0  502  0.23493096884E+03 -0.49801090269E+03  0.22062446860E+04  0.22739223895E+04  0.25500000920E-02 0. -1.
</event>
<event>
 5   0  0.2972541E-07  0.3477195E+04  0.7818609E-02  0.8119216E-01
        1   -1    0    0  501    0  0.00000000000E+00  0.00000000000E+00  0.21832070939E+04  0.21832070939E+04  0.50400001928E-02 0. -1.
       -1   -1    0    0    0  501  0.00000000000E+00  0.00000000000E+00 -0.13845326976E+04  0.13845326976E+04  0.50400001928E-02 0.  1.
    10030    2    1    2    0    0  0.00000000000E+00  0.00000000000E+00  0.79867439631E+03  0.35677397916E+04  0.34771951957E+04 0.  0.
        3    1    3    3  502    0  0.87989025624E+03  0.13411959205E+04  0.10874022858E+04  0.19379001784E+04  0.10100000352E+00 0. -1.
       -3    1    3    3    0  502 -0.87989025624E+03 -0.13411959205E+04 -0.28872788944E+03  0.16298396132E+04  0.10100000352E+00 0.  1.
</event>
<event>
 5   0  0.9311672E-07  0.3497715E+04  0.7818609E-02  0.8114332E-01
        2   -1    0    0  501    0  0.00000000000E+00  0.00000000000E+00  0.20304024800E+04  0.20304024800E+04  0.25500000920E-02 0.  1.
       -2   -1    0    0    0  501  0.00000000000E+00  0.00000000000E+00 -0.15063527817E+04  0.15063527817E+04  0.25500000920E-02 0. -1.
    10030    2    1    2    0    0  0.00000000000E+00  0.00000000000E+00  0.52404969838E+03  0.35367552617E+04  0.34977149247E+04 0.  0.
        4    1    3    3  502    0  0.11786097954E+04  0.12837941944E+04  0.11461624776E+03  0.17465357370E+04  0.12699999809E+01 0. -1.
       -4    1    3    3    0  502 -0.11786097954E+04 -0.12837941944E+04  0.40943345062E+03  0.17902195247E+04  0.12699999809E+01 0.  1.
</event>
<event>
 5   0  0.9128871E-07  0.3462181E+04  0.7818609E-02  0.8122812E-01
       -2   -1    0    0    0  501  0.00000000000E+00  0.00000000000E+00  0.14881980365E+04  0.14881980365E+04  0.25500000920E-02 0.  1.
        2   -1    0    0  501    0  0.00000000000E+00  0.00000000000E+00 -0.20136259409E+04  0.20136259409E+04  0.25500000920E-02 0. -1.
    10030    2    1    2    0    0  0.00000000000E+00  0.00000000000E+00 -0.52542790443E+03  0.35018239774E+04  0.34621809147E+04 0.  0.
        1    1    3    3  502    0  0.58890823753E+03  0.15328222814E+04  0.29157292175E+03  0.16677445330E+04  0.50400001928E-02 0. -1.
       -1    1    3    3    0  502 -0.58890823753E+03 -0.15328222814E+04 -0.81700082618E+03  0.18340794444E+04  0.50400001928E-02 0.  1.
</event>
<event>
 5   0  0.6188930E-07  0.3137867E+04  0.7818609E-02  0.8205422E-01
        2   -1    0    0  501    0  0.00000000000E+00  0.00000000000E+00  0.15191631662E+04  0.15191631662E+04  0.25500000920E-02 0.  1.
       -2   -1    0    0    0  501  0.00000000000E+00  0.00000000000E+00 -0.16203340482E+04  0.16203340482E+04  0.25500000920E-02 0. -1.
    10030    2    1    2    0    0  0.00000000000E+00  0.00000000000E+00 -0.10117088199E+03  0.31394972145E+04  0.31378666658E+04 0.  0.
        3    1    3    3  502    0  0.43472456096E+03 -0.15023580340E+04 -0.17509562386E+03  0.15737609710E+04  0.10100000352E+00 0.  1.
       -3    1    3    3    0  502 -0.43472456096E+03  0.15023580340E+04  0.73924741869E+02  0.15657362434E+04  0.10100000352E+00 0. -1.
</event>
<event>
 5   0  0.6188930E-07  0.3111099E+04  0.7818609E-02  0.8212698E-01
       -2   -1    0    0    0  501  0.00000000000E+00  0.00000000000E+00  0.23073351585E+04  0.23073351585E+04  0.25500000920E-02 0. -1.
        2   -1    0    0  501    0  0.00000000000E+00  0.00000000000E+00 -0.10487141020E+04  0.10487141020E+04  0.25500000920E-02 0.  1.
    10030    2    1    2    0    0  0.00000000000E+00  0.00000000000E+00  0.12586210566E+04  0.33560492605E+04  0.31110994318E+04 0.  0.
        3    1    3    3  502    0  0.13384301928E+03  0.64039101729E+03  0.21517099495E+04  0.22489709482E+04  0.10100000352E+00 0. -1.
       -3    1    3    3    0  502 -0.13384301928E+03 -0.64039101729E+03 -0.89308889290E+03  0.11070783123E+04  0.10100000352E+00 0.  1.
</event>
<event>
 5   0  0.6188930E-07  0.3523639E+04  0.7818609E-02  0.8108211E-01
       -2   -1    0    0    0  501  0.00000000000E+00  0.00000000000E+00  0.15411463035E+04  0.15411463035E+04  0.25500000920E-02 0. -1.
        2   -1    0    0  501    0  0.00000000000E+00  0.00000000000E+00 -0.20140900370E+04  0.20140900370E+04  0.25500000920E-02 0.  1.
    10030    2    1    2    0    0  0.00000000000E+00  0.00000000000E+00 -0.47294373352E+03  0.35552363405E+04  0.35236386962E+04 0.  0.
        3    1    3    3  502    0  0.96911884330E+02 -0.56114111667E+02 -0.20104954630E+04  0.20136118603E+04  0.10100000352E+00 0.  1.
       -3    1    3    3    0  502 -0.96911884330E+02  0.56114111667E+02  0.15375517295E+04  0.15416244802E+04  0.10100000352E+00 0. -1.
</event>
<event>
 5   0  0.2972541E-07  0.3420119E+04  0.7818609E-02  0.8132986E-01
       -1   -1    0    0    0  501  0.00000000000E+00  0.00000000000E+00  0.20777490410E+04  0.20777490410E+04  0.50400001928E-02 0.  1.
        1   -1    0    0  501    0  0.00000000000E+00  0.00000000000E+00 -0.14074383984E+04  0.14074383984E+04  0.50400001928E-02 0. -1.
    10030    2    1    2    0    0  0.00000000000E+00  0.00000000000E+00  0.67031064262E+03  0.34851874393E+04  0.34201191689E+04 0.  0.
        3    1    3    3  502    0  0.11606093958E+04 -0.10381394976E+04  0.10553949036E+04  0.18811183373E+04  0.10100000352E+00 0.  1.
       -3    1    3    3    0  502 -0.11606093958E+04  0.10381394976E+04 -0.38508426103E+03  0.16040691021E+04  0.10100000352E+00 0. -1.
</event>
<event>
 5   0  0.2933506E-07  0.3529215E+04  0.7818609E-02  0.8106901E-01
       -1   -1    0    0    0  501  0.00000000000E+00  0.00000000000E+00  0.22013189634E+04  0.22013189634E+04  0.50400001928E-02 0. -1.
        1   -1    0    0  501    0  0.00000000000E+00  0.00000000000E+00 -0.14145337171E+04  0.14145337171E+04  0.50400001928E-02 0.  1.
    10030    2    1    2    0    0  0.00000000000E+00  0.00000000000E+00  0.78678524634E+03  0.36158526805E+04  0.35292151512E+04 0.  0.
        4    1    3    3  502    0 -0.15091869295E+04 -0.76873271680E+03  0.90076987971E+03  0.19183282219E+04  0.12699999809E+01 0.  1.
       -4    1    3    3    0  502  0.15091869295E+04  0.76873271680E+03 -0.11398463337E+03  0.16975244586E+04  0.12699999809E+01 0. -1.
</event>
<event>
 5   0  0.9311672E-07  0.3279179E+04  0.7818609E-02  0.8168214E-01
       -2   -1    0    0    0  501  0.00000000000E+00  0.00000000000E+00  0.12438775074E+04  0.12438775074E+04  0.25500000920E-02 0.  1.
        2   -1    0    0  501    0  0.00000000000E+00  0.00000000000E+00 -0.21611879026E+04  0.21611879026E+04  0.25500000920E-02 0. -1.
    10030    2    1    2    0    0  0.00000000000E+00  0.00000000000E+00 -0.91731039518E+03  0.34050654100E+04  0.32791785687E+04 0.  0.
        4    1    3    3  502    0  0.25604224028E+03  0.37502561920E+03  0.11772781935E+04  0.12618190843E+04  0.12699999809E+01 0.  1.
       -4    1    3    3    0  502 -0.25604224028E+03 -0.37502561920E+03 -0.20945885887E+04  0.21432463257E+04  0.12699999809E+01 0. -1.
</event>
<event>
 5   0  0.3026332E-07  0.3499609E+04  0.7818609E-02  0.8113883E-01
       -1   -1    0    0    0  501  0.00000000000E+00  0.00000000000E+00  0.20706945544E+04  0.20706945544E+04  0.50400001928E-02 0.  1.
        1   -1    0    0  501    0  0.00000000000E+00  0.00000000000E+00 -0.14786422004E+04  0.14786422004E+04  0.50400001928E-02 0. -1.
    10030    2    1    2    0    0  0.00000000000E+00  0.00000000000E+00  0.59205235402E+03  0.35493367549E+04  0.34996093224E+04 0.  0.
        1    1    3    3  502    0 -0.12032795810E+04  0.81080309300E+03  0.12879483728E+04  0.19401274228E+04  0.50400001928E-02 0. -1.
       -1    1    3    3    0  502  0.12032795810E+04 -0.81080309300E+03 -0.69589601873E+03  0.16092093321E+04  0.50400001928E-02 0.  1.
</event>
<event>
 5   0  0.2936607E-07  0.3565284E+04  0.7818609E-02  0.8098490E-01
       -1   -1    0    0    0  501  0.00000000000E+00  0.00000000000E+00  0.13793807202E+04  0.13793807202E+04  0.50400001928E-02 0.  1.
        1   -1    0    0  501    0  0.00000000000E+00  0.00000000000E+00 -0.23037969086E+04  0.23037969087E+04  0.50400001928E-02 0. -1.
    10030    2    1    2    0    0  0.00000000000E+00  0.00000000000E+00 -0.92441618847E+03  0.36831776288E+04  0.35652843023E+04 0.  0.
        2    1    3    3  502    0 -0.26202236104E+03 -0.14695165451E+04  0.54453066120E+03  0.15889141685E+04  0.25500000920E-02 0.  1.
       -2    1    3    3    0  502  0.26202236104E+03  0.14695165451E+04 -0.14689468497E+04  0.20942634603E+04  0.25500000920E-02 0. -1.
</event>
<event>
 5   0  0.2972541E-07  0.3526601E+04  0.7818609E-02  0.8107515E-01
       -1   -1    0    0    0  501  0.00000000000E+00  0.00000000000E+00  0.20123034228E+04  0.20123034228E+04  0.50400001928E-02 0. -1.
        1   -1    0    0  501    0  0.00000000000E+00  0.00000000000E+00 -0.15451096888E+04  0.15451096889E+04  0.50400001928E-02 0.  1.
    10030    2    1    2    0    0  0.00000000000E+00  0.00000000000E+00  0.46719373393E+03  0.35574131116E+04  0.35266014890E+04 0.  0.
        3    1    3    3  502    0 -0.12948745371E+04 -0.96501713625E+03  0.94778785057E+03  0.18725009907E+04  0.10100000352E+00 0. -1.
       -3    1    3    3    0  502  0.12948745371E+04  0.96501713625E+03 -0.48059411664E+03  0.16849121210E+04  0.10100000352E+00 0.  1.
</event>
<event>
 5   0  0.3026332E-07  0.3511756E+04  0.7818609E-02  0.8111009E-01
       -1   -1    0    0    0  501  0.00000000000E+00  0.00000000000E+00  0.14474286086E+04  0.14474286086E+04  0.50400001928E-02 0.  1.
        1   -1    0    0  501    0  0.00000000000E+00  0.00000000000E+00 -0.21300589518E+04  0.21300589518E+04  0.50400001928E-02 0. -1.
    10030    2    1    2    0    0  0.00000000000E+00  0.00000000000E+00 -0.68263034316E+03  0.35774875605E+04  0.35117564067E+04 0.  0.
        1    1    3    3  502    0  0.84834573841E+03  0.89613483815E+03 -0.16138397243E+04  0.20315577265E+04  0.50400001928E-02 0. -1.
       -1    1    3    3    0  502 -0.84834573841E+03 -0.89613483815E+03  0.93120938118E+03  0.15459298340E+04  0.50400001928E-02 0.  1.
</event>
<event>
 5   0  0.3061330E-07  0.3472895E+04  0.7818609E-02  0.8120244E-01
        1   -1    0    0  501    0  0.00000000000E+00  0.00000000000E+00  0.22289913196E+04  0.22289913196E+04  0.50400001928E-02 0.  1.
       -1   -1    0    0    0  501  0.00000000000E+00  0.00000000000E+00 -0.13527415439E+04  0.13527415439E+04  0.50400001928E-02 0. -1.
    10030    2    1    2    0    0  0.00000000000E+00  0.00000000000E+00  0.87624977568E+03  0.35817328635E+04  0.34728945616E+04 0.  0.
        5    1    3    3  502    0  0.27802271019E+03 -0.16241328798E+04  0.10031283517E+04  0.19290911898E+04  0.46999998093E+01 0. -1.
       -5    1    3    3    0  502 -0.27802271019E+03  0.16241328798E+04 -0.12687857602E+03  0.16526416737E+04  0.46999998093E+01 0.  1.
</event>
<event>
 5   0  0.8845195E-07  0.2819625E+04  0.7818609E-02  0.8297201E-01
        2   -1    0    0  501    0  0.00000000000E+00  0.00000000000E+00  0.25740309727E+04  0.25740309727E+04  0.25500000920E-02 0.  1.
       -2   -1    0    0    0  501  0.00000000000E+00  0.00000000000E+00 -0.77216279387E+03  0.77216279388E+03  0.25500000920E-02 0. -1.
    10030    2    1    2    0    0  0.00000000000E+00  0.00000000000E+00  0.18018681788E+04  0.33461937666E+04  0.28196247604E+04 0.  0.
        5    1    3    3  502    0  0.68280365621E+03  0.86549087310E+03  0.19438270437E+04  0.22346769230E+04  0.46999998093E+01 0.  1.
       -5    1    3    3    0  502 -0.68280365621E+03 -0.86549087310E+03 -0.14195886483E+03  0.11115168436E+04  0.46999998093E+01 0. -1.
</event>
<event>
 5   0  0.3061330E-07  0.3493481E+04  0.7818609E-02  0.8115337E-01
        1   -1    0    0  501    0  0.00000000000E+00  0.00000000000E+00  0.18237794855E+04  0.18237794855E+04  0.50400001928E-02 0. -1.
       -1   -1    0    0    0  501  0.00000000000E+00  0.00000000000E+00 -0.16729553689E+04  0.16729553689E+04  0.50400001928E-02 0.  1.
    10030    2    1    2    0    0  0.00000000000E+00  0.00000000000E+00  0.15082411662E+03  0.34967348544E+04  0.34934806036E+04 0.  0.
        5    1    3    3  502    0  0.17097476501E+04 -0.35708696836E+03  0.57189004376E+02  0.17475814151E+04  0.46999998093E+01 0.  1.
       -5    1    3    3    0  502 -0.17097476501E+04  0.35708696836E+03  0.93635112249E+02  0.17491534393E+04  0.46999998093E+01 0. -1.
</event>
<event>
 5   0  0.8845195E-07  0.3493461E+04  0.7818609E-02  0.8115341E-01
        2   -1    0    0  501    0  0.00000000000E+00  0.00000000000E+00  0.14886380120E+04  0.14886380121E+04  0.25500000920E-02 0.  1.
       -2   -1    0    0    0  501  0.00000000000E+00  0.00000000000E+00 -0.20495694746E+04  0.20495694746E+04  0.25500000920E-02 0. -1.
    10030    2    1    2    0    0  0.00000000000E+00  0.00000000000E+00 -0.56093146254E+03  0.35382074866E+04  0.34934607645E+04 0.  0.
        5    1    3    3  502    0 -0.90468976129E+03 -0.27002852537E+03  0.12079378956E+04  0.15331389429E+04  0.46999998093E+01 0.  1.
       -5    1    3    3    0  502  0.90468976129E+03  0.27002852537E+03 -0.17688693582E+04  0.20050685437E+04  0.46999998093E+01 0. -1.
</event>
<event>
 5   0  0.8845195E-07  0.3509188E+04  0.7818609E-02  0.8111616E-01
       -2   -1    0    0    0  501  0.00000000000E+00  0.00000000000E+00  0.17155875585E+04  0.17155875585E+04  0.25500000920E-02 0. -1.
        2   -1    0    0  501    0  0.00000000000E+00  0.00000000000E+00 -0.17944868732E+04  0.17944868732E+04  0.25500000920E-02 0.  1.
    10030    2    1    2    0    0  0.00000000000E+00  0.00000000000E+00 -0.78899314687E+02  0.35100744317E+04  0.35091875718E+04 0.  0.
        5    1    3    3  502    0  0.82399299659E+03  0.15412074074E+04 -0.19534966600E+03  0.17585415301E+04  0.46999998093E+01 0.  1.
       -5    1    3    3    0  502 -0.82399299659E+03 -0.15412074074E+04  0.11645035131E+03  0.17515329016E+04  0.46999998093E+01 0. -1.
</event>
<event>
 5   0  0.3026332E-07  0.3432102E+04  0.7818609E-02  0.8130072E-01
        1   -1    0    0  501    0  0.00000000000E+00  0.00000000000E+00  0.17679047046E+04  0.17679047046E+04  0.50400001928E-02 0.  1.
       -1   -1    0    0    0  501  0.00000000000E+00  0.00000000000E+00 -0.16657184524E+04  0.16657184525E+04  0.50400001928E-02 0. -1.
    10030    2    1    2    0    0  0.00000000000E+00  0.00000000000E+00  0.10218625212E+03  0.34336231570E+04  0.34321022646E+04 0.  0.
        1    1    3    3  502    0  0.17274021292E+03 -0.11767739450E+04  0.12886519584E+04  0.17536419158E+04  0.50400001928E-02 0.  1.
       -1    1    3    3    0  502 -0.17274021292E+03  0.11767739450E+04 -0.11864657063E+04  0.16799812413E+04  0.50400001928E-02 0. -1.
</event>
<event>
 5   0  0.8845195E-07  0.3500674E+04  0.7818609E-02  0.8113630E-01
       -2   -1    0    0    0  501  0.00000000000E+00  0.00000000000E+00  0.26520933761E+04  0.26520933761E+04  0.25500000920E-02 0. -1.
        2   -1    0    0  501    0  0.00000000000E+00  0.00000000000E+00 -0.11551931291E+04  0.11551931291E+04  0.25500000920E-02 0.  1.
    10030    2    1    2    0    0  0.00000000000E+00  0.00000000000E+00  0.14969002470E+04  0.38072865051E+04  0.35006742469E+04 0.  0.
        5    1    3    3  502    0  0.19196001206E+02  0.21103567299E+03  0.26380840578E+04  0.26465853714E+04  0.46999998093E+01 0. -1.
       -5    1    3    3    0  502 -0.19196001206E+02 -0.21103567299E+03 -0.11411838108E+04  0.11607011337E+04  0.46999998093E+01 0.  1.
</event>
<event>
 5   0  0.2972541E-07  0.3396862E+04  0.7818609E-02  0.8138677E-01
        1   -1    0    0  501    0  0.00000000000E+00  0.00000000000E+00  0.26019136543E+04  0.26019136543E+04  0.50400001928E-02 0. -1.
       -1   -1    0    0    0  501  0.00000000000E+00  0.00000000000E+00 -0.11086718844E+04  0.11086718844E+04  0.50400001928E-02 0.  1.
    10030    2    1    2    0    0  0.00000000000E+00  0.00000000000E+00  0.14932417699E+04  0.37105855387E+04  0.33968623841E+04 0.  0.
        3    1    3    3  502    0 -0.53327450609E+03  0.12249018513E+04  0.18922434045E+04  0.23163228092E+04  0.10100000352E+00 0. -1.
       -3    1    3    3    0  502  0.53327450609E+03 -0.12249018513E+04 -0.39900163457E+03  0.13942627295E+04  0.10100000352E+00 0.  1.
</event>
<event>
 5   0  0.9311672E-07  0.3539223E+04  0.7818609E-02  0.8104557E-01
        2   -1    0    0  501    0  0.00000000000E+00  0.00000000000E+00  0.29090582921E+04  0.29090582921E+04  0.25500000920E-02 0. -1.
       -2   -1    0    0    0  501  0.00000000000E+00  0.00000000000E+00 -0.10764734671E+04  0.10764734671E+04  0.25500000920E-02 0.  1.
    10030    2    1    2    0    0  0.00000000000E+00  0.00000000000E+00  0.18325848249E+04  0.39855317592E+04  0.35392225506E+04 0.  0.
        4    1    3    3  502    0 -0.91792406474E+03  0.14549279356E+04  0.13834864678E+04  0.22075860812E+04  0.12699999809E+01 0. -1.
       -4    1    3    3    0  502  0.91792406474E+03 -0.14549279356E+04  0.44909835712E+03  0.17779456780E+04  0.12699999809E+01 0.  1.
</event>
<event>
 5   0  0.2936607E-07  0.3561158E+04  0.7818609E-02  0.8099447E-01
       -1   -1    0    0    0  501  0.00000000000E+00  0.00000000000E+00  0.10241781155E+04  0.10241781155E+04  0.50400001928E-02 0. -1.
        1   -1    0    0  501    0  0.00000000000E+00  0.00000000000E+00 -0.30956153526E+04  0.30956153526E+04  0.50400001928E-02 0.  1.
    10030    2    1    2    0    0  0.00000000000E+00  0.00000000000E+00 -0.20714372371E+04  0.41197934680E+04  0.35611579566E+04 0.  0.
        2    1    3    3  502    0  0.37106982677E+03 -0.72528692173E+03  0.79591149656E+03  0.11389508530E+04  0.25500000920E-02 0. -1.
       -2    1    3    3    0  502 -0.37106982677E+03  0.72528692173E+03 -0.28673487337E+04  0.29808426150E+04  0.25500000920E-02 0.  1.
</event>
<event>
 5   0  0.9311672E-07  0.3553661E+04  0.7818609E-02  0.8101189E-01
       -2   -1    0    0    0  501  0.00000000000E+00  0.00000000000E+00  0.14866220284E+04  0.14866220284E+04  0.25500000920E-02 0. -1.
        2   -1    0    0  501    0  0.00000000000E+00  0.00000000000E+00 -0.21236916674E+04  0.21236916674E+04  0.25500000920E-02 0.  1.
    10030    2    1    2    0    0  0.00000000000E+00  0.00000000000E+00 -0.63706963897E+03  0.36103136958E+04  0.35536611061E+04 0.  0.
        4    1    3    3  502    0  0.70705780963E+03 -0.13788448634E+04 -0.12018678200E+04  0.19610282439E+04  0.12699999809E+01 0. -1.
       -4    1    3    3    0  502 -0.70705780963E+03  0.13788448634E+04  0.56479818104E+03  0.16492854519E+04  0.12699999809E+01 0.  1.
</event>
<event>
 5   0  0.8950809E-07  0.3553988E+04  0.7818609E-02  0.8101113E-01
       -2   -1    0    0    0  501  0.00000000000E+00  0.00000000000E+00  0.15682281029E+04  0.15682281029E+04  0.25500000920E-02 0. -1.
        2   -1    0    0  501    0  0.00000000000E+00  0.00000000000E+00 -0.20135512512E+04  0.20135512512E+04  0.25500000920E-02 0.  1.
    10030    2    1    2    0    0  0.00000000000E+00  0.00000000000E+00 -0.44532314835E+03  0.35817793541E+04  0.35539879903E+04 0.  0.
        2    1    3    3  502    0  0.41377358713E+03  0.13329085403E+04  0.88587324117E+03  0.16530653821E+04  0.25500000920E-02 0. -1.
       -2    1    3    3    0  502 -0.41377358713E+03 -0.13329085403E+04 -0.13311963895E+04  0.19287139720E+04  0.25500000920E-02 0.  1.
</event>
<event>
 5   0  0.2933506E-07  0.3497627E+04  0.7818609E-02  0.8114353E-01
       -1   -1    0    0    0  501  0.00000000000E+00  0.00000000000E+00  0.19426287856E+04  0.19426287856E+04  0.50400001928E-02 0.  1.
        1   -1    0    0  501    0  0.00000000000E+00  0.00000000000E+00 -0.15743351824E+04  0.15743351824E+04  0.50400001928E-02 0. -1.
    10030    2    1    2    0    0  0.00000000000E+00  0.00000000000E+00  0.36829360324E+03  0.35169639680E+04  0.34976271062E+04 0.  0.
        4    1    3    3  502    0  0.95011305447E+03  0.99356119910E+03 -0.90278658318E+03  0.16446592049E+04  0.12699999809E+01 0. -1.
       -4    1    3    3    0  502 -0.95011305447E+03 -0.99356119910E+03  0.12710801864E+04  0.18723047631E+04  0.12699999809E+01 0.  1.
</event>
<event>
 5   0  0.3061330E-07  0.3362874E+04  0.7818609E-02  0.8147079E-01
        1   -1    0    0  501    0  0.00000000000E+00  0.00000000000E+00  0.20025267444E+04  0.20025267444E+04  0.50400001928E-02 0. -1.
       -1   -1    0    0    0  501  0.00000000000E+00  0.00000000000E+00 -0.14118316537E+04  0.14118316537E+04  0.50400001928E-02 0.  1.
    10030    2    1    2    0    0  0.00000000000E+00  0.00000000000E+00  0.59069509071E+03  0.34143583981E+04  0.33628741547E+04 0.  0.
        5    1    3    3  502    0 -0.12675652800E+04 -0.10014988715E+04 -0.17814698733E+03  0.16252631072E+04  0.46999998093E+01 0.  1.
       -5    1    3    3    0  502  0.12675652800E+04  0.10014988715E+04  0.76884207805E+03  0.17890952908E+04  0.46999998093E+01 0. -1.
</event>
<event>
 5   0  0.3026332E-07  0.3297284E+04  0.7818609E-02  0.8163587E-01
       -1   -1    0    0    0  501  0.00000000000E+00  0.00000000000E+00  0.27193116782E+04  0.27193116782E+04  0.50400001928E-02 0. -1.
        1   -1    0    0  501    0  0.00000000000E+00  0.00000000000E+00 -0.99952532793E+03  0.99952532794E+03  0.50400001928E-02 0.  1.
    10030    2    1    2    0    0  0.00000000000E+00  0.00000000000E+00  0.17197863503E+04  0.37188370062E+04  0.32972842746E+04 0.  0.
        1    1    3    3  502    0 -0.10223704729E+04 -0.12850756703E+04  0.69505730382E+03  0.17831897033E+04  0.50400001928E-02 0.  1.
       -1    1    3    3    0  502  0.10223704729E+04  0.12850756703E+04  0.10247290465E+04  0.19356473029E+04  0.50400001928E-02 0. -1.
</event>
<event>
 5   0  0.6188930E-07  0.3249162E+04  0.7818609E-02  0.8175953E-01
       -2   -1    0    0    0  501  0.00000000000E+00  0.00000000000E+00  0.14468926507E+04  0.14468926507E+04  0.25500000920E-02 0.  1.
        2   -1    0    0  501    0  0.00000000000E+00  0.00000000000E+00 -0.18240907605E+04  0.18240907605E+04  0.25500000920E-02 0. -1.
    10030    2    1    2    0    0  0.00000000000E+00  0.00000000000E+00 -0.37719810984E+03  0.32709834112E+04  0.32491620554E+04 0.  0.
        3    1    3    3  502    0  0.71393159003E+03 -0.21132384198E+03 -0.16422172710E+04  0.18031177601E+04  0.10100000352E+00 0. -1.
       -3    1    3    3    0  502 -0.71393159003E+03  0.21132384198E+03  0.12650191611E+04  0.14678656511E+04  0.10100000352E+00 0.  1.
</event>
<event>
 5   0  0.6188930E-07  0.3470625E+04  0.7818609E-02  0.8120787E-01
       -2   -1    0    0    0  501  0.00000000000E+00  0.00000000000E+00  0.12535263923E+04  0.12535263923E+04  0.25500000920E-02 0.  1.
        2   -1    0    0  501    0  0.00000000000E+00  0.00000000000E+00 -0.24022706793E+04  0.24022706793E+04  0.25500000920E-02 0. -1.
    10030    2    1    2    0    0  0.00000000000E+00  0.00000000000E+00 -0.11487442871E+04  0.36557970716E+04  0.34706251298E+04 0.  0.
        3    1    3    3  502    0  0.23406962476E+03  0.10169031757E+04 -0.20348653175E+04  0.22868225836E+04  0.10100000352E+00 0. -1.
       -3    1    3    3    0  502 -0.23406962476E+03 -0.10169031757E+04  0.88612103047E+03  0.13689744880E+04  0.10100000352E+00 0.  1.
</event>
<event>
 5   0  0.6188930E-07  0.3299499E+04  0.7818609E-02  0.8163023E-01
        2   -1    0    0  501    0  0.00000000000E+00  0.00000000000E+00  0.17580180077E+04  0.17580180077E+04  0.25500000920E-02 0.  1.
       -2   -1    0    0    0  501  0.00000000000E+00  0.00000000000E+00 -0.15481487457E+04  0.15481487457E+04  0.25500000920E-02 0. -1.
    10030    2    1    2    0    0  0.00000000000E+00  0.00000000000E+00  0.20986926199E+03  0.33061667535E+04  0.32994989763E+04 0.  0.
        3    1    3    3  502    0 -0.76193858212E+03  0.22615014088E+03  0.15535321108E+04  0.17450376267E+04  0.10100000352E+00 0.  1.
       -3    1    3    3    0  502  0.76193858212E+03 -0.22615014088E+03 -0.13436628488E+04  0.15611291268E+04  0.10100000352E+00 0. -1.
</event>
<event>
 5   0  0.2936607E-07  0.3313918E+04  0.7818609E-02  0.8159363E-01
       -1   -1    0    0    0  501  0.00000000000E+00  0.00000000000E+00  0.11792384833E+04  0.11792384833E+04  0.50400001928E-02 0. -1.
        1   -1    0    0  501    0  0.00000000000E+00  0.00000000000E+00 -0.23282089085E+04  0.23282089085E+04  0.50400001928E-02 0.  1.
    10030    2    1    2    0    0  0.00000000000E+00  0.00000000000E+00 -0.11489704252E+04  0.35074473918E+04  0.33139182501E+04 0.  0.
        2    1    3    3  502    0 -0.40314351850E+03  0.15031549145E+04  0.27514126476E+02  0.15565206136E+04  0.25500000920E-02 0. -1.
       -2    1    3    3    0  502  0.40314351850E+03 -0.15031549145E+04 -0.11764845517E+04  0.19509267782E+04  0.25500000920E-02 0.  1.
</event>
<event>
 5   0  0.9311672E-07  0.3496968E+04  0.7818609E-02  0.8114509E-01
        2   -1    0    0  501    0  0.00000000000E+00  0.00000000000E+00  0.24642156081E+04  0.24642156081E+04  0.25500000920E-02 0. -1.
       -2   -1    0    0    0  501  0.00000000000E+00  0.00000000000E+00 -0.12406367920E+04  0.12406367920E+04  0.25500000920E-02 0.  1.
    10030    2    1    2    0    0  0.00000000000E+00  0.00000000000E+00  0.12235788161E+04  0.37048524001E+04  0.34969681422E+04 0.  0.
        4    1    3    3  502    0  0.17229043534E+04 -0.24541179643E+03  0.43271912850E+03  0.17932857602E+04  0.12699999809E+01 0. -1.
       -4    1    3    3    0  502 -0.17229043534E+04  0.24541179643E+03  0.79085968755E+03  0.19115666399E+04  0.12699999809E+01 0.  1.
</event>
<event>
 5   0  0.3026332E-07  0.3446853E+04  0.7818609E-02  0.8126502E-01
        1   -1    0    0  501    0  0.00000000000E+00  0.00000000000E+00  0.18444845997E+04  0.18444845997E+04  0.50400001928E-02 0.  1.
       -1   -1    0    0    0  501  0.00000000000E+00  0.00000000000E+00 -0.16103139009E+04  0.16103139009E+04  0.50400001928E-02 0. -1.
    10030    2    1    2    0    0  0.00000000000E+00  0.00000000000E+00  0.23417069884E+03  0.34547985007E+04  0.34468531683E+04 0.  0.
        1    1    3    3  502    0 -0.46853740961E+03 -0.10130533920E+04  0.14332744201E+04  0.18166122433E+04  0.50400001928E-02 0.  1.
       -1    1    3    3    0  502  0.46853740961E+03  0.10130533920E+04 -0.11991037212E+04  0.16381862573E+04  0.50400001928E-02 0. -1.
</event>
<event>
 5   0  0.6188930E-07  0.3488458E+04  0.7818609E-02  0.8116531E-01
       -2   -1    0    0    0  501  0.00000000000E+00  0.00000000000E+00  0.14706580346E+04  0.14706580346E+04  0.25500000920E-02 0.  1.
        2   -1    0    0  501    0  0.00000000000E+00  0.00000000000E+00 -0.20686896932E+04  0.20686896932E+04  0.25500000920E-02 0. -1.
    10030    2    1    2    0    0  0.00000000000E+00  0.00000000000E+00 -0.59803165864E+03  0.35393477278E+04  0.34884581800E+04 0.  0.
        3    1    3    3  502    0  0.11378462226E+04 -0.71197368862E+03 -0.14291477696E+04  0.19606284495E+04  0.10100000352E+00 0. -1.
       -3    1    3    3    0  502 -0.11378462226E+04  0.71197368862E+03  0.83111611095E+03  0.15787192783E+04  0.10100000352E+00 0.  1.
</event>
<event>
 5   0  0.3026332E-07  0.3452820E+04  0.7818609E-02  0.8125063E-01
        1   -1    0    0  501    0  0.00000000000E+00  0.00000000000E+00  0.16366022998E+04  0.16366022998E+04  0.50400001928E-02 0. -1.
       -1   -1    0    0    0  501  0.00000000000E+00  0.00000000000E+00 -0.18211461020E+04  0.18211461020E+04  0.50400001928E-02 0.  1.
    10030    2    1    2    0    0  0.00000000000E+00  0.00000000000E+00 -0.18454380215E+03  0.34577484018E+04  0.34528202379E+04 0.  0.
        1    1    3    3  502    0 -0.45178056412E+03  0.14921972563E+04 -0.83477034794E+03  0.17685021526E+04  0.50400001928E-02 0.  1.
       -1    1    3    3    0  502  0.45178056412E+03 -0.14921972563E+04  0.65022654579E+03  0.16892462493E+04  0.50400001928E-02 0. -1.
</event>
<event>
 5   0  0.8845195E-07  0.3493090E+04  0.7818609E-02  0.8115430E-01
        2   -1    0    0  501    0  0.00000000000E+00  0.00000000000E+00  0.10214495237E+04  0.10214495237E+04  0.25500000920E-02 0. -1.
       -2   -1    0    0    0  501  0.00000000000E+00  0.00000000000E+00 -0.29863628528E+04  0.29863628528E+04  0.25500000920E-02 0.  1.
    10030    2    1    2    0    0  0.00000000000E+00  0.00000000000E+00 -0.19649133292E+04  0.40078123765E+04  0.34930897002E+04 0.  0.
        5    1    3    3  502    0 -0.76084550176E+03 -0.22561057528E+03  0.80263338230E+03  0.11287286856E+04  0.46999998093E+01 0. -1.
       -5    1    3    3    0  502  0.76084550176E+03  0.22561057528E+03 -0.27675467115E+04  0.28790836909E+04  0.46999998093E+01 0.  1.
</event>
<event>
 5   0  0.3061330E-07  0.3538933E+04  0.7818609E-02  0.8104625E-01
        1   -1    0    0  501    0  0.00000000000E+00  0.00000000000E+00  0.19142548453E+04  0.19142548453E+04  0.50400001928E-02 0.  1.
       -1   -1    0    0    0  501  0.00000000000E+00  0.00000000000E+00 -0.16356296204E+04  0.16356296204E+04  0.50400001928E-02 0. -1.
    10030    2    1    2    0    0  0.00000000000E+00  0.00000000000E+00  0.27862522483E+03  0.35498844657E+04  0.35389331308E+04 0.  0.
        5    1    3    3  502    0  0.16765814183E+04  0.55970580294E+03  0.22199339306E+03  0.17814317261E+04  0.46999998093E+01 0. -1.
       -5    1    3    3    0  502 -0.16765814183E+04 -0.55970580294E+03  0.56631831766E+02  0.17684527397E+04  0.46999998093E+01 0.  1.
</event>
<event>
 5   0  0.2936607E-07  0.3437951E+04  0.7818609E-02  0.8128654E-01
        1   -1    0    0  501    0  0.00000000000E+00  0.00000000000E+00  0.25128167487E+04  0.25128167487E+04  0.50400001928E-02 0.  1.
       -1   -1    0    0    0  501  0.00000000000E+00  0.00000000000E+00 -0.11759220319E+04  0.11759220319E+04  0.50400001928E-02 0. -1.
    10030    2    1    2    0    0  0.00000000000E+00  0.00000000000E+00  0.13368947168E+04  0.36887387807E+04  0.34379508880E+04 0.  0.
        2    1    3    3  502    0  0.75127673249E+03 -0.13043769998E+04  0.15590970211E+04  0.21671639549E+04  0.25500000920E-02 0.  1.
       -2    1    3    3    0  502 -0.75127673249E+03  0.13043769998E+04 -0.22220230428E+03  0.15215748257E+04  0.25500000920E-02 0. -1.
</event>
<event>
 5   0  0.8950809E-07  0.3499397E+04  0.7818609E-02  0.8113933E-01
       -2   -1    0    0    0  501  0.00000000000E+00  0.00000000000E+00  0.15860878912E+04  0.15860878912E+04  0.25500000920E-02 0. -1.
        2   -1    0    0  501    0  0.00000000000E+00  0.00000000000E+00 -0.19301862597E+04  0.19301862597E+04  0.25500000920E-02 0.  1.
    10030    2    1    2    0    0  0.00000000000E+00  0.00000000000E+00 -0.34409836850E+03  0.35162741509E+04  0.34993971220E+04 0.  0.
        2    1    3    3  502    0 -0.82144724066E+02 -0.73205852929E+03 -0.17667722351E+04  0.19141947594E+04  0.25500000920E-02 0.  1.
       -2    1    3    3    0  502  0.82144724066E+02  0.73205852929E+03  0.14226738666E+04  0.16020793915E+04  0.25500000920E-02 0. -1.
</event>
<event>
 5   0  0.6188930E-07  0.3448396E+04  0.7818609E-02  0.8126130E-01
        2   -1    0    0  501    0  0.00000000000E+00  0.00000000000E+00  0.19619583153E+04  0.19619583153E+04  0.25500000920E-02 0. -1.
       -2   -1    0    0    0  501  0.00000000000E+00  0.00000000000E+00 -0.15152504071E+04  0.15152504071E+04  0.25500000920E-02 0.  1.
    10030    2    1    2    0    0  0.00000000000E+00  0.00000000000E+00  0.44670790822E+03  0.34772087225E+04  0.34483956479E+04 0.  0.
        3    1    3    3  502    0  0.14963500871E+04 -0.75422935765E+03 -0.18615834457E+03  0.16859953875E+04  0.10100000352E+00 0.  1.
       -3    1    3    3    0  502 -0.14963500871E+04  0.75422935765E+03  0.63286625279E+03  0.17912133350E+04  0.10100000352E+00 0. -1.
</event>
<event>
 5   0  0.2972541E-07  0.3566947E+04  0.7818609E-02  0.8098105E-01
        1   -1    0    0  501    0  0.00000000000E+00  0.00000000000E+00  0.25168892413E+04  0.25168892413E+04  0.50400001928E-02 0.  1.
       -1   -1    0    0    0  501  0.00000000000E+00  0.00000000000E+00 -0.12637731129E+04  0.12637731129E+04  0.50400001928E-02 0. -1.
    10030    2    1    2    0    0  0.00000000000E+00  0.00000000000E+00  0.12531161284E+04  0.37806623542E+04  0.35669465661E+04 0.  0.
        3    1    3    3  502    0 -0.15489323941E+04  0.83300991014E+03  0.31270871256E+03  0.17863045152E+04  0.10100000352E+00 0.  1.
       -3    1    3    3    0  502  0.15489323941E+04 -0.83300991014E+03  0.94040741584E+03  0.19943578390E+04  0.10100000352E+00 0. -1.
</event>
<event>
 5   0  0.8845195E-07  0.3521914E+04  0.7818609E-02  0.8108616E-01
       -2   -1    0    0    0  501  0.00000000000E+00  0.00000000000E+00  0.12793784112E+04  0.12793784112E+04  0.25500000920E-02 0. -1.
        2   -1    0    0  501    0  0.00000000000E+00  0.00000000000E+00 -0.24238091932E+04  0.24238091932E+04  0.25500000920E-02 0.  1.
    10030    2    1    2    0    0  0.00000000000E+00  0.00000000000E+00 -0.11444307820E+04  0.37031876044E+04  0.35219137722E+04 0.  0.
        5    1    3    3  502    0  0.40566480129E+03  0.12531530972E+04 -0.18011275085E+04  0.22313760347E+04  0.46999998093E+01 0.  1.
       -5    1    3    3    0  502 -0.40566480129E+03 -0.12531530972E+04  0.65669672655E+03  0.14718115697E+04  0.46999998093E+01 0. -1.
</event>
<event>
 5   0  0.9311672E-07  0.3452118E+04  0.7818609E-02  0.8125232E-01
        2   -1    0    0  501    0  0.00000000000E+00  0.00000000000E+00  0.16252849089E+04  0.16252849089E+04  0.25500000920E-02 0.  1.
       -2   -1    0    0    0  501  0.00000000000E+00  0.00000000000E+00 -0.18330811610E+04  0.18330811610E+04  0.25500000920E-02 0. -1.
    10030    2    1    2    0    0  0.00000000000E+00  0.00000000000E+00 -0.20779625207E+03  0.34583660699E+04  0.34521176966E+04 0.  0.
        4    1    3    3  502    0  0.13669615714E+04  0.32858174814E+03  0.89927723973E+03  0.16689071483E+04  0.12699999809E+01 0.  1.
       -4    1    3    3    0  502 -0.13669615714E+04 -0.32858174814E+03 -0.11070734918E+04  0.17894589216E+04  0.12699999809E+01 0. -1.
</event>
<event>
 5   0  0.8950809E-07  0.3471829E+04  0.7818609E-02  0.8120499E-01
       -2   -1    0    0    0  501  0.00000000000E+00  0.00000000000E+00  0.16440456736E+04  0.16440456736E+04  0.25500000920E-02 0.  1.
        2   -1    0    0  501    0  0.00000000000E+00  0.00000000000E+00 -0.18329164399E+04  0.18329164399E+04  0.25500000920E-02 0. -1.
    10030    2    1    2    0    0  0.00000000000E+00  0.00000000000E+00 -0.18887076630E+03  0.34769621135E+04  0.34718285344E+04 0.  0.
        2    1    3    3  502    0  0.76588616242E+03 -0.11455922685E+04  0.96279364277E+03  0.16810517119E+04  0.25500000920E-02 0.  1.
       -2    1    3    3    0  502 -0.76588616242E+03  0.11455922685E+04 -0.11516644091E+04  0.17959104016E+04  0.25500000920E-02 0. -1.
</event>
<event>
 5   0  0.8845195E-07  0.3072427E+04  0.7818609E-02  0.8223346E-01
        2   -1    0    0  501    0  0.00000000000E+00  0.00000000000E+00  0.24700547644E+04  0.24700547644E+04  0.25500000920E-02 0. -1.
       -2   -1    0    0    0  501  0.00000000000E+00  0.00000000000E+00 -0.95542500490E+03  0.95542500491E+03  0.25500000920E-02 0.  1.
    10030    2    1    2    0    0  0.00000000000E+00  0.00000000000E+00  0.15146297595E+04  0.34254797693E+04  0.30724271092E+04 0.  0.
        5    1    3    3  502    0 -0.81114279599E+03 -0.72936581314E+03  0.19632759323E+04  0.22459745326E+04  0.46999998093E+01 0. -1.
       -5    1    3    3    0  502  0.81114279599E+03  0.72936581314E+03 -0.44864617284E+03  0.11795052366E+04  0.46999998093E+01 0.  1.
</event>
<event>
 5   0  0.8950809E-07  0.3552148E+04  0.7818609E-02  0.8101542E-01
        2   -1    0    0  501    0  0.00000000000E+00  0.00000000000E+00  0.32510495592E+04  0.32510495592E+04  0.25500000920E-02 0.  1.
       -2   -1    0    0    0  501  0.00000000000E+00  0.00000000000E+00 -0.97028317444E+03  0.97028317444E+03  0.25500000920E-02 0. -1.
    10030    2    1    2    0    0  0.00000000000E+00  0.00000000000E+00  0.22807663848E+04  0.42213327337E+04  0.35521479060E+04 0.  0.
        2    1    3    3  502    0 -0.16131280312E+04 -0.73388733262E+03  0.10014584356E+04  0.20356059688E+04  0.25500000920E-02 0. -1.
       -2    1    3    3    0  502  0.16131280312E+04  0.73388733262E+03  0.12793079492E+04  0.21857267649E+04  0.25500000920E-02 0.  1.
</event>
<event>
 5   0  0.8845195E-07  0.3207848E+04  0.7818609E-02  0.8186748E-01
        2   -1    0    0  501    0  0.00000000000E+00  0.00000000000E+00  0.28364001056E+04  0.28364001056E+04  0.25500000920E-02 0.  1.
       -2   -1    0    0    0  501  0.00000000000E+00  0.00000000000E+00 -0.90698484503E+03  0.90698484504E+03  0.25500000920E-02 0. -1.
    10030    2    1    2    0    0  0.00000000000E+00  0.00000000000E+00  0.19294152606E+04  0.37433849507E+04  0.32078478207E+04 0.  0.
        5    1    3    3  502    0  0.43431451273E+03 -0.15063427710E+02 -0.83696535948E+03  0.94307428434E+03  0.46999998093E+01 0. -1.
       -5    1    3    3    0  502 -0.43431451273E+03  0.15063427710E+02  0.27663806201E+04  0.28003106663E+04  0.46999998093E+01 0.  1.
</event>
<event>
 5   0  0.9311672E-07  0.3609237E+04  0.7818609E-02  0.8088379E-01
       -2   -1    0    0    0  501  0.00000000000E+00  0.00000000000E+00  0.15435519258E+04  0.15435519258E+04  0.25500000920E-02 0.  1.
        2   -1    0    0  501    0  0.00000000000E+00  0.00000000000E+00 -0.21098400199E+04  0.21098400199E+04  0.25500000920E-02 0. -1.
    10030    2    1    2    0    0  0.00000000000E+00  0.00000000000E+00 -0.56628809405E+03  0.36533919457E+04  0.36092368312E+04 0.  0.
        4    1    3    3  502    0  0.44829212192E+03  0.12421915331E+04 -0.15280849369E+04  0.20196660166E+04  0.12699999809E+01 0. -1.
       -4    1    3    3    0  502 -0.44829212192E+03 -0.12421915331E+04  0.96179684284E+03  0.16337259291E+04  0.12699999809E+01 0.  1.
</event>
<event>
 5   0  0.8950809E-07  0.3662379E+04  0.7818609E-02  0.8076351E-01
       -2   -1    0    0    0  501  0.00000000000E+00  0.00000000000E+00  0.22553535831E+04  0.22553535831E+04  0.25500000920E-02 0.  1.
        2   -1    0    0  501    0  0.00000000000E+00  0.00000000000E+00 -0.14867981354E+04  0.14867981354E+04  0.25500000920E-02 0. -1.
    10030    2    1    2    0    0  0.00000000000E+00  0.00000000000E+00  0.76855544763E+03  0.37421517185E+04  0.36623792824E+04 0.  0.
        2    1    3    3  502    0  0.15185693299E+04 -0.67716342936E+03 -0.39967076185E+03  0.17100701265E+04  0.25500000920E-02 0. -1.
       -2    1    3    3    0  502 -0.15185693299E+04  0.67716342936E+03  0.11682262095E+04  0.20320815919E+04  0.25500000920E-02 0.  1.
</event>
<event>
 5   0  0.8845195E-07  0.3497004E+04  0.7818609E-02  0.8114500E-01
       -2   -1    0    0    0  501  0.00000000000E+00  0.00000000000E+00  0.26714812360E+04  0.26714812360E+04  0.25500000920E-02 0. -1.
        2   -1    0    0  501    0  0.00000000000E+00  0.00000000000E+00 -0.11444060434E+04  0.11444060434E+04  0.25500000920E-02 0.  1.
    10030    2    1    2    0    0  0.00000000000E+00  0.00000000000E+00  0.15270751925E+04  0.38158872794E+04  0.34970040157E+04 0.  0.
        5    1    3    3  502    0  0.46285529384E+03  0.14799772729E+04  0.16450857537E+04  0.22607293023E+04  0.46999998093E+01 0.  1.
       -5    1    3    3    0  502 -0.46285529384E+03 -0.14799772729E+04 -0.11801056115E+03  0.15551579771E+04  0.46999998093E+01 0. -1.
</event>
<event>
 5   0  0.2933506E-07  0.3504697E+04  0.7818609E-02  0.8112678E-01
        1   -1    0    0  501    0  0.00000000000E+00  0.00000000000E+00  0.15562971975E+04  0.15562971975E+04  0.50400001928E-02 0. -1.
       -1   -1    0    0    0  501  0.00000000000E+00  0.00000000000E+00 -0.19730964988E+04  0.19730964988E+04  0.50400001928E-02 0.  1.
    10030    2    1    2    0    0  0.00000000000E+00  0.00000000000E+00 -0.41679930128E+03  0.35293936963E+04  0.35046965925E+04 0.  0.
        4    1    3    3  502    0 -0.48711405787E+03 -0.14774654056E+04 -0.10206432249E+04  0.18606177295E+04  0.12699999809E+01 0.  1.
       -4    1    3    3    0  502  0.48711405787E+03  0.14774654056E+04  0.60384392359E+03  0.16687759667E+04  0.12699999809E+01 0. -1.
</event>
<event>
 5   0  0.6188930E-07  0.3509642E+04  0.7818609E-02  0.8111509E-01
        2   -1    0    0  501    0  0.00000000000E+00  0.00000000000E+00  0.16081875918E+04  0.16081875918E+04  0.25500000920E-02 0. -1.
       -2   -1    0    0    0  501  0.00000000000E+00  0.00000000000E+00 -0.19148240200E+04  0.19148240200E+04  0.25500000920E-02 0.  1.
    10030    2    1    2    0    0  0.00000000000E+00  0.00000000000E+00 -0.30663642826E+03  0.35230116118E+04  0.35096417079E+04 0.  0.
        3    1    3    3  502    0 -0.10460946217E+04  0.63660324821E+03 -0.14150147155E+04  0.18713215406E+04  0.10100000352E+00 0.  1.
       -3    1    3    3    0  502  0.10460946217E+04 -0.63660324821E+03  0.11083782872E+04  0.16516900711E+04  0.10100000352E+00 0. -1.
</event>
<event>
 5   0  0.2933506E-07  0.3530501E+04  0.7818609E-02  0.8106599E-01
       -1   -1    0    0    0  501  0.00000000000E+00  0.00000000000E+00  0.12318258847E+04  0.12318258847E+04  0.50400001928E-02 0. -1.
        1   -1    0    0  501    0  0.00000000000E+00  0.00000000000E+00 -0.25296674287E+04  0.25296674287E+04  0.50400001928E-02 0.  1.
    10030    2    1    2    0    0  0.00000000000E+00  0.00000000000E+00 -0.12978415441E+04  0.37614933134E+04  0.35305012779E+04 0.  0.
        4    1    3    3  502    0 -0.16796802585E+04  0.53902265162E+03 -0.71827196683E+03  0.19046751485E+04  0.12699999809E+01 0. -1.
       -4    1    3    3    0  502  0.16796802585E+04 -0.53902265162E+03 -0.57956957724E+03  0.18568181649E+04  0.12699999809E+01 0.  1.
</event>
<event>
 5   0  0.8950809E-07  0.3014371E+04  0.7818609E-02  0.8239639E-01
        2   -1    0    0  501    0  0.00000000000E+00  0.00000000000E+00  0.24864359699E+04  0.24864359699E+04  0.25500000920E-02 0.  1.
       -2   -1    0    0    0  501  0.00000000000E+00  0.00000000000E+00 -0.91359994039E+03  0.91359994040E+03  0.25500000920E-02 0. -1.
    10030    2    1    2    0    0  0.00000000000E+00  0.00000000000E+00  0.15728360295E+04  0.34000359103E+04  0.30143707495E+04 0.  0.
        2    1    3    3  502    0  0.14372946463E+04  0.34765831181E+03  0.45771323001E+03  0.15479611116E+04  0.25500000920E-02 0.  1.
       -2    1    3    3    0  502 -0.14372946463E+04 -0.34765831181E+03  0.11151227995E+04  0.18520747987E+04  0.25500000920E-02 0. -1.
</event>
<event>
 5   0  0.8845195E-07  0.3473561E+04  0.7818609E-02  0.8120084E-01
       -2   -1    0    0    0  501  0.00000000000E+00  0.00000000000E+00  0.12879660981E+04  0.12879660981E+04  0.25500000920E-02 0.  1.
        2   -1    0    0  501    0  0.00000000000E+00  0.00000000000E+00 -0.23419915361E+04  0.23419915361E+04  0.25500000920E-02 0. -1.
    10030    2    1    2    0    0  0.00000000000E+00  0.00000000000E+00 -0.10540254380E+04  0.36299576342E+04  0.34735605368E+04 0.  0.
        5    1    3    3  502    0 -0.28882949730E+02 -0.10892336681E+04  0.88633073737E+03  0.14045883648E+04  0.46999998093E+01 0.  1.
       -5    1    3    3    0  502  0.28882949730E+02  0.10892336681E+04 -0.19403561753E+04  0.22253692695E+04  0.46999998093E+01 0. -1.
</event>
<event>
 5   0  0.3026332E-07  0.3509837E+04  0.7818609E-02  0.8111463E-01
        1   -1    0    0  501    0  0.00000000000E+00  0.00000000000E+00  0.21848406152E+04  0.21848406152E+04  0.50400001928E-02 0. -1.
       -1   -1    0    0    0  501  0.00000000000E+00  0.00000000000E+00 -0.14095943030E+04  0.14095943030E+04  0.50400001928E-02 0.  1.
    10030    2    1    2    0    0  0.00000000000E+00  0.00000000000E+00  0.77524631227E+03  0.35944349182E+04  0.35098369673E+04 0.  0.
        1    1    3    3  502    0 -0.12426116006E+04 -0.10862063259E+03  0.16518231004E+04  0.20698796069E+04  0.50400001928E-02 0. -1.
       -1    1    3    3    0  502  0.12426116006E+04  0.10862063259E+03 -0.87657678816E+03  0.15245553114E+04  0.50400001928E-02 0.  1.
</event>
<event>
 5   0  0.2933506E-07  0.3501778E+04  0.7818609E-02  0.8113369E-01
        1   -1    0    0  501    0  0.00000000000E+00  0.00000000000E+00  0.21534966441E+04  0.21534966441E+04  0.50400001928E-02 0.  1.
       -1   -1    0    0    0  501  0.00000000000E+00  0.00000000000E+00 -0.14235509659E+04  0.14235509659E+04  0.50400001928E-02 0. -1.
    10030    2    1    2    0    0  0.00000000000E+00  0.00000000000E+00  0.72994567822E+03  0.35770476100E+04  0.35017779643E+04 0.  0.
        4    1    3    3  502    0 -0.22788877934E+03  0.13987814881E+04 -0.68527456844E+03  0.15742064015E+04  0.12699999809E+01 0. -1.
       -4    1    3    3    0  502  0.22788877934E+03 -0.13987814881E+04  0.14152202467E+04  0.20028412086E+04  0.12699999809E+01 0.  1.
</event>
<event>
 5   0  0.2972541E-07  0.3474694E+04  0.7818609E-02  0.8119813E-01
        1   -1    0    0  501    0  0.00000000000E+00  0.00000000000E+00  0.23365987683E+04  0.23365987683E+04  0.50400001928E-02 0.  1.
       -1   -1    0    0    0  501  0.00000000000E+00  0.00000000000E+00 -0.12917816237E+04  0.12917816238E+04  0.50400001928E-02 0. -1.
    10030    2    1    2    0    0  0.00000000000E+00  0.00000000000E+00  0.10448171445E+04  0.36283803920E+04  0.34746944331E+04 0.  0.
        3    1    3    3  502    0  0.14293973544E+04 -0.94978418771E+03  0.80475366927E+03  0.18954934129E+04  0.10100000352E+00 0. -1.
       -3    1    3    3    0  502 -0.14293973544E+04  0.94978418771E+03  0.24006347526E+03  0.17328869791E+04  0.10100000352E+00 0.  1.
</event>
<event>
 5   0  0.3061330E-07  0.3512868E+04  0.7818609E-02  0.8110747E-01
        1   -1    0    0  501    0  0.00000000000E+00  0.00000000000E+00  0.23485553590E+04  0.23485553590E+04  0.50400001928E-02 0.  1.
       -1   -1    0    0    0  501  0.00000000000E+00  0.00000000000E+00 -0.13135989609E+04  0.13135989609E+04  0.50400001928E-02 0. -1.
    10030    2    1    2    0    0  0.00000000000E+00  0.00000000000E+00  0.10349563981E+04  0.36621543199E+04  0.35128677055E+04 0.  0.
        5    1    3    3  502    0 -0.52203610933E+03  0.49866444686E+03 -0.11517708636E+04  0.13593329770E+04  0.46999998093E+01 0. -1.
       -5    1    3    3    0  502  0.52203610933E+03 -0.49866444686E+03  0.21867272617E+04  0.23028213429E+04  0.46999998093E+01 0.  1.
</event>
<event>
 5   0  0.3061330E-07  0.3524526E+04  0.7818609E-02  0.8108002E-01
       -1   -1    0    0    0  501  0.00000000000E+00  0.00000000000E+00  0.13418952739E+04  0.13418952739E+04  0.50400001928E-02 0.  1.
        1   -1    0    0  501    0  0.00000000000E+00  0.00000000000E+00 -0.23143164329E+04  0.23143164329E+04  0.50400001928E-02 0. -1.
    10030    2    1    2    0    0  0.00000000000E+00  0.00000000000E+00 -0.97242115904E+03  0.36562117068E+04  0.35245256609E+04 0.  0.
        5    1    3    3  502    0  0.53291917078E+03 -0.37040297239E+02  0.12558712923E+04  0.13647745671E+04  0.46999998093E+01 0.  1.
       -5    1    3    3    0  502 -0.53291917078E+03  0.37040297239E+02 -0.22282924514E+04  0.22914371397E+04  0.46999998093E+01 0. -1.
</event>
<event>
 5   0  0.3026332E-07  0.3421468E+04  0.7818609E-02  0.8132657E-01
       -1   -1    0    0    0  501  0.00000000000E+00  0.00000000000E+00  0.13672187277E+04  0.13672187277E+04  0.50400001928E-02 0.  1.
        1   -1    0    0  501    0  0.00000000000E+00  0.00000000000E+00 -0.21405582178E+04  0.21405582178E+04  0.50400001928E-02 0. -1.
    10030    2    1    2    0    0  0.00000000000E+00  0.00000000000E+00 -0.77333949016E+03  0.35077769455E+04  0.34214682714E+04 0.  0.
        1    1    3    3  502    0  0.95503011882E+03 -0.63896095111E+03  0.91268296946E+03  0.14674276226E+04  0.50400001928E-02 0. -1.
       -1    1    3    3    0  502 -0.95503011882E+03  0.63896095111E+03 -0.16860224596E+04  0.20403493229E+04  0.50400001928E-02 0.  1.
</event>
<event>
 5   0  0.6188930E-07  0.3201295E+04  0.7818609E-02  0.8188475E-01
        2   -1    0    0  501    0  0.00000000000E+00  0.00000000000E+00  0.19670982805E+04  0.19670982805E+04  0.25500000920E-02 0.  1.
       -2   -1    0    0    0  501  0.00000000000E+00  0.00000000000E+00 -0.13024631801E+04  0.13024631801E+04  0.25500000920E-02 0. -1.
    10030    2    1    2    0    0  0.00000000000E+00  0.00000000000E+00  0.66463510045E+03  0.32695614606E+04  0.32012954140E+04 0.  0.
        3    1    3    3  502    0 -0.95675230027E+03 -0.12064532780E+04 -0.11423443864E+03  0.15440058268E+04  0.10100000352E+00 0. -1.
       -3    1    3    3    0  502  0.95675230027E+03  0.12064532780E+04  0.77886953909E+03  0.17255556338E+04  0.10100000352E+00 0.  1.
</event>
<event>
 5   0  0.3061330E-07  0.2919421E+04  0.7818609E-02  0.8267123E-01
        1   -1    0    0  501    0  0.00000000000E+00  0.00000000000E+00  0.23776253123E+04  0.23776253123E+04  0.50400001928E-02 0.  1.
       -1   -1    0    0    0  501  0.00000000000E+00  0.00000000000E+00 -0.89616897610E+03  0.89616897612E+03  0.50400001928E-02 0. -1.
    10030    2    1    2    0    0  0.00000000000E+00  0.00000000000E+00  0.14814563362E+04  0.32737942884E+04  0.29194205190E+04 0.  0.
        5    1    3    3  502    0 -0.99061220074E+03  0.10697778147E+04  0.66147515070E+03  0.16010335943E+04  0.46999998093E+01 0. -1.
       -5    1    3    3    0  502  0.99061220074E+03 -0.10697778147E+04  0.81998118551E+03  0.16727606941E+04  0.46999998093E+01 0.  1.
</event>
<event>
 5   0  0.8845195E-07  0.3474081E+04  0.7818609E-02  0.8119960E-01
        2   -1    0    0  501    0  0.00000000000E+00  0.00000000000E+00  0.17143513110E+04  0.17143513110E+04  0.25500000920E-02 0.  1.
       -2   -1    0    0    0  501  0.00000000000E+00  0.00000000000E+00 -0.17600300989E+04  0.17600300989E+04  0.25500000920E-02 0. -1.
    10030    2    1    2    0    0  0.00000000000E+00  0.00000000000E+00 -0.45678787948E+02  0.34743814099E+04  0.34740811202E+04 0.  0.
        5    1    3    3  502    0  0.12578489987E+04 -0.58353590414E+03 -0.10691561706E+04  0.17509469615E+04  0.46999998093E+01 0. -1.
       -5    1    3    3    0  502 -0.12578489987E+04  0.58353590414E+03  0.10234773826E+04  0.17234344484E+04  0.46999998093E+01 0.  1.
</event>
<event>
 5   0  0.2933506E-07  0.3315734E+04  0.7818609E-02  0.8158903E-01
        1   -1    0    0  501    0  0.00000000000E+00  0.00000000000E+00  0.18789484627E+04  0.18789484627E+04  0.50400001928E-02 0. -1.
       -1   -1    0    0    0  501  0.00000000000E+00  0.00000000000E+00 -0.14627981454E+04  0.14627981454E+04  0.50400001928E-02 0.  1.
    10030    2    1    2    0    0  0.00000000000E+00  0.00000000000E+00  0.41615031736E+03  0.33417466081E+04  0.33157336000E+04 0.  0.
        4    1    3    3  502    0  0.56621032741E+03 -0.96205520021E+03  0.14434059252E+04  0.18247100101E+04  0.12699999809E+01 0. -1.
       -4    1    3    3    0  502 -0.56621032741E+03  0.96205520021E+03 -0.10272556078E+04  0.15170365980E+04  0.12699999809E+01 0.  1.
</event>
<event>
 5   0  0.3061330E-07  0.3468467E+04  0.7818609E-02  0.8121304E-01
       -1   -1    0    0    0  501  0.00000000000E+00  0.00000000000E+00  0.23833247466E+04  0.23833247466E+04  0.50400001928E-02 0.  1.
        1   -1    0    0  501    0  0.00000000000E+00  0.00000000000E+00 -0.12619201553E+04  0.12619201553E+04  0.50400001928E-02 0. -1.
    10030    2    1    2    0    0  0.00000000000E+00  0.00000000000E+00  0.11214045913E+04  0.36452449020E+04  0.34684668281E+04 0.  0.
        5    1    3    3  502    0  0.43461415687E+03 -0.12222138287E+04  0.17703867076E+04  0.21947636075E+04  0.46999998093E+01 0.  1.
       -5    1    3    3    0  502 -0.43461415687E+03  0.12222138287E+04 -0.64898211625E+03  0.14504812945E+04  0.46999998093E+01 0. -1.
</event>
<event>
 5   0  0.6188930E-07  0.3512741E+04  0.7818609E-02  0.8110777E-01
       -2   -1    0    0    0  501  0.00000000000E+00  0.00000000000E+00  0.19804880676E+04  0.19804880676E+04  0.25500000920E-02 0. -1.
        2   -1    0    0  501    0  0.00000000000E+00  0.00000000000E+00 -0.15576150765E+04  0.15576150765E+04  0.25500000920E-02 0.  1.
    10030    2    1    2    0    0  0.00000000000E+00  0.00000000000E+00  0.42287299105E+03  0.35381031441E+04  0.35127414211E+04 0.  0.
        3    1    3    3  502    0  0.10705041402E+04  0.11818479092E+04  0.95302296169E+03  0.18576857566E+04  0.10100000352E+00 0. -1.
       -3    1    3    3    0  502 -0.10705041402E+04 -0.11818479092E+04 -0.53014997064E+03  0.16804173875E+04  0.10100000352E+00 0.  1.
</event>
<event>
 5   0  0.8845195E-07  0.3544200E+04  0.7818609E-02  0.8103394E-01
        2   -1    0    0  501    0  0.00000000000E+00  0.00000000000E+00  0.20460753809E+04  0.20460753809E+04  0.25500000920E-02 0.  1.
       -2   -1    0    0    0  501  0.00000000000E+00  0.00000000000E+00 -0.15348107474E+04  0.15348107474E+04  0.25500000920E-02 0. -1.
    10030    2    1    2    0    0  0.00000000000E+00  0.00000000000E+00  0.51126463348E+03  0.35808861283E+04  0.35442000421E+04 0.  0.
        5    1    3    3  502    0  0.14947454459E+04 -0.93547415494E+03  0.77912313080E+02  0.17650689111E+04  0.46999998093E+01 0.  1.
       -5    1    3    3    0  502 -0.14947454459E+04  0.93547415494E+03  0.43335232040E+03  0.18158172171E+04  0.46999998093E+01 0. -1.
</event>
<event>
 5   0  0.3061330E-07  0.3507945E+04  0.7818609E-02  0.8111910E-01
        1   -1    0    0  501    0  0.00000000000E+00  0.00000000000E+00  0.21632267871E+04  0.21632267871E+04  0.50400001928E-02 0. -1.
       -1   -1    0    0    0  501  0.00000000000E+00  0.00000000000E+00 -0.14221440175E+04  0.14221440175E+04  0.50400001928E-02 0.  1.
    10030    2    1    2    0    0  0.00000000000E+00  0.00000000000E+00  0.74108276952E+03  0.35853708046E+04  0.35079452868E+04 0.  0.
        5    1    3    3  502    0 -0.13365349893E+04  0.67982870059E+02 -0.78825983769E+03  0.15531655127E+04  0.46999998093E+01 0.  1.
       -5    1    3    3    0  502  0.13365349893E+04 -0.67982870059E+02  0.15293426072E+04  0.20322052919E+04  0.46999998093E+01 0. -1.
</event>
<event>
 5   0  0.9311672E-07  0.3569951E+04  0.7818609E-02  0.8097410E-01
       -2   -1    0    0    0  501  0.00000000000E+00  0.00000000000E+00  0.11313919732E+04  0.11313919732E+04  0.25500000920E-02 0.  1.
        2   -1    0    0  501    0  0.00000000000E+00  0.00000000000E+00 -0.28161221386E+04  0.28161221386E+04  0.25500000920E-02 0. -1.
    10030    2    1    2    0    0  0.00000000000E+00  0.00000000000E+00 -0.16847301654E+04  0.39475141117E+04  0.35699512507E+04 0.  0.
        4    1    3    3  502    0  0.16593661365E+04  0.65771592879E+03 -0.83453426388E+03  0.19704149990E+04  0.12699999809E+01 0.  1.
       -4    1    3    3    0  502 -0.16593661365E+04 -0.65771592879E+03 -0.85019590150E+03  0.19770991127E+04  0.12699999809E+01 0. -1.
</event>
<event>
 5   0  0.3026332E-07  0.3510216E+04  0.7818609E-02  0.8111373E-01
        1   -1    0    0  501    0  0.00000000000E+00  0.00000000000E+00  0.21481192660E+04  0.21481192660E+04  0.50400001928E-02 0. -1.
       -1   -1    0    0    0  501  0.00000000000E+00  0.00000000000E+00 -0.14340005559E+04  0.14340005559E+04  0.50400001928E-02 0.  1.
    10030    2    1    2    0    0  0.00000000000E+00  0.00000000000E+00  0.71411871006E+03  0.35821198220E+04  0.35102160741E+04 0.  0.
        1    1    3    3  502    0  0.99919293874E+03 -0.14271581675E+04  0.14001205242E+03  0.17477901301E+04  0.50400001928E-02 0. -1.
       -1    1    3    3    0  502 -0.99919293874E+03  0.14271581675E+04  0.57410665764E+03  0.18343296919E+04  0.50400001928E-02 0.  1.
</event>
<event>
 5   0  0.2936607E-07  0.3491335E+04  0.7818609E-02  0.8115847E-01
       -1   -1    0    0    0  501  0.00000000000E+00  0.00000000000E+00  0.13044156258E+04  0.13044156258E+04  0.50400001928E-02 0.  1.
        1   -1    0    0  501    0  0.00000000000E+00  0.00000000000E+00 -0.23361838701E+04  0.23361838701E+04  0.50400001928E-02 0. -1.
    10030    2    1    2    0    0  0.00000000000E+00  0.00000000000E+00 -0.10317682442E+04  0.36405994959E+04  0.34913348421E+04 0.  0.
        2    1    3    3  502    0 -0.13649555708E+03  0.16759490705E+04 -0.10048878910E+04  0.19588864177E+04  0.25500000920E-02 0. -1.
       -2    1    3    3    0  502  0.13649555708E+03 -0.16759490705E+04 -0.26880353240E+02  0.16817130782E+04  0.25500000920E-02 0.  1.
</event>
<event>
 5   0  0.2936607E-07  0.3273392E+04  0.7818609E-02  0.8169699E-01
       -1   -1    0    0    0  501  0.00000000000E+00  0.00000000000E+00  0.23525808554E+04  0.23525808554E+04  0.50400001928E-02 0. -1.
        1   -1    0    0  501    0  0.00000000000E+00  0.00000000000E+00 -0.11386530830E+04  0.11386530830E+04  0.50400001928E-02 0.  1.
    10030    2    1    2    0    0  0.00000000000E+00  0.00000000000E+00  0.12139277724E+04  0.34912339384E+04  0.32733917846E+04 0.  0.
        2    1    3    3  502    0  0.25425268526E+02 -0.13484643428E+04  0.15959093381E+04  0.20894805918E+04  0.25500000920E-02 0. -1.
       -2    1    3    3    0  502 -0.25425268526E+02  0.13484643428E+04 -0.38198156564E+03  0.14017533466E+04  0.25500000920E-02 0.  1.
</event>
<event>
 5   0  0.2933506E-07  0.3512612E+04  0.7818609E-02  0.8110807E-01
        1   -1    0    0  501    0  0.00000000000E+00  0.00000000000E+00  0.21210240714E+04  0.21210240714E+04  0.50400001928E-02 0.  1.
       -1   -1    0    0    0  501  0.00000000000E+00  0.00000000000E+00 -0.14543028543E+04  0.14543028543E+04  0.50400001928E-02 0. -1.
    10030    2    1    2    0    0  0.00000000000E+00  0.00000000000E+00  0.66672121713E+03  0.35753269257E+04  0.35126123390E+04 0.  0.
        4    1    3    3  502    0 -0.35126690649E+03  0.16187562941E+04  0.92760731607E+03  0.18984776335E+04  0.12699999809E+01 0.  1.
       -4    1    3    3    0  502  0.35126690649E+03 -0.16187562941E+04 -0.26088609894E+03  0.16768492922E+04  0.12699999809E+01 0. -1.
</event>
<event>
 5   0  0.2933506E-07  0.3539718E+04  0.7818609E-02  0.8104441E-01
       -1   -1    0    0    0  501  0.00000000000E+00  0.00000000000E+00  0.15354648759E+04  0.15354648759E+04  0.50400001928E-02 0. -1.
        1   -1    0    0  501    0  0.00000000000E+00  0.00000000000E+00 -0.20400346404E+04  0.20400346404E+04  0.50400001928E-02 0.  1.
    10030    2    1    2    0    0  0.00000000000E+00  0.00000000000E+00 -0.50456976449E+03  0.35754995164E+04  0.35397183708E+04 0.  0.
        4    1    3    3  502    0 -0.90278350000E+03 -0.20935920609E+03  0.12707867377E+04  0.15728159049E+04  0.12699999809E+01 0. -1.
       -4    1    3    3    0  502  0.90278350000E+03  0.20935920609E+03 -0.17753565022E+04  0.20026836115E+04  0.12699999809E+01 0.  1.
</event>
<event>
 5   0  0.3061330E-07  0.3505657E+04  0.7818609E-02  0.8112451E-01
        1   -1    0    0  501    0  0.00000000000E+00  0.00000000000E+00  0.27270479091E+04  0.27270479091E+04  0.50400001928E-02 0.  1.
       -1   -1    0    0    0  501  0.00000000000E+00  0.00000000000E+00 -0.11266426843E+04  0.11266426843E+04  0.50400001928E-02 0. -1.
    10030    2    1    2    0    0  0.00000000000E+00  0.00000000000E+00  0.16004052248E+04  0.38536905934E+04  0.35056574713E+04 0.  0.
        5    1    3    3  502    0  0.14167351534E+04 -0.99187048934E+03  0.11139128626E+04  0.20571265197E+04  0.46999998093E+01 0.  1.
       -5    1    3    3    0  502 -0.14167351534E+04  0.99187048934E+03  0.48649236222E+03  0.17965640737E+04  0.46999998093E+01 0. -1.
</event>
<event>
 5   0  0.9311672E-07  0.3498463E+04  0.7818609E-02  0.8114154E-01
        2   -1    0    0  501    0  0.00000000000E+00  0.00000000000E+00  0.22141609701E+04  0.22141609701E+04  0.25500000920E-02 0.  1.
       -2   -1    0    0    0  501  0.00000000000E+00  0.00000000000E+00 -0.13819281254E+04  0.13819281254E+04  0.25500000920E-02 0. -1.
    10030    2    1    2    0    0  0.00000000000E+00  0.00000000000E+00  0.83223284474E+03  0.35960890955E+04  0.34984632733E+04 0.  0.
        4    1    3    3  502    0 -0.72495402907E+03  0.65362110461E+03  0.19081842546E+04  0.21433496344E+04  0.12699999809E+01 0.  1.
       -4    1    3    3    0  502  0.72495402907E+03 -0.65362110461E+03 -0.10759514099E+04  0.14527394611E+04  0.12699999809E+01 0. -1.
</event>
<event>
 5   0  0.3061330E-07  0.3663237E+04  0.7818609E-02  0.8076158E-01
        1   -1    0    0  501    0  0.00000000000E+00  0.00000000000E+00  0.98378810921E+03  0.98378810923E+03  0.50400001928E-02 0.  1.
       -1   -1    0    0    0  501  0.00000000000E+00  0.00000000000E+00 -0.34101114721E+04  0.34101114721E+04  0.50400001928E-02 0. -1.
    10030    2    1    2    0    0  0.00000000000E+00  0.00000000000E+00 -0.24263233629E+04  0.43938995813E+04  0.36632374301E+04 0.  0.
        5    1    3    3  502    0  0.16683250956E+03  0.10721193647E+04  0.55681413711E+03  0.12195643041E+04  0.46999998093E+01 0.  1.
       -5    1    3    3    0  502 -0.16683250956E+03 -0.10721193647E+04 -0.29831375000E+04  0.31743352772E+04  0.46999998093E+01 0. -1.
</event>
<event>
 5   0  0.9311672E-07  0.3478050E+04  0.7818609E-02  0.8119012E-01
        2   -1    0    0  501    0  0.00000000000E+00  0.00000000000E+00  0.20884523124E+04  0.20884523124E+04  0.25500000920E-02 0.  1.
       -2   -1    0    0    0  501  0.00000000000E+00  0.00000000000E+00 -0.14480620583E+04  0.14480620583E+04  0.25500000920E-02 0. -1.
    10030    2    1    2    0    0  0.00000000000E+00  0.00000000000E+00  0.64039025409E+03  0.35365143707E+04  0.34780503470E+04 0.  0.
        4    1    3    3  502    0 -0.62415928027E+03 -0.63942035827E+02  0.19693532980E+04  0.20668859224E+04  0.12699999809E+01 0.  1.
       -4    1    3    3    0  502  0.62415928027E+03  0.63942035827E+02 -0.13289630439E+04  0.14696284483E+04  0.12699999809E+01 0. -1.
</event>
<event>
 5   0  0.3026332E-07  0.3482202E+04  0.7818609E-02  0.8118021E-01
        1   -1    0    0  501    0  0.00000000000E+00  0.00000000000E+00  0.23040136305E+04  0.23040136305E+04  0.50400001928E-02 0. -1.
       -1   -1    0    0    0  501  0.00000000000E+00  0.00000000000E+00 -0.13157185295E+04  0.13157185295E+04  0.50400001928E-02 0.  1.
    10030    2    1    2    0    0  0.00000000000E+00  0.00000000000E+00  0.98829510102E+03  0.36197321600E+04  0.34822024214E+04 0.  0.
        1    1    3    3  502    0  0.13608292723E+04 -0.79658611561E+03 -0.27326995555E+03  0.16003381569E+04  0.50400001928E-02 0. -1.
       -1    1    3    3    0  502 -0.13608292723E+04  0.79658611561E+03  0.12615650566E+04  0.20193940031E+04  0.50400001928E-02 0.  1.
</event>
<event>
 5   0  0.2907000E-07  0.3481438E+04  0.7818609E-02  0.8118203E-01
       -3   -1    0    0    0  501  0.00000000000E+00  0.00000000000E+00  0.15014624694E+04  0.15014624728E+04  0.10100000352E+00 0.  1.
        3   -1    0    0  501    0  0.00000000000E+00  0.00000000000E+00 -0.20181010678E+04  0.20181010703E+04  0.10100000352E+00 0. -1.
    10030    2    1    2    0    0  0.00000000000E+00  0.00000000000E+00 -0.51663859835E+03  0.35195635431E+04  0.34814382219E+04 0.  0.
        4    1    3    3  502    0  0.14331899017E+04  0.87382095633E+02  0.73654716603E+03  0.16137447957E+04  0.12699999809E+01 0.  1.
       -4    1    3    3    0  502 -0.14331899017E+04 -0.87382095633E+02 -0.12531857644E+04  0.19058187474E+04  0.12699999809E+01 0. -1.
</event>
<event>
 5   0  0.9128871E-07  0.3555940E+04  0.7818609E-02  0.8100659E-01
        2   -1    0    0  501    0  0.00000000000E+00  0.00000000000E+00  0.23419035547E+04  0.23419035547E+04  0.25500000920E-02 0.  1.
       -2   -1    0    0    0  501  0.00000000000E+00  0.00000000000E+00 -0.13498323194E+04  0.13498323194E+04  0.25500000920E-02 0. -1.
    10030    2    1    2    0    0  0.00000000000E+00  0.00000000000E+00  0.99207123525E+03  0.36917358741E+04  0.35559398798E+04 0.  0.
        1    1    3    3  502    0 -0.14507410660E+03 -0.72751962210E+03  0.21735522088E+04  0.22966629055E+04  0.50400001928E-02 0.  1.
       -1    1    3    3    0  502  0.14507410660E+03  0.72751962210E+03 -0.11814809736E+04  0.13950729686E+04  0.50400001928E-02 0. -1.
</event>
<event>
 5   0  0.3026332E-07  0.3507137E+04  0.7818609E-02  0.8112101E-01
        1   -1    0    0  501    0  0.00000000000E+00  0.00000000000E+00  0.19909810168E+04  0.19909810168E+04  0.50400001928E-02 0. -1.
       -1   -1    0    0    0  501  0.00000000000E+00  0.00000000000E+00 -0.15444660813E+04  0.15444660813E+04  0.50400001928E-02 0.  1.
    10030    2    1    2    0    0  0.00000000000E+00  0.00000000000E+00  0.44651493554E+03  0.35354470982E+04  0.35071370940E+04 0.  0.
        1    1    3    3  502    0 -0.80713489870E+03 -0.25270236669E+03  0.17717813889E+04  0.19632968499E+04  0.50400001928E-02 0. -1.
       -1    1    3    3    0  502  0.80713489870E+03  0.25270236669E+03 -0.13252664533E+04  0.15721502483E+04  0.50400001928E-02 0.  1.
</event>
<event>
 5   0  0.8950809E-07  0.3500471E+04  0.7818609E-02  0.8113678E-01
       -2   -1    0    0    0  501  0.00000000000E+00  0.00000000000E+00  0.12620226588E+04  0.12620226588E+04  0.25500000920E-02 0.  1.
        2   -1    0    0  501    0  0.00000000000E+00  0.00000000000E+00 -0.24273130129E+04  0.24273130129E+04  0.25500000920E-02 0. -1.
    10030    2    1    2    0    0  0.00000000000E+00  0.00000000000E+00 -0.11652903541E+04  0.36893356717E+04  0.35004708382E+04 0.  0.
        2    1    3    3  502    0  0.95883290690E+03  0.94875724183E+03 -0.17580867025E+04  0.22159354009E+04  0.25500000920E-02 0. -1.
       -2    1    3    3    0  502 -0.95883290690E+03 -0.94875724183E+03  0.59279634846E+03  0.14734002708E+04  0.25500000920E-02 0.  1.
</event>
<event>
 5   0  0.3026332E-07  0.3475991E+04  0.7818609E-02  0.8119504E-01
       -1   -1    0    0    0  501  0.00000000000E+00  0.00000000000E+00  0.21482569889E+04  0.21482569889E+04  0.50400001928E-02 0. -1.
        1   -1    0    0  501    0  0.00000000000E+00  0.00000000000E+00 -0.14060830486E+04  0.14060830486E+04  0.50400001928E-02 0.  1.
    10030    2    1    2    0    0  0.00000000000E+00  0.00000000000E+00  0.74217394032E+03  0.35543400375E+04  0.34759906422E+04 0.  0.
        1    1    3    3  502    0  0.12949233181E+04 -0.10089129273E+04  0.95482759377E+03  0.18990596169E+04  0.50400001928E-02 0. -1.
       -1    1    3    3    0  502 -0.12949233181E+04  0.10089129273E+04 -0.21265365345E+03  0.16552804206E+04  0.50400001928E-02 0.  1.
</event>
<event>
 5   0  0.2972541E-07  0.3498239E+04  0.7818609E-02  0.8114207E-01
        1   -1    0    0  501    0  0.00000000000E+00  0.00000000000E+00  0.26350396329E+04  0.26350396329E+04  0.50400001928E-02 0. -1.
       -1   -1    0    0    0  501  0.00000000000E+00  0.00000000000E+00 -0.11610523509E+04  0.11610523509E+04  0.50400001928E-02 0.  1.
    10030    2    1    2    0    0  0.00000000000E+00  0.00000000000E+00  0.14739872820E+04  0.37960919839E+04  0.34982389630E+04 0.  0.
        3    1    3    3  502    0  0.39557179239E+03 -0.10430180066E+04 -0.72495525244E+03  0.13303848064E+04  0.10100000352E+00 0.  1.
       -3    1    3    3    0  502 -0.39557179239E+03  0.10430180066E+04  0.21989425344E+04  0.24657071774E+04  0.10100000352E+00 0. -1.
</event>
<event>
 5   0  0.2933506E-07  0.3490751E+04  0.7818609E-02  0.8115985E-01
        1   -1    0    0  501    0  0.00000000000E+00  0.00000000000E+00  0.17914750165E+04  0.17914750165E+04  0.50400001928E-02 0.  1.
       -1   -1    0    0    0  501  0.00000000000E+00  0.00000000000E+00 -0.17004627319E+04  0.17004627319E+04  0.50400001928E-02 0. -1.
    10030    2    1    2    0    0  0.00000000000E+00  0.00000000000E+00  0.91012284563E+02  0.34919377485E+04  0.34907514955E+04 0.  0.
        4    1    3    3  502    0  0.11217585919E+04 -0.10922954938E+04 -0.72604261671E+03  0.17258595767E+04  0.12699999809E+01 0. -1.
       -4    1    3    3    0  502 -0.11217585919E+04  0.10922954938E+04  0.81705490127E+03  0.17660781718E+04  0.12699999809E+01 0.  1.
</event>
<event>
 5   0  0.8845195E-07  0.3477215E+04  0.7818609E-02  0.8119211E-01
        2   -1    0    0  501    0  0.00000000000E+00  0.00000000000E+00  0.11795407491E+04  0.11795407491E+04  0.25500000920E-02 0.  1.
       -2   -1    0    0    0  501  0.00000000000E+00  0.00000000000E+00 -0.25626545478E+04  0.25626545478E+04  0.25500000920E-02 0. -1.
    10030    2    1    2    0    0  0.00000000000E+00  0.00000000000E+00 -0.13831137986E+04  0.37421952969E+04  0.34772146699E+04 0.  0.
        5    1    3    3  502    0  0.79175062241E+03 -0.83072534437E+03 -0.20971314136E+04  0.23905973943E+04  0.46999998093E+01 0. -1.
       -5    1    3    3    0  502 -0.79175062241E+03  0.83072534437E+03  0.71401761495E+03  0.13515979026E+04  0.46999998093E+01 0.  1.
</event>
<event>
 5   0  0.6188930E-07  0.3588992E+04  0.7818609E-02  0.8093018E-01
       -2   -1    0    0    0  501  0.00000000000E+00  0.00000000000E+00  0.13383038701E+04  0.13383038701E+04  0.25500000920E-02 0. -1.
        2   -1    0    0  501    0  0.00000000000E+00  0.00000000000E+00 -0.24061925136E+04  0.24061925136E+04  0.25500000920E-02 0.  1.
    10030    2    1    2    0    0  0.00000000000E+00  0.00000000000E+00 -0.10678886435E+04  0.37444963838E+04  0.35889924788E+04 0.  0.
        3    1    3    3  502    0 -0.10025472687E+04  0.53303282890E+03 -0.19837542622E+04  0.22857178316E+04  0.10100000352E+00 0.  1.
       -3    1    3    3    0  502  0.10025472687E+04 -0.53303282890E+03  0.91586561867E+03  0.14587785522E+04  0.10100000352E+00 0. -1.
</event>
<event>
 5   0  0.9128871E-07  0.3573624E+04  0.7818609E-02  0.8096560E-01
        2   -1    0    0  501    0  0.00000000000E+00  0.00000000000E+00  0.19166517897E+04  0.19166517897E+04  0.25500000920E-02 0.  1.
       -2   -1    0    0    0  501  0.00000000000E+00  0.00000000000E+00 -0.16657680890E+04  0.16657680890E+04  0.25500000920E-02 0. -1.
    10030    2    1    2    0    0  0.00000000000E+00  0.00000000000E+00  0.25088370074E+03  0.35824198788E+04  0.35736241487E+04 0.  0.
        1    1    3    3  502    0  0.62212239839E+03 -0.12934296717E+04  0.11923455340E+04  0.18659272404E+04  0.50400001928E-02 0.  1.
       -1    1    3    3    0  502 -0.62212239839E+03  0.12934296717E+04 -0.94146183322E+03  0.17164926384E+04  0.50400001928E-02 0. -1.
</event>
<event>
 5   0  0.2936607E-07  0.3564852E+04  0.7818609E-02  0.8098591E-01
        1   -1    0    0  501    0  0.00000000000E+00  0.00000000000E+00  0.18967843972E+04  0.18967843972E+04  0.50400001928E-02 0. -1.
       -1   -1    0    0    0  501  0.00000000000E+00  0.00000000000E+00 -0.16749618771E+04  0.16749618771E+04  0.50400001928E-02 0.  1.
    10030    2    1    2    0    0  0.00000000000E+00  0.00000000000E+00  0.22182252011E+03  0.35717462743E+04  0.35648515000E+04 0.  0.
        2    1    3    3  502    0  0.13133369553E+04 -0.10293591834E+04  0.73870694237E+03  0.18248622505E+04  0.25500000920E-02 0.  1.
       -2    1    3    3    0  502 -0.13133369553E+04  0.10293591834E+04 -0.51688442227E+03  0.17468840238E+04  0.25500000920E-02 0. -1.
</event>
<event>
 5   0  0.3026332E-07  0.3416132E+04  0.7818609E-02  0.8133958E-01
       -1   -1    0    0    0  501  0.00000000000E+00  0.00000000000E+00  0.35249833832E+04  0.35249833832E+04  0.50400001928E-02 0.  1.
        1   -1    0    0  501    0  0.00000000000E+00  0.00000000000E+00 -0.82766044135E+03  0.82766044136E+03  0.50400001928E-02 0. -1.
    10030    2    1    2    0    0  0.00000000000E+00  0.00000000000E+00  0.26973229419E+04  0.43526438246E+04  0.34161319077E+04 0.  0.
        1    1    3    3  502    0 -0.90061604673E+02 -0.20228458844E+02 -0.82448023482E+03  0.82963120772E+03  0.50400001928E-02 0. -1.
       -1    1    3    3    0  502  0.90061604673E+02  0.20228458844E+02  0.35218031767E+04  0.35230126169E+04  0.50400001928E-02 0.  1.
</event>
<event>
 5   0  0.8845195E-07  0.3457954E+04  0.7818609E-02  0.8123827E-01
       -2   -1    0    0    0  501  0.00000000000E+00  0.00000000000E+00  0.12370919191E+04  0.12370919191E+04  0.25500000920E-02 0. -1.
        2   -1    0    0  501    0  0.00000000000E+00  0.00000000000E+00 -0.24164418626E+04  0.24164418626E+04  0.25500000920E-02 0.  1.
    10030    2    1    2    0    0  0.00000000000E+00  0.00000000000E+00 -0.11793499435E+04  0.36535337817E+04  0.34579535574E+04 0.  0.
        5    1    3    3  502    0 -0.11173619767E+04  0.13059245521E+04 -0.39087918032E+03  0.17625961949E+04  0.46999998093E+01 0. -1.
       -5    1    3    3    0  502  0.11173619767E+04 -0.13059245521E+04 -0.78847076317E+03  0.18909375868E+04  0.46999998093E+01 0.  1.
</event>
<event>
 5   0  0.2972541E-07  0.3524537E+04  0.7818609E-02  0.8107999E-01
        1   -1    0    0  501    0  0.00000000000E+00  0.00000000000E+00  0.11199003183E+04  0.11199003183E+04  0.50400001928E-02 0. -1.
       -1   -1    0    0    0  501  0.00000000000E+00  0.00000000000E+00 -0.27730958491E+04  0.27730958491E+04  0.50400001928E-02 0.  1.
    10030    2    1    2    0    0  0.00000000000E+00  0.00000000000E+00 -0.16531955309E+04  0.38929961674E+04  0.35245373733E+04 0.  0.
        3    1    3    3  502    0 -0.10815256357E+04 -0.10487601838E+04 -0.18365103208E+04  0.23753664543E+04  0.10100000352E+00 0.  1.
       -3    1    3    3    0  502  0.10815256357E+04  0.10487601838E+04  0.18331478993E+03  0.15176297131E+04  0.10100000352E+00 0. -1.
</event>
<event>
 5   0  0.2933506E-07  0.3523031E+04  0.7818609E-02  0.8108353E-01
       -1   -1    0    0    0  501  0.00000000000E+00  0.00000000000E+00  0.13785670423E+04  0.13785670423E+04  0.50400001928E-02 0.  1.
        1   -1    0    0  501    0  0.00000000000E+00  0.00000000000E+00 -0.22508422036E+04  0.22508422036E+04  0.50400001928E-02 0. -1.
    10030    2    1    2    0    0  0.00000000000E+00  0.00000000000E+00 -0.87227516128E+03  0.36294092458E+04  0.35230310127E+04 0.  0.
        4    1    3    3  502    0 -0.27444477194E+03 -0.87206186597E+03 -0.19872992278E+04  0.21875035233E+04  0.12699999809E+01 0. -1.
       -4    1    3    3    0  502  0.27444477194E+03  0.87206186597E+03  0.11150240665E+04  0.14419057225E+04  0.12699999809E+01 0.  1.
</event>
<event>
 5   0  0.6188930E-07  0.3551012E+04  0.7818609E-02  0.8101806E-01
       -2   -1    0    0    0  501  0.00000000000E+00  0.00000000000E+00  0.17249994129E+04  0.17249994129E+04  0.25500000920E-02 0.  1.
        2   -1    0    0  501    0  0.00000000000E+00  0.00000000000E+00 -0.18274916918E+04  0.18274916918E+04  0.25500000920E-02 0. -1.
    10030    2    1    2    0    0  0.00000000000E+00  0.00000000000E+00 -0.10249227889E+03  0.35524911047E+04  0.35510123038E+04 0.  0.
        3    1    3    3  502    0 -0.55874236910E+03 -0.98236465040E+03 -0.14211917203E+04  0.18157696047E+04  0.10100000352E+00 0. -1.
       -3    1    3    3    0  502  0.55874236910E+03  0.98236465040E+03  0.13186994414E+04  0.17367215000E+04  0.10100000352E+00 0.  1.
</event>
<event>
 5   0  0.3061330E-07  0.3424929E+04  0.7818609E-02  0.8131815E-01
       -1   -1    0    0    0  501  0.00000000000E+00  0.00000000000E+00  0.18192507305E+04  0.18192507305E+04  0.50400001928E-02 0. -1.
        1   -1    0    0  501    0  0.00000000000E+00  0.00000000000E+00 -0.16119464589E+04  0.16119464589E+04  0.50400001928E-02 0.  1.
    10030    2    1    2    0    0  0.00000000000E+00  0.00000000000E+00  0.20730427165E+03  0.34311971894E+04  0.34249290637E+04 0.  0.
        5    1    3    3  502    0  0.11658888509E+04 -0.45206424523E+03 -0.10684693521E+04  0.16447819736E+04  0.46999998093E+01 0.  1.
       -5    1    3    3    0  502 -0.11658888509E+04  0.45206424523E+03  0.12757736237E+04  0.17864152158E+04  0.46999998093E+01 0. -1.
</event>
<event>
 5   0  0.8845195E-07  0.3534308E+04  0.7818609E-02  0.8105707E-01
        2   -1    0    0  501    0  0.00000000000E+00  0.00000000000E+00  0.21225870056E+04  0.21225870056E+04  0.25500000920E-02 0. -1.
       -2   -1    0    0    0  501  0.00000000000E+00  0.00000000000E+00 -0.14712392922E+04  0.14712392922E+04  0.25500000920E-02 0.  1.
    10030    2    1    2    0    0  0.00000000000E+00  0.00000000000E+00  0.65134771345E+03  0.35938262978E+04  0.35343080815E+04 0.  0.
        5    1    3    3  502    0 -0.16383457188E+04 -0.36326904949E+02  0.99810814936E+03  0.19187856332E+04  0.46999998093E+01 0. -1.
       -5    1    3    3    0  502  0.16383457188E+04  0.36326904949E+02 -0.34676043591E+03  0.16750406646E+04  0.46999998093E+01 0.  1.
</event>
<event>
 5   0  0.9311672E-07  0.3499147E+04  0.7818609E-02  0.8113992E-01
       -2   -1    0    0    0  501  0.00000000000E+00  0.00000000000E+00  0.25657803125E+04  0.25657803125E+04  0.25500000920E-02 0.  1.
        2   -1    0    0  501    0  0.00000000000E+00  0.00000000000E+00 -0.11930124123E+04  0.11930124123E+04  0.25500000920E-02 0. -1.
    10030    2    1    2    0    0  0.00000000000E+00  0.00000000000E+00  0.13727679002E+04  0.37587927247E+04  0.34991471875E+04 0.  0.
        4    1    3    3  502    0  0.35079573581E+03  0.64328392710E+03 -0.10202579144E+04  0.12561049653E+04  0.12699999809E+01 0. -1.
       -4    1    3    3    0  502 -0.35079573581E+03 -0.64328392710E+03  0.23930258146E+04  0.25026877594E+04  0.12699999809E+01 0.  1.
</event>
<event>
 5   0  0.9128871E-07  0.3565714E+04  0.7818609E-02  0.8098391E-01
        2   -1    0    0  501    0  0.00000000000E+00  0.00000000000E+00  0.18326568476E+04  0.18326568476E+04  0.25500000920E-02 0. -1.
       -2   -1    0    0    0  501  0.00000000000E+00  0.00000000000E+00 -0.17344102360E+04  0.17344102360E+04  0.25500000920E-02 0.  1.
    10030    2    1    2    0    0  0.00000000000E+00  0.00000000000E+00  0.98246611645E+02  0.35670670836E+04  0.35657138391E+04 0.  0.
        1    1    3    3  502    0  0.60784208986E+03 -0.16658115828E+04 -0.13582130089E+03  0.17784396704E+04  0.50400001928E-02 0. -1.
       -1    1    3    3    0  502 -0.60784208986E+03  0.16658115828E+04  0.23406791254E+03  0.17886274132E+04  0.50400001928E-02 0.  1.
</event>
<event>
 5   0  0.9128871E-07  0.3473410E+04  0.7818609E-02  0.8120121E-01
       -2   -1    0    0    0  501  0.00000000000E+00  0.00000000000E+00  0.15210366205E+04  0.15210366205E+04  0.25500000920E-02 0.  1.
        2   -1    0    0  501    0  0.00000000000E+00  0.00000000000E+00 -0.19829528995E+04  0.19829528995E+04  0.25500000920E-02 0. -1.
    10030    2    1    2    0    0  0.00000000000E+00  0.00000000000E+00 -0.46191627897E+03  0.35039895199E+04  0.34734098386E+04 0.  0.
        1    1    3    3  502    0  0.15147230237E+04  0.70958617945E+03 -0.70223868139E+03  0.18141217021E+04  0.50400001928E-02 0.  1.
       -1    1    3    3    0  502 -0.15147230237E+04 -0.70958617945E+03  0.24032240243E+03  0.16898678178E+04  0.50400001928E-02 0. -1.
</event>
<event>
 5   0  0.2936607E-07  0.3562717E+04  0.7818609E-02  0.8099086E-01
       -1   -1    0    0    0  501  0.00000000000E+00  0.00000000000E+00  0.16646198887E+04  0.16646198887E+04  0.50400001928E-02 0.  1.
        1   -1    0    0  501    0  0.00000000000E+00  0.00000000000E+00 -0.19062839087E+04  0.19062839087E+04  0.50400001928E-02 0. -1.
    10030    2    1    2    0    0  0.00000000000E+00  0.00000000000E+00 -0.24166401999E+03  0.35709037974E+04  0.35627170014E+04 0.  0.
        2    1    3    3  502    0  0.11399344514E+04  0.12509375298E+04  0.43627150536E+03  0.17477494338E+04  0.25500000920E-02 0. -1.
       -2    1    3    3    0  502 -0.11399344514E+04 -0.12509375298E+04 -0.67793552535E+03  0.18231543636E+04  0.25500000920E-02 0.  1.
</event>
<event>
 5   0  0.9128871E-07  0.3501824E+04  0.7818609E-02  0.8113358E-01
       -2   -1    0    0    0  501  0.00000000000E+00  0.00000000000E+00  0.13985047332E+04  0.13985047332E+04  0.25500000920E-02 0.  1.
        2   -1    0    0  501    0  0.00000000000E+00  0.00000000000E+00 -0.21921220660E+04  0.21921220660E+04  0.25500000920E-02 0. -1.
    10030    2    1    2    0    0  0.00000000000E+00  0.00000000000E+00 -0.79361733281E+03  0.35906267992E+04  0.35018241447E+04 0.  0.
        1    1    3    3  502    0  0.12742291453E+04  0.40112265516E+03 -0.15573835762E+04  0.20518291602E+04  0.50400001928E-02 0. -1.
       -1    1    3    3    0  502 -0.12742291453E+04 -0.40112265516E+03  0.76376624338E+03  0.15387976390E+04  0.50400001928E-02 0.  1.
</event>
<event>
 5   0  0.2972541E-07  0.3442585E+04  0.7818609E-02  0.8127533E-01
       -1   -1    0    0    0  501  0.00000000000E+00  0.00000000000E+00  0.26803374134E+04  0.26803374134E+04  0.50400001928E-02 0.  1.
        1   -1    0    0  501    0  0.00000000000E+00  0.00000000000E+00 -0.11054013047E+04  0.11054013047E+04  0.50400001928E-02 0. -1.
    10030    2    1    2    0    0  0.00000000000E+00  0.00000000000E+00  0.15749361086E+04  0.37857387181E+04  0.34425853505E+04 0.  0.
        3    1    3    3  502    0  0.35907973377E+03 -0.16510939816E+04  0.42641333244E+03  0.17426640329E+04  0.10100000352E+00 0.  1.
       -3    1    3    3    0  502 -0.35907973377E+03  0.16510939816E+04  0.11485227762E+04  0.20430746851E+04  0.10100000352E+00 0. -1.
</event>
<event>
 5   0  0.2972541E-07  0.3547458E+04  0.7818609E-02  0.8102634E-01
        1   -1    0    0  501    0  0.00000000000E+00  0.00000000000E+00  0.15692805436E+04  0.15692805436E+04  0.50400001928E-02 0. -1.
       -1   -1    0    0    0  501  0.00000000000E+00  0.00000000000E+00 -0.20048129219E+04  0.20048129219E+04  0.50400001928E-02 0.  1.
    10030    2    1    2    0    0  0.00000000000E+00  0.00000000000E+00 -0.43553237828E+03  0.35740934655E+04  0.35474576315E+04 0.  0.
        3    1    3    3  502    0 -0.85805890884E+03 -0.11294809037E+04  0.85518142435E+03  0.16562993333E+04  0.10100000352E+00 0. -1.
       -3    1    3    3    0  502  0.85805890884E+03  0.11294809037E+04 -0.12907138026E+04  0.19177941321E+04  0.10100000352E+00 0.  1.
</event>
<event>
 5   0  0.9311672E-07  0.3418901E+04  0.7818609E-02  0.8133283E-01
       -2   -1    0    0    0  501  0.00000000000E+00  0.00000000000E+00  0.22326492090E+04  0.22326492090E+04  0.25500000920E-02 0.  1.
        2   -1    0    0  501    0  0.00000000000E+00  0.00000000000E+00 -0.13088583170E+04  0.13088583170E+04  0.25500000920E-02 0. -1.
    10030    2    1    2    0    0  0.00000000000E+00  0.00000000000E+00  0.92379089192E+03  0.35415075260E+04  0.34189012774E+04 0.  0.
        4    1    3    3  502    0  0.37289510587E+03 -0.15614441521E+04 -0.14658933270E+03  0.16120324579E+04  0.12699999809E+01 0. -1.
       -4    1    3    3    0  502 -0.37289510587E+03  0.15614441521E+04  0.10703802246E+04  0.19294750681E+04  0.12699999809E+01 0.  1.
</event>
<event>
 5   0  0.2933506E-07  0.3452606E+04  0.7818609E-02  0.8125114E-01
        1   -1    0    0  501    0  0.00000000000E+00  0.00000000000E+00  0.23274394442E+04  0.23274394443E+04  0.50400001928E-02 0. -1.
       -1   -1    0    0    0  501  0.00000000000E+00  0.00000000000E+00 -0.12804296763E+04  0.12804296763E+04  0.50400001928E-02 0.  1.
    10030    2    1    2    0    0  0.00000000000E+00  0.00000000000E+00  0.10470097680E+04  0.36078691205E+04  0.34526062817E+04 0.  0.
        4    1    3    3  502    0 -0.13478665973E+03 -0.13972443557E+04  0.15735105844E+04  0.21086480042E+04  0.12699999809E+01 0. -1.
       -4    1    3    3    0  502  0.13478665973E+03  0.13972443557E+04 -0.52650081646E+03  0.14992211164E+04  0.12699999809E+01 0.  1.
</event>
<event>
 5   0  0.6188930E-07  0.3546539E+04  0.7818609E-02  0.8102849E-01
        2   -1    0    0  501    0  0.00000000000E+00  0.00000000000E+00  0.12273423809E+04  0.12273423809E+04  0.25500000920E-02 0. -1.
       -2   -1    0    0    0  501  0.00000000000E+00  0.00000000000E+00 -0.25620271920E+04  0.25620271920E+04  0.25500000920E-02 0.  1.
    10030    2    1    2    0    0  0.00000000000E+00  0.00000000000E+00 -0.13346848111E+04  0.37893695729E+04  0.35465389065E+04 0.  0.
        3    1    3    3  502    0  0.10032858145E+04 -0.84988989267E+03 -0.19385921216E+04  0.23424420333E+04  0.10100000352E+00 0.  1.
       -3    1    3    3    0  502 -0.10032858145E+04  0.84988989267E+03  0.60390731047E+03  0.14469275397E+04  0.10100000352E+00 0. -1.
</event>
<event>
 5   0  0.6188930E-07  0.3513621E+04  0.7818609E-02  0.8110570E-01
       -2   -1    0    0    0  501  0.00000000000E+00  0.00000000000E+00  0.24543321857E+04  0.24543321857E+04  0.25500000920E-02 0. -1.
        2   -1    0    0  501    0  0.00000000000E+00  0.00000000000E+00 -0.12575245213E+04  0.12575245213E+04  0.25500000920E-02 0.  1.
    10030    2    1    2    0    0  0.00000000000E+00  0.00000000000E+00  0.11968076644E+04  0.37118567070E+04  0.35136208714E+04 0.  0.
        3    1    3    3  502    0 -0.98596734918E+03  0.88647710621E+03 -0.61918963874E+03  0.14633417552E+04  0.10100000352E+00 0.  1.
       -3    1    3    3    0  502  0.98596734918E+03 -0.88647710621E+03  0.18159973032E+04  0.22485149519E+04  0.10100000352E+00 0. -1.
</event>
<event>
 5   0  0.6188930E-07  0.3511056E+04  0.7818609E-02  0.8111175E-01
       -2   -1    0    0    0  501  0.00000000000E+00  0.00000000000E+00  0.22245204990E+04  0.22245204990E+04  0.25500000920E-02 0. -1.
        2   -1    0    0  501    0  0.00000000000E+00  0.00000000000E+00 -0.13854125201E+04  0.13854125201E+04  0.25500000920E-02 0.  1.
    10030    2    1    2    0    0  0.00000000000E+00  0.00000000000E+00  0.83910797895E+03  0.36099330191E+04  0.35110559953E+04 0.  0.
        3    1    3    3  502    0  0.15067051912E+04  0.89592501709E+03  0.32181712314E+03  0.17822481422E+04  0.10100000352E+00 0. -1.
       -3    1    3    3    0  502 -0.15067051912E+04 -0.89592501709E+03  0.51729085581E+03  0.18276848769E+04  0.10100000352E+00 0.  1.
</event>
<event>
 5   0  0.2936607E-07  0.3474545E+04  0.7818609E-02  0.8119849E-01
       -1   -1    0    0    0  501  0.00000000000E+00  0.00000000000E+00  0.16570020199E+04  0.16570020199E+04  0.50400001928E-02 0. -1.
        1   -1    0    0  501    0  0.00000000000E+00  0.00000000000E+00 -0.18214314770E+04  0.18214314770E+04  0.50400001928E-02 0.  1.
    10030    2    1    2    0    0  0.00000000000E+00  0.00000000000E+00 -0.16442945712E+03  0.34784334969E+04  0.34745449409E+04 0.  0.
        2    1    3    3  502    0  0.17011906496E+04  0.29700316525E+03 -0.27178115492E+03  0.17481777663E+04  0.25500000920E-02 0.  1.
       -2    1    3    3    0  502 -0.17011906496E+04 -0.29700316525E+03  0.10735169779E+03  0.17302557306E+04  0.25500000920E-02 0. -1.
</event>
<event>
 5   0  0.8845195E-07  0.3489534E+04  0.7818609E-02  0.8116275E-01
        2   -1    0    0  501    0  0.00000000000E+00  0.00000000000E+00  0.19885283976E+04  0.19885283976E+04  0.25500000920E-02 0.  1.
       -2   -1    0    0    0  501  0.00000000000E+00  0.00000000000E+00 -0.15308864440E+04  0.15308864440E+04  0.25500000920E-02 0. -1.
    10030    2    1    2    0    0  0.00000000000E+00  0.00000000000E+00  0.45764195367E+03  0.35194148416E+04  0.34895335891E+04 0.  0.
        5    1    3    3  502    0 -0.15440680419E+04  0.81030569915E+03  0.28804032440E+03  0.17674079219E+04  0.46999998093E+01 0.  1.
       -5    1    3    3    0  502  0.15440680419E+04 -0.81030569915E+03  0.16960162927E+03  0.17520069197E+04  0.46999998093E+01 0. -1.
</event>
<event>
 5   0  0.8845195E-07  0.3267159E+04  0.7818609E-02  0.8171302E-01
        2   -1    0    0  501    0  0.00000000000E+00  0.00000000000E+00  0.17611995968E+04  0.17611995968E+04  0.25500000920E-02 0. -1.
       -2   -1    0    0    0  501  0.00000000000E+00  0.00000000000E+00 -0.15152069340E+04  0.15152069340E+04  0.25500000920E-02 0.  1.
    10030    2    1    2    0    0  0.00000000000E+00  0.00000000000E+00  0.24599266283E+03  0.32764065307E+04  0.32671589133E+04 0.  0.
        5    1    3    3  502    0  0.10480123288E+04 -0.87033854388E+02  0.13765966086E+04  0.17323235973E+04  0.46999998093E+01 0. -1.
       -5    1    3    3    0  502 -0.10480123288E+04  0.87033854388E+02 -0.11306039457E+04  0.15440829334E+04  0.46999998093E+01 0.  1.
</event>
<event>
 5   0  0.9311672E-07  0.3463895E+04  0.7818609E-02  0.8122400E-01
        2   -1    0    0  501    0  0.00000000000E+00  0.00000000000E+00  0.98472041107E+03  0.98472041107E+03  0.25500000920E-02 0. -1.
       -2   -1    0    0    0  501  0.00000000000E+00  0.00000000000E+00 -0.30461871724E+04  0.30461871724E+04  0.25500000920E-02 0.  1.
    10030    2    1    2    0    0  0.00000000000E+00  0.00000000000E+00 -0.20614667613E+04  0.40309075835E+04  0.34638953129E+04 0.  0.
        4    1    3    3  502    0  0.52512002737E+03 -0.15671578298E+04 -0.16330565912E+04  0.23234909403E+04  0.12699999809E+01 0.  1.
       -4    1    3    3    0  502 -0.52512002737E+03  0.15671578298E+04 -0.42841017009E+03  0.17074166432E+04  0.12699999809E+01 0. -1.
</event>
<event>
 5   0  0.9311672E-07  0.3487011E+04  0.7818609E-02  0.8116875E-01
       -2   -1    0    0    0  501  0.00000000000E+00  0.00000000000E+00  0.11420016398E+04  0.11420016398E+04  0.25500000920E-02 0. -1.
        2   -1    0    0  501    0  0.00000000000E+00  0.00000000000E+00 -0.26618271407E+04  0.26618271407E+04  0.25500000920E-02 0.  1.
    10030    2    1    2    0    0  0.00000000000E+00  0.00000000000E+00 -0.15198255009E+04  0.38038287804E+04  0.34870107309E+04 0.  0.
        4    1    3    3  502    0 -0.85033923067E+03 -0.15213165835E+04 -0.70727519166E+03  0.18808829746E+04  0.12699999809E+01 0.  1.
       -4    1    3    3    0  502  0.85033923067E+03  0.15213165835E+04 -0.81255030924E+03  0.19229458059E+04  0.12699999809E+01 0. -1.
</event>
<event>
 5   0  0.2936607E-07  0.3517105E+04  0.7818609E-02  0.8109748E-01
        1   -1    0    0  501    0  0.00000000000E+00  0.00000000000E+00  0.10802220933E+04  0.10802220933E+04  0.50400001928E-02 0.  1.
       -1   -1    0    0    0  501  0.00000000000E+00  0.00000000000E+00 -0.28628427827E+04  0.28628427827E+04  0.50400001928E-02 0. -1.
    10030    2    1    2    0    0  0.00000000000E+00  0.00000000000E+00 -0.17826206894E+04  0.39430648760E+04  0.35171045042E+04 0.  0.
        2    1    3    3  502    0  0.10409593816E+04  0.12066781983E+04 -0.17248904183E+04  0.23483857569E+04  0.25500000920E-02 0.  1.
       -2    1    3    3    0  502 -0.10409593816E+04 -0.12066781983E+04 -0.57730271187E+02  0.15946791190E+04  0.25500000920E-02 0. -1.
</event>
<event>
 5   0  0.6188930E-07  0.3457104E+04  0.7818609E-02  0.8124032E-01
        2   -1    0    0  501    0  0.00000000000E+00  0.00000000000E+00  0.10137215369E+04  0.10137215369E+04  0.25500000920E-02 0. -1.
       -2   -1    0    0    0  501  0.00000000000E+00  0.00000000000E+00 -0.29474488983E+04  0.29474488983E+04  0.25500000920E-02 0.  1.
    10030    2    1    2    0    0  0.00000000000E+00  0.00000000000E+00 -0.19337273614E+04  0.39611704352E+04  0.34571042374E+04 0.  0.
        3    1    3    3  502    0  0.12414048839E+04  0.35152560469E+03 -0.22849071137E+04  0.26240154086E+04  0.10100000352E+00 0.  1.
       -3    1    3    3    0  502 -0.12414048839E+04 -0.35152560469E+03  0.35117975228E+03  0.13371550266E+04  0.10100000352E+00 0. -1.
</event>
<event>
 5   0  0.2933506E-07  0.3484424E+04  0.7818609E-02  0.8117491E-01
        1   -1    0    0  501    0  0.00000000000E+00  0.00000000000E+00  0.25119373776E+04  0.25119373776E+04  0.50400001928E-02 0.  1.
       -1   -1    0    0    0  501  0.00000000000E+00  0.00000000000E+00 -0.12083515587E+04  0.12083515587E+04  0.50400001928E-02 0. -1.
    10030    2    1    2    0    0  0.00000000000E+00  0.00000000000E+00  0.13035858189E+04  0.37202889363E+04  0.34844244550E+04 0.  0.
        4    1    3    3  502    0  0.33274174531E+03 -0.95101350084E+03 -0.86574062024E+03  0.13284021162E+04  0.12699999809E+01 0. -1.
       -4    1    3    3    0  502 -0.33274174531E+03  0.95101350084E+03  0.21693264391E+04  0.23918868201E+04  0.12699999809E+01 0.  1.
</event>
<event>
 5   0  0.9128871E-07  0.3537927E+04  0.7818609E-02  0.8104860E-01
        2   -1    0    0  501    0  0.00000000000E+00  0.00000000000E+00  0.22487395371E+04  0.22487395371E+04  0.25500000920E-02 0. -1.
       -2   -1    0    0    0  501  0.00000000000E+00  0.00000000000E+00 -0.13915495362E+04  0.13915495362E+04  0.25500000920E-02 0.  1.
    10030    2    1    2    0    0  0.00000000000E+00  0.00000000000E+00  0.85719000091E+03  0.36402890734E+04  0.35379273367E+04 0.  0.
        1    1    3    3  502    0 -0.17351977398E+04 -0.33229215239E+03  0.33712300428E+03  0.17986053460E+04  0.50400001928E-02 0.  1.
       -1    1    3    3    0  502  0.17351977398E+04  0.33229215239E+03  0.52006699663E+03  0.18416837274E+04  0.50400001928E-02 0. -1.
</event>
<event>
 5   0  0.8950809E-07  0.3473299E+04  0.7818609E-02  0.8120147E-01
       -2   -1    0    0    0  501  0.00000000000E+00  0.00000000000E+00  0.14949619713E+04  0.14949619713E+04  0.25500000920E-02 0.  1.
        2   -1    0    0  501    0  0.00000000000E+00  0.00000000000E+00 -0.20174103809E+04  0.20174103809E+04  0.25500000920E-02 0. -1.
    10030    2    1    2    0    0  0.00000000000E+00  0.00000000000E+00 -0.52244840958E+03  0.35123723522E+04  0.34732991809E+04 0.  0.
        2    1    3    3  502    0  0.13253197768E+04  0.40973197282E+03  0.79532546962E+03  0.15990295191E+04  0.25500000920E-02 0.  1.
       -2    1    3    3    0  502 -0.13253197768E+04 -0.40973197282E+03 -0.13177738792E+04  0.19133428331E+04  0.25500000920E-02 0. -1.
</event>
<event>
 5   0  0.2933506E-07  0.3517416E+04  0.7818609E-02  0.8109675E-01
       -1   -1    0    0    0  501  0.00000000000E+00  0.00000000000E+00  0.14850855101E+04  0.14850855101E+04  0.50400001928E-02 0.  1.
        1   -1    0    0  501    0  0.00000000000E+00  0.00000000000E+00 -0.20827450416E+04  0.20827450416E+04  0.50400001928E-02 0. -1.
    10030    2    1    2    0    0  0.00000000000E+00  0.00000000000E+00 -0.59765953145E+03  0.35678305517E+04  0.35174163714E+04 0.  0.
        4    1    3    3  502    0 -0.21030874576E+03  0.16458029530E+04  0.29275821515E+03  0.16848163443E+04  0.12699999809E+01 0.  1.
       -4    1    3    3    0  502  0.21030874576E+03 -0.16458029530E+04 -0.89041774660E+03  0.18830142073E+04  0.12699999809E+01 0. -1.
</event>
<event>
 5   0  0.2936607E-07  0.3638030E+04  0.7818609E-02  0.8081836E-01
        1   -1    0    0  501    0  0.00000000000E+00  0.00000000000E+00  0.11205524438E+04  0.11205524438E+04  0.50400001928E-02 0.  1.
       -1   -1    0    0    0  501  0.00000000000E+00  0.00000000000E+00 -0.29528428340E+04  0.29528428340E+04  0.50400001928E-02 0. -1.
    10030    2    1    2    0    0  0.00000000000E+00  0.00000000000E+00 -0.18322903903E+04  0.40733952778E+04  0.36380298260E+04 0.  0.
        2    1    3    3  502    0  0.25811745528E+03  0.43638036707E+03  0.10398405631E+04  0.11568581772E+04  0.25500000920E-02 0.  1.
       -2    1    3    3    0  502 -0.25811745528E+03 -0.43638036707E+03 -0.28721309534E+04  0.29165371006E+04  0.25500000920E-02 0. -1.
</event>
<event>
 5   0  0.9311672E-07  0.3481512E+04  0.7818609E-02  0.8118185E-01
       -2   -1    0    0    0  501  0.00000000000E+00  0.00000000000E+00  0.12096387967E+04  0.12096387967E+04  0.25500000920E-02 0.  1.
        2   -1    0    0  501    0  0.00000000000E+00  0.00000000000E+00 -0.25050710933E+04  0.25050710933E+04  0.25500000920E-02 0. -1.
    10030    2    1    2    0    0  0.00000000000E+00  0.00000000000E+00 -0.12954322965E+04  0.37147098900E+04  0.34815118457E+04 0.  0.
        4    1    3    3  502    0 -0.50749584734E+03 -0.10860733877E+04 -0.19944493288E+04  0.23270017569E+04  0.12699999809E+01 0. -1.
       -4    1    3    3    0  502  0.50749584734E+03  0.10860733877E+04  0.69901703224E+03  0.13877081331E+04  0.12699999809E+01 0.  1.
</event>
<event>
 5   0  0.9311672E-07  0.3492656E+04  0.7818609E-02  0.8115533E-01
        2   -1    0    0  501    0  0.00000000000E+00  0.00000000000E+00  0.15542340063E+04  0.15542340063E+04  0.25500000920E-02 0.  1.
       -2   -1    0    0    0  501  0.00000000000E+00  0.00000000000E+00 -0.19621637428E+04  0.19621637428E+04  0.25500000920E-02 0. -1.
    10030    2    1    2    0    0  0.00000000000E+00  0.00000000000E+00 -0.40792973643E+03  0.35163977491E+04  0.34926560753E+04 0.  0.
        4    1    3    3  502    0 -0.25361495077E+03 -0.14976030117E+04 -0.10715210667E+04  0.18588422024E+04  0.12699999809E+01 0. -1.
       -4    1    3    3    0  502  0.25361495077E+03  0.14976030117E+04  0.66359133029E+03  0.16575555467E+04  0.12699999809E+01 0.  1.
</event>
<event>
 5   0  0.2933506E-07  0.3452924E+04  0.7818609E-02  0.8125038E-01
       -1   -1    0    0    0  501  0.00000000000E+00  0.00000000000E+00  0.16796426808E+04  0.16796426808E+04  0.50400001928E-02 0.  1.
        1   -1    0    0  501    0  0.00000000000E+00  0.00000000000E+00 -0.17745864626E+04  0.17745864626E+04  0.50400001928E-02 0. -1.
    10030    2    1    2    0    0  0.00000000000E+00  0.00000000000E+00 -0.94943781775E+02  0.34542291435E+04  0.34529240730E+04 0.  0.
        4    1    3    3  502    0  0.32604493608E+03 -0.42453176747E+03  0.15945311452E+04  0.16819820772E+04  0.12699999809E+01 0.  1.
       -4    1    3    3    0  502 -0.32604493608E+03  0.42453176747E+03 -0.16894749270E+04  0.17722470663E+04  0.12699999809E+01 0. -1.
</event>
<event>
 5   0  0.2936607E-07  0.3233669E+04  0.7818609E-02  0.8179982E-01
       -1   -1    0    0    0  501  0.00000000000E+00  0.00000000000E+00  0.11191285319E+04  0.11191285319E+04  0.50400001928E-02 0. -1.
        1   -1    0    0  501    0  0.00000000000E+00  0.00000000000E+00 -0.23358829138E+04  0.23358829138E+04  0.50400001928E-02 0.  1.
    10030    2    1    2    0    0  0.00000000000E+00  0.00000000000E+00 -0.12167543819E+04  0.34550114457E+04  0.32336686386E+04 0.  0.
        2    1    3    3  502    0  0.29586349931E+03 -0.75397655096E+02  0.10880477334E+04  0.11300742837E+04  0.25500000920E-02 0. -1.
       -2    1    3    3    0  502 -0.29586349931E+03  0.75397655096E+02 -0.23048021153E+04  0.23249371620E+04  0.25500000920E-02 0.  1.
</event>
<event>
 5   0  0.8845195E-07  0.3471866E+04  0.7818609E-02  0.8120490E-01
        2   -1    0    0  501    0  0.00000000000E+00  0.00000000000E+00  0.23491483793E+04  0.23491483793E+04  0.25500000920E-02 0.  1.
       -2   -1    0    0    0  501  0.00000000000E+00  0.00000000000E+00 -0.12827897675E+04  0.12827897675E+04  0.25500000920E-02 0. -1.
    10030    2    1    2    0    0  0.00000000000E+00  0.00000000000E+00  0.10663586117E+04  0.36319381468E+04  0.34718660707E+04 0.  0.
        5    1    3    3  502    0  0.41907953754E+03  0.15099476361E+04  0.13145240941E+04  0.20453765440E+04  0.46999998093E+01 0. -1.
       -5    1    3    3    0  502 -0.41907953754E+03 -0.15099476361E+04 -0.24816548240E+03  0.15865616028E+04  0.46999998093E+01 0.  1.
</event>
<event>
 5   0  0.8845195E-07  0.3513456E+04  0.7818609E-02  0.8110608E-01
        2   -1    0    0  501    0  0.00000000000E+00  0.00000000000E+00  0.18931777162E+04  0.18931777162E+04  0.25500000920E-02 0. -1.
       -2   -1    0    0    0  501  0.00000000000E+00  0.00000000000E+00 -0.16301127810E+04  0.16301127810E+04  0.25500000920E-02 0.  1.
    10030    2    1    2    0    0  0.00000000000E+00  0.00000000000E+00  0.26306493513E+03  0.35232904972E+04  0.35134559578E+04 0.  0.
        5    1    3    3  502    0  0.80367388347E+03 -0.15222678814E+04  0.48305595037E+03  0.17878915948E+04  0.46999998093E+01 0.  1.
       -5    1    3    3    0  502 -0.80367388347E+03  0.15222678814E+04 -0.21999101523E+03  0.17353989024E+04  0.46999998093E+01 0. -1.
</event>
<event>
 5   0  0.2972541E-07  0.3522844E+04  0.7818609E-02  0.8108397E-01
       -1   -1    0    0    0  501  0.00000000000E+00  0.00000000000E+00  0.11517586909E+04  0.11517586909E+04  0.50400001928E-02 0.  1.
        1   -1    0    0  501    0  0.00000000000E+00  0.00000000000E+00 -0.26937999215E+04  0.26937999215E+04  0.50400001928E-02 0. -1.
    10030    2    1    2    0    0  0.00000000000E+00  0.00000000000E+00 -0.15420412306E+04  0.38455586124E+04  0.35228440052E+04 0.  0.
        3    1    3    3  502    0  0.93981438560E+03 -0.33527434810E+03  0.81348170254E+03  0.12874053202E+04  0.10100000352E+00 0.  1.
       -3    1    3    3    0  502 -0.93981438560E+03  0.33527434810E+03 -0.23555229331E+04  0.25581532922E+04  0.10100000352E+00 0. -1.
</event>
<event>
 5   0  0.8950809E-07  0.3493828E+04  0.7818609E-02  0.8115254E-01
        2   -1    0    0  501    0  0.00000000000E+00  0.00000000000E+00  0.12106022167E+04  0.12106022167E+04  0.25500000920E-02 0. -1.
       -2   -1    0    0    0  501  0.00000000000E+00  0.00000000000E+00 -0.25208189825E+04  0.25208189825E+04  0.25500000920E-02 0.  1.
    10030    2    1    2    0    0  0.00000000000E+00  0.00000000000E+00 -0.13102167658E+04  0.37314211992E+04  0.34938283004E+04 0.  0.
        2    1    3    3  502    0 -0.40699013638E+03 -0.10948071288E+04  0.73225477739E+03  0.13785647171E+04  0.25500000920E-02 0. -1.
       -2    1    3    3    0  502  0.40699013638E+03  0.10948071288E+04 -0.20424715432E+04  0.23528564821E+04  0.25500000920E-02 0.  1.
</event>
<event>
 5   0  0.2933506E-07  0.3296588E+04  0.7818609E-02  0.8163764E-01
       -1   -1    0    0    0  501  0.00000000000E+00  0.00000000000E+00  0.13489833153E+04  0.13489833153E+04  0.50400001928E-02 0. -1.
        1   -1    0    0  501    0  0.00000000000E+00  0.00000000000E+00 -0.20140150406E+04  0.20140150406E+04  0.50400001928E-02 0.  1.
    10030    2    1    2    0    0  0.00000000000E+00  0.00000000000E+00 -0.66503172530E+03  0.33629983560E+04  0.32965877429E+04 0.  0.
        4    1    3    3  502    0  0.10453318133E+04 -0.36709622053E+02 -0.16320723682E+04  0.19384860134E+04  0.12699999809E+01 0.  1.
       -4    1    3    3    0  502 -0.10453318133E+04  0.36709622053E+02  0.96704064285E+03  0.14245123426E+04  0.12699999809E+01 0. -1.
</event>
<event>
 5   0  0.6188930E-07  0.3578668E+04  0.7818609E-02  0.8095396E-01
       -2   -1    0    0    0  501  0.00000000000E+00  0.00000000000E+00  0.17308603672E+04  0.17308603672E+04  0.25500000920E-02 0.  1.
        2   -1    0    0  501    0  0.00000000000E+00  0.00000000000E+00 -0.18497828695E+04  0.18497828695E+04  0.25500000920E-02 0. -1.
    10030    2    1    2    0    0  0.00000000000E+00  0.00000000000E+00 -0.11892250233E+03  0.35806432367E+04  0.35786678285E+04 0.  0.
        3    1    3    3  502    0  0.71361679367E+03  0.15845704150E+04 -0.48584612698E+03  0.18044829723E+04  0.10100000352E+00 0.  1.
       -3    1    3    3    0  502 -0.71361679367E+03 -0.15845704150E+04  0.36692362466E+03  0.17761602644E+04  0.10100000352E+00 0. -1.
</event>
<event>
 5   0  0.8845195E-07  0.3482617E+04  0.7818609E-02  0.8117922E-01
       -2   -1    0    0    0  501  0.00000000000E+00  0.00000000000E+00  0.16651578981E+04  0.16651578981E+04  0.25500000920E-02 0. -1.
        2   -1    0    0  501    0  0.00000000000E+00  0.00000000000E+00 -0.18209411465E+04  0.18209411465E+04  0.25500000920E-02 0.  1.
    10030    2    1    2    0    0  0.00000000000E+00  0.00000000000E+00 -0.15578324837E+03  0.34860990446E+04  0.34826165635E+04 0.  0.
        5    1    3    3  502    0  0.89738980506E+03 -0.79314627517E+02  0.14137438151E+04  0.16763928349E+04  0.46999998093E+01 0. -1.
       -5    1    3    3    0  502 -0.89738980506E+03  0.79314627517E+02 -0.15695270634E+04  0.18097062096E+04  0.46999998093E+01 0.  1.
</event>
<event>
 5   0  0.8950809E-07  0.3514917E+04  0.7818609E-02  0.8110264E-01
       -2   -1    0    0    0  501  0.00000000000E+00  0.00000000000E+00  0.14045218367E+04  0.14045218367E+04  0.25500000920E-02 0. -1.
        2   -1    0    0  501    0  0.00000000000E+00  0.00000000000E+00 -0.21990831923E+04  0.21990831923E+04  0.25500000920E-02 0.  1.
    10030    2    1    2    0    0  0.00000000000E+00  0.00000000000E+00 -0.79456135563E+03  0.36036050289E+04  0.35149169914E+04 0.  0.
        2    1    3    3  502    0 -0.32224641167E+03  0.11424526440E+04 -0.17259826338E+04  0.20947689242E+04  0.25500000920E-02 0.  1.
       -2    1    3    3    0  502  0.32224641167E+03 -0.11424526440E+04  0.93142127813E+03  0.15088361048E+04  0.25500000920E-02 0. -1.
</event>
<event>
 5   0  0.3026332E-07  0.3473973E+04  0.7818609E-02  0.8119986E-01
        1   -1    0    0  501    0  0.00000000000E+00  0.00000000000E+00  0.14384078512E+04  0.14384078512E+04  0.50400001928E-02 0.  1.
       -1   -1    0    0    0  501  0.00000000000E+00  0.00000000000E+00 -0.20975427747E+04  0.20975427747E+04  0.50400001928E-02 0. -1.
    10030    2    1    2    0    0  0.00000000000E+00  0.00000000000E+00 -0.65913492350E+03  0.35359506258E+04  0.34739729390E+04 0.  0.
        1    1    3    3  502    0 -0.54010357610E+03 -0.44334492594E+03 -0.19481757483E+04  0.20696993362E+04  0.50400001928E-02 0. -1.
       -1    1    3    3    0  502  0.54010357610E+03  0.44334492594E+03  0.12890408248E+04  0.14662512896E+04  0.50400001928E-02 0.  1.
</event>
<event>
 5   0  0.8950809E-07  0.3476899E+04  0.7818609E-02  0.8119287E-01
       -2   -1    0    0    0  501  0.00000000000E+00  0.00000000000E+00  0.28958047155E+04  0.28958047155E+04  0.25500000920E-02 0.  1.
        2   -1    0    0  501    0  0.00000000000E+00  0.00000000000E+00 -0.10436498967E+04  0.10436498967E+04  0.25500000920E-02 0. -1.
    10030    2    1    2    0    0  0.00000000000E+00  0.00000000000E+00  0.18521548187E+04  0.39394546122E+04  0.34768987862E+04 0.  0.
        2    1    3    3  502    0  0.43599452458E+03  0.29707053710E+03 -0.95075440471E+03  0.10873251894E+04  0.25500000920E-02 0. -1.
       -2    1    3    3    0  502 -0.43599452458E+03 -0.29707053710E+03  0.28029092235E+04  0.28521294228E+04  0.25500000920E-02 0.  1.
</event>
<event>
 5   0  0.2972541E-07  0.3495307E+04  0.7818609E-02  0.8114903E-01
       -1   -1    0    0    0  501  0.00000000000E+00  0.00000000000E+00  0.18692480877E+04  0.18692480877E+04  0.50400001928E-02 0. -1.
        1   -1    0    0  501    0  0.00000000000E+00  0.00000000000E+00 -0.16339683321E+04  0.16339683321E+04  0.50400001928E-02 0.  1.
    10030    2    1    2    0    0  0.00000000000E+00  0.00000000000E+00  0.23527975557E+03  0.35032164198E+04  0.34953066705E+04 0.  0.
        3    1    3    3  502    0 -0.55886510632E+03  0.11970416725E+04 -0.10290878923E+04  0.16745927484E+04  0.10100000352E+00 0.  1.
       -3    1    3    3    0  502  0.55886510632E+03 -0.11970416725E+04  0.12643676478E+04  0.18286236714E+04  0.10100000352E+00 0. -1.
</event>
<event>
 5   0  0.2933506E-07  0.3549536E+04  0.7818609E-02  0.8102150E-01
        1   -1    0    0  501    0  0.00000000000E+00  0.00000000000E+00  0.21844828710E+04  0.21844828710E+04  0.50400001928E-02 0.  1.
       -1   -1    0    0    0  501  0.00000000000E+00  0.00000000000E+00 -0.14418981205E+04  0.14418981205E+04  0.50400001928E-02 0. -1.
    10030    2    1    2    0    0  0.00000000000E+00  0.00000000000E+00  0.74258475051E+03  0.36263809915E+04  0.35495361646E+04 0.  0.
        4    1    3    3  502    0  0.17699225173E+04  0.11733972672E+03  0.31166966993E+03  0.18009813782E+04  0.12699999809E+01 0. -1.
       -4    1    3    3    0  502 -0.17699225173E+04 -0.11733972672E+03  0.43091508057E+03  0.18253996133E+04  0.12699999809E+01 0.  1.
</event>
<event>
 5   0  0.6188930E-07  0.3518863E+04  0.7818609E-02  0.8109334E-01
       -2   -1    0    0    0  501  0.00000000000E+00  0.00000000000E+00  0.16149449169E+04  0.16149449169E+04  0.25500000920E-02 0. -1.
        2   -1    0    0  501    0  0.00000000000E+00  0.00000000000E+00 -0.19168456136E+04  0.19168456136E+04  0.25500000920E-02 0.  1.
    10030    2    1    2    0    0  0.00000000000E+00  0.00000000000E+00 -0.30190069673E+03  0.35317905305E+04  0.35188634984E+04 0.  0.
        3    1    3    3  502    0  0.14985786114E+04 -0.51811460914E+03 -0.91626019644E+03  0.18313146536E+04  0.10100000352E+00 0. -1.
       -3    1    3    3    0  502 -0.14985786114E+04  0.51811460914E+03  0.61435949970E+03  0.17004758769E+04  0.10100000352E+00 0.  1.
</event>
<event>
 5   0  0.3026332E-07  0.3510747E+04  0.7818609E-02  0.8111248E-01
       -1   -1    0    0    0  501  0.00000000000E+00  0.00000000000E+00  0.17959096969E+04  0.17959096969E+04  0.50400001928E-02 0. -1.
        1   -1    0    0  501    0  0.00000000000E+00  0.00000000000E+00 -0.17157518231E+04  0.17157518231E+04  0.50400001928E-02 0.  1.
    10030    2    1    2    0    0  0.00000000000E+00  0.00000000000E+00  0.80157873750E+02  0.35116615200E+04  0.35107465511E+04 0.  0.
        1    1    3    3  502    0 -0.16615503755E+04 -0.32092287882E+03 -0.42651256047E+03  0.17451802511E+04  0.50400001928E-02 0.  1.
       -1    1    3    3    0  502  0.16615503755E+04  0.32092287882E+03  0.50667043422E+03  0.17664812689E+04  0.50400001928E-02 0. -1.
</event>
<event>
 5   0  0.2936607E-07  0.3487457E+04  0.7818609E-02  0.8116769E-01
        1   -1    0    0  501    0  0.00000000000E+00  0.00000000000E+00  0.17889952769E+04  0.17889952769E+04  0.50400001928E-02 0.  1.
       -1   -1    0    0    0  501  0.00000000000E+00  0.00000000000E+00 -0.16996069255E+04  0.16996069255E+04  0.50400001928E-02 0. -1.
    10030    2    1    2    0    0  0.00000000000E+00  0.00000000000E+00  0.89388351356E+02  0.34886022024E+04  0.34874568168E+04 0.  0.
        2    1    3    3  502    0 -0.56982069088E+02 -0.93172916030E+03 -0.14286176337E+04  0.17065504762E+04  0.25500000920E-02 0. -1.
       -2    1    3    3    0  502  0.56982069088E+02  0.93172916030E+03  0.15180059850E+04  0.17820517262E+04  0.25500000920E-02 0.  1.
</event>
<event>
 5   0  0.2936607E-07  0.3532723E+04  0.7818609E-02  0.8106079E-01
        1   -1    0    0  501    0  0.00000000000E+00  0.00000000000E+00  0.11842170207E+04  0.11842170207E+04  0.50400001928E-02 0.  1.
       -1   -1    0    0    0  501  0.00000000000E+00  0.00000000000E+00 -0.26346797907E+04  0.26346797907E+04  0.50400001928E-02 0. -1.
    10030    2    1    2    0    0  0.00000000000E+00  0.00000000000E+00 -0.14504627700E+04  0.38188968114E+04  0.35327228322E+04 0.  0.
        2    1    3    3  502    0 -0.57429347151E+03 -0.70205926858E+03 -0.23637081287E+04  0.25317615065E+04  0.25500000920E-02 0. -1.
       -2    1    3    3    0  502  0.57429347151E+03  0.70205926858E+03  0.91324535871E+03  0.12871353049E+04  0.25500000920E-02 0.  1.
</event>
<event>
 5   0  0.9311672E-07  0.3456967E+04  0.7818609E-02  0.8124065E-01
       -2   -1    0    0    0  501  0.00000000000E+00  0.00000000000E+00  0.15642015804E+04  0.15642015804E+04  0.25500000920E-02 0. -1.
        2   -1    0    0  501    0  0.00000000000E+00  0.00000000000E+00 -0.19100189992E+04  0.19100189992E+04  0.25500000920E-02 0.  1.
    10030    2    1    2    0    0  0.00000000000E+00  0.00000000000E+00 -0.34581741886E+03  0.34742205796E+04  0.34569667266E+04 0.  0.
        4    1    3    3  502    0  0.80680388729E+03 -0.51078839474E+03  0.12750514037E+04  0.15929830482E+04  0.12699999809E+01 0. -1.
       -4    1    3    3    0  502 -0.80680388729E+03  0.51078839474E+03 -0.16208688226E+04  0.18812375314E+04  0.12699999809E+01 0.  1.
</event>
<event>
 5   0  0.2933506E-07  0.3462787E+04  0.7818609E-02  0.8122666E-01
        1   -1    0    0  501    0  0.00000000000E+00  0.00000000000E+00  0.31604597776E+04  0.31604597776E+04  0.50400001928E-02 0. -1.
       -1   -1    0    0    0  501  0.00000000000E+00  0.00000000000E+00 -0.94850851794E+03  0.94850851795E+03  0.50400001928E-02 0.  1.
    10030    2    1    2    0    0  0.00000000000E+00  0.00000000000E+00  0.22119512596E+04  0.41089682955E+04  0.34627867504E+04 0.  0.
        4    1    3    3  502    0 -0.12493339131E+04 -0.11956504365E+04  0.12074025508E+04  0.21090845704E+04  0.12699999809E+01 0.  1.
       -4    1    3    3    0  502  0.12493339131E+04  0.11956504365E+04  0.10045487089E+04  0.19998837251E+04  0.12699999809E+01 0. -1.
</event>
<event>
 5   0  0.2933506E-07  0.3384872E+04  0.7818609E-02  0.8141629E-01
       -1   -1    0    0    0  501  0.00000000000E+00  0.00000000000E+00  0.15857613486E+04  0.15857613486E+04  0.50400001928E-02 0.  1.
        1   -1    0    0  501    0  0.00000000000E+00  0.00000000000E+00 -0.18062864780E+04  0.18062864780E+04  0.50400001928E-02 0. -1.
    10030    2    1    2    0    0  0.00000000000E+00  0.00000000000E+00 -0.22052512938E+03  0.33920478265E+04  0.33848718033E+04 0.  0.
        4    1    3    3  502    0 -0.56479845352E+03  0.13783412996E+04 -0.91540575744E+03  0.17483681949E+04  0.12699999809E+01 0. -1.
       -4    1    3    3    0  502  0.56479845352E+03 -0.13783412996E+04  0.69488062806E+03  0.16436796316E+04  0.12699999809E+01 0.  1.
</event>
<event>
 5   0  0.6188930E-07  0.3466215E+04  0.7818609E-02  0.8121843E-01
        2   -1    0    0  501    0  0.00000000000E+00  0.00000000000E+00  0.18518352611E+04  0.18518352611E+04  0.25500000920E-02 0.  1.
       -2   -1    0    0    0  501  0.00000000000E+00  0.00000000000E+00 -0.16219921216E+04  0.16219921216E+04  0.25500000920E-02 0. -1.
    10030    2    1    2    0    0  0.00000000000E+00  0.00000000000E+00  0.22984313955E+03  0.34738273827E+04  0.34662153447E+04 0.  0.
        3    1    3    3  502    0 -0.69625368621E+02  0.12109283069E+04 -0.11257255703E+04  0.16548272195E+04  0.10100000352E+00 0. -1.
       -3    1    3    3    0  502  0.69625368621E+02 -0.12109283069E+04  0.13555687099E+04  0.18190001632E+04  0.10100000352E+00 0.  1.
</event>
<event>
 5   0  0.9128871E-07  0.3440440E+04  0.7818609E-02  0.8128052E-01
       -2   -1    0    0    0  501  0.00000000000E+00  0.00000000000E+00  0.15180247831E+04  0.15180247831E+04  0.25500000920E-02 0. -1.
        2   -1    0    0  501    0  0.00000000000E+00  0.00000000000E+00 -0.19493463764E+04  0.19493463764E+04  0.25500000920E-02 0.  1.
    10030    2    1    2    0    0  0.00000000000E+00  0.00000000000E+00 -0.43132159331E+03  0.34673711595E+04  0.34404395709E+04 0.  0.
        1    1    3    3  502    0 -0.16470497406E+04 -0.19943294384E+03 -0.67376240678E+03  0.17906708597E+04  0.50400001928E-02 0.  1.
       -1    1    3    3    0  502  0.16470497406E+04  0.19943294384E+03  0.24244081346E+03  0.16767002998E+04  0.50400001928E-02 0. -1.
</event>
<event>
 5   0  0.9128871E-07  0.3507844E+04  0.7818609E-02  0.8111933E-01
        2   -1    0    0  501    0  0.00000000000E+00  0.00000000000E+00  0.15724906766E+04  0.15724906766E+04  0.25500000920E-02 0. -1.
       -2   -1    0    0    0  501  0.00000000000E+00  0.00000000000E+00 -0.19562870589E+04  0.19562870589E+04  0.25500000920E-02 0.  1.
    10030    2    1    2    0    0  0.00000000000E+00  0.00000000000E+00 -0.38379638239E+03  0.35287777355E+04  0.35078444440E+04 0.  0.
        1    1    3    3  502    0  0.68242818501E+03 -0.22573699135E+02  0.14333000440E+04  0.15876293068E+04  0.50400001928E-02 0. -1.
       -1    1    3    3    0  502 -0.68242818501E+03  0.22573699135E+02 -0.18170964264E+04  0.19411484287E+04  0.50400001928E-02 0.  1.
</event>
<event>
 5   0  0.2907000E-07  0.3502460E+04  0.7818609E-02  0.8113207E-01
        3   -1    0    0  501    0  0.00000000000E+00  0.00000000000E+00  0.16446540153E+04  0.16446540184E+04  0.10100000352E+00 0. -1.
       -3   -1    0    0    0  501  0.00000000000E+00  0.00000000000E+00 -0.18647121532E+04  0.18647121559E+04  0.10100000352E+00 0.  1.
    10030    2    1    2    0    0  0.00000000000E+00  0.00000000000E+00 -0.22005813788E+03  0.35093661744E+04  0.35024599015E+04 0.  0.
        5    1    3    3  502    0 -0.10297844324E+04 -0.81345324288E+02 -0.15269289199E+04  0.18435311376E+04  0.46999998093E+01 0.  1.
       -5    1    3    3    0  502  0.10297844324E+04  0.81345324288E+02  0.13068707820E+04  0.16658350368E+04  0.46999998093E+01 0. -1.
</event>
<event>
 5   0  0.3026332E-07  0.3435446E+04  0.7818609E-02  0.8129261E-01
       -1   -1    0    0    0  501  0.00000000000E+00  0.00000000000E+00  0.18828674723E+04  0.18828674723E+04  0.50400001928E-02 0.  1.
        1   -1    0    0  501    0  0.00000000000E+00  0.00000000000E+00 -0.15670629916E+04  0.15670629916E+04  0.50400001928E-02 0. -1.
    10030    2    1    2    0    0  0.00000000000E+00  0.00000000000E+00  0.31580448077E+03  0.34499304639E+04  0.34354457841E+04 0.  0.
        1    1    3    3  502    0 -0.25515192930E+03 -0.12310978158E+04  0.13332504187E+04  0.18325558704E+04  0.50400001928E-02 0.  1.
       -1    1    3    3    0  502  0.25515192930E+03  0.12310978158E+04 -0.10174459380E+04  0.16173745935E+04  0.50400001928E-02 0. -1.
</event>
<event>
 5   0  0.8845195E-07  0.3645479E+04  0.7818609E-02  0.8080153E-01
       -2   -1    0    0    0  501  0.00000000000E+00  0.00000000000E+00  0.14159526919E+04  0.14159526919E+04  0.25500000920E-02 0. -1.
        2   -1    0    0  501    0  0.00000000000E+00  0.00000000000E+00 -0.23463912287E+04  0.23463912287E+04  0.25500000920E-02 0.  1.
    10030    2    1    2    0    0  0.00000000000E+00  0.00000000000E+00 -0.93043853673E+03  0.37623439206E+04  0.36454788308E+04 0.  0.
        5    1    3    3  502    0 -0.17261476216E+04  0.44262010433E+03 -0.69712628719E+02  0.17833620240E+04  0.46999998093E+01 0.  1.
       -5    1    3    3    0  502  0.17261476216E+04 -0.44262010433E+03 -0.86072590801E+03  0.19789818966E+04  0.46999998093E+01 0. -1.
</event>
<event>
 5   0  0.8950809E-07  0.3469917E+04  0.7818609E-02  0.8120957E-01
       -2   -1    0    0    0  501  0.00000000000E+00  0.00000000000E+00  0.21011918487E+04  0.21011918487E+04  0.25500000920E-02 0. -1.
        2   -1    0    0  501    0  0.00000000000E+00  0.00000000000E+00 -0.14325586246E+04  0.14325586246E+04  0.25500000920E-02 0.  1.
    10030    2    1    2    0    0  0.00000000000E+00  0.00000000000E+00  0.66863322410E+03  0.35337504734E+04  0.34699167165E+04 0.  0.
        2    1    3    3  502    0 -0.52773596676E+03  0.51167903378E+03  0.19347742707E+04  0.20697033997E+04  0.25500000920E-02 0. -1.
       -2    1    3    3    0  502  0.52773596676E+03 -0.51167903378E+03 -0.12661410466E+04  0.14640470737E+04  0.25500000920E-02 0.  1.
</event>
<event>
 5   0  0.3061330E-07  0.3486419E+04  0.7818609E-02  0.8117016E-01
       -1   -1    0    0    0  501  0.00000000000E+00  0.00000000000E+00  0.13784528875E+04  0.13784528875E+04  0.50400001928E-02 0. -1.
        1   -1    0    0  501    0  0.00000000000E+00  0.00000000000E+00 -0.22044855298E+04  0.22044855298E+04  0.50400001928E-02 0.  1.
    10030    2    1    2    0    0  0.00000000000E+00  0.00000000000E+00 -0.82603264235E+03  0.35829384173E+04  0.34864190477E+04 0.  0.
        5    1    3    3  502    0 -0.16139509470E+04  0.84912215961E+02 -0.10843307320E+04  0.19462381586E+04  0.46999998093E+01 0.  1.
       -5    1    3    3    0  502  0.16139509470E+04 -0.84912215961E+02  0.25829808963E+03  0.16367002587E+04  0.46999998093E+01 0. -1.
</event>
<event>
 5   0  0.9128871E-07  0.3478598E+04  0.7818609E-02  0.8118881E-01
        2   -1    0    0  501    0  0.00000000000E+00  0.00000000000E+00  0.25793089224E+04  0.25793089224E+04  0.25500000920E-02 0.  1.
       -2   -1    0    0    0  501  0.00000000000E+00  0.00000000000E+00 -0.11728572541E+04  0.11728572541E+04  0.25500000920E-02 0. -1.
    10030    2    1    2    0    0  0.00000000000E+00  0.00000000000E+00  0.14064516683E+04  0.37521661765E+04  0.34785980970E+04 0.  0.
        1    1    3    3  502    0 -0.11369088214E+03 -0.83019328073E+03  0.23472333034E+04  0.24923183345E+04  0.50400001928E-02 0.  1.
       -1    1    3    3    0  502  0.11369088214E+03  0.83019328073E+03 -0.94078163507E+03  0.12598478420E+04  0.50400001928E-02 0. -1.
</event>
<event>
 5   0  0.9311672E-07  0.3506549E+04  0.7818609E-02  0.8112240E-01
        2   -1    0    0  501    0  0.00000000000E+00  0.00000000000E+00  0.27194236182E+04  0.27194236182E+04  0.25500000920E-02 0. -1.
       -2   -1    0    0    0  501  0.00000000000E+00  0.00000000000E+00 -0.11303759084E+04  0.11303759084E+04  0.25500000920E-02 0.  1.
    10030    2    1    2    0    0  0.00000000000E+00  0.00000000000E+00  0.15890477098E+04  0.38497995266E+04  0.35065486979E+04 0.  0.
        4    1    3    3  502    0 -0.13266063268E+04 -0.71890203211E+03 -0.18577737878E+03  0.15202694911E+04  0.12699999809E+01 0.  1.
       -4    1    3    3    0  502  0.13266063268E+04  0.71890203211E+03  0.17748250886E+04  0.23295300355E+04  0.12699999809E+01 0. -1.
</event>
<event>
 5   0  0.9128871E-07  0.3022693E+04  0.7818609E-02  0.8237280E-01
        2   -1    0    0  501    0  0.00000000000E+00  0.00000000000E+00  0.19451628132E+04  0.19451628132E+04  0.25500000920E-02 0. -1.
       -2   -1    0    0    0  501  0.00000000000E+00  0.00000000000E+00 -0.11742813147E+04  0.11742813147E+04  0.25500000920E-02 0.  1.
    10030    2    1    2    0    0  0.00000000000E+00  0.00000000000E+00  0.77088149850E+03  0.31194441279E+04  0.30226930678E+04 0.  0.
        1    1    3    3  502    0  0.69925013527E+03 -0.94218374186E+03  0.13685646325E+04  0.18026730454E+04  0.50400001928E-02 0. -1.
       -1    1    3    3    0  502 -0.69925013527E+03  0.94218374186E+03 -0.59768313401E+03  0.13167710825E+04  0.50400001928E-02 0.  1.
</event>
<event>
 5   0  0.8950809E-07  0.3514934E+04  0.7818609E-02  0.8110260E-01
       -2   -1    0    0    0  501  0.00000000000E+00  0.00000000000E+00  0.10189708200E+04  0.10189708200E+04  0.25500000920E-02 0.  1.
        2   -1    0    0  501    0  0.00000000000E+00  0.00000000000E+00 -0.30311854679E+04  0.30311854679E+04  0.25500000920E-02 0. -1.
    10030    2    1    2    0    0  0.00000000000E+00  0.00000000000E+00 -0.20122146478E+04  0.40501562879E+04  0.35149335936E+04 0.  0.
        2    1    3    3  502    0 -0.29672794636E+03  0.18473548443E+03  0.97851522940E+03  0.10390701264E+04  0.25500000920E-02 0.  1.
       -2    1    3    3    0  502  0.29672794636E+03 -0.18473548443E+03 -0.29907298772E+04  0.30110861615E+04  0.25500000920E-02 0. -1.
</event>
<event>
 5   0  0.2936607E-07  0.3468922E+04  0.7818609E-02  0.8121195E-01
        1   -1    0    0  501    0  0.00000000000E+00  0.00000000000E+00  0.15888067352E+04  0.15888067352E+04  0.50400001928E-02 0. -1.
       -1   -1    0    0    0  501  0.00000000000E+00  0.00000000000E+00 -0.18934684104E+04  0.18934684105E+04  0.50400001928E-02 0.  1.
    10030    2    1    2    0    0  0.00000000000E+00  0.00000000000E+00 -0.30466167522E+03  0.34822751457E+04  0.34689222323E+04 0.  0.
        2    1    3    3  502    0  0.61028123293E+03  0.15873159035E+04  0.19006919766E+03  0.17111812472E+04  0.25500000920E-02 0.  1.
       -2    1    3    3    0  502 -0.61028123293E+03 -0.15873159035E+04 -0.49473087289E+03  0.17710938985E+04  0.25500000920E-02 0. -1.
</event>
<event>
 5   0  0.2936607E-07  0.3505715E+04  0.7818609E-02  0.8112437E-01
        1   -1    0    0  501    0  0.00000000000E+00  0.00000000000E+00  0.13548777018E+04  0.13548777018E+04  0.50400001928E-02 0. -1.
       -1   -1    0    0    0  501  0.00000000000E+00  0.00000000000E+00 -0.22677396560E+04  0.22677396560E+04  0.50400001928E-02 0.  1.
    10030    2    1    2    0    0  0.00000000000E+00  0.00000000000E+00 -0.91286195421E+03  0.36226173579E+04  0.35057152728E+04 0.  0.
        2    1    3    3  502    0  0.14387721112E+04  0.25775892060E+03 -0.14561660253E+04  0.20632315291E+04  0.25500000920E-02 0.  1.
       -2    1    3    3    0  502 -0.14387721112E+04 -0.25775892060E+03  0.54330407113E+03  0.15593858288E+04  0.25500000920E-02 0. -1.
</event>
<event>
 5   0  0.9128871E-07  0.3496821E+04  0.7818609E-02  0.8114544E-01
       -2   -1    0    0    0  501  0.00000000000E+00  0.00000000000E+00  0.12318753617E+04  0.12318753617E+04  0.25500000920E-02 0.  1.
        2   -1    0    0  501    0  0.00000000000E+00  0.00000000000E+00 -0.24815322794E+04  0.24815322794E+04  0.25500000920E-02 0. -1.
    10030    2    1    2    0    0  0.00000000000E+00  0.00000000000E+00 -0.12496569177E+04  0.37134076411E+04  0.34968205411E+04 0.  0.
        1    1    3    3  502    0 -0.65001374921E+03  0.16028758281E+04 -0.89600699728E+03  0.19479623543E+04  0.50400001928E-02 0. -1.
       -1    1    3    3    0  502  0.65001374921E+03 -0.16028758281E+04 -0.35364992039E+03  0.17654452868E+04  0.50400001928E-02 0.  1.
</event>
<event>
 5   0  0.3026332E-07  0.3465299E+04  0.7818609E-02  0.8122063E-01
       -1   -1    0    0    0  501  0.00000000000E+00  0.00000000000E+00  0.14170118513E+04  0.14170118513E+04  0.50400001928E-02 0. -1.
        1   -1    0    0  501    0  0.00000000000E+00  0.00000000000E+00 -0.21185949917E+04  0.21185949917E+04  0.50400001928E-02 0.  1.
    10030    2    1    2    0    0  0.00000000000E+00  0.00000000000E+00 -0.70158314036E+03  0.35356068430E+04  0.34652989547E+04 0.  0.
        1    1    3    3  502    0  0.24666487969E+02 -0.12954826370E+04 -0.15244303398E+04  0.20006927699E+04  0.50400001928E-02 0.  1.
       -1    1    3    3    0  502 -0.24666487969E+02  0.12954826370E+04  0.82284719947E+03  0.15349140732E+04  0.50400001928E-02 0. -1.
</event>
<event>
 5   0  0.3061330E-07  0.3513739E+04  0.7818609E-02  0.8110542E-01
        1   -1    0    0  501    0  0.00000000000E+00  0.00000000000E+00  0.12634966095E+04  0.12634966095E+04  0.50400001928E-02 0. -1.
       -1   -1    0    0    0  501  0.00000000000E+00  0.00000000000E+00 -0.24428960616E+04  0.24428960616E+04  0.50400001928E-02 0.  1.
    10030    2    1    2    0    0  0.00000000000E+00  0.00000000000E+00 -0.11793994521E+04  0.37063926711E+04  0.35137392568E+04 0.  0.
        5    1    3    3  502    0  0.10138585056E+04  0.14330786769E+04 -0.51552166341E+03  0.18295923696E+04  0.46999998093E+01 0. -1.
       -5    1    3    3    0  502 -0.10138585056E+04 -0.14330786769E+04 -0.66387778871E+03  0.18768003015E+04  0.46999998093E+01 0.  1.
</event>
<event>
 5   0  0.9128871E-07  0.3491953E+04  0.7818609E-02  0.8115700E-01
       -2   -1    0    0    0  501  0.00000000000E+00  0.00000000000E+00  0.14882303374E+04  0.14882303374E+04  0.25500000920E-02 0. -1.
        2   -1    0    0  501    0  0.00000000000E+00  0.00000000000E+00 -0.20483617172E+04  0.20483617172E+04  0.25500000920E-02 0.  1.
    10030    2    1    2    0    0  0.00000000000E+00  0.00000000000E+00 -0.56013137975E+03  0.35365920546E+04  0.34919530636E+04 0.  0.
        1    1    3    3  502    0 -0.97042212423E+03  0.14462441699E+04 -0.40448872116E+03  0.17880023556E+04  0.50400001928E-02 0.  1.
       -1    1    3    3    0  502  0.97042212423E+03 -0.14462441699E+04 -0.15564265859E+03  0.17485896990E+04  0.50400001928E-02 0. -1.
</event>
<event>
 5   0  0.2936607E-07  0.3500377E+04  0.7818609E-02  0.8113701E-01
       -1   -1    0    0    0  501  0.00000000000E+00  0.00000000000E+00  0.12599452060E+04  0.12599452060E+04  0.50400001928E-02 0. -1.
        1   -1    0    0  501    0  0.00000000000E+00  0.00000000000E+00 -0.24311848450E+04  0.24311848450E+04  0.50400001928E-02 0.  1.
    10030    2    1    2    0    0  0.00000000000E+00  0.00000000000E+00 -0.11712396390E+04  0.36911300510E+04  0.35003769457E+04 0.  0.
        2    1    3    3  502    0 -0.12860724653E+04 -0.19382594261E+03 -0.18205990819E+04  0.22374386917E+04  0.25500000920E-02 0.  1.
       -2    1    3    3    0  502  0.12860724653E+04  0.19382594261E+03  0.64935944296E+03  0.14536913593E+04  0.25500000920E-02 0. -1.
</event>
<event>
 5   0  0.8950809E-07  0.3532570E+04  0.7818609E-02  0.8106114E-01
       -2   -1    0    0    0  501  0.00000000000E+00  0.00000000000E+00  0.22734342830E+04  0.22734342830E+04  0.25500000920E-02 0. -1.
        2   -1    0    0  501    0  0.00000000000E+00  0.00000000000E+00 -0.13722687416E+04  0.13722687416E+04  0.25500000920E-02 0.  1.
    10030    2    1    2    0    0  0.00000000000E+00  0.00000000000E+00  0.90116554143E+03  0.36457030245E+04  0.35325700573E+04 0.  0.
        2    1    3    3  502    0 -0.30306548656E+03 -0.13369437062E+04 -0.69886204576E+03  0.15387252262E+04  0.25500000920E-02 0.  1.
       -2    1    3    3    0  502  0.30306548656E+03  0.13369437062E+04  0.16000275872E+04  0.21069777983E+04  0.25500000920E-02 0. -1.
</event>
<event>
 5   0  0.2933506E-07  0.3562486E+04  0.7818609E-02  0.8099139E-01
       -1   -1    0    0    0  501  0.00000000000E+00  0.00000000000E+00  0.17222393496E+04  0.17222393496E+04  0.50400001928E-02 0.  1.
        1   -1    0    0  501    0  0.00000000000E+00  0.00000000000E+00 -0.18422680197E+04  0.18422680197E+04  0.50400001928E-02 0. -1.
    10030    2    1    2    0    0  0.00000000000E+00  0.00000000000E+00 -0.12002867016E+03  0.35645073693E+04  0.35624859164E+04 0.  0.
        4    1    3    3  502    0  0.12952440715E+04  0.29562108233E+03  0.11271562126E+04  0.17422777533E+04  0.12699999809E+01 0.  1.
       -4    1    3    3    0  502 -0.12952440715E+04 -0.29562108233E+03 -0.12471848827E+04  0.18222296161E+04  0.12699999809E+01 0. -1.
</event>
<event>
 5   0  0.2933506E-07  0.3435710E+04  0.7818609E-02  0.8129197E-01
        1   -1    0    0  501    0  0.00000000000E+00  0.00000000000E+00  0.20381493766E+04  0.20381493766E+04  0.50400001928E-02 0.  1.
       -1   -1    0    0    0  501  0.00000000000E+00  0.00000000000E+00 -0.14478947148E+04  0.14478947149E+04  0.50400001928E-02 0. -1.
    10030    2    1    2    0    0  0.00000000000E+00  0.00000000000E+00  0.59025466178E+03  0.34860440915E+04  0.34357099473E+04 0.  0.
        4    1    3    3  502    0 -0.15670992562E+04  0.60750817952E+03 -0.65263298012E+02  0.16820009447E+04  0.12699999809E+01 0.  1.
       -4    1    3    3    0  502  0.15670992562E+04 -0.60750817952E+03  0.65551795979E+03  0.18040431468E+04  0.12699999809E+01 0. -1.
</event>
<event>
 5   0  0.8845195E-07  0.2895931E+04  0.7818609E-02  0.8274089E-01
       -2   -1    0    0    0  501  0.00000000000E+00  0.00000000000E+00  0.10638021074E+04  0.10638021074E+04  0.25500000920E-02 0. -1.
        2   -1    0    0  501    0  0.00000000000E+00  0.00000000000E+00 -0.19708594782E+04  0.19708594782E+04  0.25500000920E-02 0.  1.
    10030    2    1    2    0    0  0.00000000000E+00  0.00000000000E+00 -0.90705737086E+03  0.30346615856E+04  0.28959312604E+04 0.  0.
        5    1    3    3  502    0  0.31420503970E+03  0.12355764788E+03  0.10219692013E+04  0.10763059220E+04  0.46999998093E+01 0. -1.
       -5    1    3    3    0  502 -0.31420503970E+03 -0.12355764788E+03 -0.19290265721E+04  0.19583556636E+04  0.46999998093E+01 0.  1.
</event>
<event>
 5   0  0.3026332E-07  0.3375727E+04  0.7818609E-02  0.8143889E-01
       -1   -1    0    0    0  501  0.00000000000E+00  0.00000000000E+00  0.13347419607E+04  0.13347419608E+04  0.50400001928E-02 0. -1.
        1   -1    0    0  501    0  0.00000000000E+00  0.00000000000E+00 -0.21344077048E+04  0.21344077048E+04  0.50400001928E-02 0.  1.
    10030    2    1    2    0    0  0.00000000000E+00  0.00000000000E+00 -0.79966574403E+03  0.34691496655E+04  0.33757271957E+04 0.  0.
        1    1    3    3  502    0  0.16983144471E+03 -0.70458685284E+03  0.11666880771E+04  0.13734796766E+04  0.50400001928E-02 0. -1.
       -1    1    3    3    0  502 -0.16983144471E+03  0.70458685284E+03 -0.19663538211E+04  0.20956699889E+04  0.50400001928E-02 0.  1.
</event>
<event>
 5   0  0.2972541E-07  0.3437370E+04  0.7818609E-02  0.8128795E-01
       -1   -1    0    0    0  501  0.00000000000E+00  0.00000000000E+00  0.14180573440E+04  0.14180573440E+04  0.50400001928E-02 0.  1.
        1   -1    0    0  501    0  0.00000000000E+00  0.00000000000E+00 -0.20830458437E+04  0.20830458437E+04  0.50400001928E-02 0. -1.
    10030    2    1    2    0    0  0.00000000000E+00  0.00000000000E+00 -0.66498849968E+03  0.35011031877E+04  0.34373701905E+04 0.  0.
        3    1    3    3  502    0  0.67103461848E+03  0.13268604294E+03  0.12734404847E+04  0.14455254143E+04  0.10100000352E+00 0.  1.
       -3    1    3    3    0  502 -0.67103461848E+03 -0.13268604294E+03 -0.19384289843E+04  0.20555777734E+04  0.10100000352E+00 0. -1.
</event>
<event>
 5   0  0.8950809E-07  0.3491959E+04  0.7818609E-02  0.8115698E-01
        2   -1    0    0  501    0  0.00000000000E+00  0.00000000000E+00  0.21868015825E+04  0.21868015825E+04  0.25500000920E-02 0.  1.
       -2   -1    0    0    0  501  0.00000000000E+00  0.00000000000E+00 -0.13940196625E+04  0.13940196625E+04  0.25500000920E-02 0. -1.
    10030    2    1    2    0    0  0.00000000000E+00  0.00000000000E+00  0.79278191999E+03  0.35808212449E+04  0.34919589940E+04 0.  0.
        2    1    3    3  502    0 -0.13516958188E+04 -0.91077645522E+03  0.10382991463E+04  0.19325269610E+04  0.25500000920E-02 0.  1.
       -2    1    3    3    0  502  0.13516958188E+04  0.91077645522E+03 -0.24551722629E+03  0.16482942839E+04  0.25500000920E-02 0. -1.
</event>
<event>
 5   0  0.9311672E-07  0.3859894E+04  0.7818609E-02  0.8033423E-01
       -2   -1    0    0    0  501  0.00000000000E+00  0.00000000000E+00  0.16725733902E+04  0.16725733902E+04  0.25500000920E-02 0.  1.
        2   -1    0    0  501    0  0.00000000000E+00  0.00000000000E+00 -0.22269244782E+04  0.22269244782E+04  0.25500000920E-02 0. -1.
    10030    2    1    2    0    0  0.00000000000E+00  0.00000000000E+00 -0.55435108802E+03  0.38994978684E+04  0.38598935862E+04 0.  0.
        4    1    3    3  502    0  0.25189730451E+03  0.14584014373E+01  0.16558935336E+04  0.16749445921E+04  0.12699999809E+01 0.  1.
       -4    1    3    3    0  502 -0.25189730451E+03 -0.14584014373E+01 -0.22102446216E+04  0.22245532763E+04  0.12699999809E+01 0. -1.
</event>
<event>
 5   0  0.2972541E-07  0.3520789E+04  0.7818609E-02  0.8108881E-01
        1   -1    0    0  501    0  0.00000000000E+00  0.00000000000E+00  0.17834307087E+04  0.17834307087E+04  0.50400001928E-02 0. -1.
       -1   -1    0    0    0  501  0.00000000000E+00  0.00000000000E+00 -0.17376560565E+04  0.17376560565E+04  0.50400001928E-02 0.  1.
    10030    2    1    2    0    0  0.00000000000E+00  0.00000000000E+00  0.45774652202E+02  0.35210867652E+04  0.35207892139E+04 0.  0.
        3    1    3    3  502    0  0.98343593810E+03 -0.14598025588E+04 -0.57403771685E+01  0.17601712182E+04  0.10100000352E+00 0.  1.
       -3    1    3    3    0  502 -0.98343593810E+03  0.14598025588E+04  0.51515029371E+02  0.17609155470E+04  0.10100000352E+00 0. -1.
</event>
<event>
 5   0  0.8950809E-07  0.3449964E+04  0.7818609E-02  0.8125751E-01
        2   -1    0    0  501    0  0.00000000000E+00  0.00000000000E+00  0.16937226898E+04  0.16937226898E+04  0.25500000920E-02 0.  1.
       -2   -1    0    0    0  501  0.00000000000E+00  0.00000000000E+00 -0.17568181116E+04  0.17568181116E+04  0.25500000920E-02 0. -1.
    10030    2    1    2    0    0  0.00000000000E+00  0.00000000000E+00 -0.63095421797E+02  0.34505408015E+04  0.34499638825E+04 0.  0.
        2    1    3    3  502    0 -0.13385699958E+04 -0.10472775184E+03 -0.11146993371E+04  0.17450765449E+04  0.25500000920E-02 0. -1.
       -2    1    3    3    0  502  0.13385699958E+04  0.10472775184E+03  0.10516039153E+04  0.17054642565E+04  0.25500000920E-02 0.  1.
</event>
<event>
 5   0  0.9311672E-07  0.3499276E+04  0.7818609E-02  0.8113962E-01
       -2   -1    0    0    0  501  0.00000000000E+00  0.00000000000E+00  0.10733584987E+04  0.10733584987E+04  0.25500000920E-02 0. -1.
        2   -1    0    0  501    0  0.00000000000E+00  0.00000000000E+00 -0.28520130336E+04  0.28520130336E+04  0.25500000920E-02 0.  1.
    10030    2    1    2    0    0  0.00000000000E+00  0.00000000000E+00 -0.17786545349E+04  0.39253715323E+04  0.34992755982E+04 0.  0.
        4    1    3    3  502    0 -0.46950409663E+02 -0.16347973145E+04 -0.19196689776E+03  0.16466995789E+04  0.12699999809E+01 0. -1.
       -4    1    3    3    0  502  0.46950409663E+02  0.16347973145E+04 -0.15866876372E+04  0.22786719534E+04  0.12699999809E+01 0.  1.
</event>
<event>
 5   0  0.6188930E-07  0.3526130E+04  0.7818609E-02  0.8107625E-01
        2   -1    0    0  501    0  0.00000000000E+00  0.00000000000E+00  0.23724129024E+04  0.23724129024E+04  0.25500000920E-02 0. -1.
       -2   -1    0    0    0  501  0.00000000000E+00  0.00000000000E+00 -0.13102265783E+04  0.13102265783E+04  0.25500000920E-02 0.  1.
    10030    2    1    2    0    0  0.00000000000E+00  0.00000000000E+00  0.10621863241E+04  0.36826394808E+04  0.35261301391E+04 0.  0.
        3    1    3    3  502    0  0.16154025863E+03 -0.13458097671E+03  0.23592724902E+04  0.23686228040E+04  0.10100000352E+00 0. -1.
       -3    1    3    3    0  502 -0.16154025863E+03  0.13458097671E+03 -0.12970861661E+04  0.13140166768E+04  0.10100000352E+00 0.  1.
</event>
<event>
 5   0  0.2972541E-07  0.2978867E+04  0.7818609E-02  0.8249792E-01
       -1   -1    0    0    0  501  0.00000000000E+00  0.00000000000E+00  0.15789566492E+04  0.15789566492E+04  0.50400001928E-02 0.  1.
        1   -1    0    0  501    0  0.00000000000E+00  0.00000000000E+00 -0.14049857492E+04  0.14049857492E+04  0.50400001928E-02 0. -1.
    10030    2    1    2    0    0  0.00000000000E+00  0.00000000000E+00  0.17397090003E+03  0.29839423984E+04  0.29788666239E+04 0.  0.
        3    1    3    3  502    0 -0.11234489991E+04  0.31330117808E+02 -0.89207053573E+03  0.14348899194E+04  0.10100000352E+00 0.  1.
       -3    1    3    3    0  502  0.11234489991E+04 -0.31330117808E+02  0.10660414358E+04  0.15490524790E+04  0.10100000352E+00 0. -1.
</event>
<event>
 5   0  0.8950809E-07  0.3496137E+04  0.7818609E-02  0.8114706E-01
        2   -1    0    0  501    0  0.00000000000E+00  0.00000000000E+00  0.16612899052E+04  0.16612899052E+04  0.25500000920E-02 0. -1.
       -2   -1    0    0    0  501  0.00000000000E+00  0.00000000000E+00 -0.18393800099E+04  0.18393800099E+04  0.25500000920E-02 0.  1.
    10030    2    1    2    0    0  0.00000000000E+00  0.00000000000E+00 -0.17809010465E+03  0.35006699151E+04  0.34961369780E+04 0.  0.
        2    1    3    3  502    0 -0.13467104925E+04 -0.22211781301E+03 -0.11826048269E+04  0.18059677877E+04  0.25500000920E-02 0.  1.
       -2    1    3    3    0  502  0.13467104925E+04  0.22211781301E+03  0.10045147223E+04  0.16947021274E+04  0.25500000920E-02 0. -1.
</event>
<event>
 5   0  0.3061330E-07  0.3477738E+04  0.7818609E-02  0.8119086E-01
       -1   -1    0    0    0  501  0.00000000000E+00  0.00000000000E+00  0.27019754202E+04  0.27019754202E+04  0.50400001928E-02 0. -1.
        1   -1    0    0  501    0  0.00000000000E+00  0.00000000000E+00 -0.11190571763E+04  0.11190571763E+04  0.50400001928E-02 0.  1.
    10030    2    1    2    0    0  0.00000000000E+00  0.00000000000E+00  0.15829182438E+04  0.38210325965E+04  0.34777377613E+04 0.  0.
        5    1    3    3  502    0  0.53167530815E+03 -0.14932302214E+04  0.58778370138E+01  0.15850778424E+04  0.46999998093E+01 0.  1.
       -5    1    3    3    0  502 -0.53167530815E+03  0.14932302214E+04  0.15770404068E+04  0.22359547541E+04  0.46999998093E+01 0. -1.
</event>
<event>
 5   0  0.2936607E-07  0.3505547E+04  0.7818609E-02  0.8112477E-01
        1   -1    0    0  501    0  0.00000000000E+00  0.00000000000E+00  0.12462458969E+04  0.12462458969E+04  0.50400001928E-02 0. -1.
       -1   -1    0    0    0  501  0.00000000000E+00  0.00000000000E+00 -0.24651762671E+04  0.24651762671E+04  0.50400001928E-02 0.  1.
    10030    2    1    2    0    0  0.00000000000E+00  0.00000000000E+00 -0.12189303702E+04  0.37114221640E+04  0.35055474939E+04 0.  0.
        2    1    3    3  502    0 -0.10613485381E+03  0.15159615674E+04 -0.15341488424E+04  0.21594019431E+04  0.25500000920E-02 0. -1.
       -2    1    3    3    0  502  0.10613485381E+03 -0.15159615674E+04  0.31521847217E+03  0.15520202209E+04  0.25500000920E-02 0.  1.
</event>
<event>
 5   0  0.8950809E-07  0.3483221E+04  0.7818609E-02  0.8117778E-01
       -2   -1    0    0    0  501  0.00000000000E+00  0.00000000000E+00  0.21342409493E+04  0.21342409493E+04  0.25500000920E-02 0. -1.
        2   -1    0    0  501    0  0.00000000000E+00  0.00000000000E+00 -0.14212109743E+04  0.14212109743E+04  0.25500000920E-02 0.  1.
    10030    2    1    2    0    0  0.00000000000E+00  0.00000000000E+00  0.71302997501E+03  0.35554519237E+04  0.34832207275E+04 0.  0.
        2    1    3    3  502    0 -0.91707919546E+03  0.12237774213E+04 -0.49415836935E+03  0.16071272263E+04  0.25500000920E-02 0.  1.
       -2    1    3    3    0  502  0.91707919546E+03 -0.12237774213E+04  0.12071883444E+04  0.19483246974E+04  0.25500000920E-02 0. -1.
</event>
<event>
 5   0  0.2972541E-07  0.3441823E+04  0.7818609E-02  0.8127717E-01
       -1   -1    0    0    0  501  0.00000000000E+00  0.00000000000E+00  0.16869698192E+04  0.16869698193E+04  0.50400001928E-02 0.  1.
        1   -1    0    0  501    0  0.00000000000E+00  0.00000000000E+00 -0.17555360704E+04  0.17555360704E+04  0.50400001928E-02 0. -1.
    10030    2    1    2    0    0  0.00000000000E+00  0.00000000000E+00 -0.68566251182E+02  0.34425058897E+04  0.34418229864E+04 0.  0.
        3    1    3    3  502    0  0.50290281315E+03 -0.76936745831E+02  0.16100338957E+04  0.16885021936E+04  0.10100000352E+00 0.  1.
       -3    1    3    3    0  502 -0.50290281315E+03  0.76936745831E+02 -0.16786001469E+04  0.17540036960E+04  0.10100000352E+00 0. -1.
</event>
<event>
 5   0  0.2972541E-07  0.3498571E+04  0.7818609E-02  0.8114129E-01
       -1   -1    0    0    0  501  0.00000000000E+00  0.00000000000E+00  0.28256489830E+04  0.28256489830E+04  0.50400001928E-02 0.  1.
        1   -1    0    0  501    0  0.00000000000E+00  0.00000000000E+00 -0.10829370422E+04  0.10829370422E+04  0.50400001928E-02 0. -1.
    10030    2    1    2    0    0  0.00000000000E+00  0.00000000000E+00  0.17427119408E+04  0.39085860252E+04  0.34985711094E+04 0.  0.
        3    1    3    3  502    0 -0.14132320012E+04 -0.82924104582E+03  0.15556180866E+04  0.22593833324E+04  0.10100000352E+00 0.  1.
       -3    1    3    3    0  502  0.14132320012E+04  0.82924104582E+03  0.18709385421E+03  0.16492026928E+04  0.10100000352E+00 0. -1.
</event>
<event>
 5   0  0.2972541E-07  0.3461568E+04  0.7818609E-02  0.8122959E-01
       -1   -1    0    0    0  501  0.00000000000E+00  0.00000000000E+00  0.15539402437E+04  0.15539402437E+04  0.50400001928E-02 0. -1.
        1   -1    0    0  501    0  0.00000000000E+00  0.00000000000E+00 -0.19277530495E+04  0.19277530495E+04  0.50400001928E-02 0.  1.
    10030    2    1    2    0    0  0.00000000000E+00  0.00000000000E+00 -0.37381280575E+03  0.34816932932E+04  0.34615678780E+04 0.  0.
        3    1    3    3  502    0  0.11708387865E+04  0.46648049200E+03 -0.13800347524E+04  0.18689471478E+04  0.10100000352E+00 0.  1.
       -3    1    3    3    0  502 -0.11708387865E+04 -0.46648049200E+03  0.10062219466E+04  0.16127461454E+04  0.10100000352E+00 0. -1.
</event>
<event>
 5   0  0.8845195E-07  0.3515659E+04  0.7818609E-02  0.8110089E-01
        2   -1    0    0  501    0  0.00000000000E+00  0.00000000000E+00  0.23092978187E+04  0.23092978187E+04  0.25500000920E-02 0. -1.
       -2   -1    0    0    0  501  0.00000000000E+00  0.00000000000E+00 -0.13380537733E+04  0.13380537733E+04  0.25500000920E-02 0.  1.
    10030    2    1    2    0    0  0.00000000000E+00  0.00000000000E+00  0.97124404537E+03  0.36473515920E+04  0.35156590620E+04 0.  0.
        5    1    3    3  502    0 -0.85387704112E+03  0.67727561781E+02 -0.11068856003E+04  0.13996109624E+04  0.46999998093E+01 0.  1.
       -5    1    3    3    0  502  0.85387704112E+03 -0.67727561781E+02  0.20781296456E+04  0.22477406296E+04  0.46999998093E+01 0. -1.
</event>
<event>
 5   0  0.6188930E-07  0.3502089E+04  0.7818609E-02  0.8113295E-01
       -2   -1    0    0    0  501  0.00000000000E+00  0.00000000000E+00  0.19408249304E+04  0.19408249304E+04  0.25500000920E-02 0.  1.
        2   -1    0    0  501    0  0.00000000000E+00  0.00000000000E+00 -0.15798218215E+04  0.15798218215E+04  0.25500000920E-02 0. -1.
    10030    2    1    2    0    0  0.00000000000E+00  0.00000000000E+00  0.36100310893E+03  0.35206467519E+04  0.35020894202E+04 0.  0.
        3    1    3    3  502    0  0.49932980662E+03 -0.58290118895E+03 -0.14017040392E+04  0.15980858161E+04  0.10100000352E+00 0. -1.
       -3    1    3    3    0  502 -0.49932980662E+03  0.58290118895E+03  0.17627071481E+04  0.19225609359E+04  0.10100000352E+00 0.  1.
</event>
<event>
 5   0  0.2933506E-07  0.3545441E+04  0.7818609E-02  0.8103105E-01
       -1   -1    0    0    0  501  0.00000000000E+00  0.00000000000E+00  0.23228215707E+04  0.23228215707E+04  0.50400001928E-02 0. -1.
        1   -1    0    0  501    0  0.00000000000E+00  0.00000000000E+00 -0.13528969318E+04  0.13528969318E+04  0.50400001928E-02 0.  1.
    10030    2    1    2    0    0  0.00000000000E+00  0.00000000000E+00  0.96992463896E+03  0.36757185025E+04  0.35454411156E+04 0.  0.
        4    1    3    3  502    0 -0.12803068945E+04 -0.68115074570E+03  0.15419260421E+04  0.21167639488E+04  0.12699999809E+01 0. -1.
       -4    1    3    3    0  502  0.12803068945E+04  0.68115074570E+03 -0.57200140319E+03  0.15589545537E+04  0.12699999809E+01 0.  1.
</event>
<event>
 5   0  0.2972541E-07  0.3494429E+04  0.7818609E-02  0.8115112E-01
       -1   -1    0    0    0  501  0.00000000000E+00  0.00000000000E+00  0.16987935430E+04  0.16987935430E+04  0.50400001928E-02 0. -1.
        1   -1    0    0  501    0  0.00000000000E+00  0.00000000000E+00 -0.17970152196E+04  0.17970152196E+04  0.50400001928E-02 0.  1.
    10030    2    1    2    0    0  0.00000000000E+00  0.00000000000E+00 -0.98221676643E+02  0.34958087626E+04  0.34944286238E+04 0.  0.
        3    1    3    3  502    0  0.22703428893E+03  0.16471778076E+04 -0.58599639079E+03  0.17629892451E+04  0.10100000352E+00 0.  1.
       -3    1    3    3    0  502 -0.22703428893E+03 -0.16471778076E+04  0.48777471415E+03  0.17328195175E+04  0.10100000352E+00 0. -1.
</event>
<event>
 5   0  0.8950809E-07  0.3014075E+04  0.7818609E-02  0.8239723E-01
       -2   -1    0    0    0  501  0.00000000000E+00  0.00000000000E+00  0.98763333535E+03  0.98763333535E+03  0.25500000920E-02 0. -1.
        2   -1    0    0  501    0  0.00000000000E+00  0.00000000000E+00 -0.22996011713E+04  0.22996011713E+04  0.25500000920E-02 0.  1.
    10030    2    1    2    0    0  0.00000000000E+00  0.00000000000E+00 -0.13119678359E+04  0.32872345066E+04  0.30140754966E+04 0.  0.
        2    1    3    3  502    0  0.20007258781E+02  0.14424827833E+04 -0.11313849378E+04  0.18333545069E+04  0.25500000920E-02 0.  1.
       -2    1    3    3    0  502 -0.20007258781E+02 -0.14424827833E+04 -0.18058289807E+03  0.14538799997E+04  0.25500000920E-02 0. -1.
</event>
<event>
 5   0  0.8845195E-07  0.3453033E+04  0.7818609E-02  0.8125012E-01
       -2   -1    0    0    0  501  0.00000000000E+00  0.00000000000E+00  0.16531050230E+04  0.16531050230E+04  0.25500000920E-02 0. -1.
        2   -1    0    0  501    0  0.00000000000E+00  0.00000000000E+00 -0.18031877096E+04  0.18031877097E+04  0.25500000920E-02 0.  1.
    10030    2    1    2    0    0  0.00000000000E+00  0.00000000000E+00 -0.15008268664E+03  0.34562927327E+04  0.34530326730E+04 0.  0.
        5    1    3    3  502    0  0.70388470748E+03  0.88603745050E+03 -0.13802358256E+04  0.17848218593E+04  0.46999998093E+01 0.  1.
       -5    1    3    3    0  502 -0.70388470748E+03 -0.88603745050E+03  0.12301531390E+04  0.16714708734E+04  0.46999998093E+01 0. -1.
</event>
<event>
 5   0  0.8845195E-07  0.3617708E+04  0.7818609E-02  0.8086447E-01
       -2   -1    0    0    0  501  0.00000000000E+00  0.00000000000E+00  0.16710243186E+04  0.16710243186E+04  0.25500000920E-02 0. -1.
        2   -1    0    0  501    0  0.00000000000E+00  0.00000000000E+00 -0.19580526377E+04  0.19580526377E+04  0.25500000920E-02 0.  1.
    10030    2    1    2    0    0  0.00000000000E+00  0.00000000000E+00 -0.28702831902E+03  0.36290769563E+04  0.36177084320E+04 0.  0.
        5    1    3    3  502    0  0.11513741390E+03 -0.17144167776E+04 -0.71048933435E+03  0.18593812669E+04  0.46999998093E+01 0.  1.
       -5    1    3    3    0  502 -0.11513741390E+03  0.17144167776E+04  0.42346101533E+03  0.17696956894E+04  0.46999998093E+01 0. -1.
</event>
<event>
 5   0  0.2933506E-07  0.3516115E+04  0.7818609E-02  0.8109981E-01
       -1   -1    0    0    0  501  0.00000000000E+00  0.00000000000E+00  0.12601417683E+04  0.12601417683E+04  0.50400001928E-02 0.  1.
        1   -1    0    0  501    0  0.00000000000E+00  0.00000000000E+00 -0.24527131408E+04  0.24527131408E+04  0.50400001928E-02 0. -1.
    10030    2    1    2    0    0  0.00000000000E+00  0.00000000000E+00 -0.11925713726E+04  0.37128549091E+04  0.35161150575E+04 0.  0.
        4    1    3    3  502    0 -0.17666619506E+03  0.13189058323E+02 -0.24432631452E+04  0.24496777962E+04  0.12699999809E+01 0. -1.
       -4    1    3    3    0  502  0.17666619506E+03 -0.13189058323E+02  0.12506917726E+04  0.12631771129E+04  0.12699999809E+01 0.  1.
</event>
<event>
 5   0  0.6188930E-07  0.3534149E+04  0.7818609E-02  0.8105744E-01
        2   -1    0    0  501    0  0.00000000000E+00  0.00000000000E+00  0.31021402699E+04  0.31021402699E+04  0.25500000920E-02 0.  1.
       -2   -1    0    0    0  501  0.00000000000E+00  0.00000000000E+00 -0.10065799135E+04  0.10065799135E+04  0.25500000920E-02 0. -1.
    10030    2    1    2    0    0  0.00000000000E+00  0.00000000000E+00  0.20955603564E+04  0.41087201833E+04  0.35341488845E+04 0.  0.
        3    1    3    3  502    0 -0.15703646825E+04  0.80744523986E+02  0.11048989888E+03  0.15763162571E+04  0.10100000352E+00 0. -1.
       -3    1    3    3    0  502  0.15703646825E+04 -0.80744523986E+02  0.19850704575E+04  0.25324039263E+04  0.10100000352E+00 0.  1.
</event>
<event>
 5   0  0.8845195E-07  0.3310927E+04  0.7818609E-02  0.8160121E-01
        2   -1    0    0  501    0  0.00000000000E+00  0.00000000000E+00  0.22067098515E+04  0.22067098515E+04  0.25500000920E-02 0. -1.
       -2   -1    0    0    0  501  0.00000000000E+00  0.00000000000E+00 -0.12419207329E+04  0.12419207329E+04  0.25500000920E-02 0.  1.
    10030    2    1    2    0    0  0.00000000000E+00  0.00000000000E+00  0.96478911866E+03  0.34486305844E+04  0.33109265870E+04 0.  0.
        5    1    3    3  502    0 -0.79660039150E+03 -0.46423961837E+02  0.19931713528E+04  0.21469703071E+04  0.46999998093E+01 0. -1.
       -5    1    3    3    0  502  0.79660039150E+03  0.46423961837E+02 -0.10283822342E+04  0.13016602773E+04  0.46999998093E+01 0.  1.
</event>
<event>
 5   0  0.3026332E-07  0.3479122E+04  0.7818609E-02  0.8118756E-01
        1   -1    0    0  501    0  0.00000000000E+00  0.00000000000E+00  0.18551264965E+04  0.18551264965E+04  0.50400001928E-02 0. -1.
       -1   -1    0    0    0  501  0.00000000000E+00  0.00000000000E+00 -0.16311947675E+04  0.16311947675E+04  0.50400001928E-02 0.  1.
    10030    2    1    2    0    0  0.00000000000E+00  0.00000000000E+00  0.22393172902E+03  0.34863212640E+04  0.34791220928E+04 0.  0.
        1    1    3    3  502    0 -0.80269381144E+03 -0.23942733757E+03  0.16397287492E+04  0.18412911709E+04  0.50400001928E-02 0. -1.
       -1    1    3    3    0  502  0.80269381144E+03  0.23942733757E+03 -0.14157970202E+04  0.16450300931E+04  0.50400001928E-02 0.  1.
</event>
<event>
 5   0  0.8950809E-07  0.3436460E+04  0.7818609E-02  0.8129015E-01
       -2   -1    0    0    0  501  0.00000000000E+00  0.00000000000E+00  0.24378808926E+04  0.24378808926E+04  0.25500000920E-02 0. -1.
        2   -1    0    0  501    0  0.00000000000E+00  0.00000000000E+00 -0.12110167344E+04  0.12110167344E+04  0.25500000920E-02 0.  1.
    10030    2    1    2    0    0  0.00000000000E+00  0.00000000000E+00  0.12268641582E+04  0.36488976269E+04  0.34364601306E+04 0.  0.
        2    1    3    3  502    0 -0.76297390015E+03 -0.65969278792E+03  0.20904638015E+04  0.23210692906E+04  0.25500000920E-02 0. -1.
       -2    1    3    3    0  502  0.76297390015E+03  0.65969278792E+03 -0.86359964327E+03  0.13278283363E+04  0.25500000920E-02 0.  1.
</event>
<event>
 5   0  0.6188930E-07  0.3406751E+04  0.7818609E-02  0.8136251E-01
        2   -1    0    0  501    0  0.00000000000E+00  0.00000000000E+00  0.22593951342E+04  0.22593951342E+04  0.25500000920E-02 0. -1.
       -2   -1    0    0    0  501  0.00000000000E+00  0.00000000000E+00 -0.12841878180E+04  0.12841878180E+04  0.25500000920E-02 0.  1.
    10030    2    1    2    0    0  0.00000000000E+00  0.00000000000E+00  0.97520731627E+03  0.35435829522E+04  0.34067507730E+04 0.  0.
        3    1    3    3  502    0  0.12046853325E+04  0.79129424573E+03  0.14318502857E+04  0.20316516888E+04  0.10100000352E+00 0. -1.
       -3    1    3    3    0  502 -0.12046853325E+04 -0.79129424573E+03 -0.45664296946E+03  0.15119312634E+04  0.10100000352E+00 0.  1.
</event>
<event>
 5   0  0.2936607E-07  0.3513953E+04  0.7818609E-02  0.8110491E-01
       -1   -1    0    0    0  501  0.00000000000E+00  0.00000000000E+00  0.10000551088E+04  0.10000551088E+04  0.50400001928E-02 0.  1.
        1   -1    0    0  501    0  0.00000000000E+00  0.00000000000E+00 -0.30867969097E+04  0.30867969097E+04  0.50400001928E-02 0. -1.
    10030    2    1    2    0    0  0.00000000000E+00  0.00000000000E+00 -0.20867418009E+04  0.40868520185E+04  0.35139533403E+04 0.  0.
        2    1    3    3  502    0  0.17433012905E+04 -0.10854691496E+03 -0.82243949097E+03  0.19306186932E+04  0.25500000920E-02 0.  1.
       -2    1    3    3    0  502 -0.17433012905E+04  0.10854691496E+03 -0.12643023099E+04  0.21562333253E+04  0.25500000920E-02 0. -1.
</event>
<event>
 5   0  0.6188930E-07  0.3225547E+04  0.7818609E-02  0.8182103E-01
       -2   -1    0    0    0  501  0.00000000000E+00  0.00000000000E+00  0.24000800862E+04  0.24000800862E+04  0.25500000920E-02 0.  1.
        2   -1    0    0  501    0  0.00000000000E+00  0.00000000000E+00 -0.10837297605E+04  0.10837297605E+04  0.25500000920E-02 0. -1.
    10030    2    1    2    0    0  0.00000000000E+00  0.00000000000E+00  0.13163503257E+04  0.34838098467E+04  0.32255469099E+04 0.  0.
        3    1    3    3  502    0 -0.66627194488E+03 -0.27254008700E+03 -0.90058472984E+03  0.11529307305E+04  0.10100000352E+00 0. -1.
       -3    1    3    3    0  502  0.66627194488E+03  0.27254008700E+03  0.22169350555E+04  0.23308791162E+04  0.10100000352E+00 0.  1.
</event>
<event>
 5   0  0.2933506E-07  0.3493467E+04  0.7818609E-02  0.8115340E-01
        1   -1    0    0  501    0  0.00000000000E+00  0.00000000000E+00  0.17586544270E+04  0.17586544270E+04  0.50400001928E-02 0. -1.
       -1   -1    0    0    0  501  0.00000000000E+00  0.00000000000E+00 -0.17348936987E+04  0.17348936987E+04  0.50400001928E-02 0.  1.
    10030    2    1    2    0    0  0.00000000000E+00  0.00000000000E+00  0.23760728285E+02  0.34935481258E+04  0.34934673227E+04 0.  0.
        4    1    3    3  502    0 -0.13872947253E+04 -0.50410960725E+02  0.10720694722E+04  0.17539847451E+04  0.12699999809E+01 0. -1.
       -4    1    3    3    0  502  0.13872947253E+04  0.50410960725E+02 -0.10483087439E+04  0.17395633807E+04  0.12699999809E+01 0.  1.
</event>
<event>
 5   0  0.3061330E-07  0.3442785E+04  0.7818609E-02  0.8127485E-01
        1   -1    0    0  501    0  0.00000000000E+00  0.00000000000E+00  0.18986902083E+04  0.18986902083E+04  0.50400001928E-02 0. -1.
       -1   -1    0    0    0  501  0.00000000000E+00  0.00000000000E+00 -0.15606502493E+04  0.15606502493E+04  0.50400001928E-02 0.  1.
    10030    2    1    2    0    0  0.00000000000E+00  0.00000000000E+00  0.33803995904E+03  0.34593404576E+04  0.34427845398E+04 0.  0.
        5    1    3    3  502    0  0.88249435672E+03 -0.39513589036E+03 -0.12619917629E+04  0.15898345703E+04  0.46999998093E+01 0.  1.
       -5    1    3    3    0  502 -0.88249435672E+03  0.39513589036E+03  0.16000317219E+04  0.18695058873E+04  0.46999998093E+01 0. -1.
</event>
<event>
 5   0  0.2972541E-07  0.3217056E+04  0.7818609E-02  0.8184327E-01
        1   -1    0    0  501    0  0.00000000000E+00  0.00000000000E+00  0.12399752688E+04  0.12399752688E+04  0.50400001928E-02 0. -1.
       -1   -1    0    0    0  501  0.00000000000E+00  0.00000000000E+00 -0.20866240002E+04  0.20866240002E+04  0.50400001928E-02 0.  1.
    10030    2    1    2    0    0  0.00000000000E+00  0.00000000000E+00 -0.84664873146E+03  0.33265992690E+04  0.32170558936E+04 0.  0.
        3    1    3    3  502    0 -0.23572783132E+03  0.11499444793E+04 -0.15605086644E+04  0.19527230264E+04  0.10100000352E+00 0.  1.
       -3    1    3    3    0  502  0.23572783132E+03 -0.11499444793E+04  0.71385993292E+03  0.13738762426E+04  0.10100000352E+00 0. -1.
</event>
<event>
 5   0  0.3061330E-07  0.3173343E+04  0.7818609E-02  0.8195893E-01
       -1   -1    0    0    0  501  0.00000000000E+00  0.00000000000E+00  0.19389171332E+04  0.19389171332E+04  0.50400001928E-02 0. -1.
        1   -1    0    0  501    0  0.00000000000E+00  0.00000000000E+00 -0.12984186833E+04  0.12984186833E+04  0.50400001928E-02 0.  1.
    10030    2    1    2    0    0  0.00000000000E+00  0.00000000000E+00  0.64049844993E+03  0.32373358166E+04  0.31733428628E+04 0.  0.
        5    1    3    3  502    0  0.42874411903E+03 -0.76524307894E+03 -0.10285649096E+04  0.13518085488E+04  0.46999998093E+01 0.  1.
       -5    1    3    3    0  502 -0.42874411903E+03  0.76524307894E+03  0.16690633595E+04  0.18855272678E+04  0.46999998093E+01 0. -1.
</event>
<event>
 5   0  0.6188930E-07  0.3515892E+04  0.7818609E-02  0.8110034E-01
        2   -1    0    0  501    0  0.00000000000E+00  0.00000000000E+00  0.13226231990E+04  0.13226231990E+04  0.25500000920E-02 0.  1.
       -2   -1    0    0    0  501  0.00000000000E+00  0.00000000000E+00 -0.23365487135E+04  0.23365487135E+04  0.25500000920E-02 0. -1.
    10030    2    1    2    0    0  0.00000000000E+00  0.00000000000E+00 -0.10139255145E+04  0.36591719125E+04  0.35158916560E+04 0.  0.
        3    1    3    3  502    0  0.29717649856E+03 -0.61602769881E+03  0.11784676908E+04  0.13625674682E+04  0.10100000352E+00 0.  1.
       -3    1    3    3    0  502 -0.29717649856E+03  0.61602769881E+03 -0.21923932053E+04  0.22966044443E+04  0.10100000352E+00 0. -1.
</event>
<event>
 5   0  0.2972541E-07  0.3498699E+04  0.7818609E-02  0.8114098E-01
       -1   -1    0    0    0  501  0.00000000000E+00  0.00000000000E+00  0.24357289660E+04  0.24357289660E+04  0.50400001928E-02 0.  1.
        1   -1    0    0  501    0  0.00000000000E+00  0.00000000000E+00 -0.12563889633E+04  0.12563889633E+04  0.50400001928E-02 0. -1.
    10030    2    1    2    0    0  0.00000000000E+00  0.00000000000E+00  0.11793400027E+04  0.36921179293E+04  0.34986986097E+04 0.  0.
        3    1    3    3  502    0  0.12397587781E+03  0.15831780534E+04  0.13639920814E+04  0.20933936981E+04  0.10100000352E+00 0.  1.
       -3    1    3    3    0  502 -0.12397587781E+03 -0.15831780534E+04 -0.18465207869E+03  0.15987242312E+04  0.10100000352E+00 0. -1.
</event>
<event>
 5   0  0.3061330E-07  0.2938456E+04  0.7818609E-02  0.8261527E-01
        1   -1    0    0  501    0  0.00000000000E+00  0.00000000000E+00  0.66029358301E+03  0.66029358303E+03  0.50400001928E-02 0.  1.
       -1   -1    0    0    0  501  0.00000000000E+00  0.00000000000E+00 -0.32691992153E+04  0.32691992153E+04  0.50400001928E-02 0. -1.
    10030    2    1    2    0    0  0.00000000000E+00  0.00000000000E+00 -0.26089056323E+04  0.39294927983E+04  0.29384562365E+04 0.  0.
        5    1    3    3  502    0 -0.64369878754E+03  0.10093007135E+04 -0.16536328348E+03  0.12084714166E+04  0.46999998093E+01 0.  1.
       -5    1    3    3    0  502  0.64369878754E+03 -0.10093007135E+04 -0.24435423488E+04  0.27210213817E+04  0.46999998093E+01 0. -1.
</event>
<event>
 5   0  0.6188930E-07  0.3529715E+04  0.7818609E-02  0.8106784E-01
        2   -1    0    0  501    0  0.00000000000E+00  0.00000000000E+00  0.18690354698E+04  0.18690354698E+04  0.25500000920E-02 0.  1.
       -2   -1    0    0    0  501  0.00000000000E+00  0.00000000000E+00 -0.16664859330E+04  0.16664859330E+04  0.25500000920E-02 0. -1.
    10030    2    1    2    0    0  0.00000000000E+00  0.00000000000E+00  0.20254953683E+03  0.35355214028E+04  0.35297146166E+04 0.  0.
        3    1    3    3  502    0 -0.45813326745E+03 -0.96755843825E+03  0.15066745612E+04  0.18482758630E+04  0.10100000352E+00 0.  1.
       -3    1    3    3    0  502  0.45813326745E+03  0.96755843825E+03 -0.13041250244E+04  0.16872455398E+04  0.10100000352E+00 0. -1.
</event>
<event>
 5   0  0.9128871E-07  0.3703763E+04  0.7818609E-02  0.8067128E-01
       -2   -1    0    0    0  501  0.00000000000E+00  0.00000000000E+00  0.13916289506E+04  0.13916289506E+04  0.25500000920E-02 0.  1.
        2   -1    0    0  501    0  0.00000000000E+00  0.00000000000E+00 -0.24643528419E+04  0.24643528419E+04  0.25500000920E-02 0. -1.
    10030    2    1    2    0    0  0.00000000000E+00  0.00000000000E+00 -0.10727238913E+04  0.38559817925E+04  0.37037628214E+04 0.  0.
        1    1    3    3  502    0 -0.21365702905E+03 -0.90785618033E+03 -0.22019934452E+04  0.23913651547E+04  0.50400001928E-02 0. -1.
       -1    1    3    3    0  502  0.21365702905E+03  0.90785618033E+03  0.11292695539E+04  0.14646166378E+04  0.50400001928E-02 0.  1.
</event>
<event>
 5   0  0.9311672E-07  0.3520116E+04  0.7818609E-02  0.8109039E-01
        2   -1    0    0  501    0  0.00000000000E+00  0.00000000000E+00  0.19551452197E+04  0.19551452197E+04  0.25500000920E-02 0.  1.
       -2   -1    0    0    0  501  0.00000000000E+00  0.00000000000E+00 -0.15844372761E+04  0.15844372761E+04  0.25500000920E-02 0. -1.
    10030    2    1    2    0    0  0.00000000000E+00  0.00000000000E+00  0.37070794364E+03  0.35395824958E+04  0.35201164562E+04 0.  0.
        4    1    3    3  502    0 -0.61773947036E+03 -0.53398236523E+03 -0.13824552524E+04  0.16055912797E+04  0.12699999809E+01 0. -1.
       -4    1    3    3    0  502  0.61773947036E+03  0.53398236523E+03  0.17531631960E+04  0.19339912162E+04  0.12699999809E+01 0.  1.
</event>
<event>
 5   0  0.2936607E-07  0.3498930E+04  0.7818609E-02  0.8114044E-01
        1   -1    0    0  501    0  0.00000000000E+00  0.00000000000E+00  0.20963429462E+04  0.20963429462E+04  0.50400001928E-02 0. -1.
       -1   -1    0    0    0  501  0.00000000000E+00  0.00000000000E+00 -0.14599839727E+04  0.14599839727E+04  0.50400001928E-02 0.  1.
    10030    2    1    2    0    0  0.00000000000E+00  0.00000000000E+00  0.63635897348E+03  0.35563269189E+04  0.34989296094E+04 0.  0.
        2    1    3    3  502    0 -0.45908276503E+03 -0.50049518805E+03 -0.13205260235E+04  0.14849381795E+04  0.25500000920E-02 0.  1.
       -2    1    3    3    0  502  0.45908276503E+03  0.50049518805E+03  0.19568849969E+04  0.20713887394E+04  0.25500000920E-02 0. -1.
</event>
<event>
 5   0  0.8845195E-07  0.3527990E+04  0.7818609E-02  0.8107188E-01
       -2   -1    0    0    0  501  0.00000000000E+00  0.00000000000E+00  0.15659280765E+04  0.15659280765E+04  0.25500000920E-02 0.  1.
        2   -1    0    0  501    0  0.00000000000E+00  0.00000000000E+00 -0.19871148840E+04  0.19871148840E+04  0.25500000920E-02 0. -1.
    10030    2    1    2    0    0  0.00000000000E+00  0.00000000000E+00 -0.42118680754E+03  0.35530429605E+04  0.35279903560E+04 0.  0.
        5    1    3    3  502    0 -0.17191297857E+04  0.38524180965E+03 -0.12142982210E+03  0.17659518010E+04  0.46999998093E+01 0. -1.
       -5    1    3    3    0  502  0.17191297857E+04 -0.38524180965E+03 -0.29975698545E+03  0.17870911594E+04  0.46999998093E+01 0.  1.
</event>
<event>
 5   0  0.2933506E-07  0.3475560E+04  0.7818609E-02  0.8119606E-01
        1   -1    0    0  501    0  0.00000000000E+00  0.00000000000E+00  0.19838806198E+04  0.19838806198E+04  0.50400001928E-02 0. -1.
       -1   -1    0    0    0  501  0.00000000000E+00  0.00000000000E+00 -0.15222083869E+04  0.15222083869E+04  0.50400001928E-02 0.  1.
    10030    2    1    2    0    0  0.00000000000E+00  0.00000000000E+00  0.46167223289E+03  0.35060890067E+04  0.34755602243E+04 0.  0.
        4    1    3    3  502    0  0.16635370664E+04  0.36636977177E+03 -0.11612646685E+03  0.17073574172E+04  0.12699999809E+01 0. -1.
       -4    1    3    3    0  502 -0.16635370664E+04 -0.36636977177E+03  0.57779869974E+03  0.17987315895E+04  0.12699999809E+01 0.  1.
</event>
<event>
 5   0  0.9128871E-07  0.3477659E+04  0.7818609E-02  0.8119105E-01
       -2   -1    0    0    0  501  0.00000000000E+00  0.00000000000E+00  0.11340366582E+04  0.11340366582E+04  0.25500000920E-02 0. -1.
        2   -1    0    0  501    0  0.00000000000E+00  0.00000000000E+00 -0.26661637829E+04  0.26661637829E+04  0.25500000920E-02 0.  1.
    10030    2    1    2    0    0  0.00000000000E+00  0.00000000000E+00 -0.15321271247E+04  0.38002004411E+04  0.34776586759E+04 0.  0.
        1    1    3    3  502    0 -0.50968538454E+02 -0.16073482655E+04 -0.14887330017E+04  0.21914589179E+04  0.50400001928E-02 0.  1.
       -1    1    3    3    0  502  0.50968538454E+02  0.16073482655E+04 -0.43394122975E+02  0.16087415232E+04  0.50400001928E-02 0. -1.
</event>
<event>
 5   0  0.8845195E-07  0.2936757E+04  0.7818609E-02  0.8262024E-01
        2   -1    0    0  501    0  0.00000000000E+00  0.00000000000E+00  0.17374954014E+04  0.17374954014E+04  0.25500000920E-02 0.  1.
       -2   -1    0    0    0  501  0.00000000000E+00  0.00000000000E+00 -0.12409444886E+04  0.12409444886E+04  0.25500000920E-02 0. -1.
    10030    2    1    2    0    0  0.00000000000E+00  0.00000000000E+00  0.49655091277E+03  0.29784398899E+04  0.29367569476E+04 0.  0.
        5    1    3    3  502    0  0.57315278746E+03  0.34643476926E+03  0.15735714999E+04  0.17101668112E+04  0.46999998093E+01 0.  1.
       -5    1    3    3    0  502 -0.57315278746E+03 -0.34643476926E+03 -0.10770205871E+04  0.12682730787E+04  0.46999998093E+01 0. -1.
</event>
<event>
 5   0  0.8950809E-07  0.3526392E+04  0.7818609E-02  0.8107564E-01
        2   -1    0    0  501    0  0.00000000000E+00  0.00000000000E+00  0.17963165041E+04  0.17963165041E+04  0.25500000920E-02 0.  1.
       -2   -1    0    0    0  501  0.00000000000E+00  0.00000000000E+00 -0.17306860694E+04  0.17306860694E+04  0.25500000920E-02 0. -1.
    10030    2    1    2    0    0  0.00000000000E+00  0.00000000000E+00  0.65630434662E+02  0.35270025734E+04  0.35263918953E+04 0.  0.
        2    1    3    3  502    0 -0.13043997734E+03  0.10397857827E+04  0.14510491000E+04  0.17898917711E+04  0.25500000920E-02 0. -1.
       -2    1    3    3    0  502  0.13043997734E+03 -0.10397857827E+04 -0.13854186653E+04  0.17371108024E+04  0.25500000920E-02 0.  1.
</event>
<event>
 5   0  0.3026332E-07  0.3500382E+04  0.7818609E-02  0.8113699E-01
        1   -1    0    0  501    0  0.00000000000E+00  0.00000000000E+00  0.17326720545E+04  0.17326720546E+04  0.50400001928E-02 0. -1.
       -1   -1    0    0    0  501  0.00000000000E+00  0.00000000000E+00 -0.17678872092E+04  0.17678872092E+04  0.50400001928E-02 0.  1.
    10030    2    1    2    0    0  0.00000000000E+00  0.00000000000E+00 -0.35215154608E+02  0.35005592637E+04  0.35003821294E+04 0.  0.
        1    1    3    3  502    0  0.10843502745E+04 -0.25936009818E+03 -0.13667813235E+04  0.17638521380E+04  0.50400001928E-02 0.  1.
       -1    1    3    3    0  502 -0.10843502745E+04  0.25936009818E+03  0.13315661689E+04  0.17367071257E+04  0.50400001928E-02 0. -1.
</event>
<event>
 5   0  0.2936607E-07  0.3414796E+04  0.7818609E-02  0.8134284E-01
        1   -1    0    0  501    0  0.00000000000E+00  0.00000000000E+00  0.12510858264E+04  0.12510858264E+04  0.50400001928E-02 0. -1.
       -1   -1    0    0    0  501  0.00000000000E+00  0.00000000000E+00 -0.23301422898E+04  0.23301422898E+04  0.50400001928E-02 0.  1.
    10030    2    1    2    0    0  0.00000000000E+00  0.00000000000E+00 -0.10790564634E+04  0.35812281161E+04  0.34147960362E+04 0.  0.
        2    1    3    3  502    0  0.56812297801E+03  0.12942239736E+03  0.11435889750E+04  0.12834756012E+04  0.25500000920E-02 0. -1.
       -2    1    3    3    0  502 -0.56812297801E+03 -0.12942239736E+03 -0.22226454384E+04  0.22977525150E+04  0.25500000920E-02 0.  1.
</event>
<event>
 5   0  0.8950809E-07  0.3481714E+04  0.7818609E-02  0.8118137E-01
       -2   -1    0    0    0  501  0.00000000000E+00  0.00000000000E+00  0.18025048334E+04  0.18025048334E+04  0.25500000920E-02 0. -1.
        2   -1    0    0  501    0  0.00000000000E+00  0.00000000000E+00 -0.16813175726E+04  0.16813175726E+04  0.25500000920E-02 0.  1.
    10030    2    1    2    0    0  0.00000000000E+00  0.00000000000E+00  0.12118726082E+03  0.34838224060E+04  0.34817139751E+04 0.  0.
        2    1    3    3  502    0  0.14506050923E+03 -0.90800433692E+03  0.15396865487E+04  0.17933625109E+04  0.25500000920E-02 0. -1.
       -2    1    3    3    0  502 -0.14506050923E+03  0.90800433692E+03 -0.14184992879E+04  0.16904598951E+04  0.25500000920E-02 0.  1.
</event>
<event>
 5   0  0.8845195E-07  0.3490206E+04  0.7818609E-02  0.8116115E-01
        2   -1    0    0  501    0  0.00000000000E+00  0.00000000000E+00  0.19794826088E+04  0.19794826088E+04  0.25500000920E-02 0. -1.
       -2   -1    0    0    0  501  0.00000000000E+00  0.00000000000E+00 -0.15384749197E+04  0.15384749197E+04  0.25500000920E-02 0.  1.
    10030    2    1    2    0    0  0.00000000000E+00  0.00000000000E+00  0.44100768911E+03  0.35179575286E+04  0.34902059238E+04 0.  0.
        5    1    3    3  502    0 -0.76428651556E+03  0.15162008704E+04 -0.18564336741E+03  0.17080645500E+04  0.46999998093E+01 0.  1.
       -5    1    3    3    0  502  0.76428651556E+03 -0.15162008704E+04  0.62665105652E+03  0.18098929785E+04  0.46999998093E+01 0. -1.
</event>
<event>
 5   0  0.2933506E-07  0.3473605E+04  0.7818609E-02  0.8120074E-01
        1   -1    0    0  501    0  0.00000000000E+00  0.00000000000E+00  0.92491198603E+03  0.92491198604E+03  0.50400001928E-02 0. -1.
       -1   -1    0    0    0  501  0.00000000000E+00  0.00000000000E+00 -0.32613735227E+04  0.32613735227E+04  0.50400001928E-02 0.  1.
    10030    2    1    2    0    0  0.00000000000E+00  0.00000000000E+00 -0.23364615367E+04  0.41862855088E+04  0.34736053098E+04 0.  0.
        4    1    3    3  502    0  0.16211440814E+04  0.38897705172E+03 -0.17550268376E+04  0.24206470402E+04  0.12699999809E+01 0. -1.
       -4    1    3    3    0  502 -0.16211440814E+04 -0.38897705172E+03 -0.58143469908E+03  0.17656384686E+04  0.12699999809E+01 0.  1.
</event>
<event>
 5   0  0.2936607E-07  0.3636408E+04  0.7818609E-02  0.8082203E-01
       -1   -1    0    0    0  501  0.00000000000E+00  0.00000000000E+00  0.20228603315E+04  0.20228603315E+04  0.50400001928E-02 0. -1.
        1   -1    0    0  501    0  0.00000000000E+00  0.00000000000E+00 -0.16342529825E+04  0.16342529825E+04  0.50400001928E-02 0.  1.
    10030    2    1    2    0    0  0.00000000000E+00  0.00000000000E+00  0.38860734904E+03  0.36571133140E+04  0.36364078594E+04 0.  0.
        2    1    3    3  502    0  0.10170424345E+04 -0.43409292506E+03  0.16458003533E+04  0.19827936817E+04  0.25500000920E-02 0. -1.
       -2    1    3    3    0  502 -0.10170424345E+04  0.43409292506E+03 -0.12571930043E+04  0.16743196323E+04  0.25500000920E-02 0.  1.
</event>
<event>
 5   0  0.2907000E-07  0.3468193E+04  0.7818609E-02  0.8121369E-01
        3   -1    0    0  501    0  0.00000000000E+00  0.00000000000E+00  0.20137002757E+04  0.20137002782E+04  0.10100000352E+00 0.  1.
       -3   -1    0    0    0  501  0.00000000000E+00  0.00000000000E+00 -0.14933159095E+04  0.14933159129E+04  0.10100000352E+00 0. -1.
    10030    2    1    2    0    0  0.00000000000E+00  0.00000000000E+00  0.52038436624E+03  0.35070161911E+04  0.34681929987E+04 0.  0.
        1    1    3    3  502    0  0.12221707527E+04 -0.84689609586E+02 -0.98082640033E+03  0.15693610504E+04  0.50400001928E-02 0. -1.
       -1    1    3    3    0  502 -0.12221707527E+04  0.84689609586E+02  0.15012107666E+04  0.19376551408E+04  0.50400001928E-02 0.  1.
</event>
<event>
 5   0  0.9311672E-07  0.3525774E+04  0.7818609E-02  0.8107709E-01
        2   -1    0    0  501    0  0.00000000000E+00  0.00000000000E+00  0.21292743062E+04  0.21292743062E+04  0.25500000920E-02 0. -1.
       -2   -1    0    0    0  501  0.00000000000E+00  0.00000000000E+00 -0.14595441029E+04  0.14595441029E+04  0.25500000920E-02 0.  1.
    10030    2    1    2    0    0  0.00000000000E+00  0.00000000000E+00  0.66973020324E+03  0.35888184091E+04  0.35257735361E+04 0.  0.
        4    1    3    3  502    0 -0.17213369041E+04 -0.34727799671E+03  0.17663319477E+03  0.17648806313E+04  0.12699999809E+01 0.  1.
       -4    1    3    3    0  502  0.17213369041E+04  0.34727799671E+03  0.49309700847E+03  0.18239377777E+04  0.12699999809E+01 0. -1.
</event>
<event>
 5   0  0.3061330E-07  0.2847651E+04  0.7818609E-02  0.8288625E-01
       -1   -1    0    0    0  501  0.00000000000E+00  0.00000000000E+00  0.75949605015E+03  0.75949605016E+03  0.50400001928E-02 0.  1.
        1   -1    0    0  501    0  0.00000000000E+00  0.00000000000E+00 -0.26692421427E+04  0.26692421427E+04  0.50400001928E-02 0. -1.
    10030    2    1    2    0    0  0.00000000000E+00  0.00000000000E+00 -0.19097460925E+04  0.34287381928E+04  0.28476508664E+04 0.  0.
        5    1    3    3  502    0 -0.12574472147E+04 -0.53754932110E+03 -0.47759786418E+03  0.14485353224E+04  0.46999998093E+01 0.  1.
       -5    1    3    3    0  502  0.12574472147E+04  0.53754932110E+03 -0.14321482283E+04  0.19802028705E+04  0.46999998093E+01 0. -1.
</event>
<event>
 5   0  0.9311672E-07  0.3464445E+04  0.7818609E-02  0.8122268E-01
       -2   -1    0    0    0  501  0.00000000000E+00  0.00000000000E+00  0.11848417488E+04  0.11848417488E+04  0.25500000920E-02 0.  1.
        2   -1    0    0  501    0  0.00000000000E+00  0.00000000000E+00 -0.25324855921E+04  0.25324855921E+04  0.25500000920E-02 0. -1.
    10030    2    1    2    0    0  0.00000000000E+00  0.00000000000E+00 -0.13476438434E+04  0.37173273409E+04  0.34644449239E+04 0.  0.
        4    1    3    3  502    0 -0.10887329493E+04 -0.12756579565E+04 -0.20864436057E+03  0.16900227037E+04  0.12699999809E+01 0.  1.
       -4    1    3    3    0  502  0.10887329493E+04  0.12756579565E+04 -0.11389994828E+04  0.20273046372E+04  0.12699999809E+01 0. -1.
</event>
<event>
 5   0  0.9311672E-07  0.3549759E+04  0.7818609E-02  0.8102098E-01
       -2   -1    0    0    0  501  0.00000000000E+00  0.00000000000E+00  0.14666204343E+04  0.14666204343E+04  0.25500000920E-02 0.  1.
        2   -1    0    0  501    0  0.00000000000E+00  0.00000000000E+00 -0.21479298163E+04  0.21479298163E+04  0.25500000920E-02 0. -1.
    10030    2    1    2    0    0  0.00000000000E+00  0.00000000000E+00 -0.68130938198E+03  0.36145502506E+04  0.35497592932E+04 0.  0.
        4    1    3    3  502    0  0.18859181022E+03  0.70692275937E+03  0.13059222593E+04  0.14969105580E+04  0.12699999809E+01 0.  1.
       -4    1    3    3    0  502 -0.18859181022E+03 -0.70692275937E+03 -0.19872316412E+04  0.21176396925E+04  0.12699999809E+01 0. -1.
</event>
<event>
 5   0  0.6188930E-07  0.3493370E+04  0.7818609E-02  0.8115363E-01
       -2   -1    0    0    0  501  0.00000000000E+00  0.00000000000E+00  0.19113773985E+04  0.19113773985E+04  0.25500000920E-02 0.  1.
        2   -1    0    0  501    0  0.00000000000E+00  0.00000000000E+00 -0.15961834731E+04  0.15961834731E+04  0.25500000920E-02 0. -1.
    10030    2    1    2    0    0  0.00000000000E+00  0.00000000000E+00  0.31519392543E+03  0.35075608716E+04  0.34933703006E+04 0.  0.
        3    1    3    3  502    0  0.16754318172E+03  0.14621120007E+04  0.11021984261E+04  0.18386635367E+04  0.10100000352E+00 0.  1.
       -3    1    3    3    0  502 -0.16754318172E+03 -0.14621120007E+04 -0.78700450066E+03  0.16688973350E+04  0.10100000352E+00 0. -1.
</event>
<event>
 5   0  0.2936607E-07  0.3518724E+04  0.7818609E-02  0.8109367E-01
       -1   -1    0    0    0  501  0.00000000000E+00  0.00000000000E+00  0.17713717197E+04  0.17713717197E+04  0.50400001928E-02 0. -1.
        1   -1    0    0  501    0  0.00000000000E+00  0.00000000000E+00 -0.17474334847E+04  0.17474334848E+04  0.50400001928E-02 0.  1.
    10030    2    1    2    0    0  0.00000000000E+00  0.00000000000E+00  0.23938234976E+02  0.35188052045E+04  0.35187237783E+04 0.  0.
        2    1    3    3  502    0  0.37130963204E+03  0.10972211891E+04 -0.13122930304E+04  0.17503937209E+04  0.25500000920E-02 0.  1.
       -2    1    3    3    0  502 -0.37130963204E+03 -0.10972211891E+04  0.13362312654E+04  0.17684114836E+04  0.25500000920E-02 0. -1.
</event>
<event>
 5   0  0.2933506E-07  0.3452566E+04  0.7818609E-02  0.8125124E-01
        1   -1    0    0  501    0  0.00000000000E+00  0.00000000000E+00  0.18085696933E+04  0.18085696934E+04  0.50400001928E-02 0. -1.
       -1   -1    0    0    0  501  0.00000000000E+00  0.00000000000E+00 -0.16477405900E+04  0.16477405900E+04  0.50400001928E-02 0.  1.
    10030    2    1    2    0    0  0.00000000000E+00  0.00000000000E+00  0.16082910334E+03  0.34563102834E+04  0.34525664041E+04 0.  0.
        4    1    3    3  502    0  0.14473410703E+04  0.25672110642E+03  0.98657574648E+03  0.17703206536E+04  0.12699999809E+01 0. -1.
       -4    1    3    3    0  502 -0.14473410703E+04 -0.25672110642E+03 -0.82574664314E+03  0.16859896298E+04  0.12699999809E+01 0.  1.
</event>
<event>
 5   0  0.3061330E-07  0.3508385E+04  0.7818609E-02  0.8111806E-01
        1   -1    0    0  501    0  0.00000000000E+00  0.00000000000E+00  0.23299150432E+04  0.23299150432E+04  0.50400001928E-02 0.  1.
       -1   -1    0    0    0  501  0.00000000000E+00  0.00000000000E+00 -0.13207310807E+04  0.13207310807E+04  0.50400001928E-02 0. -1.
    10030    2    1    2    0    0  0.00000000000E+00  0.00000000000E+00  0.10091839625E+04  0.36506461239E+04  0.35083849350E+04 0.  0.
        5    1    3    3  502    0 -0.11287956431E+04  0.12114685919E+03  0.18960953458E+04  0.22099900036E+04  0.46999998093E+01 0.  1.
       -5    1    3    3    0  502  0.11287956431E+04 -0.12114685919E+03 -0.88691138330E+03  0.14406561204E+04  0.46999998093E+01 0. -1.
</event>
<event>
 5   0  0.9128871E-07  0.3507103E+04  0.7818609E-02  0.8112109E-01
        2   -1    0    0  501    0  0.00000000000E+00  0.00000000000E+00  0.12872149795E+04  0.12872149795E+04  0.25500000920E-02 0. -1.
       -2   -1    0    0    0  501  0.00000000000E+00  0.00000000000E+00 -0.23888339192E+04  0.23888339192E+04  0.25500000920E-02 0.  1.
    10030    2    1    2    0    0  0.00000000000E+00  0.00000000000E+00 -0.11016189398E+04  0.36760488987E+04  0.35071029665E+04 0.  0.
        1    1    3    3  502    0 -0.72939518197E+03 -0.12904312094E+04  0.43118483865E+03  0.15437455758E+04  0.50400001928E-02 0. -1.
       -1    1    3    3    0  502  0.72939518197E+03  0.12904312094E+04 -0.15328037784E+04  0.21323033229E+04  0.50400001928E-02 0.  1.
</event>
<event>
 5   0  0.8845195E-07  0.3492860E+04  0.7818609E-02  0.8115484E-01
       -2   -1    0    0    0  501  0.00000000000E+00  0.00000000000E+00  0.10953554644E+04  0.10953554644E+04  0.25500000920E-02 0.  1.
        2   -1    0    0  501    0  0.00000000000E+00  0.00000000000E+00 -0.27845004406E+04  0.27845004406E+04  0.25500000920E-02 0. -1.
    10030    2    1    2    0    0  0.00000000000E+00  0.00000000000E+00 -0.16891449762E+04  0.38798559050E+04  0.34928600162E+04 0.  0.
        5    1    3    3  502    0 -0.46615785421E+03  0.43884419266E+03  0.96029485955E+03  0.11541558291E+04  0.46999998093E+01 0.  1.
       -5    1    3    3    0  502  0.46615785421E+03 -0.43884419266E+03 -0.26494398358E+04  0.27257000759E+04  0.46999998093E+01 0. -1.
</event>
<event>
 5   0  0.9311672E-07  0.3456633E+04  0.7818609E-02  0.8124145E-01
       -2   -1    0    0    0  501  0.00000000000E+00  0.00000000000E+00  0.18280038376E+04  0.18280038376E+04  0.25500000920E-02 0.  1.
        2   -1    0    0  501    0  0.00000000000E+00  0.00000000000E+00 -0.16340656044E+04  0.16340656044E+04  0.25500000920E-02 0. -1.
    10030    2    1    2    0    0  0.00000000000E+00  0.00000000000E+00  0.19393823320E+03  0.34620694421E+04  0.34566331572E+04 0.  0.
        4    1    3    3  502    0 -0.15911198800E+04  0.35131145680E+03 -0.48012658965E+03  0.16987069692E+04  0.12699999809E+01 0. -1.
       -4    1    3    3    0  502  0.15911198800E+04 -0.35131145680E+03  0.67406482285E+03  0.17633624728E+04  0.12699999809E+01 0.  1.
</event>
<event>
 5   0  0.3061330E-07  0.3556469E+04  0.7818609E-02  0.8100536E-01
        1   -1    0    0  501    0  0.00000000000E+00  0.00000000000E+00  0.24229945333E+04  0.24229945333E+04  0.50400001928E-02 0.  1.
       -1   -1    0    0    0  501  0.00000000000E+00  0.00000000000E+00 -0.13050452416E+04  0.13050452416E+04  0.50400001928E-02 0. -1.
    10030    2    1    2    0    0  0.00000000000E+00  0.00000000000E+00  0.11179492917E+04  0.37280397749E+04  0.35564687464E+04 0.  0.
        5    1    3    3  502    0  0.58698289405E+03 -0.23288398876E+03  0.23014894036E+04  0.23865580729E+04  0.46999998093E+01 0.  1.
       -5    1    3    3    0  502 -0.58698289405E+03  0.23288398876E+03 -0.11835401120E+04  0.13414817020E+04  0.46999998093E+01 0. -1.
</event>
<event>
 5   0  0.3026332E-07  0.3508757E+04  0.7818609E-02  0.8111718E-01
       -1   -1    0    0    0  501  0.00000000000E+00  0.00000000000E+00  0.16319277554E+04  0.16319277554E+04  0.50400001928E-02 0.  1.
        1   -1    0    0  501    0  0.00000000000E+00  0.00000000000E+00 -0.18860168372E+04  0.18860168372E+04  0.50400001928E-02 0. -1.
    10030    2    1    2    0    0  0.00000000000E+00  0.00000000000E+00 -0.25408908185E+03  0.35179445926E+04  0.35087566024E+04 0.  0.
        1    1    3    3  502    0 -0.16735084472E+04  0.42069772154E+03  0.19036956901E+03  0.17360465629E+04  0.50400001928E-02 0. -1.
       -1    1    3    3    0  502  0.16735084472E+04 -0.42069772154E+03 -0.44445865085E+03  0.17818980297E+04  0.50400001928E-02 0.  1.
</event>
<event>
 5   0  0.8845195E-07  0.3448418E+04  0.7818609E-02  0.8126124E-01
        2   -1    0    0  501    0  0.00000000000E+00  0.00000000000E+00  0.99632885973E+03  0.99632885974E+03  0.25500000920E-02 0. -1.
       -2   -1    0    0    0  501  0.00000000000E+00  0.00000000000E+00 -0.29838500075E+04  0.29838500075E+04  0.25500000920E-02 0.  1.
    10030    2    1    2    0    0  0.00000000000E+00  0.00000000000E+00 -0.19875211477E+04  0.39801788672E+04  0.34484175360E+04 0.  0.
        5    1    3    3  502    0 -0.11963748765E+04 -0.80224654777E+03  0.99973098761E+02  0.14439283497E+04  0.46999998093E+01 0. -1.
       -5    1    3    3    0  502  0.11963748765E+04  0.80224654777E+03 -0.20874942465E+04  0.25362505175E+04  0.46999998093E+01 0.  1.
</event>
<event>
 5   0  0.2936607E-07  0.3340150E+04  0.7818609E-02  0.8152754E-01
        1   -1    0    0  501    0  0.00000000000E+00  0.00000000000E+00  0.19759910888E+04  0.19759910888E+04  0.50400001928E-02 0. -1.
       -1   -1    0    0    0  501  0.00000000000E+00  0.00000000000E+00 -0.14115200102E+04  0.14115200102E+04  0.50400001928E-02 0.  1.
    10030    2    1    2    0    0  0.00000000000E+00  0.00000000000E+00  0.56447107854E+03  0.33875110990E+04  0.33401502732E+04 0.  0.
        2    1    3    3  502    0 -0.85104576375E+03  0.14280154058E+04  0.11982724537E+03  0.16666929711E+04  0.25500000920E-02 0.  1.
       -2    1    3    3    0  502  0.85104576375E+03 -0.14280154058E+04  0.44464383316E+03  0.17208181279E+04  0.25500000920E-02 0. -1.
</event>
<event>
 5   0  0.2972541E-07  0.3524398E+04  0.7818609E-02  0.8108032E-01
       -1   -1    0    0    0  501  0.00000000000E+00  0.00000000000E+00  0.17213905267E+04  0.17213905267E+04  0.50400001928E-02 0.  1.
        1   -1    0    0  501    0  0.00000000000E+00  0.00000000000E+00 -0.18039753852E+04  0.18039753852E+04  0.50400001928E-02 0. -1.
    10030    2    1    2    0    0  0.00000000000E+00  0.00000000000E+00 -0.82584858567E+02  0.35253659119E+04  0.35243984670E+04 0.  0.
        3    1    3    3  502    0  0.81619249104E+03  0.86023160413E+03  0.12625904287E+04  0.17321383305E+04  0.10100000352E+00 0.  1.
       -3    1    3    3    0  502 -0.81619249104E+03 -0.86023160413E+03 -0.13451752872E+04  0.17932275814E+04  0.10100000352E+00 0. -1.
</event>
<event>
 5   0  0.9128871E-07  0.3242066E+04  0.7818609E-02  0.8177795E-01
       -2   -1    0    0    0  501  0.00000000000E+00  0.00000000000E+00  0.11928883913E+04  0.11928883913E+04  0.25500000920E-02 0.  1.
        2   -1    0    0  501    0  0.00000000000E+00  0.00000000000E+00 -0.22028442171E+04  0.22028442171E+04  0.25500000920E-02 0. -1.
    10030    2    1    2    0    0  0.00000000000E+00  0.00000000000E+00 -0.10099558258E+04  0.33957326084E+04  0.32420655727E+04 0.  0.
        1    1    3    3  502    0  0.72437743454E+03 -0.14107960483E+04 -0.15339039657E+03  0.15932974523E+04  0.50400001928E-02 0.  1.
       -1    1    3    3    0  502 -0.72437743454E+03  0.14107960483E+04 -0.85656542919E+03  0.18024351562E+04  0.50400001928E-02 0. -1.
</event>
<event>
 5   0  0.2936607E-07  0.3505281E+04  0.7818609E-02  0.8112540E-01
        1   -1    0    0  501    0  0.00000000000E+00  0.00000000000E+00  0.20192412715E+04  0.20192412715E+04  0.50400001928E-02 0.  1.
       -1   -1    0    0    0  501  0.00000000000E+00  0.00000000000E+00 -0.15212392481E+04  0.15212392481E+04  0.50400001928E-02 0. -1.
    10030    2    1    2    0    0  0.00000000000E+00  0.00000000000E+00  0.49800202340E+03  0.35404805196E+04  0.35052812005E+04 0.  0.
        2    1    3    3  502    0  0.15553038356E+04 -0.40570875202E+03 -0.45671358012E+03  0.16709748373E+04  0.25500000920E-02 0. -1.
       -2    1    3    3    0  502 -0.15553038356E+04  0.40570875202E+03  0.95471560352E+03  0.18695056823E+04  0.25500000920E-02 0.  1.
</event>
<event>
 5   0  0.2933506E-07  0.3497314E+04  0.7818609E-02  0.8114427E-01
        1   -1    0    0  501    0  0.00000000000E+00  0.00000000000E+00  0.20281915654E+04  0.20281915654E+04  0.50400001928E-02 0. -1.
       -1   -1    0    0    0  501  0.00000000000E+00  0.00000000000E+00 -0.15076489858E+04  0.15076489858E+04  0.50400001928E-02 0.  1.
    10030    2    1    2    0    0  0.00000000000E+00  0.00000000000E+00  0.52054257964E+03  0.35358405512E+04  0.34973138015E+04 0.  0.
        4    1    3    3  502    0  0.24712301408E+03  0.12409089108E+04  0.14805784556E+04  0.19475725622E+04  0.12699999809E+01 0. -1.
       -4    1    3    3    0  502 -0.24712301408E+03 -0.12409089108E+04 -0.96003587594E+03  0.15882679890E+04  0.12699999809E+01 0.  1.
</event>
<event>
 5   0  0.9311672E-07  0.3633692E+04  0.7818609E-02  0.8082817E-01
        2   -1    0    0  501    0  0.00000000000E+00  0.00000000000E+00  0.19395044937E+04  0.19395044937E+04  0.25500000920E-02 0. -1.
       -2   -1    0    0    0  501  0.00000000000E+00  0.00000000000E+00 -0.17019446928E+04  0.17019446928E+04  0.25500000920E-02 0.  1.
    10030    2    1    2    0    0  0.00000000000E+00  0.00000000000E+00  0.23755980091E+03  0.36414491865E+04  0.36336919956E+04 0.  0.
        4    1    3    3  502    0  0.44238451657E+03 -0.46653319664E+03 -0.15841330128E+04  0.17096304569E+04  0.12699999809E+01 0.  1.
       -4    1    3    3    0  502 -0.44238451657E+03  0.46653319664E+03  0.18216928137E+04  0.19318187297E+04  0.12699999809E+01 0. -1.
</event>
<event>
 5   0  0.3061330E-07  0.3478134E+04  0.7818609E-02  0.8118992E-01
        1   -1    0    0  501    0  0.00000000000E+00  0.00000000000E+00  0.11103419482E+04  0.11103419482E+04  0.50400001928E-02 0. -1.
       -1   -1    0    0    0  501  0.00000000000E+00  0.00000000000E+00 -0.27238038764E+04  0.27238038764E+04  0.50400001928E-02 0.  1.
    10030    2    1    2    0    0  0.00000000000E+00  0.00000000000E+00 -0.16134619282E+04  0.38341458246E+04  0.34781338114E+04 0.  0.
        5    1    3    3  502    0  0.54423227978E+03 -0.21582751437E+03  0.99843113531E+03  0.11574355759E+04  0.46999998093E+01 0. -1.
       -5    1    3    3    0  502 -0.54423227978E+03  0.21582751437E+03 -0.26118930635E+04  0.26767102487E+04  0.46999998093E+01 0.  1.
</event>
<event>
 5   0  0.3061330E-07  0.3491462E+04  0.7818609E-02  0.8115816E-01
       -1   -1    0    0    0  501  0.00000000000E+00  0.00000000000E+00  0.18990808193E+04  0.18990808193E+04  0.50400001928E-02 0.  1.
        1   -1    0    0  501    0  0.00000000000E+00  0.00000000000E+00 -0.16047643061E+04  0.16047643062E+04  0.50400001928E-02 0. -1.
    10030    2    1    2    0    0  0.00000000000E+00  0.00000000000E+00  0.29431651316E+03  0.35038451255E+04  0.34914622228E+04 0.  0.
        5    1    3    3  502    0  0.14462740953E+04  0.86463159896E+03 -0.31081369772E+03  0.17134537652E+04  0.46999998093E+01 0. -1.
       -5    1    3    3    0  502 -0.14462740953E+04 -0.86463159896E+03  0.60513021088E+03  0.17903913603E+04  0.46999998093E+01 0.  1.
</event>
<event>
 5   0  0.2907000E-07  0.3526090E+04  0.7818609E-02  0.8107635E-01
        3   -1    0    0  501    0  0.00000000000E+00  0.00000000000E+00  0.12398821853E+04  0.12398821894E+04  0.10100000352E+00 0.  1.
       -3   -1    0    0    0  501  0.00000000000E+00  0.00000000000E+00 -0.25069542074E+04  0.25069542094E+04  0.10100000352E+00 0. -1.
    10030    2    1    2    0    0  0.00000000000E+00  0.00000000000E+00 -0.12670720221E+04  0.37468363989E+04  0.35260901138E+04 0.  0.
        5    1    3    3  502    0 -0.13563913100E+04 -0.10342312307E+04 -0.15966460787E+03  0.17131685560E+04  0.46999998093E+01 0.  1.
       -5    1    3    3    0  502  0.13563913100E+04  0.10342312307E+04 -0.11074074142E+04  0.20336678429E+04  0.46999998093E+01 0. -1.
</event>
<event>
 5   0  0.2936607E-07  0.3488466E+04  0.7818609E-02  0.8116529E-01
       -1   -1    0    0    0  501  0.00000000000E+00  0.00000000000E+00  0.11751860599E+04  0.11751860599E+04  0.50400001928E-02 0. -1.
        1   -1    0    0  501    0  0.00000000000E+00  0.00000000000E+00 -0.25888223754E+04  0.25888223754E+04  0.50400001928E-02 0.  1.
    10030    2    1    2    0    0  0.00000000000E+00  0.00000000000E+00 -0.14136363155E+04  0.37640084353E+04  0.34884655464E+04 0.  0.
        2    1    3    3  502    0 -0.99665451580E+03 -0.34868431007E+03 -0.22048028379E+04  0.24445974159E+04  0.25500000920E-02 0.  1.
       -2    1    3    3    0  502  0.99665451580E+03  0.34868431007E+03  0.79116652239E+03  0.13194110194E+04  0.25500000920E-02 0. -1.
</event>
<event>
 5   0  0.9128871E-07  0.3444500E+04  0.7818609E-02  0.8127070E-01
        2   -1    0    0  501    0  0.00000000000E+00  0.00000000000E+00  0.25468617027E+04  0.25468617027E+04  0.25500000920E-02 0. -1.
       -2   -1    0    0    0  501  0.00000000000E+00  0.00000000000E+00 -0.11646271818E+04  0.11646271818E+04  0.25500000920E-02 0.  1.
    10030    2    1    2    0    0  0.00000000000E+00  0.00000000000E+00  0.13822345209E+04  0.37114888845E+04  0.34444995963E+04 0.  0.
        1    1    3    3  502    0 -0.16157144582E+04  0.13263707529E+03  0.13175757536E+04  0.20890504232E+04  0.50400001928E-02 0. -1.
       -1    1    3    3    0  502  0.16157144582E+04 -0.13263707529E+03  0.64658767300E+02  0.16224384612E+04  0.50400001928E-02 0.  1.
</event>
<event>
 5   0  0.2936607E-07  0.3466831E+04  0.7818609E-02  0.8121696E-01
        1   -1    0    0  501    0  0.00000000000E+00  0.00000000000E+00  0.21833050512E+04  0.21833050512E+04  0.50400001928E-02 0. -1.
       -1   -1    0    0    0  501  0.00000000000E+00  0.00000000000E+00 -0.13762296411E+04  0.13762296411E+04  0.50400001928E-02 0.  1.
    10030    2    1    2    0    0  0.00000000000E+00  0.00000000000E+00  0.80707541005E+03  0.35595346923E+04  0.34668309027E+04 0.  0.
        2    1    3    3  502    0 -0.26584964487E+03  0.24860922658E+03 -0.13365511636E+04  0.13852261888E+04  0.25500000920E-02 0.  1.
       -2    1    3    3    0  502  0.26584964487E+03 -0.24860922658E+03  0.21436265736E+04  0.21743085035E+04  0.25500000920E-02 0. -1.
</event>
<event>
 5   0  0.9128871E-07  0.3469558E+04  0.7818609E-02  0.8121042E-01
        2   -1    0    0  501    0  0.00000000000E+00  0.00000000000E+00  0.26438262305E+04  0.26438262305E+04  0.25500000920E-02 0.  1.
       -2   -1    0    0    0  501  0.00000000000E+00  0.00000000000E+00 -0.11382968049E+04  0.11382968049E+04  0.25500000920E-02 0. -1.
    10030    2    1    2    0    0  0.00000000000E+00  0.00000000000E+00  0.15055294256E+04  0.37821230354E+04  0.34695584450E+04 0.  0.
        1    1    3    3  502    0  0.10109290146E+04 -0.68031715218E+03 -0.59323984767E+03  0.13552647036E+04  0.50400001928E-02 0. -1.
       -1    1    3    3    0  502 -0.10109290146E+04  0.68031715218E+03  0.20987692732E+04  0.24268583317E+04  0.50400001928E-02 0.  1.
</event>
<event>
 5   0  0.6188930E-07  0.3510236E+04  0.7818609E-02  0.8111368E-01
       -2   -1    0    0    0  501  0.00000000000E+00  0.00000000000E+00  0.15344549343E+04  0.15344549343E+04  0.25500000920E-02 0.  1.
        2   -1    0    0  501    0  0.00000000000E+00  0.00000000000E+00 -0.20075136288E+04  0.20075136288E+04  0.25500000920E-02 0. -1.
    10030    2    1    2    0    0  0.00000000000E+00  0.00000000000E+00 -0.47305869459E+03  0.35419685631E+04  0.35102359997E+04 0.  0.
        3    1    3    3  502    0  0.68133485596E+03  0.25885737120E+03 -0.18475889468E+04  0.19861543875E+04  0.10100000352E+00 0. -1.
       -3    1    3    3    0  502 -0.68133485596E+03 -0.25885737120E+03  0.13745302522E+04  0.15558141756E+04  0.10100000352E+00 0.  1.
</event>
<event>
 5   0  0.6188930E-07  0.3504441E+04  0.7818609E-02  0.8112738E-01
        2   -1    0    0  501    0  0.00000000000E+00  0.00000000000E+00  0.26362532077E+04  0.26362532077E+04  0.25500000920E-02 0. -1.
       -2   -1    0    0    0  501  0.00000000000E+00  0.00000000000E+00 -0.11646366571E+04  0.11646366571E+04  0.25500000920E-02 0.  1.
    10030    2    1    2    0    0  0.00000000000E+00  0.00000000000E+00  0.14716165506E+04  0.38008898647E+04  0.35044412524E+04 0.  0.
        3    1    3    3  502    0  0.46573815997E+03 -0.64768220738E+03  0.24278670465E+04  0.25555709110E+04  0.10100000352E+00 0. -1.
       -3    1    3    3    0  502 -0.46573815997E+03  0.64768220738E+03 -0.95625049590E+03  0.12453189537E+04  0.10100000352E+00 0.  1.
</event>
<event>
 5   0  0.2933506E-07  0.3538377E+04  0.7818609E-02  0.8104755E-01
       -1   -1    0    0    0  501  0.00000000000E+00  0.00000000000E+00  0.19889593625E+04  0.19889593625E+04  0.50400001928E-02 0. -1.
        1   -1    0    0  501    0  0.00000000000E+00  0.00000000000E+00 -0.15737017225E+04  0.15737017225E+04  0.50400001928E-02 0.  1.
    10030    2    1    2    0    0  0.00000000000E+00  0.00000000000E+00  0.41525764002E+03  0.35626610850E+04  0.35383774670E+04 0.  0.
        4    1    3    3  502    0  0.19186155108E+03  0.17531320629E+04  0.34910748994E+03  0.17978210526E+04  0.12699999809E+01 0.  1.
       -4    1    3    3    0  502 -0.19186155108E+03 -0.17531320629E+04  0.66150150079E+02  0.17648400324E+04  0.12699999809E+01 0. -1.
</event>
<event>
 5   0  0.2972541E-07  0.3502711E+04  0.7818609E-02  0.8113148E-01
       -1   -1    0    0    0  501  0.00000000000E+00  0.00000000000E+00  0.23972555164E+04  0.23972555164E+04  0.50400001928E-02 0.  1.
        1   -1    0    0  501    0  0.00000000000E+00  0.00000000000E+00 -0.12794825717E+04  0.12794825717E+04  0.50400001928E-02 0. -1.
    10030    2    1    2    0    0  0.00000000000E+00  0.00000000000E+00  0.11177729447E+04  0.36767380881E+04  0.35027113230E+04 0.  0.
        3    1    3    3  502    0  0.12955043881E+04  0.11785107235E+04  0.56439085571E+03  0.18400424433E+04  0.10100000352E+00 0. -1.
       -3    1    3    3    0  502 -0.12955043881E+04 -0.11785107235E+04  0.55338208898E+03  0.18366956448E+04  0.10100000352E+00 0.  1.
</event>
<event>
 5   0  0.6188930E-07  0.3508499E+04  0.7818609E-02  0.8111779E-01
       -2   -1    0    0    0  501  0.00000000000E+00  0.00000000000E+00  0.14809975736E+04  0.14809975736E+04  0.25500000920E-02 0. -1.
        2   -1    0    0  501    0  0.00000000000E+00  0.00000000000E+00 -0.20779179518E+04  0.20779179518E+04  0.25500000920E-02 0.  1.
    10030    2    1    2    0    0  0.00000000000E+00  0.00000000000E+00 -0.59692037818E+03  0.35589155254E+04  0.35084990778E+04 0.  0.
        3    1    3    3  502    0 -0.10327288184E+04 -0.13323043212E+04 -0.79105953325E+03  0.18620791637E+04  0.10100000352E+00 0. -1.
       -3    1    3    3    0  502  0.10327288184E+04  0.13323043212E+04  0.19413915507E+03  0.16968363617E+04  0.10100000352E+00 0.  1.
</event>
<event>
 5   0  0.2972541E-07  0.3527710E+04  0.7818609E-02  0.8107254E-01
       -1   -1    0    0    0  501  0.00000000000E+00  0.00000000000E+00  0.17871662013E+04  0.17871662013E+04  0.50400001928E-02 0.  1.
        1   -1    0    0  501    0  0.00000000000E+00  0.00000000000E+00 -0.17408481662E+04  0.17408481663E+04  0.50400001928E-02 0. -1.
    10030    2    1    2    0    0  0.00000000000E+00  0.00000000000E+00  0.46318035092E+02  0.35280143676E+04  0.35277103081E+04 0.  0.
        3    1    3    3  502    0 -0.24636024359E+03 -0.90095804651E+03  0.15195387040E+04  0.17836526159E+04  0.10100000352E+00 0.  1.
       -3    1    3    3    0  502  0.24636024359E+03  0.90095804651E+03 -0.14732206689E+04  0.17443617517E+04  0.10100000352E+00 0. -1.
</event>
<event>
 5   0  0.8950809E-07  0.3521369E+04  0.7818609E-02  0.8108744E-01
       -2   -1    0    0    0  501  0.00000000000E+00  0.00000000000E+00  0.16376993062E+04  0.16376993062E+04  0.25500000920E-02 0. -1.
        2   -1    0    0  501    0  0.00000000000E+00  0.00000000000E+00 -0.18929052727E+04  0.18929052727E+04  0.25500000920E-02 0.  1.
    10030    2    1    2    0    0  0.00000000000E+00  0.00000000000E+00 -0.25520596644E+03  0.35306045789E+04  0.35213688542E+04 0.  0.
        2    1    3    3  502    0 -0.13539473664E+04  0.10615907111E+04  0.24735828411E+03  0.17381986163E+04  0.25500000920E-02 0.  1.
       -2    1    3    3    0  502  0.13539473664E+04 -0.10615907111E+04 -0.50256425054E+03  0.17924059626E+04  0.25500000920E-02 0. -1.
</event>
<event>
 5   0  0.3026332E-07  0.3510046E+04  0.7818609E-02  0.8111413E-01
        1   -1    0    0  501    0  0.00000000000E+00  0.00000000000E+00  0.26034459320E+04  0.26034459320E+04  0.50400001928E-02 0.  1.
       -1   -1    0    0    0  501  0.00000000000E+00  0.00000000000E+00 -0.11830878103E+04  0.11830878103E+04  0.50400001928E-02 0. -1.
    10030    2    1    2    0    0  0.00000000000E+00  0.00000000000E+00  0.14203581216E+04  0.37865337423E+04  0.35100456675E+04 0.  0.
        1    1    3    3  502    0 -0.39612027062E+03  0.84921724752E+03  0.23109901456E+04  0.24937435024E+04  0.50400001928E-02 0.  1.
       -1    1    3    3    0  502  0.39612027062E+03 -0.84921724752E+03 -0.89063202400E+03  0.12927902399E+04  0.50400001928E-02 0. -1.
</event>
<event>
 5   0  0.3026332E-07  0.3484788E+04  0.7818609E-02  0.8117404E-01
        1   -1    0    0  501    0  0.00000000000E+00  0.00000000000E+00  0.15264844972E+04  0.15264844972E+04  0.50400001928E-02 0.  1.
       -1   -1    0    0    0  501  0.00000000000E+00  0.00000000000E+00 -0.19888425679E+04  0.19888425680E+04  0.50400001928E-02 0. -1.
    10030    2    1    2    0    0  0.00000000000E+00  0.00000000000E+00 -0.46235807076E+03  0.35153270651E+04  0.34847882847E+04 0.  0.
        1    1    3    3  502    0 -0.62889943949E+03  0.16236217700E+04 -0.16522109881E+03  0.17489883272E+04  0.50400001928E-02 0. -1.
       -1    1    3    3    0  502  0.62889943949E+03 -0.16236217700E+04 -0.29713697196E+03  0.17663387380E+04  0.50400001928E-02 0.  1.
</event>
<event>
 5   0  0.2936607E-07  0.3454743E+04  0.7818609E-02  0.8124600E-01
        1   -1    0    0  501    0  0.00000000000E+00  0.00000000000E+00  0.98209122060E+03  0.98209122061E+03  0.50400001928E-02 0. -1.
       -1   -1    0    0    0  501  0.00000000000E+00  0.00000000000E+00 -0.30382230946E+04  0.30382230946E+04  0.50400001928E-02 0.  1.
    10030    2    1    2    0    0  0.00000000000E+00  0.00000000000E+00 -0.20561318740E+04  0.40203143152E+04  0.34547429586E+04 0.  0.
        2    1    3    3  502    0  0.13615324407E+04 -0.24587692030E+03 -0.22315827439E+04  0.26256785009E+04  0.25500000920E-02 0.  1.
       -2    1    3    3    0  502 -0.13615324407E+04  0.24587692030E+03  0.17545086991E+03  0.13946358144E+04  0.25500000920E-02 0. -1.
</event>
<event>
 5   0  0.9311672E-07  0.3426529E+04  0.7818609E-02  0.8131426E-01
       -2   -1    0    0    0  501  0.00000000000E+00  0.00000000000E+00  0.13714146393E+04  0.13714146393E+04  0.25500000920E-02 0.  1.
        2   -1    0    0  501    0  0.00000000000E+00  0.00000000000E+00 -0.21403266718E+04  0.21403266718E+04  0.25500000920E-02 0. -1.
    10030    2    1    2    0    0  0.00000000000E+00  0.00000000000E+00 -0.76891203253E+03  0.35117413111E+04  0.34265290488E+04 0.  0.
        4    1    3    3  502    0 -0.72762399724E+03 -0.59513384271E+03 -0.18524356368E+04  0.20772915957E+04  0.12699999809E+01 0. -1.
       -4    1    3    3    0  502  0.72762399724E+03  0.59513384271E+03  0.10835236043E+04  0.14344497154E+04  0.12699999809E+01 0.  1.
</event>
<event>
 5   0  0.2972541E-07  0.3603400E+04  0.7818609E-02  0.8089713E-01
       -1   -1    0    0    0  501  0.00000000000E+00  0.00000000000E+00  0.13248869043E+04  0.13248869043E+04  0.50400001928E-02 0.  1.
        1   -1    0    0  501    0  0.00000000000E+00  0.00000000000E+00 -0.24501135204E+04  0.24501135204E+04  0.50400001928E-02 0. -1.
    10030    2    1    2    0    0  0.00000000000E+00  0.00000000000E+00 -0.11252266161E+04  0.37750004247E+04  0.36034002371E+04 0.  0.
        3    1    3    3  502    0  0.67640337229E+03 -0.96866222032E+03  0.86242002619E+03  0.14627359061E+04  0.10100000352E+00 0.  1.
       -3    1    3    3    0  502 -0.67640337229E+03  0.96866222032E+03 -0.19876466423E+04  0.23122645186E+04  0.10100000352E+00 0. -1.
</event>
<event>
 5   0  0.3061330E-07  0.3506352E+04  0.7818609E-02  0.8112286E-01
       -1   -1    0    0    0  501  0.00000000000E+00  0.00000000000E+00  0.28042504609E+04  0.28042504609E+04  0.50400001928E-02 0.  1.
        1   -1    0    0  501    0  0.00000000000E+00  0.00000000000E+00 -0.10960595904E+04  0.10960595904E+04  0.50400001928E-02 0. -1.
    10030    2    1    2    0    0  0.00000000000E+00  0.00000000000E+00  0.17081908705E+04  0.39003100513E+04  0.35063517288E+04 0.  0.
        5    1    3    3  502    0 -0.59972064115E+03  0.16361490111E+04  0.64025946019E+03  0.18565028145E+04  0.46999998093E+01 0. -1.
       -5    1    3    3    0  502  0.59972064115E+03 -0.16361490111E+04  0.10679314103E+04  0.20438072368E+04  0.46999998093E+01 0.  1.
</event>
<event>
 5   0  0.2936607E-07  0.3372297E+04  0.7818609E-02  0.8144739E-01
        1   -1    0    0  501    0  0.00000000000E+00  0.00000000000E+00  0.13580815778E+04  0.13580815778E+04  0.50400001928E-02 0. -1.
       -1   -1    0    0    0  501  0.00000000000E+00  0.00000000000E+00 -0.20934658177E+04  0.20934658177E+04  0.50400001928E-02 0.  1.
    10030    2    1    2    0    0  0.00000000000E+00  0.00000000000E+00 -0.73538423990E+03  0.34515473955E+04  0.33722973539E+04 0.  0.
        2    1    3    3  502    0  0.11770188278E+04 -0.11657683587E+04 -0.46130255621E+02  0.16572619550E+04  0.25500000920E-02 0. -1.
       -2    1    3    3    0  502 -0.11770188278E+04  0.11657683587E+04 -0.68925398428E+03  0.17942854405E+04  0.25500000920E-02 0.  1.
</event>
<event>
 5   0  0.8950809E-07  0.3566827E+04  0.7818609E-02  0.8098133E-01
       -2   -1    0    0    0  501  0.00000000000E+00  0.00000000000E+00  0.15489854687E+04  0.15489854687E+04  0.25500000920E-02 0.  1.
        2   -1    0    0  501    0  0.00000000000E+00  0.00000000000E+00 -0.20533206121E+04  0.20533206121E+04  0.25500000920E-02 0. -1.
    10030    2    1    2    0    0  0.00000000000E+00  0.00000000000E+00 -0.50433514331E+03  0.36023060808E+04  0.35668270442E+04 0.  0.
        2    1    3    3  502    0  0.12694337439E+03 -0.14026075138E+04  0.85285531538E+03  0.16464460656E+04  0.25500000920E-02 0.  1.
       -2    1    3    3    0  502 -0.12694337439E+03  0.14026075138E+04 -0.13571904587E+04  0.19558600152E+04  0.25500000920E-02 0. -1.
</event>
<event>
 5   0  0.3061330E-07  0.3490319E+04  0.7818609E-02  0.8116088E-01
        1   -1    0    0  501    0  0.00000000000E+00  0.00000000000E+00  0.23897834510E+04  0.23897834510E+04  0.50400001928E-02 0.  1.
       -1   -1    0    0    0  501  0.00000000000E+00  0.00000000000E+00 -0.12744176735E+04  0.12744176735E+04  0.50400001928E-02 0. -1.
    10030    2    1    2    0    0  0.00000000000E+00  0.00000000000E+00  0.11153657775E+04  0.36642011246E+04  0.34903193355E+04 0.  0.
        5    1    3    3  502    0 -0.76453747080E+03  0.60755438291E+03  0.20760846822E+04  0.22942950050E+04  0.46999998093E+01 0.  1.
       -5    1    3    3    0  502  0.76453747080E+03 -0.60755438291E+03 -0.96071890471E+03  0.13699061195E+04  0.46999998093E+01 0. -1.
</event>
<event>
 5   0  0.9311672E-07  0.3567398E+04  0.7818609E-02  0.8098001E-01
        2   -1    0    0  501    0  0.00000000000E+00  0.00000000000E+00  0.22561694398E+04  0.22561694398E+04  0.25500000920E-02 0.  1.
       -2   -1    0    0    0  501  0.00000000000E+00  0.00000000000E+00 -0.14101698529E+04  0.14101698529E+04  0.25500000920E-02 0. -1.
    10030    2    1    2    0    0  0.00000000000E+00  0.00000000000E+00  0.84599958690E+03  0.36663392926E+04  0.35673980024E+04 0.  0.
        4    1    3    3  502    0 -0.33085956225E+03  0.36747715959E+03  0.21843205737E+04  0.22395904747E+04  0.12699999809E+01 0.  1.
       -4    1    3    3    0  502  0.33085956225E+03 -0.36747715959E+03 -0.13383209868E+04  0.14267488179E+04  0.12699999809E+01 0. -1.
</event>
<event>
 5   0  0.9311672E-07  0.3508564E+04  0.7818609E-02  0.8111763E-01
       -2   -1    0    0    0  501  0.00000000000E+00  0.00000000000E+00  0.96646153030E+03  0.96646153030E+03  0.25500000920E-02 0. -1.
        2   -1    0    0  501    0  0.00000000000E+00  0.00000000000E+00 -0.31843017954E+04  0.31843017954E+04  0.25500000920E-02 0.  1.
    10030    2    1    2    0    0  0.00000000000E+00  0.00000000000E+00 -0.22178402651E+04  0.41507633257E+04  0.35085639148E+04 0.  0.
        4    1    3    3  502    0 -0.29007347871E+03 -0.11385019505E+03  0.93345629351E+03  0.98409692345E+03  0.12699999809E+01 0. -1.
       -4    1    3    3    0  502  0.29007347871E+03  0.11385019505E+03 -0.31512965586E+04  0.31666664022E+04  0.12699999809E+01 0.  1.
</event>
<event>
 5   0  0.2933506E-07  0.3475247E+04  0.7818609E-02  0.8119681E-01
        1   -1    0    0  501    0  0.00000000000E+00  0.00000000000E+00  0.19637671739E+04  0.19637671739E+04  0.50400001928E-02 0. -1.
       -1   -1    0    0    0  501  0.00000000000E+00  0.00000000000E+00 -0.15375222012E+04  0.15375222012E+04  0.50400001928E-02 0.  1.
    10030    2    1    2    0    0  0.00000000000E+00  0.00000000000E+00  0.42624497265E+03  0.35012893751E+04  0.34752471152E+04 0.  0.
        4    1    3    3  502    0 -0.67898985067E+02  0.99344834785E+03  0.16477963070E+04  0.19253010607E+04  0.12699999809E+01 0. -1.
       -4    1    3    3    0  502  0.67898985067E+02 -0.99344834785E+03 -0.12215513343E+04  0.15759883145E+04  0.12699999809E+01 0.  1.
</event>
<event>
 5   0  0.8950809E-07  0.3487069E+04  0.7818609E-02  0.8116861E-01
        2   -1    0    0  501    0  0.00000000000E+00  0.00000000000E+00  0.21581820062E+04  0.21581820062E+04  0.25500000920E-02 0. -1.
       -2   -1    0    0    0  501  0.00000000000E+00  0.00000000000E+00 -0.14085525077E+04  0.14085525077E+04  0.25500000920E-02 0.  1.
    10030    2    1    2    0    0  0.00000000000E+00  0.00000000000E+00  0.74962949853E+03  0.35667345139E+04  0.34870690712E+04 0.  0.
        2    1    3    3  502    0  0.92337688778E+03  0.11690959514E+04 -0.55169539165E+03  0.15886403072E+04  0.25500000920E-02 0.  1.
       -2    1    3    3    0  502 -0.92337688778E+03 -0.11690959514E+04  0.13013248902E+04  0.19780942067E+04  0.25500000920E-02 0. -1.
</event>
<event>
 5   0  0.2907000E-07  0.3589903E+04  0.7818609E-02  0.8092808E-01
        3   -1    0    0  501    0  0.00000000000E+00  0.00000000000E+00  0.15634664699E+04  0.15634664731E+04  0.10100000352E+00 0. -1.
       -3   -1    0    0    0  501  0.00000000000E+00  0.00000000000E+00 -0.20607102263E+04  0.20607102288E+04  0.10100000352E+00 0.  1.
    10030    2    1    2    0    0  0.00000000000E+00  0.00000000000E+00 -0.49724375640E+03  0.36241767019E+04  0.35899032596E+04 0.  0.
        1    1    3    3  502    0  0.71043203134E+03 -0.43555027730E+03 -0.18535903275E+04  0.20322929950E+04  0.50400001928E-02 0.  1.
       -1    1    3    3    0  502 -0.71043203134E+03  0.43555027730E+03  0.13563465711E+04  0.15918837069E+04  0.50400001928E-02 0. -1.
</event>
<event>
 5   0  0.9311672E-07  0.3523089E+04  0.7818609E-02  0.8108340E-01
        2   -1    0    0  501    0  0.00000000000E+00  0.00000000000E+00  0.13810695904E+04  0.13810695904E+04  0.25500000920E-02 0.  1.
       -2   -1    0    0    0  501  0.00000000000E+00  0.00000000000E+00 -0.22468377512E+04  0.22468377512E+04  0.25500000920E-02 0. -1.
    10030    2    1    2    0    0  0.00000000000E+00  0.00000000000E+00 -0.86576816083E+03  0.36279073416E+04  0.35230891517E+04 0.  0.
        4    1    3    3  502    0  0.16695922858E+04  0.37419992090E+03 -0.86424278678E+03  0.19168936300E+04  0.12699999809E+01 0. -1.
       -4    1    3    3    0  502 -0.16695922858E+04 -0.37419992090E+03 -0.15253740497E+01  0.17110137116E+04  0.12699999809E+01 0.  1.
</event>
<event>
 5   0  0.6188930E-07  0.3494606E+04  0.7818609E-02  0.8115070E-01
       -2   -1    0    0    0  501  0.00000000000E+00  0.00000000000E+00  0.11003702349E+04  0.11003702349E+04  0.25500000920E-02 0. -1.
        2   -1    0    0  501    0  0.00000000000E+00  0.00000000000E+00 -0.27745816457E+04  0.27745816457E+04  0.25500000920E-02 0.  1.
    10030    2    1    2    0    0  0.00000000000E+00  0.00000000000E+00 -0.16742114108E+04  0.38749518806E+04  0.34946055899E+04 0.  0.
        3    1    3    3  502    0 -0.64123855226E+03  0.12034171268E+04 -0.20485677450E+04  0.24609001357E+04  0.10100000352E+00 0.  1.
       -3    1    3    3    0  502  0.64123855226E+03 -0.12034171268E+04  0.37435633425E+03  0.14140517448E+04  0.10100000352E+00 0. -1.
</event>
<event>
 5   0  0.8845195E-07  0.4075360E+04  0.7818609E-02  0.7989514E-01
        2   -1    0    0  501    0  0.00000000000E+00  0.00000000000E+00  0.23270998075E+04  0.23270998075E+04  0.25500000920E-02 0. -1.
       -2   -1    0    0    0  501  0.00000000000E+00  0.00000000000E+00 -0.17842550693E+04  0.17842550693E+04  0.25500000920E-02 0.  1.
    10030    2    1    2    0    0  0.00000000000E+00  0.00000000000E+00  0.54284473819E+03  0.41113548767E+04  0.40753599243E+04 0.  0.
        5    1    3    3  502    0  0.11565822875E+04 -0.10259323883E+04 -0.10676663058E+04  0.18788702147E+04  0.46999998093E+01 0. -1.
       -5    1    3    3    0  502 -0.11565822875E+04  0.10259323883E+04  0.16105110440E+04  0.22324846620E+04  0.46999998093E+01 0.  1.
</event>
<event>
 5   0  0.6188930E-07  0.3323471E+04  0.7818609E-02  0.8156949E-01
       -2   -1    0    0    0  501  0.00000000000E+00  0.00000000000E+00  0.14519443127E+04  0.14519443127E+04  0.25500000920E-02 0.  1.
        2   -1    0    0  501    0  0.00000000000E+00  0.00000000000E+00 -0.19018395860E+04  0.19018395860E+04  0.25500000920E-02 0. -1.
    10030    2    1    2    0    0  0.00000000000E+00  0.00000000000E+00 -0.44989527330E+03  0.33537838988E+04  0.33234711798E+04 0.  0.
        3    1    3    3  502    0  0.15228201209E+04 -0.61185639015E+03  0.38229438756E+02  0.16415879090E+04  0.10100000352E+00 0.  1.
       -3    1    3    3    0  502 -0.15228201209E+04  0.61185639015E+03 -0.48812471205E+03  0.17121959898E+04  0.10100000352E+00 0. -1.
</event>
<event>
 5   0  0.3061330E-07  0.3517977E+04  0.7818609E-02  0.8109543E-01
       -1   -1    0    0    0  501  0.00000000000E+00  0.00000000000E+00  0.18882530232E+04  0.18882530232E+04  0.50400001928E-02 0. -1.
        1   -1    0    0  501    0  0.00000000000E+00  0.00000000000E+00 -0.16385728416E+04  0.16385728416E+04  0.50400001928E-02 0.  1.
    10030    2    1    2    0    0  0.00000000000E+00  0.00000000000E+00  0.24968018161E+03  0.35268258648E+04  0.35179767605E+04 0.  0.
        5    1    3    3  502    0 -0.13328322262E+03 -0.12958168273E+04  0.13098083544E+04  0.18473022716E+04  0.46999998093E+01 0. -1.
       -5    1    3    3    0  502  0.13328322262E+03  0.12958168273E+04 -0.10601281728E+04  0.16795235932E+04  0.46999998093E+01 0.  1.
</event>
<event>
 5   0  0.8845195E-07  0.3098318E+04  0.7818609E-02  0.8216200E-01
       -2   -1    0    0    0  501  0.00000000000E+00  0.00000000000E+00  0.11577868727E+04  0.11577868727E+04  0.25500000920E-02 0.  1.
        2   -1    0    0  501    0  0.00000000000E+00  0.00000000000E+00 -0.20728284095E+04  0.20728284095E+04  0.25500000920E-02 0. -1.
    10030    2    1    2    0    0  0.00000000000E+00  0.00000000000E+00 -0.91504153680E+03  0.32306152823E+04  0.30983179450E+04 0.  0.
        5    1    3    3  502    0  0.19693201008E+03 -0.24705747587E+03  0.11238294797E+04  0.11674049864E+04  0.46999998093E+01 0.  1.
       -5    1    3    3    0  502 -0.19693201008E+03  0.24705747587E+03 -0.20388710165E+04  0.20632102958E+04  0.46999998093E+01 0. -1.
</event>
<event>
 5   0  0.9128871E-07  0.3514729E+04  0.7818609E-02  0.8110308E-01
        2   -1    0    0  501    0  0.00000000000E+00  0.00000000000E+00  0.12865928802E+04  0.12865928802E+04  0.25500000920E-02 0.  1.
       -2   -1    0    0    0  501  0.00000000000E+00  0.00000000000E+00 -0.24003934679E+04  0.24003934679E+04  0.25500000920E-02 0. -1.
    10030    2    1    2    0    0  0.00000000000E+00  0.00000000000E+00 -0.11138005877E+04  0.36869863481E+04  0.35147285219E+04 0.  0.
        1    1    3    3  502    0  0.67944589327E+03  0.12813531371E+04  0.48411573284E+03  0.15290129583E+04  0.50400001928E-02 0.  1.
       -1    1    3    3    0  502 -0.67944589327E+03 -0.12813531371E+04 -0.15979163205E+04  0.21579733898E+04  0.50400001928E-02 0. -1.
</event>
<event>
 5   0  0.2933506E-07  0.3452176E+04  0.7818609E-02  0.8125218E-01
        1   -1    0    0  501    0  0.00000000000E+00  0.00000000000E+00  0.20302054840E+04  0.20302054840E+04  0.50400001928E-02 0. -1.
       -1   -1    0    0    0  501  0.00000000000E+00  0.00000000000E+00 -0.14675263719E+04  0.14675263720E+04  0.50400001928E-02 0.  1.
    10030    2    1    2    0    0  0.00000000000E+00  0.00000000000E+00  0.56267911201E+03  0.34977318559E+04  0.34521761764E+04 0.  0.
        4    1    3    3  502    0  0.17727994675E+03 -0.81838729168E+03  0.18106257705E+04  0.19948817590E+04  0.12699999809E+01 0. -1.
       -4    1    3    3    0  502 -0.17727994675E+03  0.81838729168E+03 -0.12479466584E+04  0.15028500970E+04  0.12699999809E+01 0.  1.
</event>
<event>
 5   0  0.6188930E-07  0.3525736E+04  0.7818609E-02  0.8107718E-01
       -2   -1    0    0    0  501  0.00000000000E+00  0.00000000000E+00  0.23154755078E+04  0.23154755078E+04  0.25500000920E-02 0. -1.
        2   -1    0    0  501    0  0.00000000000E+00  0.00000000000E+00 -0.13421448739E+04  0.13421448739E+04  0.25500000920E-02 0.  1.
    10030    2    1    2    0    0  0.00000000000E+00  0.00000000000E+00  0.97333063394E+03  0.36576203818E+04  0.35257359989E+04 0.  0.
        3    1    3    3  502    0  0.19276528331E+03 -0.16989128308E+04  0.41377134711E+02  0.17103143976E+04  0.10100000352E+00 0.  1.
       -3    1    3    3    0  502 -0.19276528331E+03  0.16989128308E+04  0.93195349922E+03  0.19473059842E+04  0.10100000352E+00 0. -1.
</event>
<event>
 5   0  0.2972541E-07  0.3517988E+04  0.7818609E-02  0.8109540E-01
       -1   -1    0    0    0  501  0.00000000000E+00  0.00000000000E+00  0.14652426663E+04  0.14652426663E+04  0.50400001928E-02 0.  1.
        1   -1    0    0  501    0  0.00000000000E+00  0.00000000000E+00 -0.21116365664E+04  0.21116365664E+04  0.50400001928E-02 0. -1.
    10030    2    1    2    0    0  0.00000000000E+00  0.00000000000E+00 -0.64639390012E+03  0.35768792327E+04  0.35179880573E+04 0.  0.
        3    1    3    3  502    0 -0.83744978027E+03 -0.98328777880E+03 -0.15372896863E+04  0.20078437639E+04  0.10100000352E+00 0. -1.
       -3    1    3    3    0  502  0.83744978027E+03  0.98328777880E+03  0.89089578616E+03  0.15690354688E+04  0.10100000352E+00 0.  1.
</event>
<event>
 5   0  0.2972541E-07  0.3540300E+04  0.7818609E-02  0.8104305E-01
        1   -1    0    0  501    0  0.00000000000E+00  0.00000000000E+00  0.25140644653E+04  0.25140644653E+04  0.50400001928E-02 0.  1.
       -1   -1    0    0    0  501  0.00000000000E+00  0.00000000000E+00 -0.12463608655E+04  0.12463608655E+04  0.50400001928E-02 0. -1.
    10030    2    1    2    0    0  0.00000000000E+00  0.00000000000E+00  0.12677035998E+04  0.37604253308E+04  0.35403003052E+04 0.  0.
        3    1    3    3  502    0  0.14618293911E+04 -0.92048277008E+03  0.22357387029E+03  0.17419009686E+04  0.10100000352E+00 0. -1.
       -3    1    3    3    0  502 -0.14618293911E+04  0.92048277008E+03  0.10441297295E+04  0.20185243622E+04  0.10100000352E+00 0.  1.
</event>
<event>
 5   0  0.3061330E-07  0.3486098E+04  0.7818609E-02  0.8117092E-01
        1   -1    0    0  501    0  0.00000000000E+00  0.00000000000E+00  0.22878236841E+04  0.22878236841E+04  0.50400001928E-02 0.  1.
       -1   -1    0    0    0  501  0.00000000000E+00  0.00000000000E+00 -0.13279958739E+04  0.13279958739E+04  0.50400001928E-02 0. -1.
    10030    2    1    2    0    0  0.00000000000E+00  0.00000000000E+00  0.95982781022E+03  0.36158195580E+04  0.34860983421E+04 0.  0.
        5    1    3    3  502    0  0.73174089662E+03 -0.11168750305E+04  0.16420271405E+04  0.21163954720E+04  0.46999998093E+01 0.  1.
       -5    1    3    3    0  502 -0.73174089662E+03  0.11168750305E+04 -0.68219933030E+03  0.14994240861E+04  0.46999998093E+01 0. -1.
</event>
<event>
 5   0  0.8950809E-07  0.3480732E+04  0.7818609E-02  0.8118372E-01
        2   -1    0    0  501    0  0.00000000000E+00  0.00000000000E+00  0.13219186247E+04  0.13219186248E+04  0.25500000920E-02 0.  1.
       -2   -1    0    0    0  501  0.00000000000E+00  0.00000000000E+00 -0.22912704135E+04  0.22912704135E+04  0.25500000920E-02 0. -1.
    10030    2    1    2    0    0  0.00000000000E+00  0.00000000000E+00 -0.96935178873E+03  0.36131890382E+04  0.34807315518E+04 0.  0.
        2    1    3    3  502    0  0.68535305994E+03 -0.13591549117E+04  0.39115064858E+03  0.15716264571E+04  0.25500000920E-02 0.  1.
       -2    1    3    3    0  502 -0.68535305994E+03  0.13591549117E+04 -0.13605024373E+04  0.20415625811E+04  0.25500000920E-02 0. -1.
</event>
<event>
 5   0  0.8845195E-07  0.3499734E+04  0.7818609E-02  0.8113853E-01
       -2   -1    0    0    0  501  0.00000000000E+00  0.00000000000E+00  0.19869604505E+04  0.19869604505E+04  0.25500000920E-02 0.  1.
        2   -1    0    0  501    0  0.00000000000E+00  0.00000000000E+00 -0.15410649014E+04  0.15410649014E+04  0.25500000920E-02 0. -1.
    10030    2    1    2    0    0  0.00000000000E+00  0.00000000000E+00  0.44589554914E+03  0.35280253519E+04  0.34997342818E+04 0.  0.
        5    1    3    3  502    0  0.14029086902E+04 -0.80601986166E+03 -0.44891726910E+03  0.16790978574E+04  0.46999998093E+01 0. -1.
       -5    1    3    3    0  502 -0.14029086902E+04  0.80601986166E+03  0.89481281823E+03  0.18489274945E+04  0.46999998093E+01 0.  1.
</event>
<event>
 5   0  0.2933506E-07  0.3522608E+04  0.7818609E-02  0.8108453E-01
       -1   -1    0    0    0  501  0.00000000000E+00  0.00000000000E+00  0.12756632140E+04  0.12756632140E+04  0.50400001928E-02 0. -1.
        1   -1    0    0  501    0  0.00000000000E+00  0.00000000000E+00 -0.24318268957E+04  0.24318268957E+04  0.50400001928E-02 0.  1.
    10030    2    1    2    0    0  0.00000000000E+00  0.00000000000E+00 -0.11561636817E+04  0.37074901097E+04  0.35226081892E+04 0.  0.
        4    1    3    3  502    0  0.49340791249E+03  0.16762329897E+03  0.11926716242E+04  0.13015437582E+04  0.12699999809E+01 0. -1.
       -4    1    3    3    0  502 -0.49340791249E+03 -0.16762329897E+03 -0.23488353060E+04  0.24059463514E+04  0.12699999809E+01 0.  1.
</event>
<event>
 5   0  0.9311672E-07  0.3557383E+04  0.7818609E-02  0.8100324E-01
        2   -1    0    0  501    0  0.00000000000E+00  0.00000000000E+00  0.18302100769E+04  0.18302100769E+04  0.25500000920E-02 0.  1.
       -2   -1    0    0    0  501  0.00000000000E+00  0.00000000000E+00 -0.17286231347E+04  0.17286231347E+04  0.25500000920E-02 0. -1.
    10030    2    1    2    0    0  0.00000000000E+00  0.00000000000E+00  0.10158694224E+03  0.35588332117E+04  0.35573830159E+04 0.  0.
        4    1    3    3  502    0  0.17658655804E+04  0.21289736596E+03  0.39155535993E+02  0.17790844008E+04  0.12699999809E+01 0.  1.
       -4    1    3    3    0  502 -0.17658655804E+04 -0.21289736596E+03  0.62431406249E+02  0.17797488108E+04  0.12699999809E+01 0. -1.
</event>
<event>
 5   0  0.3061330E-07  0.3510107E+04  0.7818609E-02  0.8111399E-01
        1   -1    0    0  501    0  0.00000000000E+00  0.00000000000E+00  0.14183479165E+04  0.14183479165E+04  0.50400001928E-02 0. -1.
       -1   -1    0    0    0  501  0.00000000000E+00  0.00000000000E+00 -0.21716907777E+04  0.21716907777E+04  0.50400001928E-02 0.  1.
    10030    2    1    2    0    0  0.00000000000E+00  0.00000000000E+00 -0.75334286121E+03  0.35900386942E+04  0.35101071720E+04 0.  0.
        5    1    3    3  502    0 -0.57779848509E+03  0.11112000357E+04 -0.16341295097E+04  0.20588875524E+04  0.46999998093E+01 0.  1.
       -5    1    3    3    0  502  0.57779848509E+03 -0.11112000357E+04  0.88078664853E+03  0.15311511418E+04  0.46999998093E+01 0. -1.
</event>
<event>
 5   0  0.8950809E-07  0.3537545E+04  0.7818609E-02  0.8104949E-01
       -2   -1    0    0    0  501  0.00000000000E+00  0.00000000000E+00  0.15657953329E+04  0.15657953329E+04  0.25500000920E-02 0.  1.
        2   -1    0    0  501    0  0.00000000000E+00  0.00000000000E+00 -0.19980624589E+04  0.19980624589E+04  0.25500000920E-02 0. -1.
    10030    2    1    2    0    0  0.00000000000E+00  0.00000000000E+00 -0.43226712600E+03  0.35638577917E+04  0.35375454049E+04 0.  0.
        2    1    3    3  502    0 -0.14868380044E+04  0.76151878717E+03 -0.80179981076E+03  0.18529654749E+04  0.25500000920E-02 0. -1.
       -2    1    3    3    0  502  0.14868380044E+04 -0.76151878717E+03  0.36953268476E+03  0.17108923168E+04  0.25500000920E-02 0.  1.
</event>
<event>
 5   0  0.6188930E-07  0.3447768E+04  0.7818609E-02  0.8126281E-01
       -2   -1    0    0    0  501  0.00000000000E+00  0.00000000000E+00  0.16566330894E+04  0.16566330894E+04  0.25500000920E-02 0.  1.
        2   -1    0    0  501    0  0.00000000000E+00  0.00000000000E+00 -0.17938647570E+04  0.17938647570E+04  0.25500000920E-02 0. -1.
    10030    2    1    2    0    0  0.00000000000E+00  0.00000000000E+00 -0.13723166758E+03  0.34504978464E+04  0.34477678079E+04 0.  0.
        3    1    3    3  502    0 -0.49189121830E+03 -0.16305331198E+04  0.19839212252E+03  0.17146296014E+04  0.10100000352E+00 0.  1.
       -3    1    3    3    0  502  0.49189121830E+03  0.16305331198E+04 -0.33562379011E+03  0.17358682450E+04  0.10100000352E+00 0. -1.
</event>
<event>
 5   0  0.2936607E-07  0.3339328E+04  0.7818609E-02  0.8152960E-01
        1   -1    0    0  501    0  0.00000000000E+00  0.00000000000E+00  0.20110259602E+04  0.20110259602E+04  0.50400001928E-02 0.  1.
       -1   -1    0    0    0  501  0.00000000000E+00  0.00000000000E+00 -0.13862463888E+04  0.13862463888E+04  0.50400001928E-02 0. -1.
    10030    2    1    2    0    0  0.00000000000E+00  0.00000000000E+00  0.62477957137E+03  0.33972723490E+04  0.33393277617E+04 0.  0.
        2    1    3    3  502    0  0.16617062305E+04  0.15855359000E+03  0.35005432572E+03  0.17055629183E+04  0.25500000920E-02 0. -1.
       -2    1    3    3    0  502 -0.16617062305E+04 -0.15855359000E+03  0.27472524566E+03  0.16917094307E+04  0.25500000920E-02 0.  1.
</event>
<event>
 5   0  0.3061330E-07  0.3474024E+04  0.7818609E-02  0.8119974E-01
        1   -1    0    0  501    0  0.00000000000E+00  0.00000000000E+00  0.24236357231E+04  0.24236357232E+04  0.50400001928E-02 0. -1.
       -1   -1    0    0    0  501  0.00000000000E+00  0.00000000000E+00 -0.12449107944E+04  0.12449107944E+04  0.50400001928E-02 0.  1.
    10030    2    1    2    0    0  0.00000000000E+00  0.00000000000E+00  0.11787249287E+04  0.36685465176E+04  0.34740237613E+04 0.  0.
        5    1    3    3  502    0  0.16114660726E+04  0.61317634913E+03  0.81182409473E+03  0.19057514500E+04  0.46999998093E+01 0. -1.
       -5    1    3    3    0  502 -0.16114660726E+04 -0.61317634913E+03  0.36690083400E+03  0.17627950676E+04  0.46999998093E+01 0.  1.
</event>
<event>
 5   0  0.6188930E-07  0.2867629E+04  0.7818609E-02  0.8282574E-01
        2   -1    0    0  501    0  0.00000000000E+00  0.00000000000E+00  0.20129939124E+04  0.20129939124E+04  0.25500000920E-02 0.  1.
       -2   -1    0    0    0  501  0.00000000000E+00  0.00000000000E+00 -0.10212770322E+04  0.10212770322E+04  0.25500000920E-02 0. -1.
    10030    2    1    2    0    0  0.00000000000E+00  0.00000000000E+00  0.99171688014E+03  0.30342709446E+04  0.28676292988E+04 0.  0.
        3    1    3    3  502    0 -0.11136949149E+04 -0.56223123724E+03 -0.25189325462E+03  0.12727413522E+04  0.10100000352E+00 0. -1.
       -3    1    3    3    0  502  0.11136949149E+04  0.56223123724E+03  0.12436101348E+04  0.17615295925E+04  0.10100000352E+00 0.  1.
</event>
<event>
 5   0  0.6188930E-07  0.3509252E+04  0.7818609E-02  0.8111601E-01
       -2   -1    0    0    0  501  0.00000000000E+00  0.00000000000E+00  0.12941973438E+04  0.12941973438E+04  0.25500000920E-02 0.  1.
        2   -1    0    0  501    0  0.00000000000E+00  0.00000000000E+00 -0.23788583637E+04  0.23788583637E+04  0.25500000920E-02 0. -1.
    10030    2    1    2    0    0  0.00000000000E+00  0.00000000000E+00 -0.10846610199E+04  0.36730557075E+04  0.35092518722E+04 0.  0.
        3    1    3    3  502    0  0.31220141712E+03 -0.15179210545E+04  0.31897657141E+03  0.15821820742E+04  0.10100000352E+00 0.  1.
       -3    1    3    3    0  502 -0.31220141712E+03  0.15179210545E+04 -0.14036375913E+04  0.20908736333E+04  0.10100000352E+00 0. -1.
</event>
<event>
 5   0  0.8950809E-07  0.3437001E+04  0.7818609E-02  0.8128884E-01
       -2   -1    0    0    0  501  0.00000000000E+00  0.00000000000E+00  0.13788728165E+04  0.13788728165E+04  0.25500000920E-02 0.  1.
        2   -1    0    0  501    0  0.00000000000E+00  0.00000000000E+00 -0.21417812031E+04  0.21417812031E+04  0.25500000920E-02 0. -1.
    10030    2    1    2    0    0  0.00000000000E+00  0.00000000000E+00 -0.76290838658E+03  0.35206540197E+04  0.34370009485E+04 0.  0.
        2    1    3    3  502    0 -0.14430861502E+04 -0.82253597520E+03  0.69930526700E+02  0.16625141641E+04  0.25500000920E-02 0. -1.
       -2    1    3    3    0  502  0.14430861502E+04  0.82253597520E+03 -0.83283891328E+03  0.18581398556E+04  0.25500000920E-02 0.  1.
</event>
<event>
 5   0  0.2933506E-07  0.3482460E+04  0.7818609E-02  0.8117959E-01
        1   -1    0    0  501    0  0.00000000000E+00  0.00000000000E+00  0.26092120282E+04  0.26092120282E+04  0.50400001928E-02 0.  1.
       -1   -1    0    0    0  501  0.00000000000E+00  0.00000000000E+00 -0.11619911060E+04  0.11619911061E+04  0.50400001928E-02 0. -1.
    10030    2    1    2    0    0  0.00000000000E+00  0.00000000000E+00  0.14472209222E+04  0.37712031343E+04  0.34824595737E+04 0.  0.
        4    1    3    3  502    0  0.78993596788E+03  0.45112535983E+03 -0.88420335743E+03  0.12685937544E+04  0.12699999809E+01 0. -1.
       -4    1    3    3    0  502 -0.78993596788E+03 -0.45112535983E+03  0.23314242796E+04  0.25026093798E+04  0.12699999809E+01 0.  1.
</event>
<event>
 5   0  0.9311672E-07  0.3608730E+04  0.7818609E-02  0.8088495E-01
       -2   -1    0    0    0  501  0.00000000000E+00  0.00000000000E+00  0.12715725251E+04  0.12715725251E+04  0.25500000920E-02 0. -1.
        2   -1    0    0  501    0  0.00000000000E+00  0.00000000000E+00 -0.25603985316E+04  0.25603985316E+04  0.25500000920E-02 0.  1.
    10030    2    1    2    0    0  0.00000000000E+00  0.00000000000E+00 -0.12888260065E+04  0.38319710567E+04  0.36087296524E+04 0.  0.
        4    1    3    3  502    0 -0.96641856155E+03  0.96437110912E+03 -0.18971190227E+04  0.23373144143E+04  0.12699999809E+01 0.  1.
       -4    1    3    3    0  502  0.96641856155E+03 -0.96437110912E+03  0.60829301614E+03  0.14946566424E+04  0.12699999809E+01 0. -1.
</event>
<event>
 5   0  0.6188930E-07  0.2844022E+04  0.7818609E-02  0.8289730E-01
        2   -1    0    0  501    0  0.00000000000E+00  0.00000000000E+00  0.17100355278E+04  0.17100355278E+04  0.25500000920E-02 0. -1.
       -2   -1    0    0    0  501  0.00000000000E+00  0.00000000000E+00 -0.11824986232E+04  0.11824986232E+04  0.25500000920E-02 0.  1.
    10030    2    1    2    0    0  0.00000000000E+00  0.00000000000E+00  0.52753690462E+03  0.28925341511E+04  0.28440215592E+04 0.  0.
        3    1    3    3  502    0 -0.20734427046E+03  0.12810842042E+04 -0.32747920745E+03  0.13384360374E+04  0.10100000352E+00 0.  1.
       -3    1    3    3    0  502  0.20734427046E+03 -0.12810842042E+04  0.85501611207E+03  0.15540981136E+04  0.10100000352E+00 0. -1.
</event>
<event>
 5   0  0.8845195E-07  0.3487835E+04  0.7818609E-02  0.8116679E-01
        2   -1    0    0  501    0  0.00000000000E+00  0.00000000000E+00  0.23502329457E+04  0.23502329457E+04  0.25500000920E-02 0.  1.
       -2   -1    0    0    0  501  0.00000000000E+00  0.00000000000E+00 -0.12940200681E+04  0.12940200681E+04  0.25500000920E-02 0. -1.
    10030    2    1    2    0    0  0.00000000000E+00  0.00000000000E+00  0.10562128775E+04  0.36442530138E+04  0.34878352005E+04 0.  0.
        5    1    3    3  502    0  0.15798148160E+03 -0.13661298624E+04 -0.59234611547E+03  0.14973860424E+04  0.46999998093E+01 0. -1.
       -5    1    3    3    0  502 -0.15798148160E+03  0.13661298624E+04  0.16485589930E+04  0.21468669714E+04  0.46999998093E+01 0.  1.
</event>
<event>
 5   0  0.2933506E-07  0.3501742E+04  0.7818609E-02  0.8113377E-01
       -1   -1    0    0    0  501  0.00000000000E+00  0.00000000000E+00  0.15825829912E+04  0.15825829912E+04  0.50400001928E-02 0.  1.
        1   -1    0    0  501    0  0.00000000000E+00  0.00000000000E+00 -0.19370548459E+04  0.19370548459E+04  0.50400001928E-02 0. -1.
    10030    2    1    2    0    0  0.00000000000E+00  0.00000000000E+00 -0.35447185474E+03  0.35196378371E+04  0.35017424532E+04 0.  0.
        4    1    3    3  502    0  0.11060783495E+04 -0.13269168621E+04 -0.46405500475E+03  0.17887052117E+04  0.12699999809E+01 0. -1.
       -4    1    3    3    0  502 -0.11060783495E+04  0.13269168621E+04  0.10958315001E+03  0.17309326254E+04  0.12699999809E+01 0.  1.
</event>
<event>
 5   0  0.9128871E-07  0.3479133E+04  0.7818609E-02  0.8118753E-01
       -2   -1    0    0    0  501  0.00000000000E+00  0.00000000000E+00  0.27081693386E+04  0.27081693386E+04  0.25500000920E-02 0.  1.
        2   -1    0    0  501    0  0.00000000000E+00  0.00000000000E+00 -0.11173935299E+04  0.11173935299E+04  0.25500000920E-02 0. -1.
    10030    2    1    2    0    0  0.00000000000E+00  0.00000000000E+00  0.15907758087E+04  0.38255628685E+04  0.34791325912E+04 0.  0.
        1    1    3    3  502    0  0.49610257601E+03 -0.16090539252E+04  0.12758382167E+04  0.21125660830E+04  0.50400001928E-02 0. -1.
       -1    1    3    3    0  502 -0.49610257601E+03  0.16090539252E+04  0.31493759206E+03  0.17129967855E+04  0.50400001928E-02 0.  1.
</event>
<event>
 5   0  0.3061330E-07  0.3504463E+04  0.7818609E-02  0.8112733E-01
       -1   -1    0    0    0  501  0.00000000000E+00  0.00000000000E+00  0.12541766048E+04  0.12541766048E+04  0.50400001928E-02 0. -1.
        1   -1    0    0  501    0  0.00000000000E+00  0.00000000000E+00 -0.24480727487E+04  0.24480727487E+04  0.50400001928E-02 0.  1.
    10030    2    1    2    0    0  0.00000000000E+00  0.00000000000E+00 -0.11938961438E+04  0.37022493535E+04  0.35044631933E+04 0.  0.
        5    1    3    3  502    0  0.35808537991E+03  0.22276238000E+03  0.11997567664E+04  0.12717258375E+04  0.46999998093E+01 0. -1.
       -5    1    3    3    0  502 -0.35808537991E+03 -0.22276238000E+03 -0.23936529102E+04  0.24305235160E+04  0.46999998093E+01 0.  1.
</event>
<event>
 5   0  0.2933506E-07  0.3418640E+04  0.7818609E-02  0.8133347E-01
        1   -1    0    0  501    0  0.00000000000E+00  0.00000000000E+00  0.10810514819E+04  0.10810514819E+04  0.50400001928E-02 0. -1.
       -1   -1    0    0    0  501  0.00000000000E+00  0.00000000000E+00 -0.27027156960E+04  0.27027156960E+04  0.50400001928E-02 0.  1.
    10030    2    1    2    0    0  0.00000000000E+00  0.00000000000E+00 -0.16216642141E+04  0.37837671779E+04  0.34186399684E+04 0.  0.
        4    1    3    3  502    0 -0.27561820043E+02 -0.15961927566E+04 -0.14869641447E+04  0.21816633449E+04  0.12699999809E+01 0.  1.
       -4    1    3    3    0  502  0.27561820043E+02  0.15961927566E+04 -0.13470006936E+03  0.16021038330E+04  0.12699999809E+01 0. -1.
</event>
<event>
 5   0  0.6188930E-07  0.3491213E+04  0.7818609E-02  0.8115876E-01
        2   -1    0    0  501    0  0.00000000000E+00  0.00000000000E+00  0.24343635743E+04  0.24343635743E+04  0.25500000920E-02 0.  1.
       -2   -1    0    0    0  501  0.00000000000E+00  0.00000000000E+00 -0.12517200499E+04  0.12517200499E+04  0.25500000920E-02 0. -1.
    10030    2    1    2    0    0  0.00000000000E+00  0.00000000000E+00  0.11826435243E+04  0.36860836242E+04  0.34912127948E+04 0.  0.
        3    1    3    3  502    0  0.94398954474E+03 -0.11131209874E+04  0.16023667349E+04  0.21674256058E+04  0.10100000352E+00 0.  1.
       -3    1    3    3    0  502 -0.94398954474E+03  0.11131209874E+04 -0.41972321057E+03  0.15186580184E+04  0.10100000352E+00 0. -1.
</event>
<event>
 5   0  0.2933506E-07  0.3487125E+04  0.7818609E-02  0.8116848E-01
        1   -1    0    0  501    0  0.00000000000E+00  0.00000000000E+00  0.22770218704E+04  0.22770218704E+04  0.50400001928E-02 0. -1.
       -1   -1    0    0    0  501  0.00000000000E+00  0.00000000000E+00 -0.13350814754E+04  0.13350814754E+04  0.50400001928E-02 0.  1.
    10030    2    1    2    0    0  0.00000000000E+00  0.00000000000E+00  0.94194039499E+03  0.36121033458E+04  0.34871247286E+04 0.  0.
        4    1    3    3  502    0  0.43820432545E+03  0.72118368118E+03 -0.11094512077E+04  0.13939198427E+04  0.12699999809E+01 0.  1.
       -4    1    3    3    0  502 -0.43820432545E+03 -0.72118368118E+03  0.20513916027E+04  0.22181835030E+04  0.12699999809E+01 0. -1.
</event>
<event>
 5   0  0.3026332E-07  0.3484004E+04  0.7818609E-02  0.8117591E-01
       -1   -1    0    0    0  501  0.00000000000E+00  0.00000000000E+00  0.15750597917E+04  0.15750597917E+04  0.50400001928E-02 0.  1.
        1   -1    0    0  501    0  0.00000000000E+00  0.00000000000E+00 -0.19266382550E+04  0.19266382550E+04  0.50400001928E-02 0. -1.
    10030    2    1    2    0    0  0.00000000000E+00  0.00000000000E+00 -0.35157846329E+03  0.35016980468E+04  0.34840037019E+04 0.  0.
        1    1    3    3  502    0 -0.21024829385E+03  0.14465418404E+04 -0.11281684585E+04  0.18464700680E+04  0.50400001928E-02 0. -1.
       -1    1    3    3    0  502  0.21024829385E+03 -0.14465418404E+04  0.77658999519E+03  0.16552279788E+04  0.50400001928E-02 0.  1.
</event>
<event>
 5   0  0.2936607E-07  0.3457455E+04  0.7818609E-02  0.8123947E-01
       -1   -1    0    0    0  501  0.00000000000E+00  0.00000000000E+00  0.14801907305E+04  0.14801907305E+04  0.50400001928E-02 0. -1.
        1   -1    0    0  501    0  0.00000000000E+00  0.00000000000E+00 -0.20189961941E+04  0.20189961941E+04  0.50400001928E-02 0.  1.
    10030    2    1    2    0    0  0.00000000000E+00  0.00000000000E+00 -0.53880546360E+03  0.34991869246E+04  0.34574553946E+04 0.  0.
        2    1    3    3  502    0  0.55026252511E+03 -0.16374755184E+04 -0.33641775312E+03  0.17599124479E+04  0.25500000920E-02 0.  1.
       -2    1    3    3    0  502 -0.55026252511E+03  0.16374755184E+04 -0.20238771049E+03  0.17392744767E+04  0.25500000920E-02 0. -1.
</event>
<event>
 5   0  0.9128871E-07  0.3481298E+04  0.7818609E-02  0.8118236E-01
        2   -1    0    0  501    0  0.00000000000E+00  0.00000000000E+00  0.17256546895E+04  0.17256546895E+04  0.25500000920E-02 0.  1.
       -2   -1    0    0    0  501  0.00000000000E+00  0.00000000000E+00 -0.17557736784E+04  0.17557736784E+04  0.25500000920E-02 0. -1.
    10030    2    1    2    0    0  0.00000000000E+00  0.00000000000E+00 -0.30118988982E+02  0.34814283679E+04  0.34812980808E+04 0.  0.
        1    1    3    3  502    0  0.51899249687E+03 -0.38538032770E+03  0.16011655465E+04  0.17267316862E+04  0.50400001928E-02 0.  1.
       -1    1    3    3    0  502 -0.51899249687E+03  0.38538032770E+03 -0.16312845355E+04  0.17546966817E+04  0.50400001928E-02 0. -1.
</event>
<event>
 5   0  0.3061330E-07  0.3506715E+04  0.7818609E-02  0.8112200E-01
       -1   -1    0    0    0  501  0.00000000000E+00  0.00000000000E+00  0.10113445327E+04  0.10113445327E+04  0.50400001928E-02 0.  1.
        1   -1    0    0  501    0  0.00000000000E+00  0.00000000000E+00 -0.30397779080E+04  0.30397779080E+04  0.50400001928E-02 0. -1.
    10030    2    1    2    0    0  0.00000000000E+00  0.00000000000E+00 -0.20284333753E+04  0.40511224407E+04  0.35067151398E+04 0.  0.
        5    1    3    3  502    0 -0.13256801598E+03  0.70728387208E+03  0.83288428963E+03  0.11007011786E+04  0.46999998093E+01 0.  1.
       -5    1    3    3    0  502  0.13256801598E+03 -0.70728387208E+03 -0.28613176650E+04  0.29504212622E+04  0.46999998093E+01 0. -1.
</event>
<event>
 5   0  0.6188930E-07  0.3459467E+04  0.7818609E-02  0.8123463E-01
       -2   -1    0    0    0  501  0.00000000000E+00  0.00000000000E+00  0.18728412656E+04  0.18728412656E+04  0.25500000920E-02 0.  1.
        2   -1    0    0  501    0  0.00000000000E+00  0.00000000000E+00 -0.15975613166E+04  0.15975613166E+04  0.25500000920E-02 0. -1.
    10030    2    1    2    0    0  0.00000000000E+00  0.00000000000E+00  0.27527994896E+03  0.34704025822E+04  0.34594674492E+04 0.  0.
        3    1    3    3  502    0 -0.31966373017E+03  0.12070241634E+04  0.13384560885E+04  0.18304526606E+04  0.10100000352E+00 0.  1.
       -3    1    3    3    0  502  0.31966373017E+03 -0.12070241634E+04 -0.10631761395E+04  0.16399499216E+04  0.10100000352E+00 0. -1.
</event>
<event>
 5   0  0.8950809E-07  0.3479061E+04  0.7818609E-02  0.8118770E-01
       -2   -1    0    0    0  501  0.00000000000E+00  0.00000000000E+00  0.15455647363E+04  0.15455647363E+04  0.25500000920E-02 0. -1.
        2   -1    0    0  501    0  0.00000000000E+00  0.00000000000E+00 -0.19578389393E+04  0.19578389393E+04  0.25500000920E-02 0.  1.
    10030    2    1    2    0    0  0.00000000000E+00  0.00000000000E+00 -0.41227420300E+03  0.35034036756E+04  0.34790612665E+04 0.  0.
        2    1    3    3  502    0  0.61914733775E+03 -0.36068530204E+03 -0.18023238106E+04  0.19395382005E+04  0.25500000920E-02 0.  1.
       -2    1    3    3    0  502 -0.61914733775E+03  0.36068530204E+03  0.13900496076E+04  0.15638654752E+04  0.25500000920E-02 0. -1.
</event>
<event>
 5   0  0.9311672E-07  0.3478505E+04  0.7818609E-02  0.8118903E-01
       -2   -1    0    0    0  501  0.00000000000E+00  0.00000000000E+00  0.15361948135E+04  0.15361948135E+04  0.25500000920E-02 0.  1.
        2   -1    0    0  501    0  0.00000000000E+00  0.00000000000E+00 -0.19691505865E+04  0.19691505865E+04  0.25500000920E-02 0. -1.
    10030    2    1    2    0    0  0.00000000000E+00  0.00000000000E+00 -0.43295577301E+03  0.35053453999E+04  0.34785048040E+04 0.  0.
        4    1    3    3  502    0  0.12029379566E+04 -0.87994704850E+03  0.68689382868E+03  0.16410945373E+04  0.12699999809E+01 0. -1.
       -4    1    3    3    0  502 -0.12029379566E+04  0.87994704850E+03 -0.11198496017E+04  0.18642508626E+04  0.12699999809E+01 0.  1.
</event>
<event>
 5   0  0.6188930E-07  0.3380685E+04  0.7818609E-02  0.8142663E-01
       -2   -1    0    0    0  501  0.00000000000E+00  0.00000000000E+00  0.13868113441E+04  0.13868113441E+04  0.25500000920E-02 0. -1.
        2   -1    0    0  501    0  0.00000000000E+00  0.00000000000E+00 -0.20603079513E+04  0.20603079513E+04  0.25500000920E-02 0.  1.
    10030    2    1    2    0    0  0.00000000000E+00  0.00000000000E+00 -0.67349660724E+03  0.34471192954E+04  0.33806853975E+04 0.  0.
        3    1    3    3  502    0 -0.10156433416E+04 -0.11205178794E+04 -0.11066805079E+04  0.18739886532E+04  0.10100000352E+00 0.  1.
       -3    1    3    3    0  502  0.10156433416E+04  0.11205178794E+04  0.43318390070E+03  0.15731306422E+04  0.10100000352E+00 0. -1.
</event>
<event>
 5   0  0.3026332E-07  0.3577074E+04  0.7818609E-02  0.8095763E-01
       -1   -1    0    0    0  501  0.00000000000E+00  0.00000000000E+00  0.27512071856E+04  0.27512071856E+04  0.50400001928E-02 0. -1.
        1   -1    0    0  501    0  0.00000000000E+00  0.00000000000E+00 -0.11627129070E+04  0.11627129070E+04  0.50400001928E-02 0.  1.
    10030    2    1    2    0    0  0.00000000000E+00  0.00000000000E+00  0.15884942786E+04  0.39139200925E+04  0.35770737227E+04 0.  0.
        1    1    3    3  502    0 -0.10327100884E+04  0.96112512388E+03  0.19971418076E+04  0.24451640088E+04  0.50400001928E-02 0. -1.
       -1    1    3    3    0  502  0.10327100884E+04 -0.96112512388E+03 -0.40864752896E+03  0.14687560837E+04  0.50400001928E-02 0.  1.
</event>
<event>
 5   0  0.3061330E-07  0.3416871E+04  0.7818609E-02  0.8133778E-01
       -1   -1    0    0    0  501  0.00000000000E+00  0.00000000000E+00  0.15765404203E+04  0.15765404203E+04  0.50400001928E-02 0. -1.
        1   -1    0    0  501    0  0.00000000000E+00  0.00000000000E+00 -0.18513647200E+04  0.18513647200E+04  0.50400001928E-02 0.  1.
    10030    2    1    2    0    0  0.00000000000E+00  0.00000000000E+00 -0.27482429975E+03  0.34279051403E+04  0.34168706817E+04 0.  0.
        5    1    3    3  502    0 -0.50945375294E+03  0.11174039893E+04 -0.13289321431E+04  0.18094799066E+04  0.46999998093E+01 0.  1.
       -5    1    3    3    0  502  0.50945375294E+03 -0.11174039893E+04  0.10541078433E+04  0.16184252337E+04  0.46999998093E+01 0. -1.
</event>
<event>
 5   0  0.3061330E-07  0.3530899E+04  0.7818609E-02  0.8106506E-01
       -1   -1    0    0    0  501  0.00000000000E+00  0.00000000000E+00  0.16051973594E+04  0.16051973594E+04  0.50400001928E-02 0. -1.
        1   -1    0    0  501    0  0.00000000000E+00  0.00000000000E+00 -0.19417006288E+04  0.19417006288E+04  0.50400001928E-02 0.  1.
    10030    2    1    2    0    0  0.00000000000E+00  0.00000000000E+00 -0.33650326933E+03  0.35468979882E+04  0.35308994447E+04 0.  0.
        5    1    3    3  502    0  0.44679868160E+03 -0.16233994501E+04 -0.70144454105E+03  0.18240343667E+04  0.46999998093E+01 0. -1.
       -5    1    3    3    0  502 -0.44679868160E+03  0.16233994501E+04  0.36494127172E+03  0.17228636215E+04  0.46999998093E+01 0.  1.
</event>
<event>
 5   0  0.9311672E-07  0.3534801E+04  0.7818609E-02  0.8105592E-01
        2   -1    0    0  501    0  0.00000000000E+00  0.00000000000E+00  0.12304942787E+04  0.12304942787E+04  0.25500000920E-02 0. -1.
       -2   -1    0    0    0  501  0.00000000000E+00  0.00000000000E+00 -0.25385775426E+04  0.25385775426E+04  0.25500000920E-02 0.  1.
    10030    2    1    2    0    0  0.00000000000E+00  0.00000000000E+00 -0.13080832639E+04  0.37690718213E+04  0.35348013479E+04 0.  0.
        4    1    3    3  502    0 -0.62211858653E+03  0.16540486052E+04 -0.62397332355E+03  0.18741004897E+04  0.12699999809E+01 0. -1.
       -4    1    3    3    0  502  0.62211858653E+03 -0.16540486052E+04 -0.68410994038E+03  0.18949713316E+04  0.12699999809E+01 0.  1.
</event>
<event>
 5   0  0.8950809E-07  0.3470496E+04  0.7818609E-02  0.8120818E-01
       -2   -1    0    0    0  501  0.00000000000E+00  0.00000000000E+00  0.19362243328E+04  0.19362243328E+04  0.25500000920E-02 0. -1.
        2   -1    0    0  501    0  0.00000000000E+00  0.00000000000E+00 -0.15551322465E+04  0.15551322465E+04  0.25500000920E-02 0.  1.
    10030    2    1    2    0    0  0.00000000000E+00  0.00000000000E+00  0.38109208625E+03  0.34913565793E+04  0.34704955821E+04 0.  0.
        2    1    3    3  502    0 -0.98786650208E+03 -0.11802059508E+04 -0.61571922955E+03  0.16576720068E+04  0.25500000920E-02 0.  1.
       -2    1    3    3    0  502  0.98786650208E+03  0.11802059508E+04  0.99681131579E+03  0.18336845726E+04  0.25500000920E-02 0. -1.
</event>
<event>
 5   0  0.8845195E-07  0.3558899E+04  0.7818609E-02  0.8099972E-01
        2   -1    0    0  501    0  0.00000000000E+00  0.00000000000E+00  0.12559192611E+04  0.12559192611E+04  0.25500000920E-02 0. -1.
       -2   -1    0    0    0  501  0.00000000000E+00  0.00000000000E+00 -0.25212139344E+04  0.25212139344E+04  0.25500000920E-02 0.  1.
    10030    2    1    2    0    0  0.00000000000E+00  0.00000000000E+00 -0.12652946733E+04  0.37771331955E+04  0.35588993476E+04 0.  0.
        5    1    3    3  502    0  0.13831679613E+04 -0.82807286990E+03 -0.14322104989E+04  0.21564107425E+04  0.46999998093E+01 0.  1.
       -5    1    3    3    0  502 -0.13831679613E+04  0.82807286990E+03  0.16691582558E+03  0.16207224531E+04  0.46999998093E+01 0. -1.
</event>
<event>
 5   0  0.8845195E-07  0.3481097E+04  0.7818609E-02  0.8118284E-01
       -2   -1    0    0    0  501  0.00000000000E+00  0.00000000000E+00  0.15188863491E+04  0.15188863491E+04  0.25500000920E-02 0.  1.
        2   -1    0    0  501    0  0.00000000000E+00  0.00000000000E+00 -0.19945598804E+04  0.19945598804E+04  0.25500000920E-02 0. -1.
    10030    2    1    2    0    0  0.00000000000E+00  0.00000000000E+00 -0.47567353129E+03  0.35134462295E+04  0.34810973987E+04 0.  0.
        5    1    3    3  502    0  0.14727545350E+04  0.90095202453E+03 -0.14951628497E+02  0.17265474543E+04  0.46999998093E+01 0.  1.
       -5    1    3    3    0  502 -0.14727545350E+04 -0.90095202453E+03 -0.46072190279E+03  0.17868987751E+04  0.46999998093E+01 0. -1.
</event>
<event>
 5   0  0.9128871E-07  0.3364852E+04  0.7818609E-02  0.8146587E-01
        2   -1    0    0  501    0  0.00000000000E+00  0.00000000000E+00  0.24435418069E+04  0.24435418069E+04  0.25500000920E-02 0.  1.
       -2   -1    0    0    0  501  0.00000000000E+00  0.00000000000E+00 -0.11583829253E+04  0.11583829253E+04  0.25500000920E-02 0. -1.
    10030    2    1    2    0    0  0.00000000000E+00  0.00000000000E+00  0.12851588816E+04  0.36019247322E+04  0.33648519173E+04 0.  0.
        1    1    3    3  502    0 -0.15034869433E+04  0.12970495628E+03 -0.15364151650E+03  0.15168724666E+04  0.50400001928E-02 0.  1.
       -1    1    3    3    0  502  0.15034869433E+04 -0.12970495628E+03  0.14388003981E+04  0.20850522656E+04  0.50400001928E-02 0. -1.
</event>
<event>
 5   0  0.2933506E-07  0.3439687E+04  0.7818609E-02  0.8128234E-01
       -1   -1    0    0    0  501  0.00000000000E+00  0.00000000000E+00  0.17526029581E+04  0.17526029582E+04  0.50400001928E-02 0. -1.
        1   -1    0    0  501    0  0.00000000000E+00  0.00000000000E+00 -0.16876961125E+04  0.16876961125E+04  0.50400001928E-02 0.  1.
    10030    2    1    2    0    0  0.00000000000E+00  0.00000000000E+00  0.64906845643E+02  0.34402990707E+04  0.34396867295E+04 0.  0.
        4    1    3    3  502    0 -0.66389933064E+03 -0.71829595665E+03  0.14473247051E+04  0.17468433867E+04  0.12699999809E+01 0. -1.
       -4    1    3    3    0  502  0.66389933064E+03  0.71829595665E+03 -0.13824178595E+04  0.16934556840E+04  0.12699999809E+01 0.  1.
</event>
<event>
 5   0  0.3061330E-07  0.3459829E+04  0.7818609E-02  0.8123376E-01
       -1   -1    0    0    0  501  0.00000000000E+00  0.00000000000E+00  0.17387326012E+04  0.17387326012E+04  0.50400001928E-02 0. -1.
        1   -1    0    0  501    0  0.00000000000E+00  0.00000000000E+00 -0.17211415112E+04  0.17211415112E+04  0.50400001928E-02 0.  1.
    10030    2    1    2    0    0  0.00000000000E+00  0.00000000000E+00  0.17591089994E+02  0.34598741125E+04  0.34598293928E+04 0.  0.
        5    1    3    3  502    0 -0.89186723365E+02  0.42682141193E+03 -0.16652786539E+04  0.17214255356E+04  0.46999998093E+01 0.  1.
       -5    1    3    3    0  502  0.89186723365E+02 -0.42682141193E+03  0.16828697439E+04  0.17384485769E+04  0.46999998093E+01 0. -1.
</event>
<event>
 5   0  0.2933506E-07  0.3468492E+04  0.7818609E-02  0.8121298E-01
        1   -1    0    0  501    0  0.00000000000E+00  0.00000000000E+00  0.21417296046E+04  0.21417296046E+04  0.50400001928E-02 0.  1.
       -1   -1    0    0    0  501  0.00000000000E+00  0.00000000000E+00 -0.14042901997E+04  0.14042901997E+04  0.50400001928E-02 0. -1.
    10030    2    1    2    0    0  0.00000000000E+00  0.00000000000E+00  0.73743940485E+03  0.35460198043E+04  0.34684924069E+04 0.  0.
        4    1    3    3  502    0 -0.10710276767E+04  0.55709495208E+03 -0.90416105410E+03  0.15082983440E+04  0.12699999809E+01 0. -1.
       -4    1    3    3    0  502  0.10710276767E+04 -0.55709495208E+03  0.16416004589E+04  0.20377214603E+04  0.12699999809E+01 0.  1.
</event>
<event>
 5   0  0.2972541E-07  0.3429443E+04  0.7818609E-02  0.8130718E-01
       -1   -1    0    0    0  501  0.00000000000E+00  0.00000000000E+00  0.13054951256E+04  0.13054951256E+04  0.50400001928E-02 0.  1.
        1   -1    0    0  501    0  0.00000000000E+00  0.00000000000E+00 -0.22522262948E+04  0.22522262948E+04  0.50400001928E-02 0. -1.
    10030    2    1    2    0    0  0.00000000000E+00  0.00000000000E+00 -0.94673116920E+03  0.35577214204E+04  0.34294433657E+04 0.  0.
        3    1    3    3  502    0 -0.89013161338E+03  0.73830585535E+03  0.84002371159E+03  0.14293598817E+04  0.10100000352E+00 0.  1.
       -3    1    3    3    0  502  0.89013161338E+03 -0.73830585535E+03 -0.17867548808E+04  0.21283615387E+04  0.10100000352E+00 0. -1.
</event>
<event>
 5   0  0.6188930E-07  0.3470427E+04  0.7818609E-02  0.8120834E-01
        2   -1    0    0  501    0  0.00000000000E+00  0.00000000000E+00  0.16332459168E+04  0.16332459168E+04  0.25500000920E-02 0.  1.
       -2   -1    0    0    0  501  0.00000000000E+00  0.00000000000E+00 -0.18435469977E+04  0.18435469977E+04  0.25500000920E-02 0. -1.
    10030    2    1    2    0    0  0.00000000000E+00  0.00000000000E+00 -0.21030108089E+03  0.34767929146E+04  0.34704268363E+04 0.  0.
        3    1    3    3  502    0 -0.45901757770E+03 -0.91926909907E+03 -0.15060047674E+04  0.18231300510E+04  0.10100000352E+00 0. -1.
       -3    1    3    3    0  502  0.45901757770E+03  0.91926909907E+03  0.12957036865E+04  0.16536628636E+04  0.10100000352E+00 0.  1.
</event>
<event>
 5   0  0.9128871E-07  0.3339854E+04  0.7818609E-02  0.8152828E-01
        2   -1    0    0  501    0  0.00000000000E+00  0.00000000000E+00  0.28377254612E+04  0.28377254612E+04  0.25500000920E-02 0. -1.
       -2   -1    0    0    0  501  0.00000000000E+00  0.00000000000E+00 -0.98270829199E+03  0.98270829200E+03  0.25500000920E-02 0.  1.
    10030    2    1    2    0    0  0.00000000000E+00  0.00000000000E+00  0.18550171692E+04  0.38204337532E+04  0.33398540933E+04 0.  0.
        1    1    3    3  502    0 -0.55869602003E+03 -0.85484952366E+02 -0.86997099708E+03  0.10374480496E+04  0.50400001928E-02 0.  1.
       -1    1    3    3    0  502  0.55869602003E+03  0.85484952366E+02  0.27249881663E+04  0.27829857036E+04  0.50400001928E-02 0. -1.
</event>
<event>
 5   0  0.3061330E-07  0.3544546E+04  0.7818609E-02  0.8103314E-01
        1   -1    0    0  501    0  0.00000000000E+00  0.00000000000E+00  0.23202037233E+04  0.23202037233E+04  0.50400001928E-02 0. -1.
       -1   -1    0    0    0  501  0.00000000000E+00  0.00000000000E+00 -0.13537392304E+04  0.13537392304E+04  0.50400001928E-02 0.  1.
    10030    2    1    2    0    0  0.00000000000E+00  0.00000000000E+00  0.96646449285E+03  0.36739429537E+04  0.35445455577E+04 0.  0.
        5    1    3    3  502    0  0.17579594649E+04  0.97239456239E+02  0.69324106328E+03  0.18922162281E+04  0.46999998093E+01 0.  1.
       -5    1    3    3    0  502 -0.17579594649E+04 -0.97239456239E+02  0.27322342957E+03  0.17817267256E+04  0.46999998093E+01 0. -1.
</event>
<event>
 5   0  0.9311672E-07  0.3736124E+04  0.7818609E-02  0.8060003E-01
       -2   -1    0    0    0  501  0.00000000000E+00  0.00000000000E+00  0.15240209210E+04  0.15240209210E+04  0.25500000920E-02 0. -1.
        2   -1    0    0  501    0  0.00000000000E+00  0.00000000000E+00 -0.22897694505E+04  0.22897694505E+04  0.25500000920E-02 0.  1.
    10030    2    1    2    0    0  0.00000000000E+00  0.00000000000E+00 -0.76574852952E+03  0.38137903714E+04  0.37361244876E+04 0.  0.
        4    1    3    3  502    0  0.36959199038E+03 -0.13074055995E+04 -0.16916131452E+04  0.21696691653E+04  0.12699999809E+01 0.  1.
       -4    1    3    3    0  502 -0.36959199038E+03  0.13074055995E+04  0.92586461569E+03  0.16441212061E+04  0.12699999809E+01 0. -1.
</event>
<event>
 5   0  0.2936607E-07  0.3442831E+04  0.7818609E-02  0.8127473E-01
       -1   -1    0    0    0  501  0.00000000000E+00  0.00000000000E+00  0.19267032082E+04  0.19267032082E+04  0.50400001928E-02 0.  1.
        1   -1    0    0  501    0  0.00000000000E+00  0.00000000000E+00 -0.15380011220E+04  0.15380011220E+04  0.50400001928E-02 0. -1.
    10030    2    1    2    0    0  0.00000000000E+00  0.00000000000E+00  0.38870208614E+03  0.34647043302E+04  0.34428312163E+04 0.  0.
        2    1    3    3  502    0  0.11100346398E+03 -0.17130855067E+04  0.32278621617E+03  0.17467611925E+04  0.25500000920E-02 0. -1.
       -2    1    3    3    0  502 -0.11100346398E+03  0.17130855067E+04  0.65915869975E+02  0.17179431377E+04  0.25500000920E-02 0.  1.
</event>
<event>
 5   0  0.6188930E-07  0.3485146E+04  0.7818609E-02  0.8117319E-01
       -2   -1    0    0    0  501  0.00000000000E+00  0.00000000000E+00  0.14013296593E+04  0.14013296593E+04  0.25500000920E-02 0.  1.
        2   -1    0    0  501    0  0.00000000000E+00  0.00000000000E+00 -0.21669132981E+04  0.21669132981E+04  0.25500000920E-02 0. -1.
    10030    2    1    2    0    0  0.00000000000E+00  0.00000000000E+00 -0.76558363873E+03  0.35682429574E+04  0.34851455486E+04 0.  0.
        3    1    3    3  502    0 -0.23884210796E+03 -0.94993323609E+03 -0.18583845358E+04  0.21007169725E+04  0.10100000352E+00 0. -1.
       -3    1    3    3    0  502  0.23884210796E+03  0.94993323609E+03  0.10928008970E+04  0.14675259849E+04  0.10100000352E+00 0.  1.
</event>
<event>
 5   0  0.6188930E-07  0.3480118E+04  0.7818609E-02  0.8118518E-01
        2   -1    0    0  501    0  0.00000000000E+00  0.00000000000E+00  0.23183562962E+04  0.23183562962E+04  0.25500000920E-02 0. -1.
       -2   -1    0    0    0  501  0.00000000000E+00  0.00000000000E+00 -0.13060140602E+04  0.13060140602E+04  0.25500000920E-02 0.  1.
    10030    2    1    2    0    0  0.00000000000E+00  0.00000000000E+00  0.10123422360E+04  0.36243703564E+04  0.34801183425E+04 0.  0.
        3    1    3    3  502    0  0.78491019035E+03  0.20212191787E+03 -0.10974150539E+04  0.13642789625E+04  0.10100000352E+00 0.  1.
       -3    1    3    3    0  502 -0.78491019035E+03 -0.20212191787E+03  0.21097572899E+04  0.22600913940E+04  0.10100000352E+00 0. -1.
</event>
<event>
 5   0  0.6188930E-07  0.3486465E+04  0.7818609E-02  0.8117005E-01
       -2   -1    0    0    0  501  0.00000000000E+00  0.00000000000E+00  0.23582298685E+04  0.23582298685E+04  0.25500000920E-02 0. -1.
        2   -1    0    0  501    0  0.00000000000E+00  0.00000000000E+00 -0.12886192195E+04  0.12886192195E+04  0.25500000920E-02 0.  1.
    10030    2    1    2    0    0  0.00000000000E+00  0.00000000000E+00  0.10696106490E+04  0.36468490880E+04  0.34864654495E+04 0.  0.
        3    1    3    3  502    0 -0.16343931500E+04  0.20097720206E+03  0.11331581350E+04  0.19989197517E+04  0.10100000352E+00 0. -1.
       -3    1    3    3    0  502  0.16343931500E+04 -0.20097720206E+03 -0.63547486052E+02  0.16479293364E+04  0.10100000352E+00 0.  1.
</event>
<event>
 5   0  0.6188930E-07  0.3505550E+04  0.7818609E-02  0.8112476E-01
       -2   -1    0    0    0  501  0.00000000000E+00  0.00000000000E+00  0.14621836810E+04  0.14621836810E+04  0.25500000920E-02 0.  1.
        2   -1    0    0  501    0  0.00000000000E+00  0.00000000000E+00 -0.21011182726E+04  0.21011182726E+04  0.25500000920E-02 0. -1.
    10030    2    1    2    0    0  0.00000000000E+00  0.00000000000E+00 -0.63893459155E+03  0.35633019536E+04  0.35055503705E+04 0.  0.
        3    1    3    3  502    0 -0.54828193803E+03  0.14776621199E+03 -0.20050296698E+04  0.20838886544E+04  0.10100000352E+00 0. -1.
       -3    1    3    3    0  502  0.54828193803E+03 -0.14776621199E+03  0.13660950782E+04  0.14794132992E+04  0.10100000352E+00 0.  1.
</event>
<event>
 5   0  0.8950809E-07  0.3404164E+04  0.7818609E-02  0.8136885E-01
        2   -1    0    0  501    0  0.00000000000E+00  0.00000000000E+00  0.23440544520E+04  0.23440544520E+04  0.25500000920E-02 0. -1.
       -2   -1    0    0    0  501  0.00000000000E+00  0.00000000000E+00 -0.12359285234E+04  0.12359285234E+04  0.25500000920E-02 0.  1.
    10030    2    1    2    0    0  0.00000000000E+00  0.00000000000E+00  0.11081259286E+04  0.35799829754E+04  0.34041643659E+04 0.  0.
        2    1    3    3  502    0 -0.10203079823E+04  0.13563046998E+04  0.41900522366E+03  0.17481865447E+04  0.25500000920E-02 0.  1.
       -2    1    3    3    0  502  0.10203079823E+04 -0.13563046998E+04  0.68912070493E+03  0.18317964307E+04  0.25500000920E-02 0. -1.
</event>
<event>
 5   0  0.8845195E-07  0.3478956E+04  0.7818609E-02  0.8118795E-01
       -2   -1    0    0    0  501  0.00000000000E+00  0.00000000000E+00  0.10340782372E+04  0.10340782372E+04  0.25500000920E-02 0. -1.
        2   -1    0    0  501    0  0.00000000000E+00  0.00000000000E+00 -0.29260678969E+04  0.29260678969E+04  0.25500000920E-02 0.  1.
    10030    2    1    2    0    0  0.00000000000E+00  0.00000000000E+00 -0.18919896597E+04  0.39601461342E+04  0.34789556668E+04 0.  0.
        5    1    3    3  502    0  0.12499660146E+04  0.16788977203E+03  0.41768473230E+03  0.13285648794E+04  0.46999998093E+01 0. -1.
       -5    1    3    3    0  502 -0.12499660146E+04 -0.16788977203E+03 -0.23096743920E+04  0.26315812547E+04  0.46999998093E+01 0.  1.
</event>
<event>
 5   0  0.8950809E-07  0.3502257E+04  0.7818609E-02  0.8113255E-01
       -2   -1    0    0    0  501  0.00000000000E+00  0.00000000000E+00  0.14415394567E+04  0.14415394567E+04  0.25500000920E-02 0. -1.
        2   -1    0    0  501    0  0.00000000000E+00  0.00000000000E+00 -0.21272063515E+04  0.21272063515E+04  0.25500000920E-02 0.  1.
    10030    2    1    2    0    0  0.00000000000E+00  0.00000000000E+00 -0.68566689482E+03  0.35687458082E+04  0.35022574938E+04 0.  0.
        2    1    3    3  502    0  0.12699674738E+04 -0.97432416407E+03  0.38080831152E+03  0.16453388500E+04  0.25500000920E-02 0. -1.
       -2    1    3    3    0  502 -0.12699674738E+04  0.97432416407E+03 -0.10664752063E+04  0.19234069582E+04  0.25500000920E-02 0.  1.
</event>
<event>
 5   0  0.9311672E-07  0.3490237E+04  0.7818609E-02  0.8116108E-01
        2   -1    0    0  501    0  0.00000000000E+00  0.00000000000E+00  0.20092780482E+04  0.20092780482E+04  0.25500000920E-02 0. -1.
       -2   -1    0    0    0  501  0.00000000000E+00  0.00000000000E+00 -0.15156876409E+04  0.15156876409E+04  0.25500000920E-02 0.  1.
    10030    2    1    2    0    0  0.00000000000E+00  0.00000000000E+00  0.49359040733E+03  0.35249656890E+04  0.34902366136E+04 0.  0.
        4    1    3    3  502    0  0.97322305819E+03  0.11765241284E+04  0.11002266428E+04  0.18819862976E+04  0.12699999809E+01 0. -1.
       -4    1    3    3    0  502 -0.97322305819E+03 -0.11765241284E+04 -0.60663623551E+03  0.16429793915E+04  0.12699999809E+01 0.  1.
</event>
<event>
 5   0  0.9128871E-07  0.3636352E+04  0.7818609E-02  0.8082215E-01
        2   -1    0    0  501    0  0.00000000000E+00  0.00000000000E+00  0.10689681234E+04  0.10689681234E+04  0.25500000920E-02 0.  1.
       -2   -1    0    0    0  501  0.00000000000E+00  0.00000000000E+00 -0.30924806326E+04  0.30924806326E+04  0.25500000920E-02 0. -1.
    10030    2    1    2    0    0  0.00000000000E+00  0.00000000000E+00 -0.20235125091E+04  0.41614487560E+04  0.36363515883E+04 0.  0.
        1    1    3    3  502    0  0.82999675887E+03 -0.85291186521E+03 -0.25848035587E+04  0.28456216732E+04  0.50400001928E-02 0. -1.
       -1    1    3    3    0  502 -0.82999675887E+03  0.85291186521E+03  0.56129104957E+03  0.13158270828E+04  0.50400001928E-02 0.  1.
</event>
<event>
 5   0  0.3026332E-07  0.3518121E+04  0.7818609E-02  0.8109509E-01
        1   -1    0    0  501    0  0.00000000000E+00  0.00000000000E+00  0.15760687436E+04  0.15760687436E+04  0.50400001928E-02 0. -1.
       -1   -1    0    0    0  501  0.00000000000E+00  0.00000000000E+00 -0.19632984653E+04  0.19632984653E+04  0.50400001928E-02 0.  1.
    10030    2    1    2    0    0  0.00000000000E+00  0.00000000000E+00 -0.38722972175E+03  0.35393672089E+04  0.35181207174E+04 0.  0.
        1    1    3    3  502    0  0.78566319940E+03  0.11421907535E+04 -0.12829406486E+04  0.18888629088E+04  0.50400001928E-02 0.  1.
       -1    1    3    3    0  502 -0.78566319940E+03 -0.11421907535E+04  0.89571092689E+03  0.16505043001E+04  0.50400001928E-02 0. -1.
</event>
<event>
 5   0  0.2972541E-07  0.3500752E+04  0.7818609E-02  0.8113612E-01
        1   -1    0    0  501    0  0.00000000000E+00  0.00000000000E+00  0.19891418210E+04  0.19891418210E+04  0.50400001928E-02 0. -1.
       -1   -1    0    0    0  501  0.00000000000E+00  0.00000000000E+00 -0.15402706979E+04  0.15402706979E+04  0.50400001928E-02 0.  1.
    10030    2    1    2    0    0  0.00000000000E+00  0.00000000000E+00  0.44887112307E+03  0.35294125190E+04  0.35007524111E+04 0.  0.
        3    1    3    3  502    0 -0.43737749499E+03  0.16297198659E+04  0.69357398304E+03  0.18243713423E+04  0.10100000352E+00 0. -1.
       -3    1    3    3    0  502  0.43737749499E+03 -0.16297198659E+04 -0.24470285996E+03  0.17050411767E+04  0.10100000352E+00 0.  1.
</event>
<event>
 5   0  0.8845195E-07  0.3440438E+04  0.7818609E-02  0.8128052E-01
        2   -1    0    0  501    0  0.00000000000E+00  0.00000000000E+00  0.16184106118E+04  0.16184106118E+04  0.25500000920E-02 0.  1.
       -2   -1    0    0    0  501  0.00000000000E+00  0.00000000000E+00 -0.18284320239E+04  0.18284320239E+04  0.25500000920E-02 0. -1.
    10030    2    1    2    0    0  0.00000000000E+00  0.00000000000E+00 -0.21002141209E+03  0.34468426357E+04  0.34404382224E+04 0.  0.
        5    1    3    3  502    0 -0.15317234911E+03  0.42434315818E+03 -0.17681016640E+04  0.18247560025E+04  0.46999998093E+01 0. -1.
       -5    1    3    3    0  502  0.15317234911E+03 -0.42434315818E+03  0.15580802519E+04  0.16220866332E+04  0.46999998093E+01 0.  1.
</event>
<event>
 5   0  0.3061330E-07  0.3432279E+04  0.7818609E-02  0.8130029E-01
        1   -1    0    0  501    0  0.00000000000E+00  0.00000000000E+00  0.20070675863E+04  0.20070675863E+04  0.50400001928E-02 0.  1.
       -1   -1    0    0    0  501  0.00000000000E+00  0.00000000000E+00 -0.14673816896E+04  0.14673816896E+04  0.50400001928E-02 0. -1.
    10030    2    1    2    0    0  0.00000000000E+00  0.00000000000E+00  0.53968589669E+03  0.34744492760E+04  0.34322786752E+04 0.  0.
        5    1    3    3  502    0 -0.67272580524E+03  0.15565528755E+04  0.53708518289E+03  0.17787353505E+04  0.46999998093E+01 0. -1.
       -5    1    3    3    0  502  0.67272580524E+03 -0.15565528755E+04  0.26007137970E+01  0.16957139255E+04  0.46999998093E+01 0.  1.
</event>
<event>
 5   0  0.9128871E-07  0.3457077E+04  0.7818609E-02  0.8124038E-01
        2   -1    0    0  501    0  0.00000000000E+00  0.00000000000E+00  0.15545592869E+04  0.15545592869E+04  0.25500000920E-02 0. -1.
       -2   -1    0    0    0  501  0.00000000000E+00  0.00000000000E+00 -0.19219892280E+04  0.19219892280E+04  0.25500000920E-02 0.  1.
    10030    2    1    2    0    0  0.00000000000E+00  0.00000000000E+00 -0.36742994103E+03  0.34765485149E+04  0.34570774962E+04 0.  0.
        1    1    3    3  502    0 -0.66411470757E+03  0.51302766465E+03  0.13359548593E+04  0.15776631820E+04  0.50400001928E-02 0. -1.
       -1    1    3    3    0  502  0.66411470757E+03 -0.51302766465E+03 -0.17033848004E+04  0.18988853329E+04  0.50400001928E-02 0.  1.
</event>
<event>
 5   0  0.9311672E-07  0.3315152E+04  0.7818609E-02  0.8159051E-01
        2   -1    0    0  501    0  0.00000000000E+00  0.00000000000E+00  0.18088969776E+04  0.18088969776E+04  0.25500000920E-02 0. -1.
       -2   -1    0    0    0  501  0.00000000000E+00  0.00000000000E+00 -0.15189131794E+04  0.15189131794E+04  0.25500000920E-02 0.  1.
    10030    2    1    2    0    0  0.00000000000E+00  0.00000000000E+00  0.28998379824E+03  0.33278101570E+04  0.33151515557E+04 0.  0.
        4    1    3    3  502    0  0.14034757043E+04 -0.70457894280E+03 -0.38748651300E+03  0.16175051623E+04  0.12699999809E+01 0.  1.
       -4    1    3    3    0  502 -0.14034757043E+04  0.70457894280E+03  0.67747031124E+03  0.17103049947E+04  0.12699999809E+01 0. -1.
</event>
<event>
 5   0  0.2933506E-07  0.3480964E+04  0.7818609E-02  0.8118316E-01
        1   -1    0    0  501    0  0.00000000000E+00  0.00000000000E+00  0.24188452020E+04  0.24188452020E+04  0.50400001928E-02 0. -1.
       -1   -1    0    0    0  501  0.00000000000E+00  0.00000000000E+00 -0.12523650703E+04  0.12523650703E+04  0.50400001928E-02 0.  1.
    10030    2    1    2    0    0  0.00000000000E+00  0.00000000000E+00  0.11664801317E+04  0.36712102723E+04  0.34809637984E+04 0.  0.
        4    1    3    3  502    0 -0.14282718954E+04  0.61062024005E+03 -0.24481931186E+03  0.15724998547E+04  0.12699999809E+01 0.  1.
       -4    1    3    3    0  502  0.14282718954E+04 -0.61062024005E+03  0.14112994436E+04  0.20987104176E+04  0.12699999809E+01 0. -1.
</event>
<event>
 5   0  0.2936607E-07  0.3505174E+04  0.7818609E-02  0.8112565E-01
       -1   -1    0    0    0  501  0.00000000000E+00  0.00000000000E+00  0.23358616843E+04  0.23358616843E+04  0.50400001928E-02 0. -1.
        1   -1    0    0  501    0  0.00000000000E+00  0.00000000000E+00 -0.13149581698E+04  0.13149581698E+04  0.50400001928E-02 0.  1.
    10030    2    1    2    0    0  0.00000000000E+00  0.00000000000E+00  0.10209035145E+04  0.36508198541E+04  0.35051735507E+04 0.  0.
        2    1    3    3  502    0  0.21787528391E+03 -0.14508064573E+04  0.15090666192E+04  0.21046593732E+04  0.25500000920E-02 0. -1.
       -2    1    3    3    0  502 -0.21787528391E+03  0.14508064573E+04 -0.48816310466E+03  0.15461604809E+04  0.25500000920E-02 0.  1.
</event>
<event>
 5   0  0.2936607E-07  0.3059836E+04  0.7818609E-02  0.8226848E-01
       -1   -1    0    0    0  501  0.00000000000E+00  0.00000000000E+00  0.12044304869E+04  0.12044304869E+04  0.50400001928E-02 0. -1.
        1   -1    0    0  501    0  0.00000000000E+00  0.00000000000E+00 -0.19433664822E+04  0.19433664822E+04  0.50400001928E-02 0.  1.
    10030    2    1    2    0    0  0.00000000000E+00  0.00000000000E+00 -0.73893599532E+03  0.31477969691E+04  0.30598364913E+04 0.  0.
        2    1    3    3  502    0 -0.42749007030E+03 -0.83349133495E+03 -0.16138665279E+04  0.18660173459E+04  0.25500000920E-02 0.  1.
       -2    1    3    3    0  502  0.42749007030E+03  0.83349133495E+03  0.87493053254E+03  0.12817796232E+04  0.25500000920E-02 0. -1.
</event>
<event>
 5   0  0.8950809E-07  0.3319356E+04  0.7818609E-02  0.8157988E-01
       -2   -1    0    0    0  501  0.00000000000E+00  0.00000000000E+00  0.91473274881E+03  0.91473274881E+03  0.25500000920E-02 0. -1.
        2   -1    0    0  501    0  0.00000000000E+00  0.00000000000E+00 -0.30112963603E+04  0.30112963603E+04  0.25500000920E-02 0.  1.
    10030    2    1    2    0    0  0.00000000000E+00  0.00000000000E+00 -0.20965636115E+04  0.39260291091E+04  0.33193562009E+04 0.  0.
        2    1    3    3  502    0 -0.27468416607E+03 -0.78805273133E+03 -0.27450711291E+04  0.28691277424E+04  0.25500000920E-02 0.  1.
       -2    1    3    3    0  502  0.27468416607E+03  0.78805273133E+03  0.64850751764E+03  0.10569013667E+04  0.25500000920E-02 0. -1.
</event>
<event>
 5   0  0.2933506E-07  0.2963631E+04  0.7818609E-02  0.8254193E-01
        1   -1    0    0  501    0  0.00000000000E+00  0.00000000000E+00  0.18244481359E+04  0.18244481359E+04  0.50400001928E-02 0.  1.
       -1   -1    0    0    0  501  0.00000000000E+00  0.00000000000E+00 -0.12035292208E+04  0.12035292208E+04  0.50400001928E-02 0. -1.
    10030    2    1    2    0    0  0.00000000000E+00  0.00000000000E+00  0.62091891508E+03  0.30279773567E+04  0.29636306405E+04 0.  0.
        4    1    3    3  502    0 -0.37936007283E+03 -0.12011057589E+04  0.11079225729E+04  0.16775169595E+04  0.12699999809E+01 0.  1.
       -4    1    3    3    0  502  0.37936007283E+03  0.12011057589E+04 -0.48700365783E+03  0.13504603972E+04  0.12699999809E+01 0. -1.
</event>
<event>
 5   0  0.2936607E-07  0.3504077E+04  0.7818609E-02  0.8112824E-01
       -1   -1    0    0    0  501  0.00000000000E+00  0.00000000000E+00  0.17222952572E+04  0.17222952572E+04  0.50400001928E-02 0. -1.
        1   -1    0    0  501    0  0.00000000000E+00  0.00000000000E+00 -0.17822953566E+04  0.17822953566E+04  0.50400001928E-02 0.  1.
    10030    2    1    2    0    0  0.00000000000E+00  0.00000000000E+00 -0.60000099399E+02  0.35045906138E+04  0.35040769624E+04 0.  0.
        2    1    3    3  502    0 -0.64282385136E+03  0.56548492129E+03 -0.15588323596E+04  0.17784695739E+04  0.25500000920E-02 0.  1.
       -2    1    3    3    0  502  0.64282385136E+03 -0.56548492129E+03  0.14988322602E+04  0.17261210399E+04  0.25500000920E-02 0. -1.
</event>
<event>
 5   0  0.2972541E-07  0.3501994E+04  0.7818609E-02  0.8113318E-01
        1   -1    0    0  501    0  0.00000000000E+00  0.00000000000E+00  0.19512528388E+04  0.19512528388E+04  0.50400001928E-02 0.  1.
       -1   -1    0    0    0  501  0.00000000000E+00  0.00000000000E+00 -0.15712932704E+04  0.15712932704E+04  0.50400001928E-02 0. -1.
    10030    2    1    2    0    0  0.00000000000E+00  0.00000000000E+00  0.37995956841E+03  0.35225461092E+04  0.35019939774E+04 0.  0.
        3    1    3    3  502    0  0.17790859412E+03 -0.87055907661E+03  0.17076306135E+04  0.19249745183E+04  0.10100000352E+00 0.  1.
       -3    1    3    3    0  502 -0.17790859412E+03  0.87055907661E+03 -0.13276710451E+04  0.15975715909E+04  0.10100000352E+00 0. -1.
</event>
<event>
 5   0  0.2933506E-07  0.3513928E+04  0.7818609E-02  0.8110497E-01
        1   -1    0    0  501    0  0.00000000000E+00  0.00000000000E+00  0.10511804927E+04  0.10511804927E+04  0.50400001928E-02 0.  1.
       -1   -1    0    0    0  501  0.00000000000E+00  0.00000000000E+00 -0.29366244328E+04  0.29366244328E+04  0.50400001928E-02 0. -1.
    10030    2    1    2    0    0  0.00000000000E+00  0.00000000000E+00 -0.18854439402E+04  0.39878049255E+04  0.35139278980E+04 0.  0.
        4    1    3    3  502    0  0.56720270283E+03  0.14676639654E+04 -0.55525014944E+02  0.15744335685E+04  0.12699999809E+01 0.  1.
       -4    1    3    3    0  502 -0.56720270283E+03 -0.14676639654E+04 -0.18299189252E+04  0.24133713571E+04  0.12699999809E+01 0. -1.
</event>
<event>
 5   0  0.9311672E-07  0.3529950E+04  0.7818609E-02  0.8106729E-01
       -2   -1    0    0    0  501  0.00000000000E+00  0.00000000000E+00  0.25762339913E+04  0.25762339913E+04  0.25500000920E-02 0.  1.
        2   -1    0    0  501    0  0.00000000000E+00  0.00000000000E+00 -0.12091825197E+04  0.12091825198E+04  0.25500000920E-02 0. -1.
    10030    2    1    2    0    0  0.00000000000E+00  0.00000000000E+00  0.13670514715E+04  0.37854165110E+04  0.35299502031E+04 0.  0.
        4    1    3    3  502    0 -0.62289747216E+02 -0.11047338897E+04 -0.79105995945E+03  0.13601817717E+04  0.12699999809E+01 0. -1.
       -4    1    3    3    0  502  0.62289747216E+02  0.11047338897E+04  0.21581114310E+04  0.24252347394E+04  0.12699999809E+01 0.  1.
</event>
<event>
 5   0  0.8950809E-07  0.3548417E+04  0.7818609E-02  0.8102411E-01
        2   -1    0    0  501    0  0.00000000000E+00  0.00000000000E+00  0.25389647650E+04  0.25389647650E+04  0.25500000920E-02 0.  1.
       -2   -1    0    0    0  501  0.00000000000E+00  0.00000000000E+00 -0.12398025446E+04  0.12398025446E+04  0.25500000920E-02 0. -1.
    10030    2    1    2    0    0  0.00000000000E+00  0.00000000000E+00  0.12991622204E+04  0.37787673097E+04  0.35484165350E+04 0.  0.
        2    1    3    3  502    0  0.19679482790E+03 -0.13549696045E+04 -0.55200346187E+03  0.14762718772E+04  0.25500000920E-02 0. -1.
       -2    1    3    3    0  502 -0.19679482790E+03  0.13549696045E+04  0.18511656822E+04  0.23024954325E+04  0.25500000920E-02 0.  1.
</event>
<event>
 5   0  0.6188930E-07  0.3731966E+04  0.7818609E-02  0.8060914E-01
       -2   -1    0    0    0  501  0.00000000000E+00  0.00000000000E+00  0.17574530157E+04  0.17574530158E+04  0.25500000920E-02 0.  1.
        2   -1    0    0  501    0  0.00000000000E+00  0.00000000000E+00 -0.19812150669E+04  0.19812150669E+04  0.25500000920E-02 0. -1.
    10030    2    1    2    0    0  0.00000000000E+00  0.00000000000E+00 -0.22376205115E+03  0.37386680827E+04  0.37319659131E+04 0.  0.
        3    1    3    3  502    0  0.67647051502E+03  0.92860817801E+03  0.13611224111E+04  0.17811736957E+04  0.10100000352E+00 0.  1.
       -3    1    3    3    0  502 -0.67647051502E+03 -0.92860817801E+03 -0.15848844623E+04  0.19574943870E+04  0.10100000352E+00 0. -1.
</event>
<event>
 5   0  0.6188930E-07  0.3390795E+04  0.7818609E-02  0.8140169E-01
       -2   -1    0    0    0  501  0.00000000000E+00  0.00000000000E+00  0.21010756596E+04  0.21010756596E+04  0.25500000920E-02 0.  1.
        2   -1    0    0  501    0  0.00000000000E+00  0.00000000000E+00 -0.13680478554E+04  0.13680478554E+04  0.25500000920E-02 0. -1.
    10030    2    1    2    0    0  0.00000000000E+00  0.00000000000E+00  0.73302780418E+03  0.34691235149E+04  0.33907946267E+04 0.  0.
        3    1    3    3  502    0 -0.20478202649E+03  0.51026941407E+03 -0.12742985745E+04  0.13878571326E+04  0.10100000352E+00 0. -1.
       -3    1    3    3    0  502  0.20478202649E+03 -0.51026941407E+03  0.20073263787E+04  0.20812663823E+04  0.10100000352E+00 0.  1.
</event>
<event>
 5   0  0.9128871E-07  0.3556356E+04  0.7818609E-02  0.8100563E-01
       -2   -1    0    0    0  501  0.00000000000E+00  0.00000000000E+00  0.16586787457E+04  0.16586787457E+04  0.25500000920E-02 0. -1.
        2   -1    0    0  501    0  0.00000000000E+00  0.00000000000E+00 -0.19062866424E+04  0.19062866424E+04  0.25500000920E-02 0.  1.
    10030    2    1    2    0    0  0.00000000000E+00  0.00000000000E+00 -0.24760789676E+03  0.35649653881E+04  0.35563560772E+04 0.  0.
        1    1    3    3  502    0 -0.85815433005E+03 -0.11807688007E+03  0.14328707516E+04  0.16743624442E+04  0.50400001928E-02 0. -1.
       -1    1    3    3    0  502  0.85815433005E+03  0.11807688007E+03 -0.16804786484E+04  0.18906029439E+04  0.50400001928E-02 0.  1.
</event>
<event>
 5   0  0.2972541E-07  0.3493369E+04  0.7818609E-02  0.8115363E-01
        1   -1    0    0  501    0  0.00000000000E+00  0.00000000000E+00  0.20615493816E+04  0.20615493816E+04  0.50400001928E-02 0. -1.
       -1   -1    0    0    0  501  0.00000000000E+00  0.00000000000E+00 -0.14799094407E+04  0.14799094408E+04  0.50400001928E-02 0.  1.
    10030    2    1    2    0    0  0.00000000000E+00  0.00000000000E+00  0.58163994089E+03  0.35414588224E+04  0.34933687996E+04 0.  0.
        3    1    3    3  502    0  0.16049482978E+03 -0.42512144763E+03  0.20005777426E+04  0.20515355590E+04  0.10100000352E+00 0. -1.
       -3    1    3    3    0  502 -0.16049482978E+03  0.42512144763E+03 -0.14189378017E+04  0.14899232634E+04  0.10100000352E+00 0.  1.
</event>
<event>
 5   0  0.3026332E-07  0.3554990E+04  0.7818609E-02  0.8100880E-01
        1   -1    0    0  501    0  0.00000000000E+00  0.00000000000E+00  0.18331482272E+04  0.18331482273E+04  0.50400001928E-02 0. -1.
       -1   -1    0    0    0  501  0.00000000000E+00  0.00000000000E+00 -0.17235314757E+04  0.17235314757E+04  0.50400001928E-02 0.  1.
    10030    2    1    2    0    0  0.00000000000E+00  0.00000000000E+00  0.10961675156E+03  0.35566797030E+04  0.35549901093E+04 0.  0.
        1    1    3    3  502    0  0.14019047168E+04 -0.89884438863E+03 -0.56696153114E+03  0.17591769234E+04  0.50400001928E-02 0.  1.
       -1    1    3    3    0  502 -0.14019047168E+04  0.89884438863E+03  0.67657828269E+03  0.17975027796E+04  0.50400001928E-02 0. -1.
</event>
<event>
 5   0  0.6188930E-07  0.3514276E+04  0.7818609E-02  0.8110415E-01
       -2   -1    0    0    0  501  0.00000000000E+00  0.00000000000E+00  0.12555716073E+04  0.12555716073E+04  0.25500000920E-02 0.  1.
        2   -1    0    0  501    0  0.00000000000E+00  0.00000000000E+00 -0.24590670103E+04  0.24590670103E+04  0.25500000920E-02 0. -1.
    10030    2    1    2    0    0  0.00000000000E+00  0.00000000000E+00 -0.12034954030E+04  0.37146386176E+04  0.35142764368E+04 0.  0.
        3    1    3    3  502    0  0.12940864457E+04  0.78593293381E+03 -0.15443197901E+04  0.21627006103E+04  0.10100000352E+00 0. -1.
       -3    1    3    3    0  502 -0.12940864457E+04 -0.78593293381E+03  0.34082438712E+03  0.15519380073E+04  0.10100000352E+00 0.  1.
</event>
<event>
 5   0  0.2936607E-07  0.3490980E+04  0.7818609E-02  0.8115931E-01
        1   -1    0    0  501    0  0.00000000000E+00  0.00000000000E+00  0.22425227980E+04  0.22425227980E+04  0.50400001928E-02 0.  1.
       -1   -1    0    0    0  501  0.00000000000E+00  0.00000000000E+00 -0.13586196154E+04  0.13586196154E+04  0.50400001928E-02 0. -1.
    10030    2    1    2    0    0  0.00000000000E+00  0.00000000000E+00  0.88390318268E+03  0.36011424134E+04  0.34909800694E+04 0.  0.
        2    1    3    3  502    0  0.13194657063E+04  0.89664564655E+03 -0.28876045448E+03  0.16212173715E+04  0.25500000920E-02 0. -1.
       -2    1    3    3    0  502 -0.13194657063E+04 -0.89664564655E+03  0.11726636372E+04  0.19799250419E+04  0.25500000920E-02 0.  1.
</event>
<event>
 5   0  0.9128871E-07  0.3514522E+04  0.7818609E-02  0.8110357E-01
        2   -1    0    0  501    0  0.00000000000E+00  0.00000000000E+00  0.10100083600E+04  0.10100083600E+04  0.25500000920E-02 0. -1.
       -2   -1    0    0    0  501  0.00000000000E+00  0.00000000000E+00 -0.30573675091E+04  0.30573675091E+04  0.25500000920E-02 0.  1.
    10030    2    1    2    0    0  0.00000000000E+00  0.00000000000E+00 -0.20473591491E+04  0.40673758692E+04  0.35145222969E+04 0.  0.
        1    1    3    3  502    0 -0.14656082831E+04  0.58287219089E+03 -0.12707094313E+03  0.15823699488E+04  0.50400001928E-02 0.  1.
       -1    1    3    3    0  502  0.14656082831E+04 -0.58287219089E+03 -0.19202882059E+04  0.24850059204E+04  0.50400001928E-02 0. -1.
</event>
<event>
 5   0  0.6188930E-07  0.3538265E+04  0.7818609E-02  0.8104781E-01
       -2   -1    0    0    0  501  0.00000000000E+00  0.00000000000E+00  0.31555378015E+04  0.31555378015E+04  0.25500000920E-02 0. -1.
        2   -1    0    0  501    0  0.00000000000E+00  0.00000000000E+00 -0.99185313519E+03  0.99185313519E+03  0.25500000920E-02 0.  1.
    10030    2    1    2    0    0  0.00000000000E+00  0.00000000000E+00  0.21636846663E+04  0.41473909367E+04  0.35382651465E+04 0.  0.
        3    1    3    3  502    0  0.48510293495E+03  0.11773802082E+03  0.30712753251E+04  0.31115782542E+04  0.10100000352E+00 0. -1.
       -3    1    3    3    0  502 -0.48510293495E+03 -0.11773802082E+03 -0.90759065882E+03  0.10358126825E+04  0.10100000352E+00 0.  1.
</event>
<event>
 5   0  0.2907000E-07  0.3434654E+04  0.7818609E-02  0.8129453E-01
       -3   -1    0    0    0  501  0.00000000000E+00  0.00000000000E+00  0.18301815122E+04  0.18301815149E+04  0.10100000352E+00 0.  1.
        3   -1    0    0  501    0  0.00000000000E+00  0.00000000000E+00 -0.16114317244E+04  0.16114317276E+04  0.10100000352E+00 0. -1.
    10030    2    1    2    0    0  0.00000000000E+00  0.00000000000E+00  0.21874978775E+03  0.34416132425E+04  0.34346543118E+04 0.  0.
        1    1    3    3  502    0  0.24197811752E+02 -0.17151869863E+04  0.26985263615E+02  0.17155699160E+04  0.50400001928E-02 0. -1.
       -1    1    3    3    0  502 -0.24197811752E+02  0.17151869863E+04  0.19176452414E+03  0.17260433265E+04  0.50400001928E-02 0.  1.
</event>
<event>
 5   0  0.3026332E-07  0.3525013E+04  0.7818609E-02  0.8107888E-01
       -1   -1    0    0    0  501  0.00000000000E+00  0.00000000000E+00  0.20821422797E+04  0.20821422798E+04  0.50400001928E-02 0. -1.
        1   -1    0    0  501    0  0.00000000000E+00  0.00000000000E+00 -0.14919390344E+04  0.14919390344E+04  0.50400001928E-02 0.  1.
    10030    2    1    2    0    0  0.00000000000E+00  0.00000000000E+00  0.59020324538E+03  0.35740813141E+04  0.35250131020E+04 0.  0.
        1    1    3    3  502    0  0.69801343715E+02 -0.15710199282E+04  0.11020784490E+04  0.19203001719E+04  0.50400001928E-02 0. -1.
       -1    1    3    3    0  502 -0.69801343715E+02  0.15710199282E+04 -0.51187520362E+03  0.16537811422E+04  0.50400001928E-02 0.  1.
</event>
<event>
 5   0  0.6188930E-07  0.3501009E+04  0.7818609E-02  0.8113551E-01
        2   -1    0    0  501    0  0.00000000000E+00  0.00000000000E+00  0.19264030209E+04  0.19264030209E+04  0.25500000920E-02 0.  1.
       -2   -1    0    0    0  501  0.00000000000E+00  0.00000000000E+00 -0.15906668139E+04  0.15906668139E+04  0.25500000920E-02 0. -1.
    10030    2    1    2    0    0  0.00000000000E+00  0.00000000000E+00  0.33573620698E+03  0.35170698348E+04  0.35010086293E+04 0.  0.
        3    1    3    3  502    0  0.20695458596E+03 -0.76729688783E+03 -0.13989957139E+04  0.16089635584E+04  0.10100000352E+00 0. -1.
       -3    1    3    3    0  502 -0.20695458596E+03  0.76729688783E+03  0.17347319208E+04  0.19081062764E+04  0.10100000352E+00 0.  1.
</event>
<event>
 5   0  0.9128871E-07  0.3370872E+04  0.7818609E-02  0.8145092E-01
        2   -1    0    0  501    0  0.00000000000E+00  0.00000000000E+00  0.15706977611E+04  0.15706977611E+04  0.25500000920E-02 0. -1.
       -2   -1    0    0    0  501  0.00000000000E+00  0.00000000000E+00 -0.18085561496E+04  0.18085561496E+04  0.25500000920E-02 0.  1.
    10030    2    1    2    0    0  0.00000000000E+00  0.00000000000E+00 -0.23785838847E+03  0.33792539107E+04  0.33708723471E+04 0.  0.
        1    1    3    3  502    0 -0.27918969423E+03  0.15959735494E+04 -0.58442916162E+03  0.17223924933E+04  0.50400001928E-02 0.  1.
       -1    1    3    3    0  502  0.27918969423E+03 -0.15959735494E+04  0.34657077315E+03  0.16568614175E+04  0.50400001928E-02 0. -1.
</event>
<event>
 5   0  0.2936607E-07  0.3496171E+04  0.7818609E-02  0.8114698E-01
       -1   -1    0    0    0  501  0.00000000000E+00  0.00000000000E+00  0.22381273323E+04  0.22381273323E+04  0.50400001928E-02 0.  1.
        1   -1    0    0  501    0  0.00000000000E+00  0.00000000000E+00 -0.13653392111E+04  0.13653392111E+04  0.50400001928E-02 0. -1.
    10030    2    1    2    0    0  0.00000000000E+00  0.00000000000E+00  0.87278812117E+03  0.36034665434E+04  0.34961710520E+04 0.  0.
        2    1    3    3  502    0 -0.53660244122E+03 -0.51721083753E+03  0.20661724407E+04  0.21964784964E+04  0.25500000920E-02 0.  1.
       -2    1    3    3    0  502  0.53660244122E+03  0.51721083753E+03 -0.11933843195E+04  0.14069880470E+04  0.25500000920E-02 0. -1.
</event>
<event>
 5   0  0.9311672E-07  0.3505880E+04  0.7818609E-02  0.8112398E-01
       -2   -1    0    0    0  501  0.00000000000E+00  0.00000000000E+00  0.10387794680E+04  0.10387794680E+04  0.25500000920E-02 0. -1.
        2   -1    0    0  501    0  0.00000000000E+00  0.00000000000E+00 -0.29580864448E+04  0.29580864448E+04  0.25500000920E-02 0.  1.
    10030    2    1    2    0    0  0.00000000000E+00  0.00000000000E+00 -0.19193069769E+04  0.39968659128E+04  0.35058804676E+04 0.  0.
        4    1    3    3  502    0 -0.10508521243E+04 -0.79900410501E+02 -0.25565826561E+04  0.27652831235E+04  0.12699999809E+01 0.  1.
       -4    1    3    3    0  502  0.10508521243E+04  0.79900410501E+02  0.63727567918E+03  0.12315827893E+04  0.12699999809E+01 0. -1.
</event>
<event>
 5   0  0.8950809E-07  0.3499009E+04  0.7818609E-02  0.8114025E-01
       -2   -1    0    0    0  501  0.00000000000E+00  0.00000000000E+00  0.12100933004E+04  0.12100933004E+04  0.25500000920E-02 0.  1.
        2   -1    0    0  501    0  0.00000000000E+00  0.00000000000E+00 -0.25293635772E+04  0.25293635772E+04  0.25500000920E-02 0. -1.
    10030    2    1    2    0    0  0.00000000000E+00  0.00000000000E+00 -0.13192702768E+04  0.37394568777E+04  0.34990089563E+04 0.  0.
        2    1    3    3  502    0 -0.14330598342E+04  0.33528392325E+03  0.35124530888E+03  0.15130925499E+04  0.25500000920E-02 0.  1.
       -2    1    3    3    0  502  0.14330598342E+04 -0.33528392325E+03 -0.16705155857E+04  0.22263643277E+04  0.25500000920E-02 0. -1.
</event>
<event>
 5   0  0.2972541E-07  0.3460065E+04  0.7818609E-02  0.8123320E-01
        1   -1    0    0  501    0  0.00000000000E+00  0.00000000000E+00  0.20570689190E+04  0.20570689190E+04  0.50400001928E-02 0.  1.
       -1   -1    0    0    0  501  0.00000000000E+00  0.00000000000E+00 -0.14549890674E+04  0.14549890674E+04  0.50400001928E-02 0. -1.
    10030    2    1    2    0    0  0.00000000000E+00  0.00000000000E+00  0.60207985166E+03  0.35120579864E+04  0.34600651948E+04 0.  0.
        3    1    3    3  502    0 -0.14713680291E+04  0.87112447655E+03  0.33968241092E+02  0.17102443049E+04  0.10100000352E+00 0.  1.
       -3    1    3    3    0  502  0.14713680291E+04 -0.87112447655E+03  0.56811161057E+03  0.18018136815E+04  0.10100000352E+00 0. -1.
</event>
<event>
 5   0  0.2936607E-07  0.3492818E+04  0.7818609E-02  0.8115494E-01
       -1   -1    0    0    0  501  0.00000000000E+00  0.00000000000E+00  0.16814190634E+04  0.16814190634E+04  0.50400001928E-02 0.  1.
        1   -1    0    0  501    0  0.00000000000E+00  0.00000000000E+00 -0.18139113987E+04  0.18139113987E+04  0.50400001928E-02 0. -1.
    10030    2    1    2    0    0  0.00000000000E+00  0.00000000000E+00 -0.13249233528E+03  0.34953304620E+04  0.34928184637E+04 0.  0.
        2    1    3    3  502    0 -0.62137653784E+03 -0.10934999056E+04  0.11462746756E+04  0.17017039922E+04  0.25500000920E-02 0.  1.
       -2    1    3    3    0  502  0.62137653784E+03  0.10934999056E+04 -0.12787670109E+04  0.17936264698E+04  0.25500000920E-02 0. -1.
</event>
<event>
 5   0  0.3061330E-07  0.3490393E+04  0.7818609E-02  0.8116070E-01
       -1   -1    0    0    0  501  0.00000000000E+00  0.00000000000E+00  0.17902863336E+04  0.17902863336E+04  0.50400001928E-02 0.  1.
        1   -1    0    0  501    0  0.00000000000E+00  0.00000000000E+00 -0.17012426876E+04  0.17012426876E+04  0.50400001928E-02 0. -1.
    10030    2    1    2    0    0  0.00000000000E+00  0.00000000000E+00  0.89043646077E+02  0.34915290212E+04  0.34903934069E+04 0.  0.
        5    1    3    3  502    0 -0.69893327679E+03  0.82880133922E+03 -0.13235012970E+04  0.17108761377E+04  0.46999998093E+01 0. -1.
       -5    1    3    3    0  502  0.69893327679E+03 -0.82880133922E+03  0.14125449431E+04  0.17806528835E+04  0.46999998093E+01 0.  1.
</event>
<event>
 5   0  0.2933506E-07  0.3472412E+04  0.7818609E-02  0.8120359E-01
        1   -1    0    0  501    0  0.00000000000E+00  0.00000000000E+00  0.25394555464E+04  0.25394555464E+04  0.50400001928E-02 0.  1.
       -1   -1    0    0    0  501  0.00000000000E+00  0.00000000000E+00 -0.11870307660E+04  0.11870307660E+04  0.50400001928E-02 0. -1.
    10030    2    1    2    0    0  0.00000000000E+00  0.00000000000E+00  0.13524247804E+04  0.37264863124E+04  0.34724123387E+04 0.  0.
        4    1    3    3  502    0  0.87481167436E+03 -0.12204014656E+03  0.22803118889E+04  0.24454065483E+04  0.12699999809E+01 0.  1.
       -4    1    3    3    0  502 -0.87481167436E+03  0.12204014656E+03 -0.92788710852E+03  0.12810797641E+04  0.12699999809E+01 0. -1.
</event>
<event>
 5   0  0.3026332E-07  0.3492043E+04  0.7818609E-02  0.8115678E-01
        1   -1    0    0  501    0  0.00000000000E+00  0.00000000000E+00  0.25615819196E+04  0.25615819196E+04  0.50400001928E-02 0. -1.
       -1   -1    0    0    0  501  0.00000000000E+00  0.00000000000E+00 -0.11901204824E+04  0.11901204824E+04  0.50400001928E-02 0.  1.
    10030    2    1    2    0    0  0.00000000000E+00  0.00000000000E+00  0.13714614372E+04  0.37517024020E+04  0.34920430180E+04 0.  0.
        1    1    3    3  502    0 -0.69416572955E+03  0.11916415689E+04 -0.46474278971E+03  0.14552874456E+04  0.50400001928E-02 0.  1.
       -1    1    3    3    0  502  0.69416572955E+03 -0.11916415689E+04  0.18362042270E+04  0.22964149564E+04  0.50400001928E-02 0. -1.
</event>
<event>
 5   0  0.8845195E-07  0.3518032E+04  0.7818609E-02  0.8109530E-01
        2   -1    0    0  501    0  0.00000000000E+00  0.00000000000E+00  0.19045564903E+04  0.19045564903E+04  0.25500000920E-02 0. -1.
       -2   -1    0    0    0  501  0.00000000000E+00  0.00000000000E+00 -0.16245976100E+04  0.16245976100E+04  0.25500000920E-02 0.  1.
    10030    2    1    2    0    0  0.00000000000E+00  0.00000000000E+00  0.27995888033E+03  0.35291541003E+04  0.35180323604E+04 0.  0.
        5    1    3    3  502    0  0.17381812433E+04  0.56811657248E+02 -0.12469976040E+03  0.17435807177E+04  0.46999998093E+01 0.  1.
       -5    1    3    3    0  502 -0.17381812433E+04 -0.56811657248E+02  0.40465864073E+03  0.17855733826E+04  0.46999998093E+01 0. -1.
</event>
<event>
 5   0  0.2933506E-07  0.3527002E+04  0.7818609E-02  0.8107421E-01
        1   -1    0    0  501    0  0.00000000000E+00  0.00000000000E+00  0.30051881979E+04  0.30051881979E+04  0.50400001928E-02 0.  1.
       -1   -1    0    0    0  501  0.00000000000E+00  0.00000000000E+00 -0.10348554865E+04  0.10348554865E+04  0.50400001928E-02 0. -1.
    10030    2    1    2    0    0  0.00000000000E+00  0.00000000000E+00  0.19703327114E+04  0.40400436844E+04  0.35270018399E+04 0.  0.
        4    1    3    3  502    0  0.29190649737E+03 -0.12213255666E+03  0.29724038811E+04  0.29891992589E+04  0.12699999809E+01 0.  1.
       -4    1    3    3    0  502 -0.29190649737E+03  0.12213255666E+03 -0.10020711697E+04  0.10508444255E+04  0.12699999809E+01 0. -1.
</event>
<event>
 5   0  0.8845195E-07  0.3418878E+04  0.7818609E-02  0.8133288E-01
        2   -1    0    0  501    0  0.00000000000E+00  0.00000000000E+00  0.22741353558E+04  0.22741353558E+04  0.25500000920E-02 0. -1.
       -2   -1    0    0    0  501  0.00000000000E+00  0.00000000000E+00 -0.12849639658E+04  0.12849639658E+04  0.25500000920E-02 0.  1.
    10030    2    1    2    0    0  0.00000000000E+00  0.00000000000E+00  0.98917139002E+03  0.35590993215E+04  0.34188781701E+04 0.  0.
        5    1    3    3  502    0  0.40150172869E+03  0.16512847846E+04  0.30202679536E+03  0.17260322573E+04  0.46999998093E+01 0. -1.
       -5    1    3    3    0  502 -0.40150172869E+03 -0.16512847846E+04  0.68714459465E+03  0.18330670643E+04  0.46999998093E+01 0.  1.
</event>
<event>
 5   0  0.6188930E-07  0.3481421E+04  0.7818609E-02  0.8118207E-01
        2   -1    0    0  501    0  0.00000000000E+00  0.00000000000E+00  0.25078410718E+04  0.25078410718E+04  0.25500000920E-02 0. -1.
       -2   -1    0    0    0  501  0.00000000000E+00  0.00000000000E+00 -0.12082393563E+04  0.12082393563E+04  0.25500000920E-02 0.  1.
    10030    2    1    2    0    0  0.00000000000E+00  0.00000000000E+00  0.12996017155E+04  0.37160804280E+04  0.34814205619E+04 0.  0.
        3    1    3    3  502    0 -0.27490941244E+03 -0.14041015198E+04  0.17080903701E+04  0.22281492287E+04  0.10100000352E+00 0.  1.
       -3    1    3    3    0  502  0.27490941244E+03  0.14041015198E+04 -0.40848865457E+03  0.14879311993E+04  0.10100000352E+00 0. -1.
</event>
<event>
 5   0  0.6188930E-07  0.3591784E+04  0.7818609E-02  0.8092376E-01
       -2   -1    0    0    0  501  0.00000000000E+00  0.00000000000E+00  0.17220539041E+04  0.17220539042E+04  0.25500000920E-02 0. -1.
        2   -1    0    0  501    0  0.00000000000E+00  0.00000000000E+00 -0.18728965400E+04  0.18728965400E+04  0.25500000920E-02 0.  1.
    10030    2    1    2    0    0  0.00000000000E+00  0.00000000000E+00 -0.15084263580E+03  0.35949504441E+04  0.35917844026E+04 0.  0.
        3    1    3    3  502    0  0.17274439066E+04  0.17327227747E+03  0.38448677235E+03  0.17781776685E+04  0.10100000352E+00 0. -1.
       -3    1    3    3    0  502 -0.17274439066E+04 -0.17327227747E+03 -0.53532940816E+03  0.18167727756E+04  0.10100000352E+00 0.  1.
</event>
<event>
 5   0  0.3061330E-07  0.3454229E+04  0.7818609E-02  0.8124723E-01
        1   -1    0    0  501    0  0.00000000000E+00  0.00000000000E+00  0.20673575673E+04  0.20673575673E+04  0.50400001928E-02 0.  1.
       -1   -1    0    0    0  501  0.00000000000E+00  0.00000000000E+00 -0.14428684757E+04  0.14428684757E+04  0.50400001928E-02 0. -1.
    10030    2    1    2    0    0  0.00000000000E+00  0.00000000000E+00  0.62448909161E+03  0.35102260430E+04  0.34542293276E+04 0.  0.
        5    1    3    3  502    0  0.15362037421E+03 -0.69669245198E+03 -0.12861244225E+04  0.14707541304E+04  0.46999998093E+01 0. -1.
       -5    1    3    3    0  502 -0.15362037421E+03  0.69669245198E+03  0.19106135141E+04  0.20394719126E+04  0.46999998093E+01 0.  1.
</event>
<event>
 5   0  0.8845195E-07  0.3520020E+04  0.7818609E-02  0.8109062E-01
       -2   -1    0    0    0  501  0.00000000000E+00  0.00000000000E+00  0.30716296146E+04  0.30716296146E+04  0.25500000920E-02 0. -1.
        2   -1    0    0  501    0  0.00000000000E+00  0.00000000000E+00 -0.10084664096E+04  0.10084664096E+04  0.25500000920E-02 0.  1.
    10030    2    1    2    0    0  0.00000000000E+00  0.00000000000E+00  0.20631632049E+04  0.40800960242E+04  0.35200200506E+04 0.  0.
        5    1    3    3  502    0 -0.79208360120E+03 -0.81202336714E+03  0.25913663357E+04  0.28287771131E+04  0.46999998093E+01 0. -1.
       -5    1    3    3    0  502  0.79208360120E+03  0.81202336714E+03 -0.52820313070E+03  0.12513189111E+04  0.46999998093E+01 0.  1.
</event>
<event>
 5   0  0.6188930E-07  0.3483533E+04  0.7818609E-02  0.8117704E-01
       -2   -1    0    0    0  501  0.00000000000E+00  0.00000000000E+00  0.18394373542E+04  0.18394373542E+04  0.25500000920E-02 0. -1.
        2   -1    0    0  501    0  0.00000000000E+00  0.00000000000E+00 -0.16492817031E+04  0.16492817031E+04  0.25500000920E-02 0.  1.
    10030    2    1    2    0    0  0.00000000000E+00  0.00000000000E+00  0.19015565110E+03  0.34887190572E+04  0.34835329033E+04 0.  0.
        3    1    3    3  502    0  0.65968804401E+03  0.64074397240E+03  0.15764720712E+04  0.18251042039E+04  0.10100000352E+00 0. -1.
       -3    1    3    3    0  502 -0.65968804401E+03 -0.64074397240E+03 -0.13863164201E+04  0.16636148534E+04  0.10100000352E+00 0.  1.
</event>
<event>
 5   0  0.3026332E-07  0.3554555E+04  0.7818609E-02  0.8100981E-01
       -1   -1    0    0    0  501  0.00000000000E+00  0.00000000000E+00  0.18935472344E+04  0.18935472344E+04  0.50400001928E-02 0.  1.
        1   -1    0    0  501    0  0.00000000000E+00  0.00000000000E+00 -0.16681473447E+04  0.16681473447E+04  0.50400001928E-02 0. -1.
    10030    2    1    2    0    0  0.00000000000E+00  0.00000000000E+00  0.22539988967E+03  0.35616945791E+04  0.35545552696E+04 0.  0.
        1    1    3    3  502    0  0.17102691893E+04  0.20459657450E+02 -0.37125718583E+03  0.17502203277E+04  0.50400001928E-02 0. -1.
       -1    1    3    3    0  502 -0.17102691893E+04 -0.20459657450E+02  0.59665707550E+03  0.18114742514E+04  0.50400001928E-02 0.  1.
</event>
<event>
 5   0  0.2972541E-07  0.3474543E+04  0.7818609E-02  0.8119850E-01
       -1   -1    0    0    0  501  0.00000000000E+00  0.00000000000E+00  0.13013224385E+04  0.13013224385E+04  0.50400001928E-02 0.  1.
        1   -1    0    0  501    0  0.00000000000E+00  0.00000000000E+00 -0.23192657407E+04  0.23192657407E+04  0.50400001928E-02 0. -1.
    10030    2    1    2    0    0  0.00000000000E+00  0.00000000000E+00 -0.10179433022E+04  0.36205881792E+04  0.34745431638E+04 0.  0.
        3    1    3    3  502    0  0.96277661949E+03 -0.11475577439E+04 -0.14258924525E+04  0.20680901554E+04  0.10100000352E+00 0.  1.
       -3    1    3    3    0  502 -0.96277661949E+03  0.11475577439E+04  0.40794915027E+03  0.15524980238E+04  0.10100000352E+00 0. -1.
</event>
<event>
 5   0  0.2936607E-07  0.3487267E+04  0.7818609E-02  0.8116814E-01
       -1   -1    0    0    0  501  0.00000000000E+00  0.00000000000E+00  0.13426937518E+04  0.13426937518E+04  0.50400001928E-02 0.  1.
        1   -1    0    0  501    0  0.00000000000E+00  0.00000000000E+00 -0.22642972319E+04  0.22642972320E+04  0.50400001928E-02 0. -1.
    10030    2    1    2    0    0  0.00000000000E+00  0.00000000000E+00 -0.92160348017E+03  0.36069909837E+04  0.34872669789E+04 0.  0.
        2    1    3    3  502    0  0.20421666309E+03 -0.17308340789E+04 -0.51520691526E+03  0.18173962748E+04  0.25500000920E-02 0.  1.
       -2    1    3    3    0  502 -0.20421666309E+03  0.17308340789E+04 -0.40639656491E+03  0.17895947089E+04  0.25500000920E-02 0. -1.
</event>
<event>
 5   0  0.2907000E-07  0.3525635E+04  0.7818609E-02  0.8107742E-01
        3   -1    0    0  501    0  0.00000000000E+00  0.00000000000E+00  0.22213570468E+04  0.22213570491E+04  0.10100000352E+00 0. -1.
       -3   -1    0    0    0  501  0.00000000000E+00  0.00000000000E+00 -0.13989308044E+04  0.13989308080E+04  0.10100000352E+00 0.  1.
    10030    2    1    2    0    0  0.00000000000E+00  0.00000000000E+00  0.82242624248E+03  0.36202878571E+04  0.35256345875E+04 0.  0.
        1    1    3    3  502    0 -0.12198971520E+03  0.40515016496E+03  0.21684413544E+04  0.22093361116E+04  0.50400001928E-02 0. -1.
       -1    1    3    3    0  502  0.12198971520E+03 -0.40515016496E+03 -0.13460151119E+04  0.14109517455E+04  0.50400001928E-02 0.  1.
</event>
<event>
 5   0  0.9128871E-07  0.3471362E+04  0.7818609E-02  0.8120611E-01
       -2   -1    0    0    0  501  0.00000000000E+00  0.00000000000E+00  0.16494120530E+04  0.16494120530E+04  0.25500000920E-02 0.  1.
        2   -1    0    0  501    0  0.00000000000E+00  0.00000000000E+00 -0.18264618950E+04  0.18264618950E+04  0.25500000920E-02 0. -1.
    10030    2    1    2    0    0  0.00000000000E+00  0.00000000000E+00 -0.17704984202E+03  0.34758739480E+04  0.34713618446E+04 0.  0.
        1    1    3    3  502    0  0.74898184277E+03  0.44044160931E+03 -0.15930176679E+04  0.18145709967E+04  0.50400001928E-02 0. -1.
       -1    1    3    3    0  502 -0.74898184277E+03 -0.44044160931E+03  0.14159678259E+04  0.16613029513E+04  0.50400001928E-02 0.  1.
</event>
<event>
 5   0  0.8845195E-07  0.3473075E+04  0.7818609E-02  0.8120201E-01
        2   -1    0    0  501    0  0.00000000000E+00  0.00000000000E+00  0.16415863271E+04  0.16415863271E+04  0.25500000920E-02 0.  1.
       -2   -1    0    0    0  501  0.00000000000E+00  0.00000000000E+00 -0.18369805198E+04  0.18369805198E+04  0.25500000920E-02 0. -1.
    10030    2    1    2    0    0  0.00000000000E+00  0.00000000000E+00 -0.19539419266E+03  0.34785668469E+04  0.34730747787E+04 0.  0.
        5    1    3    3  502    0  0.12223947612E+04 -0.78904456921E+03 -0.10471939391E+04  0.17926175053E+04  0.46999998093E+01 0. -1.
       -5    1    3    3    0  502 -0.12223947612E+04  0.78904456921E+03  0.85179974647E+03  0.16859493416E+04  0.46999998093E+01 0.  1.
</event>
<event>
 5   0  0.8950809E-07  0.3539843E+04  0.7818609E-02  0.8104412E-01
        2   -1    0    0  501    0  0.00000000000E+00  0.00000000000E+00  0.13836806823E+04  0.13836806823E+04  0.25500000920E-02 0.  1.
       -2   -1    0    0    0  501  0.00000000000E+00  0.00000000000E+00 -0.22639782542E+04  0.22639782542E+04  0.25500000920E-02 0. -1.
    10030    2    1    2    0    0  0.00000000000E+00  0.00000000000E+00 -0.88029757186E+03  0.36476589365E+04  0.35398434855E+04 0.  0.
        2    1    3    3  502    0 -0.15772450556E+04  0.51958685305E+03 -0.10711310321E+04  0.19761058046E+04  0.25500000920E-02 0. -1.
       -2    1    3    3    0  502  0.15772450556E+04 -0.51958685305E+03  0.19083346020E+03  0.16715531319E+04  0.25500000920E-02 0.  1.
</event>
<event>
 5   0  0.6188930E-07  0.3414462E+04  0.7818609E-02  0.8134366E-01
        2   -1    0    0  501    0  0.00000000000E+00  0.00000000000E+00  0.10255773249E+04  0.10255773249E+04  0.25500000920E-02 0.  1.
       -2   -1    0    0    0  501  0.00000000000E+00  0.00000000000E+00 -0.28419488210E+04  0.28419488210E+04  0.25500000920E-02 0. -1.
    10030    2    1    2    0    0  0.00000000000E+00  0.00000000000E+00 -0.18163714961E+04  0.38675261460E+04  0.34144623410E+04 0.  0.
        3    1    3    3  502    0 -0.14238989394E+03 -0.16593184752E+04 -0.13335489055E+04  0.21335335427E+04  0.10100000352E+00 0.  1.
       -3    1    3    3    0  502  0.14238989394E+03  0.16593184752E+04 -0.48282259056E+03  0.17339926033E+04  0.10100000352E+00 0. -1.
</event>
<event>
 5   0  0.2936607E-07  0.3482491E+04  0.7818609E-02  0.8117952E-01
        1   -1    0    0  501    0  0.00000000000E+00  0.00000000000E+00  0.23354055444E+04  0.23354055444E+04  0.50400001928E-02 0. -1.
       -1   -1    0    0    0  501  0.00000000000E+00  0.00000000000E+00 -0.12982482491E+04  0.12982482492E+04  0.50400001928E-02 0.  1.
    10030    2    1    2    0    0  0.00000000000E+00  0.00000000000E+00  0.10371572952E+04  0.36336537935E+04  0.34824911538E+04 0.  0.
        2    1    3    3  502    0  0.63584968867E+03 -0.16785708188E+03 -0.11636874936E+04  0.13366560550E+04  0.25500000920E-02 0.  1.
       -2    1    3    3    0  502 -0.63584968867E+03  0.16785708188E+03  0.22008447888E+04  0.22969977386E+04  0.25500000920E-02 0. -1.
</event>
<event>
 5   0  0.3026332E-07  0.3627495E+04  0.7818609E-02  0.8084222E-01
        1   -1    0    0  501    0  0.00000000000E+00  0.00000000000E+00  0.18322675442E+04  0.18322675442E+04  0.50400001928E-02 0.  1.
       -1   -1    0    0    0  501  0.00000000000E+00  0.00000000000E+00 -0.17954149343E+04  0.17954149343E+04  0.50400001928E-02 0. -1.
    10030    2    1    2    0    0  0.00000000000E+00  0.00000000000E+00  0.36852609893E+02  0.36276824785E+04  0.36274952860E+04 0.  0.
        1    1    3    3  502    0  0.21389684847E+03 -0.17540855053E+04 -0.39038898153E+03  0.18096881993E+04  0.50400001928E-02 0. -1.
       -1    1    3    3    0  502 -0.21389684847E+03  0.17540855053E+04  0.42724159142E+03  0.18179942792E+04  0.50400001928E-02 0.  1.
</event>
<event>
 5   0  0.6188930E-07  0.3504831E+04  0.7818609E-02  0.8112646E-01
        2   -1    0    0  501    0  0.00000000000E+00  0.00000000000E+00  0.19056488271E+04  0.19056488271E+04  0.25500000920E-02 0. -1.
       -2   -1    0    0    0  501  0.00000000000E+00  0.00000000000E+00 -0.16115039929E+04  0.16115039929E+04  0.25500000920E-02 0.  1.
    10030    2    1    2    0    0  0.00000000000E+00  0.00000000000E+00  0.29414483414E+03  0.35171528200E+04  0.35048313477E+04 0.  0.
        3    1    3    3  502    0 -0.62684389915E+03 -0.12866577075E+04 -0.86768942899E+03  0.16737103350E+04  0.10100000352E+00 0.  1.
       -3    1    3    3    0  502  0.62684389915E+03  0.12866577075E+04  0.11618342631E+04  0.18434424850E+04  0.10100000352E+00 0. -1.
</event>
<event>
 5   0  0.6188930E-07  0.3533721E+04  0.7818609E-02  0.8105845E-01
       -2   -1    0    0    0  501  0.00000000000E+00  0.00000000000E+00  0.12618663644E+04  0.12618663644E+04  0.25500000920E-02 0. -1.
        2   -1    0    0  501    0  0.00000000000E+00  0.00000000000E+00 -0.24739507257E+04  0.24739507257E+04  0.25500000920E-02 0.  1.
    10030    2    1    2    0    0  0.00000000000E+00  0.00000000000E+00 -0.12120843612E+04  0.37358170901E+04  0.35337205368E+04 0.  0.
        3    1    3    3  502    0  0.11899056623E+04  0.61969634932E+03  0.60944972889E+03  0.14735426810E+04  0.10100000352E+00 0. -1.
       -3    1    3    3    0  502 -0.11899056623E+04 -0.61969634932E+03 -0.18215340901E+04  0.22622744091E+04  0.10100000352E+00 0.  1.
</event>
<event>
 5   0  0.2972541E-07  0.3372777E+04  0.7818609E-02  0.8144620E-01
       -1   -1    0    0    0  501  0.00000000000E+00  0.00000000000E+00  0.17261163769E+04  0.17261163769E+04  0.50400001928E-02 0.  1.
        1   -1    0    0  501    0  0.00000000000E+00  0.00000000000E+00 -0.16475748106E+04  0.16475748106E+04  0.50400001928E-02 0. -1.
    10030    2    1    2    0    0  0.00000000000E+00  0.00000000000E+00  0.78541566280E+02  0.33736911875E+04  0.33727768161E+04 0.  0.
        3    1    3    3  502    0  0.59947944068E+03  0.11491006332E+04  0.11184970129E+04  0.17119706315E+04  0.10100000352E+00 0.  1.
       -3    1    3    3    0  502 -0.59947944068E+03 -0.11491006332E+04 -0.10399554466E+04  0.16617205560E+04  0.10100000352E+00 0. -1.
</event>
<event>
 5   0  0.2936607E-07  0.3478346E+04  0.7818609E-02  0.8118941E-01
       -1   -1    0    0    0  501  0.00000000000E+00  0.00000000000E+00  0.21680992720E+04  0.21680992720E+04  0.50400001928E-02 0.  1.
        1   -1    0    0  501    0  0.00000000000E+00  0.00000000000E+00 -0.13951030502E+04  0.13951030502E+04  0.50400001928E-02 0. -1.
    10030    2    1    2    0    0  0.00000000000E+00  0.00000000000E+00  0.77299622183E+03  0.35632023222E+04  0.34783455306E+04 0.  0.
        2    1    3    3  502    0  0.12057935628E+03  0.17308285149E+04  0.26350585434E+03  0.17549193898E+04  0.25500000920E-02 0.  1.
       -2    1    3    3    0  502 -0.12057935628E+03 -0.17308285149E+04  0.50949036750E+03  0.18082829325E+04  0.25500000920E-02 0. -1.
</event>
<event>
 5   0  0.2936607E-07  0.3490740E+04  0.7818609E-02  0.8115988E-01
       -1   -1    0    0    0  501  0.00000000000E+00  0.00000000000E+00  0.13257492953E+04  0.13257492953E+04  0.50400001928E-02 0.  1.
        1   -1    0    0  501    0  0.00000000000E+00  0.00000000000E+00 -0.22978069873E+04  0.22978069873E+04  0.50400001928E-02 0. -1.
    10030    2    1    2    0    0  0.00000000000E+00  0.00000000000E+00 -0.97205769194E+03  0.36235562826E+04  0.34907397463E+04 0.  0.
        2    1    3    3  502    0 -0.47005808716E+02  0.70873586275E+03 -0.21409915903E+04  0.22557395814E+04  0.25500000920E-02 0. -1.
       -2    1    3    3    0  502  0.47005808716E+02 -0.70873586275E+03  0.11689338984E+04  0.13678167012E+04  0.25500000920E-02 0.  1.
</event>
<event>
 5   0  0.9311672E-07  0.3439652E+04  0.7818609E-02  0.8128242E-01
        2   -1    0    0  501    0  0.00000000000E+00  0.00000000000E+00  0.27811190739E+04  0.27811190739E+04  0.25500000920E-02 0.  1.
       -2   -1    0    0    0  501  0.00000000000E+00  0.00000000000E+00 -0.10635293288E+04  0.10635293288E+04  0.25500000920E-02 0. -1.
    10030    2    1    2    0    0  0.00000000000E+00  0.00000000000E+00  0.17175897452E+04  0.38446484027E+04  0.34396521347E+04 0.  0.
        4    1    3    3  502    0 -0.16914675351E+04  0.25379537535E+03  0.65783227735E+03  0.18325445241E+04  0.12699999809E+01 0.  1.
       -4    1    3    3    0  502  0.16914675351E+04 -0.25379537535E+03  0.10597574678E+04  0.20121038786E+04  0.12699999809E+01 0. -1.
</event>
<event>
 5   0  0.2972541E-07  0.3504294E+04  0.7818609E-02  0.8112773E-01
        1   -1    0    0  501    0  0.00000000000E+00  0.00000000000E+00  0.26047256629E+04  0.26047256629E+04  0.50400001928E-02 0. -1.
       -1   -1    0    0    0  501  0.00000000000E+00  0.00000000000E+00 -0.11786340392E+04  0.11786340392E+04  0.50400001928E-02 0.  1.
    10030    2    1    2    0    0  0.00000000000E+00  0.00000000000E+00  0.14260916237E+04  0.37833597021E+04  0.35042935545E+04 0.  0.
        3    1    3    3  502    0  0.12276751337E+04  0.24776059935E+03  0.20359613697E+04  0.23903368502E+04  0.10100000352E+00 0. -1.
       -3    1    3    3    0  502 -0.12276751337E+04 -0.24776059935E+03 -0.60986974597E+03  0.13930228519E+04  0.10100000352E+00 0.  1.
</event>
<event>
 5   0  0.8845195E-07  0.3448606E+04  0.7818609E-02  0.8126079E-01
       -2   -1    0    0    0  501  0.00000000000E+00  0.00000000000E+00  0.24105996255E+04  0.24105996256E+04  0.25500000920E-02 0. -1.
        2   -1    0    0  501    0  0.00000000000E+00  0.00000000000E+00 -0.12333946844E+04  0.12333946844E+04  0.25500000920E-02 0.  1.
    10030    2    1    2    0    0  0.00000000000E+00  0.00000000000E+00  0.11772049412E+04  0.36439943099E+04  0.34486059585E+04 0.  0.
        5    1    3    3  502    0  0.10374916345E+04  0.40418241439E+03  0.19798016710E+04  0.22714288592E+04  0.46999998093E+01 0. -1.
       -5    1    3    3    0  502 -0.10374916345E+04 -0.40418241439E+03 -0.80259672986E+03  0.13725654507E+04  0.46999998093E+01 0.  1.
</event>
<event>
 5   0  0.8845195E-07  0.3521740E+04  0.7818609E-02  0.8108657E-01
        2   -1    0    0  501    0  0.00000000000E+00  0.00000000000E+00  0.16626345557E+04  0.16626345557E+04  0.25500000920E-02 0. -1.
       -2   -1    0    0    0  501  0.00000000000E+00  0.00000000000E+00 -0.18649095162E+04  0.18649095162E+04  0.25500000920E-02 0.  1.
    10030    2    1    2    0    0  0.00000000000E+00  0.00000000000E+00 -0.20227496050E+03  0.35275440719E+04  0.35217399137E+04 0.  0.
        5    1    3    3  502    0 -0.88904846811E+03 -0.90786625828E+03 -0.13221677036E+04  0.18337878416E+04  0.46999998093E+01 0.  1.
       -5    1    3    3    0  502  0.88904846811E+03  0.90786625828E+03  0.11198927431E+04  0.16937562303E+04  0.46999998093E+01 0. -1.
</event>
<event>
 5   0  0.9128871E-07  0.3487430E+04  0.7818609E-02  0.8116775E-01
       -2   -1    0    0    0  501  0.00000000000E+00  0.00000000000E+00  0.16242184202E+04  0.16242184202E+04  0.25500000920E-02 0.  1.
        2   -1    0    0  501    0  0.00000000000E+00  0.00000000000E+00 -0.18720033262E+04  0.18720033262E+04  0.25500000920E-02 0. -1.
    10030    2    1    2    0    0  0.00000000000E+00  0.00000000000E+00 -0.24778490606E+03  0.34962217464E+04  0.34874301628E+04 0.  0.
        1    1    3    3  502    0  0.26345623177E+03 -0.12797148926E+04 -0.12815601570E+04  0.18301573234E+04  0.50400001928E-02 0. -1.
       -1    1    3    3    0  502 -0.26345623177E+03  0.12797148926E+04  0.10337752509E+04  0.16660644231E+04  0.50400001928E-02 0.  1.
</event>
<event>
 5   0  0.2972541E-07  0.3399666E+04  0.7818609E-02  0.8137988E-01
        1   -1    0    0  501    0  0.00000000000E+00  0.00000000000E+00  0.20603683657E+04  0.20603683657E+04  0.50400001928E-02 0. -1.
       -1   -1    0    0    0  501  0.00000000000E+00  0.00000000000E+00 -0.14023860288E+04  0.14023860288E+04  0.50400001928E-02 0.  1.
    10030    2    1    2    0    0  0.00000000000E+00  0.00000000000E+00  0.65798233691E+03  0.34627543945E+04  0.33996657543E+04 0.  0.
        3    1    3    3  502    0  0.11027182445E+04  0.36307375702E+03 -0.93567056830E+03  0.14910699187E+04  0.10100000352E+00 0.  1.
       -3    1    3    3    0  502 -0.11027182445E+04 -0.36307375702E+03  0.15936529052E+04  0.19716844758E+04  0.10100000352E+00 0. -1.
</event>
<event>
 5   0  0.8845195E-07  0.3531604E+04  0.7818609E-02  0.8106341E-01
       -2   -1    0    0    0  501  0.00000000000E+00  0.00000000000E+00  0.15558579957E+04  0.15558579957E+04  0.25500000920E-02 0.  1.
        2   -1    0    0  501    0  0.00000000000E+00  0.00000000000E+00 -0.20040749905E+04  0.20040749905E+04  0.25500000920E-02 0. -1.
    10030    2    1    2    0    0  0.00000000000E+00  0.00000000000E+00 -0.44821699483E+03  0.35599329862E+04  0.35316036573E+04 0.  0.
        5    1    3    3  502    0 -0.32336941694E+03  0.77241571228E+03  0.13429811171E+04  0.15826604763E+04  0.46999998093E+01 0.  1.
       -5    1    3    3    0  502  0.32336941694E+03 -0.77241571228E+03 -0.17911981119E+04  0.19772725099E+04  0.46999998093E+01 0. -1.
</event>
<event>
 5   0  0.8950809E-07  0.3548179E+04  0.7818609E-02  0.8102466E-01
        2   -1    0    0  501    0  0.00000000000E+00  0.00000000000E+00  0.25405824197E+04  0.25405824197E+04  0.25500000920E-02 0.  1.
       -2   -1    0    0    0  501  0.00000000000E+00  0.00000000000E+00 -0.12388473730E+04  0.12388473730E+04  0.25500000920E-02 0. -1.
    10030    2    1    2    0    0  0.00000000000E+00  0.00000000000E+00  0.13017350467E+04  0.37794297927E+04  0.35481791705E+04 0.  0.
        2    1    3    3  502    0 -0.76698349211E+03  0.21417453918E+03 -0.10377815341E+04  0.13080997374E+04  0.25500000920E-02 0. -1.
       -2    1    3    3    0  502  0.76698349211E+03 -0.21417453918E+03  0.23395165808E+04  0.24713300553E+04  0.25500000920E-02 0.  1.
</event>
<event>
 5   0  0.8950809E-07  0.3499972E+04  0.7818609E-02  0.8113797E-01
       -2   -1    0    0    0  501  0.00000000000E+00  0.00000000000E+00  0.14413970147E+04  0.14413970147E+04  0.25500000920E-02 0.  1.
        2   -1    0    0  501    0  0.00000000000E+00  0.00000000000E+00 -0.21246404994E+04  0.21246404994E+04  0.25500000920E-02 0. -1.
    10030    2    1    2    0    0  0.00000000000E+00  0.00000000000E+00 -0.68324348470E+03  0.35660375142E+04  0.34999716989E+04 0.  0.
        2    1    3    3  502    0  0.98687425865E+03  0.14396556434E+04 -0.47018315256E+03  0.18076507879E+04  0.25500000920E-02 0. -1.
       -2    1    3    3    0  502 -0.98687425865E+03 -0.14396556434E+04 -0.21306033214E+03  0.17583867263E+04  0.25500000920E-02 0.  1.
</event>
<event>
 5   0  0.9311672E-07  0.3728266E+04  0.7818609E-02  0.8061726E-01
       -2   -1    0    0    0  501  0.00000000000E+00  0.00000000000E+00  0.16524781643E+04  0.16524781643E+04  0.25500000920E-02 0.  1.
        2   -1    0    0  501    0  0.00000000000E+00  0.00000000000E+00 -0.21028975223E+04  0.21028975223E+04  0.25500000920E-02 0. -1.
    10030    2    1    2    0    0  0.00000000000E+00  0.00000000000E+00 -0.45041935794E+03  0.37553756866E+04  0.37282662122E+04 0.  0.
        4    1    3    3  502    0 -0.13975826465E+04  0.68927499164E+02 -0.14658320406E+04  0.20264879566E+04  0.12699999809E+01 0. -1.
       -4    1    3    3    0  502  0.13975826465E+04 -0.68927499164E+02  0.10154126827E+04  0.17288877300E+04  0.12699999809E+01 0.  1.
</event>
<event>
 5   0  0.8950809E-07  0.3500781E+04  0.7818609E-02  0.8113605E-01
       -2   -1    0    0    0  501  0.00000000000E+00  0.00000000000E+00  0.12722910679E+04  0.12722910679E+04  0.25500000920E-02 0.  1.
        2   -1    0    0  501    0  0.00000000000E+00  0.00000000000E+00 -0.24081487609E+04  0.24081487609E+04  0.25500000920E-02 0. -1.
    10030    2    1    2    0    0  0.00000000000E+00  0.00000000000E+00 -0.11358576930E+04  0.36804398288E+04  0.35007805750E+04 0.  0.
        2    1    3    3  502    0  0.16797714614E+04 -0.48160334215E+03 -0.46127186227E+03  0.18073034257E+04  0.25500000920E-02 0.  1.
       -2    1    3    3    0  502 -0.16797714614E+04  0.48160334215E+03 -0.67458583071E+03  0.18731364031E+04  0.25500000920E-02 0. -1.
</event>
<event>
 5   0  0.8950809E-07  0.3501503E+04  0.7818609E-02  0.8113434E-01
        2   -1    0    0  501    0  0.00000000000E+00  0.00000000000E+00  0.22518029378E+04  0.22518029378E+04  0.25500000920E-02 0. -1.
       -2   -1    0    0    0  501  0.00000000000E+00  0.00000000000E+00 -0.13611900048E+04  0.13611900048E+04  0.25500000920E-02 0.  1.
    10030    2    1    2    0    0  0.00000000000E+00  0.00000000000E+00  0.89061293292E+03  0.36129929426E+04  0.35015034781E+04 0.  0.
        2    1    3    3  502    0 -0.44517621691E+03  0.15806831936E+04 -0.18097090559E+03  0.16521173358E+04  0.25500000920E-02 0.  1.
       -2    1    3    3    0  502  0.44517621691E+03 -0.15806831936E+04  0.10715838385E+04  0.19608756068E+04  0.25500000920E-02 0. -1.
</event>
<event>
 5   0  0.6188930E-07  0.3496749E+04  0.7818609E-02  0.8114561E-01
        2   -1    0    0  501    0  0.00000000000E+00  0.00000000000E+00  0.21825257182E+04  0.21825257182E+04  0.25500000920E-02 0. -1.
       -2   -1    0    0    0  501  0.00000000000E+00  0.00000000000E+00 -0.14005851058E+04  0.14005851058E+04  0.25500000920E-02 0.  1.
    10030    2    1    2    0    0  0.00000000000E+00  0.00000000000E+00  0.78194061239E+03  0.35831108240E+04  0.34967487836E+04 0.  0.
        3    1    3    3  502    0  0.68409905328E+03  0.15961510210E+04  0.59876782305E+03  0.18369029677E+04  0.10100000352E+00 0. -1.
       -3    1    3    3    0  502 -0.68409905328E+03 -0.15961510210E+04  0.18317278934E+03  0.17462078563E+04  0.10100000352E+00 0.  1.
</event>
<event>
 5   0  0.2936607E-07  0.3554140E+04  0.7818609E-02  0.8101078E-01
        1   -1    0    0  501    0  0.00000000000E+00  0.00000000000E+00  0.16444603370E+04  0.16444603370E+04  0.50400001928E-02 0. -1.
       -1   -1    0    0    0  501  0.00000000000E+00  0.00000000000E+00 -0.19203732236E+04  0.19203732236E+04  0.50400001928E-02 0.  1.
    10030    2    1    2    0    0  0.00000000000E+00  0.00000000000E+00 -0.27591288658E+03  0.35648335607E+04  0.35541398952E+04 0.  0.
        2    1    3    3  502    0 -0.15201948699E+03 -0.64748174748E+03 -0.17908330884E+04  0.19103470072E+04  0.25500000920E-02 0.  1.
       -2    1    3    3    0  502  0.15201948699E+03  0.64748174748E+03  0.15149202018E+04  0.16544865534E+04  0.25500000920E-02 0. -1.
</event>
<event>
 5   0  0.2933506E-07  0.3509507E+04  0.7818609E-02  0.8111541E-01
        1   -1    0    0  501    0  0.00000000000E+00  0.00000000000E+00  0.13461424564E+04  0.13461424564E+04  0.50400001928E-02 0. -1.
       -1   -1    0    0    0  501  0.00000000000E+00  0.00000000000E+00 -0.22873946023E+04  0.22873946023E+04  0.50400001928E-02 0.  1.
    10030    2    1    2    0    0  0.00000000000E+00  0.00000000000E+00 -0.94125214591E+03  0.36335370587E+04  0.35095065116E+04 0.  0.
        4    1    3    3  502    0 -0.15628356579E+03  0.16420060092E+04  0.14932562369E+03  0.16561727090E+04  0.12699999809E+01 0. -1.
       -4    1    3    3    0  502  0.15628356579E+03 -0.16420060092E+04 -0.10905777696E+04  0.19773643497E+04  0.12699999809E+01 0.  1.
</event>
<event>
 5   0  0.2972541E-07  0.3426603E+04  0.7818609E-02  0.8131408E-01
        1   -1    0    0  501    0  0.00000000000E+00  0.00000000000E+00  0.17076601133E+04  0.17076601133E+04  0.50400001928E-02 0.  1.
       -1   -1    0    0    0  501  0.00000000000E+00  0.00000000000E+00 -0.17189618778E+04  0.17189618778E+04  0.50400001928E-02 0. -1.
    10030    2    1    2    0    0  0.00000000000E+00  0.00000000000E+00 -0.11301764510E+02  0.34266219911E+04  0.34266033532E+04 0.  0.
        3    1    3    3  502    0  0.60957490147E+03  0.14617786865E+04  0.64782351015E+03  0.17111556911E+04  0.10100000352E+00 0.  1.
       -3    1    3    3    0  502 -0.60957490147E+03 -0.14617786865E+04 -0.65912527467E+03  0.17154663000E+04  0.10100000352E+00 0. -1.
</event>
<event>
 5   0  0.2907000E-07  0.3501755E+04  0.7818609E-02  0.8113374E-01
        3   -1    0    0  501    0  0.00000000000E+00  0.00000000000E+00  0.25718416973E+04  0.25718416993E+04  0.10100000352E+00 0.  1.
       -3   -1    0    0    0  501  0.00000000000E+00  0.00000000000E+00 -0.11919753981E+04  0.11919754024E+04  0.10100000352E+00 0. -1.
    10030    2    1    2    0    0  0.00000000000E+00  0.00000000000E+00  0.13798662991E+04  0.37638171017E+04  0.35017550131E+04 0.  0.
        1    1    3    3  502    0 -0.14604206850E+04  0.11497924616E+03 -0.34074746297E+03  0.15040470863E+04  0.50400001928E-02 0. -1.
       -1    1    3    3    0  502  0.14604206850E+04 -0.11497924616E+03  0.17206137621E+04  0.22597700154E+04  0.50400001928E-02 0.  1.
</event>
<event>
 5   0  0.2936607E-07  0.3466098E+04  0.7818609E-02  0.8121872E-01
        1   -1    0    0  501    0  0.00000000000E+00  0.00000000000E+00  0.17528283453E+04  0.17528283453E+04  0.50400001928E-02 0. -1.
       -1   -1    0    0    0  501  0.00000000000E+00  0.00000000000E+00 -0.17134931919E+04  0.17134931919E+04  0.50400001928E-02 0.  1.
    10030    2    1    2    0    0  0.00000000000E+00  0.00000000000E+00  0.39335153421E+02  0.34663215372E+04  0.34660983462E+04 0.  0.
        2    1    3    3  502    0  0.97058641523E+03 -0.42625984439E+03  0.13907861275E+04  0.17487199595E+04  0.25500000920E-02 0. -1.
       -2    1    3    3    0  502 -0.97058641523E+03  0.42625984439E+03 -0.13514509741E+04  0.17176015777E+04  0.25500000920E-02 0.  1.
</event>
<event>
 5   0  0.3026332E-07  0.3391400E+04  0.7818609E-02  0.8140020E-01
        1   -1    0    0  501    0  0.00000000000E+00  0.00000000000E+00  0.22835678255E+04  0.22835678255E+04  0.50400001928E-02 0. -1.
       -1   -1    0    0    0  501  0.00000000000E+00  0.00000000000E+00 -0.12591696622E+04  0.12591696622E+04  0.50400001928E-02 0.  1.
    10030    2    1    2    0    0  0.00000000000E+00  0.00000000000E+00  0.10243981633E+04  0.35427374877E+04  0.33914004939E+04 0.  0.
        1    1    3    3  502    0  0.16551075461E+04 -0.35153545481E+03  0.62871637068E+03  0.18050602317E+04  0.50400001928E-02 0.  1.
       -1    1    3    3    0  502 -0.16551075461E+04  0.35153545481E+03  0.39568179261E+03  0.17376772561E+04  0.50400001928E-02 0. -1.
</event>
<event>
 5   0  0.9311672E-07  0.3533708E+04  0.7818609E-02  0.8105848E-01
       -2   -1    0    0    0  501  0.00000000000E+00  0.00000000000E+00  0.22063574591E+04  0.22063574591E+04  0.25500000920E-02 0. -1.
        2   -1    0    0  501    0  0.00000000000E+00  0.00000000000E+00 -0.14148990386E+04  0.14148990386E+04  0.25500000920E-02 0.  1.
    10030    2    1    2    0    0  0.00000000000E+00  0.00000000000E+00  0.79145842051E+03  0.36212564977E+04  0.35337079945E+04 0.  0.
        4    1    3    3  502    0  0.14650313440E+04 -0.97360850545E+03  0.56579582397E+03  0.18477978483E+04  0.12699999809E+01 0.  1.
       -4    1    3    3    0  502 -0.14650313440E+04  0.97360850545E+03  0.22566259654E+03  0.17734586494E+04  0.12699999809E+01 0. -1.
</event>
<event>
 5   0  0.9311672E-07  0.3559253E+04  0.7818609E-02  0.8099890E-01
       -2   -1    0    0    0  501  0.00000000000E+00  0.00000000000E+00  0.16601250763E+04  0.16601250763E+04  0.25500000920E-02 0. -1.
        2   -1    0    0  501    0  0.00000000000E+00  0.00000000000E+00 -0.19077302956E+04  0.19077302956E+04  0.25500000920E-02 0.  1.
    10030    2    1    2    0    0  0.00000000000E+00  0.00000000000E+00 -0.24760521934E+03  0.35678553718E+04  0.35592532377E+04 0.  0.
        4    1    3    3  502    0  0.76624669424E+02  0.76387270464E+03 -0.17332035046E+04  0.18956183292E+04  0.12699999809E+01 0.  1.
       -4    1    3    3    0  502 -0.76624669424E+02 -0.76387270464E+03  0.14855982852E+04  0.16722370426E+04  0.12699999809E+01 0. -1.
</event>
<event>
 5   0  0.8950809E-07  0.3521020E+04  0.7818609E-02  0.8108826E-01
        2   -1    0    0  501    0  0.00000000000E+00  0.00000000000E+00  0.25869071055E+04  0.25869071055E+04  0.25500000920E-02 0.  1.
       -2   -1    0    0    0  501  0.00000000000E+00  0.00000000000E+00 -0.11981086555E+04  0.11981086555E+04  0.25500000920E-02 0. -1.
    10030    2    1    2    0    0  0.00000000000E+00  0.00000000000E+00  0.13887984500E+04  0.37850157611E+04  0.35210201898E+04 0.  0.
        2    1    3    3  502    0  0.16313038100E+04 -0.22275065906E+03  0.24260058393E+02  0.16466203348E+04  0.25500000920E-02 0. -1.
       -2    1    3    3    0  502 -0.16313038100E+04  0.22275065906E+03  0.13645383916E+04  0.21383954262E+04  0.25500000920E-02 0.  1.
</event>
<event>
 5   0  0.3061330E-07  0.3161809E+04  0.7818609E-02  0.8198977E-01
        1   -1    0    0  501    0  0.00000000000E+00  0.00000000000E+00  0.15879400031E+04  0.15879400031E+04  0.50400001928E-02 0. -1.
       -1   -1    0    0    0  501  0.00000000000E+00  0.00000000000E+00 -0.15739003941E+04  0.15739003941E+04  0.50400001928E-02 0.  1.
    10030    2    1    2    0    0  0.00000000000E+00  0.00000000000E+00  0.14039608954E+02  0.31618403972E+04  0.31618092268E+04 0.  0.
        5    1    3    3  502    0 -0.74844295423E+03 -0.59232729029E+03 -0.12532381639E+04  0.15753242396E+04  0.46999998093E+01 0.  1.
       -5    1    3    3    0  502  0.74844295423E+03  0.59232729029E+03  0.12672777729E+04  0.15865161575E+04  0.46999998093E+01 0. -1.
</event>
<event>
 5   0  0.2933506E-07  0.3538005E+04  0.7818609E-02  0.8104842E-01
       -1   -1    0    0    0  501  0.00000000000E+00  0.00000000000E+00  0.14550651716E+04  0.14550651717E+04  0.50400001928E-02 0. -1.
        1   -1    0    0  501    0  0.00000000000E+00  0.00000000000E+00 -0.21506734708E+04  0.21506734708E+04  0.50400001928E-02 0.  1.
    10030    2    1    2    0    0  0.00000000000E+00  0.00000000000E+00 -0.69560829917E+03  0.36057386425E+04  0.35380051232E+04 0.  0.
        4    1    3    3  502    0  0.18394625412E+03 -0.41171068677E+03 -0.20911153362E+04  0.21391836939E+04  0.12699999809E+01 0.  1.
       -4    1    3    3    0  502 -0.18394625412E+03  0.41171068677E+03  0.13955070370E+04  0.14665549486E+04  0.12699999809E+01 0. -1.
</event>
<event>
 5   0  0.2972541E-07  0.3474910E+04  0.7818609E-02  0.8119762E-01
        1   -1    0    0  501    0  0.00000000000E+00  0.00000000000E+00  0.19007930342E+04  0.19007930342E+04  0.50400001928E-02 0.  1.
       -1   -1    0    0    0  501  0.00000000000E+00  0.00000000000E+00 -0.15881525174E+04  0.15881525174E+04  0.50400001928E-02 0. -1.
    10030    2    1    2    0    0  0.00000000000E+00  0.00000000000E+00  0.31264051674E+03  0.34889455516E+04  0.34749096347E+04 0.  0.
        3    1    3    3  502    0  0.10242020388E+04 -0.10545394166E+04 -0.77354475940E+03  0.16611486094E+04  0.10100000352E+00 0. -1.
       -3    1    3    3    0  502 -0.10242020388E+04  0.10545394166E+04  0.10861852761E+04  0.18277969422E+04  0.10100000352E+00 0.  1.
</event>
<event>
 5   0  0.2907000E-07  0.3039273E+04  0.7818609E-02  0.8232604E-01
        3   -1    0    0  501    0  0.00000000000E+00  0.00000000000E+00  0.12850090341E+04  0.12850090381E+04  0.10100000352E+00 0. -1.
       -3   -1    0    0    0  501  0.00000000000E+00  0.00000000000E+00 -0.17971036951E+04  0.17971036979E+04  0.10100000352E+00 0.  1.
    10030    2    1    2    0    0  0.00000000000E+00  0.00000000000E+00 -0.51209466097E+03  0.30821127360E+04  0.30392726063E+04 0.  0.
        2    1    3    3  502    0  0.14324730677E+04 -0.42724419033E+03  0.21262473598E+02  0.14949811974E+04  0.25500000920E-02 0. -1.
       -2    1    3    3    0  502 -0.14324730677E+04  0.42724419033E+03 -0.53335713457E+03  0.15871315386E+04  0.25500000920E-02 0.  1.
</event>
<event>
 5   0  0.2933506E-07  0.3571727E+04  0.7818609E-02  0.8096999E-01
       -1   -1    0    0    0  501  0.00000000000E+00  0.00000000000E+00  0.16846890336E+04  0.16846890337E+04  0.50400001928E-02 0.  1.
        1   -1    0    0  501    0  0.00000000000E+00  0.00000000000E+00 -0.18931143842E+04  0.18931143843E+04  0.50400001928E-02 0. -1.
    10030    2    1    2    0    0  0.00000000000E+00  0.00000000000E+00 -0.20842535060E+03  0.35778034179E+04  0.35717273371E+04 0.  0.
        4    1    3    3  502    0 -0.21035320106E+03 -0.13112844217E+04 -0.13002254566E+04  0.18585755714E+04  0.12699999809E+01 0. -1.
       -4    1    3    3    0  502  0.21035320106E+03  0.13112844217E+04  0.10918001060E+04  0.17192278465E+04  0.12699999809E+01 0.  1.
</event>
<event>
 5   0  0.2936607E-07  0.3492591E+04  0.7818609E-02  0.8115548E-01
       -1   -1    0    0    0  501  0.00000000000E+00  0.00000000000E+00  0.19443092983E+04  0.19443092983E+04  0.50400001928E-02 0.  1.
        1   -1    0    0  501    0  0.00000000000E+00  0.00000000000E+00 -0.15684482463E+04  0.15684482463E+04  0.50400001928E-02 0. -1.
    10030    2    1    2    0    0  0.00000000000E+00  0.00000000000E+00  0.37586105198E+03  0.35127575446E+04  0.34925913069E+04 0.  0.
        2    1    3    3  502    0  0.72406899920E+03  0.69231764137E+03 -0.12507021425E+04  0.16024467171E+04  0.25500000920E-02 0. -1.
       -2    1    3    3    0  502 -0.72406899920E+03 -0.69231764137E+03  0.16265631944E+04  0.19103108275E+04  0.25500000920E-02 0.  1.
</event>
<event>
 5   0  0.9128871E-07  0.3469127E+04  0.7818609E-02  0.8121146E-01
        2   -1    0    0  501    0  0.00000000000E+00  0.00000000000E+00  0.16671390179E+04  0.16671390179E+04  0.25500000920E-02 0.  1.
       -2   -1    0    0    0  501  0.00000000000E+00  0.00000000000E+00 -0.18047150814E+04  0.18047150814E+04  0.25500000920E-02 0. -1.
    10030    2    1    2    0    0  0.00000000000E+00  0.00000000000E+00 -0.13757606346E+03  0.34718540993E+04  0.34691272265E+04 0.  0.
        1    1    3    3  502    0 -0.16488802517E+04 -0.45908365289E+03 -0.35034001284E+03  0.17470838587E+04  0.50400001928E-02 0. -1.
       -1    1    3    3    0  502  0.16488802517E+04  0.45908365289E+03  0.21276394938E+03  0.17247702406E+04  0.50400001928E-02 0.  1.
</event>
<event>
 5   0  0.8950809E-07  0.3507398E+04  0.7818609E-02  0.8112039E-01
       -2   -1    0    0    0  501  0.00000000000E+00  0.00000000000E+00  0.18806453486E+04  0.18806453486E+04  0.25500000920E-02 0. -1.
        2   -1    0    0  501    0  0.00000000000E+00  0.00000000000E+00 -0.16353215677E+04  0.16353215677E+04  0.25500000920E-02 0.  1.
    10030    2    1    2    0    0  0.00000000000E+00  0.00000000000E+00  0.24532378091E+03  0.35159669162E+04  0.35073978387E+04 0.  0.
        2    1    3    3  502    0  0.47535973179E+03 -0.52786320378E+03  0.17299673183E+04  0.18701319095E+04  0.25500000920E-02 0. -1.
       -2    1    3    3    0  502 -0.47535973179E+03  0.52786320378E+03 -0.14846435374E+04  0.16458350068E+04  0.25500000920E-02 0.  1.
</event>
<event>
 5   0  0.6188930E-07  0.3512496E+04  0.7818609E-02  0.8110835E-01
        2   -1    0    0  501    0  0.00000000000E+00  0.00000000000E+00  0.10938534021E+04  0.10938534022E+04  0.25500000920E-02 0. -1.
       -2   -1    0    0    0  501  0.00000000000E+00  0.00000000000E+00 -0.28197621574E+04  0.28197621574E+04  0.25500000920E-02 0.  1.
    10030    2    1    2    0    0  0.00000000000E+00  0.00000000000E+00 -0.17259087552E+04  0.39136155595E+04  0.35124956536E+04 0.  0.
        3    1    3    3  502    0  0.39050896696E+03 -0.64736758338E+01 -0.27707617301E+04  0.27981529152E+04  0.10100000352E+00 0.  1.
       -3    1    3    3    0  502 -0.39050896696E+03  0.64736758338E+01  0.10448529748E+04  0.11154626444E+04  0.10100000352E+00 0. -1.
</event>
<event>
 5   0  0.6188930E-07  0.3289184E+04  0.7818609E-02  0.8165653E-01
       -2   -1    0    0    0  501  0.00000000000E+00  0.00000000000E+00  0.10631887665E+04  0.10631887665E+04  0.25500000920E-02 0. -1.
        2   -1    0    0  501    0  0.00000000000E+00  0.00000000000E+00 -0.25439346459E+04  0.25439346459E+04  0.25500000920E-02 0.  1.
    10030    2    1    2    0    0  0.00000000000E+00  0.00000000000E+00 -0.14807458793E+04  0.36071234124E+04  0.32891839342E+04 0.  0.
        3    1    3    3  502    0  0.78205808127E+03  0.12088315818E+04 -0.16120600446E+04  0.21613945112E+04  0.10100000352E+00 0.  1.
       -3    1    3    3    0  502 -0.78205808127E+03 -0.12088315818E+04  0.13131416524E+03  0.14457289012E+04  0.10100000352E+00 0. -1.
</event>
<event>
 5   0  0.2907000E-07  0.3478748E+04  0.7818609E-02  0.8118845E-01
       -3   -1    0    0    0  501  0.00000000000E+00  0.00000000000E+00  0.18115520631E+04  0.18115520659E+04  0.10100000352E+00 0.  1.
        3   -1    0    0  501    0  0.00000000000E+00  0.00000000000E+00 -0.16700717932E+04  0.16700717963E+04  0.10100000352E+00 0. -1.
    10030    2    1    2    0    0  0.00000000000E+00  0.00000000000E+00  0.14148026983E+03  0.34816238622E+04  0.34787480580E+04 0.  0.
        5    1    3    3  502    0  0.17396592239E+03 -0.14000166570E+04  0.10889744983E+04  0.17821891959E+04  0.46999998093E+01 0.  1.
       -5    1    3    3    0  502 -0.17396592239E+03  0.14000166570E+04 -0.94749422844E+03  0.16994346663E+04  0.46999998093E+01 0. -1.
</event>
<event>
 5   0  0.2972541E-07  0.3500841E+04  0.7818609E-02  0.8113591E-01
        1   -1    0    0  501    0  0.00000000000E+00  0.00000000000E+00  0.26362657733E+04  0.26362657733E+04  0.50400001928E-02 0.  1.
       -1   -1    0    0    0  501  0.00000000000E+00  0.00000000000E+00 -0.11622392079E+04  0.11622392079E+04  0.50400001928E-02 0. -1.
    10030    2    1    2    0    0  0.00000000000E+00  0.00000000000E+00  0.14740265653E+04  0.37985049812E+04  0.35008407243E+04 0.  0.
        3    1    3    3  502    0  0.29581579069E+03  0.89816810758E+02 -0.11323829735E+04  0.11738250510E+04  0.10100000352E+00 0. -1.
       -3    1    3    3    0  502 -0.29581579069E+03 -0.89816810758E+02  0.26064095388E+04  0.26246799302E+04  0.10100000352E+00 0.  1.
</event>
<event>
 5   0  0.2936607E-07  0.3478490E+04  0.7818609E-02  0.8118906E-01
       -1   -1    0    0    0  501  0.00000000000E+00  0.00000000000E+00  0.11340782721E+04  0.11340782721E+04  0.50400001928E-02 0. -1.
        1   -1    0    0  501    0  0.00000000000E+00  0.00000000000E+00 -0.26673409908E+04  0.26673409908E+04  0.50400001928E-02 0.  1.
    10030    2    1    2    0    0  0.00000000000E+00  0.00000000000E+00 -0.15332627187E+04  0.38014192629E+04  0.34784901679E+04 0.  0.
        2    1    3    3  502    0 -0.32483589469E+03 -0.16305046014E+04 -0.13248447201E+04  0.21258591548E+04  0.25500000920E-02 0.  1.
       -2    1    3    3    0  502  0.32483589469E+03  0.16305046014E+04 -0.20841799860E+03  0.16755601081E+04  0.25500000920E-02 0. -1.
</event>
<event>
 5   0  0.2972541E-07  0.3498716E+04  0.7818609E-02  0.8114094E-01
        1   -1    0    0  501    0  0.00000000000E+00  0.00000000000E+00  0.25822316066E+04  0.25822316067E+04  0.50400001928E-02 0.  1.
       -1   -1    0    0    0  501  0.00000000000E+00  0.00000000000E+00 -0.11851199465E+04  0.11851199465E+04  0.50400001928E-02 0. -1.
    10030    2    1    2    0    0  0.00000000000E+00  0.00000000000E+00  0.13971116602E+04  0.37673515531E+04  0.34987164409E+04 0.  0.
        3    1    3    3  502    0 -0.13683244745E+03 -0.67979381736E+03 -0.10308133382E+04  0.12423441154E+04  0.10100000352E+00 0. -1.
       -3    1    3    3    0  502  0.13683244745E+03  0.67979381736E+03  0.24279249983E+04  0.25250074377E+04  0.10100000352E+00 0.  1.
</event>
<event>
 5   0  0.8950809E-07  0.3377393E+04  0.7818609E-02  0.8143477E-01
       -2   -1    0    0    0  501  0.00000000000E+00  0.00000000000E+00  0.20288057165E+04  0.20288057165E+04  0.25500000920E-02 0.  1.
        2   -1    0    0  501    0  0.00000000000E+00  0.00000000000E+00 -0.14056028844E+04  0.14056028844E+04  0.25500000920E-02 0. -1.
    10030    2    1    2    0    0  0.00000000000E+00  0.00000000000E+00  0.62320283208E+03  0.34344086008E+04  0.33773925842E+04 0.  0.
        2    1    3    3  502    0 -0.15965972239E+04  0.54902028405E+03  0.27712928922E+03  0.17109490380E+04  0.25500000920E-02 0. -1.
       -2    1    3    3    0  502  0.15965972239E+04 -0.54902028405E+03  0.34607354286E+03  0.17234595628E+04  0.25500000920E-02 0.  1.
</event>
<event>
 5   0  0.9128871E-07  0.3523628E+04  0.7818609E-02  0.8108213E-01
        2   -1    0    0  501    0  0.00000000000E+00  0.00000000000E+00  0.27233563502E+04  0.27233563502E+04  0.25500000920E-02 0. -1.
       -2   -1    0    0    0  501  0.00000000000E+00  0.00000000000E+00 -0.11397661017E+04  0.11397661018E+04  0.25500000920E-02 0.  1.
    10030    2    1    2    0    0  0.00000000000E+00  0.00000000000E+00  0.15835902484E+04  0.38631224519E+04  0.35236283861E+04 0.  0.
        1    1    3    3  502    0 -0.20330641429E+03  0.13587571647E+04 -0.41738995141E+03  0.14358861035E+04  0.50400001928E-02 0.  1.
       -1    1    3    3    0  502  0.20330641429E+03 -0.13587571647E+04  0.20009801998E+04  0.24272363484E+04  0.50400001928E-02 0. -1.
</event>
<event>
 5   0  0.9128871E-07  0.3485744E+04  0.7818609E-02  0.8117177E-01
       -2   -1    0    0    0  501  0.00000000000E+00  0.00000000000E+00  0.15084366699E+04  0.15084366699E+04  0.25500000920E-02 0.  1.
        2   -1    0    0  501    0  0.00000000000E+00  0.00000000000E+00 -0.20137418339E+04  0.20137418339E+04  0.25500000920E-02 0. -1.
    10030    2    1    2    0    0  0.00000000000E+00  0.00000000000E+00 -0.50530516394E+03  0.35221785038E+04  0.34857435511E+04 0.  0.
        1    1    3    3  502    0  0.10631128753E+04  0.22028937903E+03  0.11250006911E+04  0.15634458581E+04  0.50400001928E-02 0.  1.
       -1    1    3    3    0  502 -0.10631128753E+04 -0.22028937903E+03 -0.16303058551E+04  0.19587326457E+04  0.50400001928E-02 0. -1.
</event>
<event>
 5   0  0.6188930E-07  0.3452977E+04  0.7818609E-02  0.8125025E-01
       -2   -1    0    0    0  501  0.00000000000E+00  0.00000000000E+00  0.10640816779E+04  0.10640816779E+04  0.25500000920E-02 0.  1.
        2   -1    0    0  501    0  0.00000000000E+00  0.00000000000E+00 -0.28012539463E+04  0.28012539463E+04  0.25500000920E-02 0. -1.
    10030    2    1    2    0    0  0.00000000000E+00  0.00000000000E+00 -0.17371722684E+04  0.38653356241E+04  0.34529772656E+04 0.  0.
        3    1    3    3  502    0  0.45248686415E+03  0.94247696747E+03  0.66944949496E+03  0.12414386142E+04  0.10100000352E+00 0.  1.
       -3    1    3    3    0  502 -0.45248686415E+03 -0.94247696747E+03 -0.24066217634E+04  0.26238970099E+04  0.10100000352E+00 0. -1.
</event>
<event>
 5   0  0.2936607E-07  0.3481907E+04  0.7818609E-02  0.8118091E-01
        1   -1    0    0  501    0  0.00000000000E+00  0.00000000000E+00  0.18099254747E+04  0.18099254747E+04  0.50400001928E-02 0. -1.
       -1   -1    0    0    0  501  0.00000000000E+00  0.00000000000E+00 -0.16746095556E+04  0.16746095557E+04  0.50400001928E-02 0.  1.
    10030    2    1    2    0    0  0.00000000000E+00  0.00000000000E+00  0.13531591904E+03  0.34845350303E+04  0.34819066587E+04 0.  0.
        2    1    3    3  502    0 -0.70732467173E+03 -0.32180440076E+03 -0.14914179883E+04  0.16817234848E+04  0.25500000920E-02 0.  1.
       -2    1    3    3    0  502  0.70732467173E+03  0.32180440076E+03  0.16267339073E+04  0.18028115455E+04  0.25500000920E-02 0. -1.
</event>
<event>
 5   0  0.6188930E-07  0.3502434E+04  0.7818609E-02  0.8113213E-01
        2   -1    0    0  501    0  0.00000000000E+00  0.00000000000E+00  0.14599485351E+04  0.14599485351E+04  0.25500000920E-02 0. -1.
       -2   -1    0    0    0  501  0.00000000000E+00  0.00000000000E+00 -0.21005954329E+04  0.21005954329E+04  0.25500000920E-02 0.  1.
    10030    2    1    2    0    0  0.00000000000E+00  0.00000000000E+00 -0.64064689783E+03  0.35605439680E+04  0.35024341393E+04 0.  0.
        3    1    3    3  502    0  0.11368820152E+04  0.10778766302E+04  0.47524769921E+03  0.16371252647E+04  0.10100000352E+00 0. -1.
       -3    1    3    3    0  502 -0.11368820152E+04 -0.10778766302E+04 -0.11158945970E+04  0.19234187033E+04  0.10100000352E+00 0.  1.
</event>
<event>
 5   0  0.2936607E-07  0.3512649E+04  0.7818609E-02  0.8110799E-01
        1   -1    0    0  501    0  0.00000000000E+00  0.00000000000E+00  0.25344964035E+04  0.25344964035E+04  0.50400001928E-02 0. -1.
       -1   -1    0    0    0  501  0.00000000000E+00  0.00000000000E+00 -0.12170761878E+04  0.12170761878E+04  0.50400001928E-02 0.  1.
    10030    2    1    2    0    0  0.00000000000E+00  0.00000000000E+00  0.13174202157E+04  0.37515725913E+04  0.35126486991E+04 0.  0.
        2    1    3    3  502    0 -0.97243048607E+03  0.21113105003E+03 -0.88695898255E+03  0.13330017282E+04  0.25500000920E-02 0.  1.
       -2    1    3    3    0  502  0.97243048607E+03 -0.21113105003E+03  0.22043791982E+04  0.24185708631E+04  0.25500000920E-02 0. -1.
</event>
<event>
 5   0  0.8845195E-07  0.3523616E+04  0.7818609E-02  0.8108216E-01
       -2   -1    0    0    0  501  0.00000000000E+00  0.00000000000E+00  0.19637418166E+04  0.19637418166E+04  0.25500000920E-02 0. -1.
        2   -1    0    0  501    0  0.00000000000E+00  0.00000000000E+00 -0.15806390175E+04  0.15806390175E+04  0.25500000920E-02 0.  1.
    10030    2    1    2    0    0  0.00000000000E+00  0.00000000000E+00  0.38310279912E+03  0.35443808342E+04  0.35236157201E+04 0.  0.
        5    1    3    3  502    0  0.51386393563E+03 -0.76742938049E+03  0.17007065207E+04  0.19353110236E+04  0.46999998093E+01 0. -1.
       -5    1    3    3    0  502 -0.51386393563E+03  0.76742938049E+03 -0.13176037216E+04  0.16090698106E+04  0.46999998093E+01 0.  1.
</event>
<event>
 5   0  0.6188930E-07  0.3491872E+04  0.7818609E-02  0.8115719E-01
       -2   -1    0    0    0  501  0.00000000000E+00  0.00000000000E+00  0.10498362253E+04  0.10498362253E+04  0.25500000920E-02 0. -1.
        2   -1    0    0  501    0  0.00000000000E+00  0.00000000000E+00 -0.29035879213E+04  0.29035879213E+04  0.25500000920E-02 0.  1.
    10030    2    1    2    0    0  0.00000000000E+00  0.00000000000E+00 -0.18537516961E+04  0.39534241466E+04  0.34918715802E+04 0.  0.
        3    1    3    3  502    0  0.67048806322E+03  0.10655451182E+04  0.44271050818E+03  0.13345161094E+04  0.10100000352E+00 0. -1.
       -3    1    3    3    0  502 -0.67048806322E+03 -0.10655451182E+04 -0.22964622042E+04  0.26189080373E+04  0.10100000352E+00 0.  1.
</event>
<event>
 5   0  0.2936607E-07  0.3509194E+04  0.7818609E-02  0.8111615E-01
       -1   -1    0    0    0  501  0.00000000000E+00  0.00000000000E+00  0.13565167274E+04  0.13565167274E+04  0.50400001928E-02 0. -1.
        1   -1    0    0  501    0  0.00000000000E+00  0.00000000000E+00 -0.22694968428E+04  0.22694968428E+04  0.50400001928E-02 0.  1.
    10030    2    1    2    0    0  0.00000000000E+00  0.00000000000E+00 -0.91298011542E+03  0.36260135703E+04  0.35091938847E+04 0.  0.
        2    1    3    3  502    0  0.88940511271E+03  0.13212729389E+04 -0.12170689796E+04  0.20045100485E+04  0.25500000920E-02 0.  1.
       -2    1    3    3    0  502 -0.88940511271E+03 -0.13212729389E+04  0.30408886420E+03  0.16215035217E+04  0.25500000920E-02 0. -1.
</event>
<event>
 5   0  0.8845195E-07  0.3516704E+04  0.7818609E-02  0.8109843E-01
       -2   -1    0    0    0  501  0.00000000000E+00  0.00000000000E+00  0.10615586722E+04  0.10615586722E+04  0.25500000920E-02 0.  1.
        2   -1    0    0  501    0  0.00000000000E+00  0.00000000000E+00 -0.29125120543E+04  0.29125120543E+04  0.25500000920E-02 0. -1.
    10030    2    1    2    0    0  0.00000000000E+00  0.00000000000E+00 -0.18509533822E+04  0.39740707265E+04  0.35167043829E+04 0.  0.
        5    1    3    3  502    0  0.16724683284E+04  0.24498816550E+03 -0.14728375719E+04  0.22419728174E+04  0.46999998093E+01 0. -1.
       -5    1    3    3    0  502 -0.16724683284E+04 -0.24498816550E+03 -0.37811581022E+03  0.17320979091E+04  0.46999998093E+01 0.  1.
</event>
<event>
 5   0  0.2907000E-07  0.3411060E+04  0.7818609E-02  0.8135197E-01
        3   -1    0    0  501    0  0.00000000000E+00  0.00000000000E+00  0.22974237154E+04  0.22974237176E+04  0.10100000352E+00 0. -1.
       -3   -1    0    0    0  501  0.00000000000E+00  0.00000000000E+00 -0.12661278791E+04  0.12661278831E+04  0.10100000352E+00 0.  1.
    10030    2    1    2    0    0  0.00000000000E+00  0.00000000000E+00  0.10312958362E+04  0.35635516007E+04  0.34110597927E+04 0.  0.
        3    1    3    3  502    0 -0.14015836702E+04  0.83709425385E+03  0.10313436555E+04  0.19310187260E+04  0.10100000352E+00 0.  1.
       -3    1    3    3    0  502  0.14015836702E+04 -0.83709425385E+03 -0.47819213876E-01  0.16325328747E+04  0.10100000352E+00 0. -1.
</event>
<event>
 5   0  0.3061330E-07  0.3364374E+04  0.7818609E-02  0.8146706E-01
        1   -1    0    0  501    0  0.00000000000E+00  0.00000000000E+00  0.13787654257E+04  0.13787654257E+04  0.50400001928E-02 0. -1.
       -1   -1    0    0    0  501  0.00000000000E+00  0.00000000000E+00 -0.20523820943E+04  0.20523820943E+04  0.50400001928E-02 0.  1.
    10030    2    1    2    0    0  0.00000000000E+00  0.00000000000E+00 -0.67361666859E+03  0.34311475200E+04  0.33643742194E+04 0.  0.
        5    1    3    3  502    0  0.14155776280E+04  0.90221106626E+03 -0.22561901755E+03  0.16937446266E+04  0.46999998093E+01 0. -1.
       -5    1    3    3    0  502 -0.14155776280E+04 -0.90221106626E+03 -0.44799765104E+03  0.17374028935E+04  0.46999998093E+01 0.  1.
</event>
<event>
 5   0  0.8950809E-07  0.3485781E+04  0.7818609E-02  0.8117168E-01
       -2   -1    0    0    0  501  0.00000000000E+00  0.00000000000E+00  0.13755265322E+04  0.13755265322E+04  0.25500000920E-02 0. -1.
        2   -1    0    0  501    0  0.00000000000E+00  0.00000000000E+00 -0.22083665230E+04  0.22083665230E+04  0.25500000920E-02 0.  1.
    10030    2    1    2    0    0  0.00000000000E+00  0.00000000000E+00 -0.83283999079E+03  0.35838930551E+04  0.34857806845E+04 0.  0.
        2    1    3    3  502    0 -0.36812832549E+03  0.12876074711E+04  0.73041978302E+03  0.15254391246E+04  0.25500000920E-02 0. -1.
       -2    1    3    3    0  502  0.36812832549E+03 -0.12876074711E+04 -0.15632597738E+04  0.20584539305E+04  0.25500000920E-02 0.  1.
</event>
<event>
 5   0  0.8950809E-07  0.2853704E+04  0.7818609E-02  0.8286787E-01
        2   -1    0    0  501    0  0.00000000000E+00  0.00000000000E+00  0.16940666725E+04  0.16940666725E+04  0.25500000920E-02 0. -1.
       -2   -1    0    0    0  501  0.00000000000E+00  0.00000000000E+00 -0.12017867261E+04  0.12017867261E+04  0.25500000920E-02 0.  1.
    10030    2    1    2    0    0  0.00000000000E+00  0.00000000000E+00  0.49227994642E+03  0.28958533986E+04  0.28537041474E+04 0.  0.
        2    1    3    3  502    0 -0.10735808242E+04  0.71102941487E+03  0.86984657167E+03  0.15539535621E+04  0.25500000920E-02 0. -1.
       -2    1    3    3    0  502  0.10735808242E+04 -0.71102941487E+03 -0.37756662525E+03  0.13418998365E+04  0.25500000920E-02 0.  1.
</event>
<event>
 5   0  0.2972541E-07  0.3467798E+04  0.7818609E-02  0.8121464E-01
        1   -1    0    0  501    0  0.00000000000E+00  0.00000000000E+00  0.19949390610E+04  0.19949390610E+04  0.50400001928E-02 0. -1.
       -1   -1    0    0    0  501  0.00000000000E+00  0.00000000000E+00 -0.15070167383E+04  0.15070167383E+04  0.50400001928E-02 0.  1.
    10030    2    1    2    0    0  0.00000000000E+00  0.00000000000E+00  0.48792232271E+03  0.35019557993E+04  0.34677984698E+04 0.  0.
        3    1    3    3  502    0 -0.17149806611E+04  0.24880144503E+03  0.18554922782E+03  0.17428394513E+04  0.10100000352E+00 0. -1.
       -3    1    3    3    0  502  0.17149806611E+04 -0.24880144503E+03  0.30237309489E+03  0.17591163480E+04  0.10100000352E+00 0.  1.
</event>
<event>
 5   0  0.9311672E-07  0.3525635E+04  0.7818609E-02  0.8107741E-01
        2   -1    0    0  501    0  0.00000000000E+00  0.00000000000E+00  0.25286179929E+04  0.25286179929E+04  0.25500000920E-02 0.  1.
       -2   -1    0    0    0  501  0.00000000000E+00  0.00000000000E+00 -0.12289423633E+04  0.12289423633E+04  0.25500000920E-02 0. -1.
    10030    2    1    2    0    0  0.00000000000E+00  0.00000000000E+00  0.12996756296E+04  0.37575603562E+04  0.35256351326E+04 0.  0.
        4    1    3    3  502    0  0.90203198082E+03 -0.21272310256E+03  0.22480182099E+04  0.24315633444E+04  0.12699999809E+01 0.  1.
       -4    1    3    3    0  502 -0.90203198082E+03  0.21272310256E+03 -0.94834258028E+03  0.13259970118E+04  0.12699999809E+01 0. -1.
</event>
<event>
 5   0  0.2933506E-07  0.3490043E+04  0.7818609E-02  0.8116154E-01
        1   -1    0    0  501    0  0.00000000000E+00  0.00000000000E+00  0.21837840976E+04  0.21837840976E+04  0.50400001928E-02 0.  1.
       -1   -1    0    0    0  501  0.00000000000E+00  0.00000000000E+00 -0.13944146589E+04  0.13944146589E+04  0.50400001928E-02 0. -1.
    10030    2    1    2    0    0  0.00000000000E+00  0.00000000000E+00  0.78936943864E+03  0.35781987565E+04  0.34900432992E+04 0.  0.
        4    1    3    3  502    0 -0.76879655390E+03 -0.43047217763E+03 -0.11495966816E+04  0.14484227905E+04  0.12699999809E+01 0. -1.
       -4    1    3    3    0  502  0.76879655390E+03  0.43047217763E+03  0.19389661202E+04  0.21297759660E+04  0.12699999809E+01 0.  1.
</event>
<event>
 5   0  0.8950809E-07  0.3579211E+04  0.7818609E-02  0.8095270E-01
        2   -1    0    0  501    0  0.00000000000E+00  0.00000000000E+00  0.26240137077E+04  0.26240137077E+04  0.25500000920E-02 0.  1.
       -2   -1    0    0    0  501  0.00000000000E+00  0.00000000000E+00 -0.12205304856E+04  0.12205304856E+04  0.25500000920E-02 0. -1.
    10030    2    1    2    0    0  0.00000000000E+00  0.00000000000E+00  0.14034832221E+04  0.38445441933E+04  0.35792114914E+04 0.  0.
        2    1    3    3  502    0 -0.26874933713E+03 -0.83958426328E+03  0.23746169447E+04  0.25329693199E+04  0.25500000920E-02 0.  1.
       -2    1    3    3    0  502  0.26874933713E+03  0.83958426328E+03 -0.97113372265E+03  0.13115748734E+04  0.25500000920E-02 0. -1.
</event>
<event>
 5   0  0.2972541E-07  0.3494415E+04  0.7818609E-02  0.8115115E-01
        1   -1    0    0  501    0  0.00000000000E+00  0.00000000000E+00  0.14447609788E+04  0.14447609788E+04  0.50400001928E-02 0.  1.
       -1   -1    0    0    0  501  0.00000000000E+00  0.00000000000E+00 -0.21129683803E+04  0.21129683803E+04  0.50400001928E-02 0. -1.
    10030    2    1    2    0    0  0.00000000000E+00  0.00000000000E+00 -0.66820740146E+03  0.35577293591E+04  0.34944151243E+04 0.  0.
        3    1    3    3  502    0 -0.36567005086E+03  0.15247647014E+04  0.45064873760E+03  0.16314736515E+04  0.10100000352E+00 0.  1.
       -3    1    3    3    0  502  0.36567005086E+03 -0.15247647014E+04 -0.11188561391E+04  0.19262557075E+04  0.10100000352E+00 0. -1.
</event>
<event>
 5   0  0.2907000E-07  0.3483451E+04  0.7818609E-02  0.8117723E-01
       -3   -1    0    0    0  501  0.00000000000E+00  0.00000000000E+00  0.17217114039E+04  0.17217114069E+04  0.10100000352E+00 0.  1.
        3   -1    0    0  501    0  0.00000000000E+00  0.00000000000E+00 -0.17619720669E+04  0.17619720698E+04  0.10100000352E+00 0. -1.
    10030    2    1    2    0    0  0.00000000000E+00  0.00000000000E+00 -0.40260663004E+02  0.34836834767E+04  0.34834508242E+04 0.  0.
        5    1    3    3  502    0  0.11206461317E+04 -0.99064439361E+02  0.13095914309E+04  0.17264742458E+04  0.46999998093E+01 0.  1.
       -5    1    3    3    0  502 -0.11206461317E+04  0.99064439361E+02 -0.13498520939E+04  0.17572092309E+04  0.46999998093E+01 0. -1.
</event>
<event>
 5   0  0.9128871E-07  0.3516986E+04  0.7818609E-02  0.8109776E-01
        2   -1    0    0  501    0  0.00000000000E+00  0.00000000000E+00  0.12360428548E+04  0.12360428548E+04  0.25500000920E-02 0.  1.
       -2   -1    0    0    0  501  0.00000000000E+00  0.00000000000E+00 -0.25017726009E+04  0.25017726009E+04  0.25500000920E-02 0. -1.
    10030    2    1    2    0    0  0.00000000000E+00  0.00000000000E+00 -0.12657297461E+04  0.37378154557E+04  0.35169862938E+04 0.  0.
        1    1    3    3  502    0 -0.41186096834E+03 -0.16865076913E+04 -0.33535884312E+03  0.17681637943E+04  0.50400001928E-02 0.  1.
       -1    1    3    3    0  502  0.41186096834E+03  0.16865076913E+04 -0.93037090302E+03  0.19696516614E+04  0.50400001928E-02 0. -1.
</event>
<event>
 5   0  0.8845195E-07  0.3440042E+04  0.7818609E-02  0.8128148E-01
        2   -1    0    0  501    0  0.00000000000E+00  0.00000000000E+00  0.26608027184E+04  0.26608027184E+04  0.25500000920E-02 0. -1.
       -2   -1    0    0    0  501  0.00000000000E+00  0.00000000000E+00 -0.11118719670E+04  0.11118719670E+04  0.25500000920E-02 0.  1.
    10030    2    1    2    0    0  0.00000000000E+00  0.00000000000E+00  0.15489307513E+04  0.37726746854E+04  0.34400418325E+04 0.  0.
        5    1    3    3  502    0 -0.29710680591E+03  0.14136355396E+04  0.17984585171E+04  0.23067537841E+04  0.46999998093E+01 0. -1.
       -5    1    3    3    0  502  0.29710680591E+03 -0.14136355396E+04 -0.24952776579E+03  0.14659209013E+04  0.46999998093E+01 0.  1.
</event>
<event>
 5   0  0.3026332E-07  0.2813765E+04  0.7818609E-02  0.8299008E-01
       -1   -1    0    0    0  501  0.00000000000E+00  0.00000000000E+00  0.96335852814E+03  0.96335852815E+03  0.50400001928E-02 0.  1.
        1   -1    0    0  501    0  0.00000000000E+00  0.00000000000E+00 -0.20546017761E+04  0.20546017761E+04  0.50400001928E-02 0. -1.
    10030    2    1    2    0    0  0.00000000000E+00  0.00000000000E+00 -0.10912432480E+04  0.30179603043E+04  0.28137648395E+04 0.  0.
        1    1    3    3  502    0 -0.12782139514E+04  0.10192399663E+03  0.75264736790E+02  0.12844781771E+04  0.50400001928E-02 0.  1.
       -1    1    3    3    0  502  0.12782139514E+04 -0.10192399663E+03 -0.11665079848E+04  0.17334821272E+04  0.50400001928E-02 0. -1.
</event>
<event>
 5   0  0.2936607E-07  0.3483496E+04  0.7818609E-02  0.8117712E-01
        1   -1    0    0  501    0  0.00000000000E+00  0.00000000000E+00  0.26495820439E+04  0.26495820439E+04  0.50400001928E-02 0.  1.
       -1   -1    0    0    0  501  0.00000000000E+00  0.00000000000E+00 -0.11449674948E+04  0.11449674949E+04  0.50400001928E-02 0. -1.
    10030    2    1    2    0    0  0.00000000000E+00  0.00000000000E+00  0.15046145490E+04  0.37945495387E+04  0.34834955520E+04 0.  0.
        2    1    3    3  502    0 -0.12119326891E+04  0.11571485285E+04  0.12700504484E+04  0.21025702607E+04  0.25500000920E-02 0.  1.
       -2    1    3    3    0  502  0.12119326891E+04 -0.11571485285E+04  0.23456410066E+03  0.16919792780E+04  0.25500000920E-02 0. -1.
</event>
<event>
 5   0  0.2933506E-07  0.3501135E+04  0.7818609E-02  0.8113521E-01
        1   -1    0    0  501    0  0.00000000000E+00  0.00000000000E+00  0.12921497910E+04  0.12921497910E+04  0.50400001928E-02 0. -1.
       -1   -1    0    0    0  501  0.00000000000E+00  0.00000000000E+00 -0.23716191362E+04  0.23716191362E+04  0.50400001928E-02 0.  1.
    10030    2    1    2    0    0  0.00000000000E+00  0.00000000000E+00 -0.10794693452E+04  0.36637689273E+04  0.35011353423E+04 0.  0.
        4    1    3    3  502    0 -0.10849398266E+04  0.48210967041E+03 -0.18859455940E+04  0.22285234031E+04  0.12699999809E+01 0.  1.
       -4    1    3    3    0  502  0.10849398266E+04 -0.48210967041E+03  0.80647624881E+03  0.14352455241E+04  0.12699999809E+01 0. -1.
</event>
<event>
 5   0  0.8950809E-07  0.3511101E+04  0.7818609E-02  0.8111164E-01
        2   -1    0    0  501    0  0.00000000000E+00  0.00000000000E+00  0.24014496532E+04  0.24014496532E+04  0.25500000920E-02 0. -1.
       -2   -1    0    0    0  501  0.00000000000E+00  0.00000000000E+00 -0.12833737263E+04  0.12833737263E+04  0.25500000920E-02 0.  1.
    10030    2    1    2    0    0  0.00000000000E+00  0.00000000000E+00  0.11180759269E+04  0.36848233795E+04  0.35111009043E+04 0.  0.
        2    1    3    3  502    0 -0.40146219062E+03 -0.16626582119E+04  0.14405839869E+03  0.17164955701E+04  0.25500000920E-02 0.  1.
       -2    1    3    3    0  502  0.40146219062E+03  0.16626582119E+04  0.97401752821E+03  0.19683278094E+04  0.25500000920E-02 0. -1.
</event>
<event>
 5   0  0.8950809E-07  0.3511971E+04  0.7818609E-02  0.8110959E-01
        2   -1    0    0  501    0  0.00000000000E+00  0.00000000000E+00  0.10623199837E+04  0.10623199837E+04  0.25500000920E-02 0.  1.
       -2   -1    0    0    0  501  0.00000000000E+00  0.00000000000E+00 -0.29025953995E+04  0.29025953995E+04  0.25500000920E-02 0. -1.
    10030    2    1    2    0    0  0.00000000000E+00  0.00000000000E+00 -0.18402754158E+04  0.39649153832E+04  0.35119710121E+04 0.  0.
        2    1    3    3  502    0  0.26244100780E+03 -0.93022241614E+01  0.10400259007E+04  0.10726675571E+04  0.25500000920E-02 0.  1.
       -2    1    3    3    0  502 -0.26244100780E+03  0.93022241614E+01 -0.28803013165E+04  0.28922478261E+04  0.25500000920E-02 0. -1.
</event>
<event>
 5   0  0.9311672E-07  0.3139967E+04  0.7818609E-02  0.8204854E-01
        2   -1    0    0  501    0  0.00000000000E+00  0.00000000000E+00  0.18094507178E+04  0.18094507178E+04  0.25500000920E-02 0. -1.
       -2   -1    0    0    0  501  0.00000000000E+00  0.00000000000E+00 -0.13622078372E+04  0.13622078372E+04  0.25500000920E-02 0.  1.
    10030    2    1    2    0    0  0.00000000000E+00  0.00000000000E+00  0.44724288051E+03  0.31716585550E+04  0.31399668462E+04 0.  0.
        4    1    3    3  502    0  0.98793884216E+03 -0.91323940604E+03 -0.59375351522E+03  0.14705693518E+04  0.12699999809E+01 0.  1.
       -4    1    3    3    0  502 -0.98793884216E+03  0.91323940604E+03  0.10409963957E+04  0.17010892033E+04  0.12699999809E+01 0. -1.
</event>
<event>
 5   0  0.6188930E-07  0.3490496E+04  0.7818609E-02  0.8116046E-01
       -2   -1    0    0    0  501  0.00000000000E+00  0.00000000000E+00  0.21885564884E+04  0.21885564884E+04  0.25500000920E-02 0.  1.
        2   -1    0    0  501    0  0.00000000000E+00  0.00000000000E+00 -0.13917349113E+04  0.13917349113E+04  0.25500000920E-02 0. -1.
    10030    2    1    2    0    0  0.00000000000E+00  0.00000000000E+00  0.79682157717E+03  0.35802913997E+04  0.34904959362E+04 0.  0.
        3    1    3    3  502    0  0.54351691828E+03 -0.15741665261E+04  0.93383525101E+03  0.19093085603E+04  0.10100000352E+00 0.  1.
       -3    1    3    3    0  502 -0.54351691828E+03  0.15741665261E+04 -0.13701367384E+03  0.16709828393E+04  0.10100000352E+00 0. -1.
</event>
<event>
 5   0  0.8950809E-07  0.3532000E+04  0.7818609E-02  0.8106248E-01
        2   -1    0    0  501    0  0.00000000000E+00  0.00000000000E+00  0.19890451119E+04  0.19890451119E+04  0.25500000920E-02 0. -1.
       -2   -1    0    0    0  501  0.00000000000E+00  0.00000000000E+00 -0.15679663417E+04  0.15679663417E+04  0.25500000920E-02 0.  1.
    10030    2    1    2    0    0  0.00000000000E+00  0.00000000000E+00  0.42107877020E+03  0.35570114536E+04  0.35319998798E+04 0.  0.
        2    1    3    3  502    0  0.10883817816E+04  0.10053726874E+04  0.11782847082E+04  0.18930673513E+04  0.25500000920E-02 0. -1.
       -2    1    3    3    0  502 -0.10883817816E+04 -0.10053726874E+04 -0.75720593798E+03  0.16639441023E+04  0.25500000920E-02 0.  1.
</event>
<event>
 5   0  0.9128871E-07  0.3483223E+04  0.7818609E-02  0.8117777E-01
        2   -1    0    0  501    0  0.00000000000E+00  0.00000000000E+00  0.22660488824E+04  0.22660488824E+04  0.25500000920E-02 0. -1.
       -2   -1    0    0    0  501  0.00000000000E+00  0.00000000000E+00 -0.13385462107E+04  0.13385462107E+04  0.25500000920E-02 0.  1.
    10030    2    1    2    0    0  0.00000000000E+00  0.00000000000E+00  0.92750267173E+03  0.36045950931E+04  0.34832233031E+04 0.  0.
        1    1    3    3  502    0 -0.28488563462E+03  0.15361921722E+04 -0.33258496201E+03  0.15973913020E+04  0.50400001928E-02 0.  1.
       -1    1    3    3    0  502  0.28488563462E+03 -0.15361921722E+04  0.12600876337E+04  0.20072037912E+04  0.50400001928E-02 0. -1.
</event>
<event>
 5   0  0.9311672E-07  0.3308274E+04  0.7818609E-02  0.8160793E-01
       -2   -1    0    0    0  501  0.00000000000E+00  0.00000000000E+00  0.15199306374E+04  0.15199306374E+04  0.25500000920E-02 0.  1.
        2   -1    0    0  501    0  0.00000000000E+00  0.00000000000E+00 -0.18001938681E+04  0.18001938681E+04  0.25500000920E-02 0. -1.
    10030    2    1    2    0    0  0.00000000000E+00  0.00000000000E+00 -0.28026323078E+03  0.33201245055E+04  0.33082743619E+04 0.  0.
        4    1    3    3  502    0  0.94999892997E+03  0.12459898475E+04 -0.67229464980E+03  0.17049839812E+04  0.12699999809E+01 0. -1.
       -4    1    3    3    0  502 -0.94999892997E+03 -0.12459898475E+04  0.39203141902E+03  0.16151405243E+04  0.12699999809E+01 0.  1.
</event>
<event>
 5   0  0.9311672E-07  0.2893905E+04  0.7818609E-02  0.8274693E-01
       -2   -1    0    0    0  501  0.00000000000E+00  0.00000000000E+00  0.12699044009E+04  0.12699044009E+04  0.25500000920E-02 0. -1.
        2   -1    0    0  501    0  0.00000000000E+00  0.00000000000E+00 -0.16486840702E+04  0.16486840702E+04  0.25500000920E-02 0.  1.
    10030    2    1    2    0    0  0.00000000000E+00  0.00000000000E+00 -0.37877966936E+03  0.29185884711E+04  0.28939047368E+04 0.  0.
        4    1    3    3  502    0  0.11125937064E+04 -0.68783328745E+03  0.43450627520E+03  0.13783238745E+04  0.12699999809E+01 0. -1.
       -4    1    3    3    0  502 -0.11125937064E+04  0.68783328745E+03 -0.81328594456E+03  0.15402645966E+04  0.12699999809E+01 0.  1.
</event>
<event>
 5   0  0.6188930E-07  0.3500710E+04  0.7818609E-02  0.8113622E-01
        2   -1    0    0  501    0  0.00000000000E+00  0.00000000000E+00  0.17724559405E+04  0.17724559405E+04  0.25500000920E-02 0. -1.
       -2   -1    0    0    0  501  0.00000000000E+00  0.00000000000E+00 -0.17285298926E+04  0.17285298926E+04  0.25500000920E-02 0.  1.
    10030    2    1    2    0    0  0.00000000000E+00  0.00000000000E+00  0.43926047911E+02  0.35009858331E+04  0.35007102573E+04 0.  0.
        3    1    3    3  502    0 -0.57232758595E+03  0.89403681166E+03  0.14137917974E+04  0.17679558656E+04  0.10100000352E+00 0. -1.
       -3    1    3    3    0  502  0.57232758595E+03 -0.89403681166E+03 -0.13698657495E+04  0.17330299674E+04  0.10100000352E+00 0.  1.
</event>
<event>
 5   0  0.2936607E-07  0.3519071E+04  0.7818609E-02  0.8109285E-01
       -1   -1    0    0    0  501  0.00000000000E+00  0.00000000000E+00  0.23503343990E+04  0.23503343990E+04  0.50400001928E-02 0. -1.
        1   -1    0    0  501    0  0.00000000000E+00  0.00000000000E+00 -0.13172446801E+04  0.13172446801E+04  0.50400001928E-02 0.  1.
    10030    2    1    2    0    0  0.00000000000E+00  0.00000000000E+00  0.10330897189E+04  0.36675790790E+04  0.35190711749E+04 0.  0.
        2    1    3    3  502    0 -0.11243218181E+04  0.11713205009E+04  0.12233032395E+04  0.20328704047E+04  0.25500000920E-02 0. -1.
       -2    1    3    3    0  502  0.11243218181E+04 -0.11713205009E+04 -0.19021352059E+03  0.16347086743E+04  0.25500000920E-02 0.  1.
</event>
<event>
 5   0  0.6188930E-07  0.3532274E+04  0.7818609E-02  0.8106184E-01
        2   -1    0    0  501    0  0.00000000000E+00  0.00000000000E+00  0.10798453519E+04  0.10798453519E+04  0.25500000920E-02 0. -1.
       -2   -1    0    0    0  501  0.00000000000E+00  0.00000000000E+00 -0.28885994230E+04  0.28885994230E+04  0.25500000920E-02 0.  1.
    10030    2    1    2    0    0  0.00000000000E+00  0.00000000000E+00 -0.18087540711E+04  0.39684447750E+04  0.35322744290E+04 0.  0.
        3    1    3    3  502    0  0.59716307534E+02  0.67064111209E+03 -0.27387560015E+04  0.28203031725E+04  0.10100000352E+00 0.  1.
       -3    1    3    3    0  502 -0.59716307534E+02 -0.67064111209E+03  0.93000193038E+03  0.11481416025E+04  0.10100000352E+00 0. -1.
</event>
<event>
 5   0  0.6188930E-07  0.3518187E+04  0.7818609E-02  0.8109493E-01
        2   -1    0    0  501    0  0.00000000000E+00  0.00000000000E+00  0.21949353122E+04  0.21949353122E+04  0.25500000920E-02 0. -1.
       -2   -1    0    0    0  501  0.00000000000E+00  0.00000000000E+00 -0.14097956509E+04  0.14097956509E+04  0.25500000920E-02 0.  1.
    10030    2    1    2    0    0  0.00000000000E+00  0.00000000000E+00  0.78513966133E+03  0.36047309631E+04  0.35181871793E+04 0.  0.
        3    1    3    3  502    0 -0.39952035664E+03  0.94296201910E+03 -0.10728633129E+04  0.14831822488E+04  0.10100000352E+00 0.  1.
       -3    1    3    3    0  502  0.39952035664E+03 -0.94296201910E+03  0.18580029742E+04  0.21215487143E+04  0.10100000352E+00 0. -1.
</event>
<event>
 5   0  0.8845195E-07  0.3293982E+04  0.7818609E-02  0.8164428E-01
        2   -1    0    0  501    0  0.00000000000E+00  0.00000000000E+00  0.23550526347E+04  0.23550526347E+04  0.25500000920E-02 0.  1.
       -2   -1    0    0    0  501  0.00000000000E+00  0.00000000000E+00 -0.11518122966E+04  0.11518122966E+04  0.25500000920E-02 0. -1.
    10030    2    1    2    0    0  0.00000000000E+00  0.00000000000E+00  0.12032403381E+04  0.35068649314E+04  0.32939815324E+04 0.  0.
        5    1    3    3  502    0 -0.20571212230E+02 -0.16002704906E+04  0.18755285775E+03  0.16113618409E+04  0.46999998093E+01 0. -1.
       -5    1    3    3    0  502  0.20571212230E+02  0.16002704906E+04  0.10156874804E+04  0.18955030904E+04  0.46999998093E+01 0.  1.
</event>
<event>
 5   0  0.2933506E-07  0.3553382E+04  0.7818609E-02  0.8101254E-01
       -1   -1    0    0    0  501  0.00000000000E+00  0.00000000000E+00  0.20266207316E+04  0.20266207316E+04  0.50400001928E-02 0.  1.
        1   -1    0    0  501    0  0.00000000000E+00  0.00000000000E+00 -0.15575838583E+04  0.15575838583E+04  0.50400001928E-02 0. -1.
    10030    2    1    2    0    0  0.00000000000E+00  0.00000000000E+00  0.46903687329E+03  0.35842045899E+04  0.35533824666E+04 0.  0.
        4    1    3    3  502    0  0.12225319925E+04 -0.40265765282E+03  0.14698507284E+04  0.19537605879E+04  0.12699999809E+01 0.  1.
       -4    1    3    3    0  502 -0.12225319925E+04  0.40265765282E+03 -0.10008138551E+04  0.16304440020E+04  0.12699999809E+01 0. -1.
</event>
<event>
 5   0  0.3061330E-07  0.3489410E+04  0.7818609E-02  0.8116304E-01
        1   -1    0    0  501    0  0.00000000000E+00  0.00000000000E+00  0.17328215552E+04  0.17328215552E+04  0.50400001928E-02 0.  1.
       -1   -1    0    0    0  501  0.00000000000E+00  0.00000000000E+00 -0.17566695854E+04  0.17566695854E+04  0.50400001928E-02 0. -1.
    10030    2    1    2    0    0  0.00000000000E+00  0.00000000000E+00 -0.23848030235E+02  0.34894911406E+04  0.34894096481E+04 0.  0.
        5    1    3    3  502    0  0.32191306127E+03 -0.10750772655E+04  0.13239790660E+04  0.17356156841E+04  0.46999998093E+01 0.  1.
       -5    1    3    3    0  502 -0.32191306127E+03  0.10750772655E+04 -0.13478270962E+04  0.17538754565E+04  0.46999998093E+01 0. -1.
</event>
<event>
 5   0  0.2972541E-07  0.3513661E+04  0.7818609E-02  0.8110560E-01
       -1   -1    0    0    0  501  0.00000000000E+00  0.00000000000E+00  0.12998074512E+04  0.12998074512E+04  0.50400001928E-02 0. -1.
        1   -1    0    0  501    0  0.00000000000E+00  0.00000000000E+00 -0.23745469770E+04  0.23745469770E+04  0.50400001928E-02 0.  1.
    10030    2    1    2    0    0  0.00000000000E+00  0.00000000000E+00 -0.10747395258E+04  0.36743544282E+04  0.35136612551E+04 0.  0.
        3    1    3    3  502    0 -0.14166570914E+04 -0.27382390271E+03  0.51074405921E+03  0.15306065296E+04  0.10100000352E+00 0. -1.
       -3    1    3    3    0  502  0.14166570914E+04  0.27382390271E+03 -0.15854835850E+04  0.21437478986E+04  0.10100000352E+00 0.  1.
</event>
<event>
 5   0  0.2907000E-07  0.3481789E+04  0.7818609E-02  0.8118119E-01
        3   -1    0    0  501    0  0.00000000000E+00  0.00000000000E+00  0.20295212586E+04  0.20295212611E+04  0.10100000352E+00 0.  1.
       -3   -1    0    0    0  501  0.00000000000E+00  0.00000000000E+00 -0.14933143685E+04  0.14933143720E+04  0.10100000352E+00 0. -1.
    10030    2    1    2    0    0  0.00000000000E+00  0.00000000000E+00  0.53620689002E+03  0.35228356330E+04  0.34817887743E+04 0.  0.
        4    1    3    3  502    0  0.12217458631E+04  0.32422892263E+03 -0.94305673687E+03  0.15770684735E+04  0.12699999809E+01 0. -1.
       -4    1    3    3    0  502 -0.12217458631E+04 -0.32422892263E+03  0.14792636269E+04  0.19457671595E+04  0.12699999809E+01 0.  1.
</event>
<event>
 5   0  0.9128871E-07  0.3483735E+04  0.7818609E-02  0.8117655E-01
       -2   -1    0    0    0  501  0.00000000000E+00  0.00000000000E+00  0.16453938165E+04  0.16453938165E+04  0.25500000920E-02 0. -1.
        2   -1    0    0  501    0  0.00000000000E+00  0.00000000000E+00 -0.18439973477E+04  0.18439973477E+04  0.25500000920E-02 0.  1.
    10030    2    1    2    0    0  0.00000000000E+00  0.00000000000E+00 -0.19860353120E+03  0.34893911642E+04  0.34837346820E+04 0.  0.
        1    1    3    3  502    0 -0.53337120524E+03  0.13019920104E+04 -0.11278253235E+04  0.18032354250E+04  0.50400001928E-02 0.  1.
       -1    1    3    3    0  502  0.53337120524E+03 -0.13019920104E+04  0.92922179231E+03  0.16861557392E+04  0.50400001928E-02 0. -1.
</event>
<event>
 5   0  0.9128871E-07  0.3525659E+04  0.7818609E-02  0.8107736E-01
        2   -1    0    0  501    0  0.00000000000E+00  0.00000000000E+00  0.18716899763E+04  0.18716899763E+04  0.25500000920E-02 0.  1.
       -2   -1    0    0    0  501  0.00000000000E+00  0.00000000000E+00 -0.16603005637E+04  0.16603005637E+04  0.25500000920E-02 0. -1.
    10030    2    1    2    0    0  0.00000000000E+00  0.00000000000E+00  0.21138941263E+03  0.35319905400E+04  0.35256590435E+04 0.  0.
        1    1    3    3  502    0  0.16487394102E+04  0.25619923968E+03  0.67556442319E+03  0.18001019369E+04  0.50400001928E-02 0.  1.
       -1    1    3    3    0  502 -0.16487394102E+04 -0.25619923968E+03 -0.46417501056E+03  0.17318886031E+04  0.50400001928E-02 0. -1.
</event>
<event>
 5   0  0.2933506E-07  0.3264138E+04  0.7818609E-02  0.8172081E-01
        1   -1    0    0  501    0  0.00000000000E+00  0.00000000000E+00  0.28225544843E+04  0.28225544844E+04  0.50400001928E-02 0. -1.
       -1   -1    0    0    0  501  0.00000000000E+00  0.00000000000E+00 -0.94370177865E+03  0.94370177867E+03  0.50400001928E-02 0.  1.
    10030    2    1    2    0    0  0.00000000000E+00  0.00000000000E+00  0.18788527057E+04  0.37662562630E+04  0.32641382858E+04 0.  0.
        4    1    3    3  502    0 -0.12334638014E+04 -0.10455780300E+04  0.11947895341E+04  0.20105198358E+04  0.12699999809E+01 0. -1.
       -4    1    3    3    0  502  0.12334638014E+04  0.10455780300E+04  0.68406317155E+03  0.17557364272E+04  0.12699999809E+01 0.  1.
</event>
<event>
 5   0  0.8950809E-07  0.3510253E+04  0.7818609E-02  0.8111364E-01
        2   -1    0    0  501    0  0.00000000000E+00  0.00000000000E+00  0.16696521555E+04  0.16696521555E+04  0.25500000920E-02 0. -1.
       -2   -1    0    0    0  501  0.00000000000E+00  0.00000000000E+00 -0.18449762106E+04  0.18449762106E+04  0.25500000920E-02 0.  1.
    10030    2    1    2    0    0  0.00000000000E+00  0.00000000000E+00 -0.17532405511E+03  0.35146283661E+04  0.35102527014E+04 0.  0.
        2    1    3    3  502    0 -0.86050008314E+03 -0.78568157883E+03  0.12264955361E+04  0.16917586224E+04  0.25500000920E-02 0. -1.
       -2    1    3    3    0  502  0.86050008314E+03  0.78568157883E+03 -0.14018195912E+04  0.18228697437E+04  0.25500000920E-02 0.  1.
</event>
<event>
 5   0  0.3061330E-07  0.3507310E+04  0.7818609E-02  0.8112060E-01
       -1   -1    0    0    0  501  0.00000000000E+00  0.00000000000E+00  0.11521724667E+04  0.11521724667E+04  0.50400001928E-02 0.  1.
        1   -1    0    0  501    0  0.00000000000E+00  0.00000000000E+00 -0.26691359945E+04  0.26691359945E+04  0.50400001928E-02 0. -1.
    10030    2    1    2    0    0  0.00000000000E+00  0.00000000000E+00 -0.15169635278E+04  0.38213084611E+04  0.35073095117E+04 0.  0.
        5    1    3    3  502    0  0.13692380202E+04  0.78163786327E+03  0.78053932760E+02  0.15785705596E+04  0.46999998093E+01 0.  1.
       -5    1    3    3    0  502 -0.13692380202E+04 -0.78163786327E+03 -0.15950174606E+04  0.22427379015E+04  0.46999998093E+01 0. -1.
</event>
<event>
 5   0  0.8845195E-07  0.3505534E+04  0.7818609E-02  0.8112480E-01
        2   -1    0    0  501    0  0.00000000000E+00  0.00000000000E+00  0.12971534726E+04  0.12971534726E+04  0.25500000920E-02 0. -1.
       -2   -1    0    0    0  501  0.00000000000E+00  0.00000000000E+00 -0.23684104511E+04  0.23684104511E+04  0.25500000920E-02 0.  1.
    10030    2    1    2    0    0  0.00000000000E+00  0.00000000000E+00 -0.10712569785E+04  0.36655639237E+04  0.35055338202E+04 0.  0.
        5    1    3    3  502    0  0.19607542965E+03  0.57965625901E+03  0.11818262361E+04  0.13308577291E+04  0.46999998093E+01 0. -1.
       -5    1    3    3    0  502 -0.19607542965E+03 -0.57965625901E+03 -0.22530832147E+04  0.23347061946E+04  0.46999998093E+01 0.  1.
</event>
<event>
 5   0  0.8845195E-07  0.3512364E+04  0.7818609E-02  0.8110866E-01
        2   -1    0    0  501    0  0.00000000000E+00  0.00000000000E+00  0.12342174371E+04  0.12342174371E+04  0.25500000920E-02 0. -1.
       -2   -1    0    0    0  501  0.00000000000E+00  0.00000000000E+00 -0.24988908346E+04  0.24988908346E+04  0.25500000920E-02 0.  1.
    10030    2    1    2    0    0  0.00000000000E+00  0.00000000000E+00 -0.12646733975E+04  0.37331082717E+04  0.35123636722E+04 0.  0.
        5    1    3    3  502    0 -0.14152266070E+04  0.87137791149E+03 -0.12354377719E+04  0.20708680286E+04  0.46999998093E+01 0.  1.
       -5    1    3    3    0  502  0.14152266070E+04 -0.87137791149E+03 -0.29235625574E+02  0.16622402430E+04  0.46999998093E+01 0. -1.
</event>
<event>
 5   0  0.3026332E-07  0.3521294E+04  0.7818609E-02  0.8108762E-01
        1   -1    0    0  501    0  0.00000000000E+00  0.00000000000E+00  0.24563781847E+04  0.24563781847E+04  0.50400001928E-02 0. -1.
       -1   -1    0    0    0  501  0.00000000000E+00  0.00000000000E+00 -0.12619706181E+04  0.12619706181E+04  0.50400001928E-02 0.  1.
    10030    2    1    2    0    0  0.00000000000E+00  0.00000000000E+00  0.11944075666E+04  0.37183488028E+04  0.35212935668E+04 0.  0.
        1    1    3    3  502    0 -0.11481169784E+04  0.13348049140E+04  0.59658687785E+03  0.18589762391E+04  0.50400001928E-02 0.  1.
       -1    1    3    3    0  502  0.11481169784E+04 -0.13348049140E+04  0.59782068879E+03  0.18593725637E+04  0.50400001928E-02 0. -1.
</event>
<event>
 5   0  0.2936607E-07  0.3547846E+04  0.7818609E-02  0.8102544E-01
       -1   -1    0    0    0  501  0.00000000000E+00  0.00000000000E+00  0.13772659623E+04  0.13772659623E+04  0.50400001928E-02 0. -1.
        1   -1    0    0  501    0  0.00000000000E+00  0.00000000000E+00 -0.22848185082E+04  0.22848185082E+04  0.50400001928E-02 0.  1.
    10030    2    1    2    0    0  0.00000000000E+00  0.00000000000E+00 -0.90755254590E+03  0.36620844706E+04  0.35478459727E+04 0.  0.
        2    1    3    3  502    0 -0.76155263698E+03  0.15792326908E+04 -0.73240215047E+03  0.19000924242E+04  0.25500000920E-02 0.  1.
       -2    1    3    3    0  502  0.76155263698E+03 -0.15792326908E+04 -0.17515039543E+03  0.17619920464E+04  0.25500000920E-02 0. -1.
</event>
<event>
 5   0  0.6188930E-07  0.3510039E+04  0.7818609E-02  0.8111415E-01
       -2   -1    0    0    0  501  0.00000000000E+00  0.00000000000E+00  0.18849736486E+04  0.18849736486E+04  0.25500000920E-02 0.  1.
        2   -1    0    0  501    0  0.00000000000E+00  0.00000000000E+00 -0.16340250312E+04  0.16340250312E+04  0.25500000920E-02 0. -1.
    10030    2    1    2    0    0  0.00000000000E+00  0.00000000000E+00  0.25094861746E+03  0.35189986798E+04  0.35100393872E+04 0.  0.
        3    1    3    3  502    0  0.76076312754E+03 -0.52997499070E+03  0.16193986369E+04  0.18660348288E+04  0.10100000352E+00 0.  1.
       -3    1    3    3    0  502 -0.76076312754E+03  0.52997499070E+03 -0.13684500194E+04  0.16529638510E+04  0.10100000352E+00 0. -1.
</event>
<event>
 5   0  0.9128871E-07  0.3474354E+04  0.7818609E-02  0.8119895E-01
       -2   -1    0    0    0  501  0.00000000000E+00  0.00000000000E+00  0.10964811527E+04  0.10964811527E+04  0.25500000920E-02 0.  1.
        2   -1    0    0  501    0  0.00000000000E+00  0.00000000000E+00 -0.27522445356E+04  0.27522445356E+04  0.25500000920E-02 0. -1.
    10030    2    1    2    0    0  0.00000000000E+00  0.00000000000E+00 -0.16557633830E+04  0.38487256883E+04  0.34743541908E+04 0.  0.
        1    1    3    3  502    0  0.14800070870E+02 -0.14675916099E+04  0.20163740302E+03  0.14814526040E+04  0.50400001928E-02 0.  1.
       -1    1    3    3    0  502 -0.14800070870E+02  0.14675916099E+04 -0.18574007860E+04  0.23672730842E+04  0.50400001928E-02 0. -1.
</event>
<event>
 5   0  0.8845195E-07  0.3543509E+04  0.7818609E-02  0.8103556E-01
       -2   -1    0    0    0  501  0.00000000000E+00  0.00000000000E+00  0.17113449907E+04  0.17113449907E+04  0.25500000920E-02 0. -1.
        2   -1    0    0  501    0  0.00000000000E+00  0.00000000000E+00 -0.18342966276E+04  0.18342966276E+04  0.25500000920E-02 0.  1.
    10030    2    1    2    0    0  0.00000000000E+00  0.00000000000E+00 -0.12295163687E+03  0.35456416182E+04  0.35435091900E+04 0.  0.
        5    1    3    3  502    0 -0.22007771338E+03 -0.16195464242E+04 -0.74579339547E+03  0.17965507783E+04  0.46999998093E+01 0. -1.
       -5    1    3    3    0  502  0.22007771338E+03  0.16195464242E+04  0.62284175860E+03  0.17490908400E+04  0.46999998093E+01 0.  1.
</event>
<event>
 5   0  0.8845195E-07  0.3495234E+04  0.7818609E-02  0.8114920E-01
       -2   -1    0    0    0  501  0.00000000000E+00  0.00000000000E+00  0.24622204786E+04  0.24622204786E+04  0.25500000920E-02 0.  1.
        2   -1    0    0  501    0  0.00000000000E+00  0.00000000000E+00 -0.12404110726E+04  0.12404110726E+04  0.25500000920E-02 0. -1.
    10030    2    1    2    0    0  0.00000000000E+00  0.00000000000E+00  0.12218094060E+04  0.37026315512E+04  0.34952342095E+04 0.  0.
        5    1    3    3  502    0  0.66656813866E+02 -0.48279123031E+03  0.23887656950E+04  0.24379815706E+04  0.46999998093E+01 0.  1.
       -5    1    3    3    0  502 -0.66656813866E+02  0.48279123031E+03 -0.11669562890E+04  0.12646499806E+04  0.46999998093E+01 0. -1.
</event>
<event>
 5   0  0.6188930E-07  0.3449255E+04  0.7818609E-02  0.8125922E-01
       -2   -1    0    0    0  501  0.00000000000E+00  0.00000000000E+00  0.14411622145E+04  0.14411622145E+04  0.25500000920E-02 0. -1.
        2   -1    0    0  501    0  0.00000000000E+00  0.00000000000E+00 -0.20638485958E+04  0.20638485958E+04  0.25500000920E-02 0.  1.
    10030    2    1    2    0    0  0.00000000000E+00  0.00000000000E+00 -0.62268638126E+03  0.35050108103E+04  0.34492553473E+04 0.  0.
        3    1    3    3  502    0 -0.14347711475E+04  0.81940054794E+03 -0.81365653807E+03  0.18417444111E+04  0.10100000352E+00 0. -1.
       -3    1    3    3    0  502  0.14347711475E+04 -0.81940054794E+03  0.19097015681E+03  0.16632663992E+04  0.10100000352E+00 0.  1.
</event>
<event>
 5   0  0.9311672E-07  0.3696377E+04  0.7818609E-02  0.8068765E-01
       -2   -1    0    0    0  501  0.00000000000E+00  0.00000000000E+00  0.14981167005E+04  0.14981167005E+04  0.25500000920E-02 0.  1.
        2   -1    0    0  501    0  0.00000000000E+00  0.00000000000E+00 -0.22800629127E+04  0.22800629127E+04  0.25500000920E-02 0. -1.
    10030    2    1    2    0    0  0.00000000000E+00  0.00000000000E+00 -0.78194621218E+03  0.37781796132E+04  0.36963767815E+04 0.  0.
        4    1    3    3  502    0  0.40635975375E+03 -0.72827631025E+03  0.12948558020E+04  0.15401843378E+04  0.12699999809E+01 0.  1.
       -4    1    3    3    0  502 -0.40635975375E+03  0.72827631025E+03 -0.20768020142E+04  0.22379952754E+04  0.12699999809E+01 0. -1.
</event>
<event>
 5   0  0.3061330E-07  0.3483994E+04  0.7818609E-02  0.8117594E-01
       -1   -1    0    0    0  501  0.00000000000E+00  0.00000000000E+00  0.13522952302E+04  0.13522952302E+04  0.50400001928E-02 0.  1.
        1   -1    0    0  501    0  0.00000000000E+00  0.00000000000E+00 -0.22440022574E+04  0.22440022574E+04  0.50400001928E-02 0. -1.
    10030    2    1    2    0    0  0.00000000000E+00  0.00000000000E+00 -0.89170702718E+03  0.35962974875E+04  0.34839940007E+04 0.  0.
        5    1    3    3  502    0 -0.92112703879E+03 -0.54073812400E+03  0.97460667763E+03  0.14459436387E+04  0.46999998093E+01 0.  1.
       -5    1    3    3    0  502  0.92112703879E+03  0.54073812400E+03 -0.18663137048E+04  0.21503538488E+04  0.46999998093E+01 0. -1.
</event>
<event>
 5   0  0.6188930E-07  0.3355865E+04  0.7818609E-02  0.8148824E-01
        2   -1    0    0  501    0  0.00000000000E+00  0.00000000000E+00  0.20202953878E+04  0.20202953878E+04  0.25500000920E-02 0. -1.
       -2   -1    0    0    0  501  0.00000000000E+00  0.00000000000E+00 -0.13935873908E+04  0.13935873908E+04  0.25500000920E-02 0.  1.
    10030    2    1    2    0    0  0.00000000000E+00  0.00000000000E+00  0.62670799696E+03  0.34138827786E+04  0.33558654193E+04 0.  0.
        3    1    3    3  502    0 -0.58686676447E+03  0.36411112936E+03  0.18689966624E+04  0.19925205263E+04  0.10100000352E+00 0. -1.
       -3    1    3    3    0  502  0.58686676447E+03 -0.36411112936E+03 -0.12422886654E+04  0.14213622523E+04  0.10100000352E+00 0.  1.
</event>
<event>
 5   0  0.9311672E-07  0.3477410E+04  0.7818609E-02  0.8119164E-01
        2   -1    0    0  501    0  0.00000000000E+00  0.00000000000E+00  0.23656170463E+04  0.23656170463E+04  0.25500000920E-02 0. -1.
       -2   -1    0    0    0  501  0.00000000000E+00  0.00000000000E+00 -0.12779309595E+04  0.12779309595E+04  0.25500000920E-02 0.  1.
    10030    2    1    2    0    0  0.00000000000E+00  0.00000000000E+00  0.10876860868E+04  0.36435480058E+04  0.34774101063E+04 0.  0.
        4    1    3    3  502    0 -0.65099669482E+03  0.12987951171E+04 -0.45700451196E+03  0.15229971076E+04  0.12699999809E+01 0.  1.
       -4    1    3    3    0  502  0.65099669482E+03 -0.12987951171E+04  0.15446905988E+04  0.21205508982E+04  0.12699999809E+01 0. -1.
</event>
<event>
 5   0  0.9128871E-07  0.3509677E+04  0.7818609E-02  0.8111501E-01
        2   -1    0    0  501    0  0.00000000000E+00  0.00000000000E+00  0.25323789923E+04  0.25323789923E+04  0.25500000920E-02 0.  1.
       -2   -1    0    0    0  501  0.00000000000E+00  0.00000000000E+00 -0.12160334805E+04  0.12160334805E+04  0.25500000920E-02 0. -1.
    10030    2    1    2    0    0  0.00000000000E+00  0.00000000000E+00  0.13163455118E+04  0.37484124729E+04  0.35096767031E+04 0.  0.
        1    1    3    3  502    0 -0.10025794094E+04  0.13073786190E+04  0.13034679184E+04  0.21008172076E+04  0.50400001928E-02 0.  1.
       -1    1    3    3    0  502  0.10025794094E+04 -0.13073786190E+04  0.12877593378E+02  0.16475952652E+04  0.50400001928E-02 0. -1.
</event>
<event>
 5   0  0.2933506E-07  0.3471790E+04  0.7818609E-02  0.8120508E-01
       -1   -1    0    0    0  501  0.00000000000E+00  0.00000000000E+00  0.14317645318E+04  0.14317645318E+04  0.50400001928E-02 0. -1.
        1   -1    0    0  501    0  0.00000000000E+00  0.00000000000E+00 -0.21046280367E+04  0.21046280367E+04  0.50400001928E-02 0.  1.
    10030    2    1    2    0    0  0.00000000000E+00  0.00000000000E+00 -0.67286350498E+03  0.35363925685E+04  0.34717901870E+04 0.  0.
        4    1    3    3  502    0 -0.14200903006E+04 -0.83362711565E+03 -0.89596140218E+03  0.18746570558E+04  0.12699999809E+01 0. -1.
       -4    1    3    3    0  502  0.14200903006E+04  0.83362711565E+03  0.22309789720E+03  0.16617355127E+04  0.12699999809E+01 0.  1.
</event>
<event>
 5   0  0.6188930E-07  0.3044883E+04  0.7818609E-02  0.8231029E-01
       -2   -1    0    0    0  501  0.00000000000E+00  0.00000000000E+00  0.11313374220E+04  0.11313374220E+04  0.25500000920E-02 0. -1.
        2   -1    0    0  501    0  0.00000000000E+00  0.00000000000E+00 -0.20487500812E+04  0.20487500812E+04  0.25500000920E-02 0.  1.
    10030    2    1    2    0    0  0.00000000000E+00  0.00000000000E+00 -0.91741265922E+03  0.31800875033E+04  0.30448826810E+04 0.  0.
        3    1    3    3  502    0  0.10539384902E+04 -0.71603164798E+03  0.41156482153E+03  0.13389821786E+04  0.10100000352E+00 0. -1.
       -3    1    3    3    0  502 -0.10539384902E+04  0.71603164798E+03 -0.13289774807E+04  0.18411053247E+04  0.10100000352E+00 0.  1.
</event>
<event>
 5   0  0.8845195E-07  0.3502142E+04  0.7818609E-02  0.8113283E-01
        2   -1    0    0  501    0  0.00000000000E+00  0.00000000000E+00  0.17881906524E+04  0.17881906524E+04  0.25500000920E-02 0.  1.
       -2   -1    0    0    0  501  0.00000000000E+00  0.00000000000E+00 -0.17147217189E+04  0.17147217189E+04  0.25500000920E-02 0. -1.
    10030    2    1    2    0    0  0.00000000000E+00  0.00000000000E+00  0.73468933463E+02  0.35029123713E+04  0.35021418299E+04 0.  0.
        5    1    3    3  502    0 -0.11752648054E+04 -0.84480437072E+03  0.10224894683E+04  0.17721310872E+04  0.46999998093E+01 0.  1.
       -5    1    3    3    0  502  0.11752648054E+04  0.84480437072E+03 -0.94902053481E+03  0.17307812840E+04  0.46999998093E+01 0. -1.
</event>
<event>
 5   0  0.3026332E-07  0.3518351E+04  0.7818609E-02  0.8109455E-01
        1   -1    0    0  501    0  0.00000000000E+00  0.00000000000E+00  0.20957996992E+04  0.20957996992E+04  0.50400001928E-02 0. -1.
       -1   -1    0    0    0  501  0.00000000000E+00  0.00000000000E+00 -0.14766192037E+04  0.14766192038E+04  0.50400001928E-02 0.  1.
    10030    2    1    2    0    0  0.00000000000E+00  0.00000000000E+00  0.61918049541E+03  0.35724189029E+04  0.35183507972E+04 0.  0.
        1    1    3    3  502    0  0.16503804278E+04  0.53694508959E+03  0.17714050873E+02  0.17356207459E+04  0.50400001928E-02 0.  1.
       -1    1    3    3    0  502 -0.16503804278E+04 -0.53694508959E+03  0.60146644453E+03  0.18367981571E+04  0.50400001928E-02 0. -1.
</event>
<event>
 5   0  0.3061330E-07  0.3510742E+04  0.7818609E-02  0.8111249E-01
       -1   -1    0    0    0  501  0.00000000000E+00  0.00000000000E+00  0.29244485703E+04  0.29244485703E+04  0.50400001928E-02 0. -1.
        1   -1    0    0  501    0  0.00000000000E+00  0.00000000000E+00 -0.10536441450E+04  0.10536441450E+04  0.50400001928E-02 0.  1.
    10030    2    1    2    0    0  0.00000000000E+00  0.00000000000E+00  0.18708044253E+04  0.39780927153E+04  0.35107424362E+04 0.  0.
        5    1    3    3  502    0  0.13787956167E+04  0.81418837811E+03  0.12040135408E+03  0.16057704207E+04  0.46999998093E+01 0. -1.
       -5    1    3    3    0  502 -0.13787956167E+04 -0.81418837811E+03  0.17504030713E+04  0.23723222946E+04  0.46999998093E+01 0.  1.
</event>
<event>
 5   0  0.2936607E-07  0.3517439E+04  0.7818609E-02  0.8109669E-01
        1   -1    0    0  501    0  0.00000000000E+00  0.00000000000E+00  0.16206387541E+04  0.16206387541E+04  0.50400001928E-02 0.  1.
       -1   -1    0    0    0  501  0.00000000000E+00  0.00000000000E+00 -0.19085654159E+04  0.19085654159E+04  0.50400001928E-02 0. -1.
    10030    2    1    2    0    0  0.00000000000E+00  0.00000000000E+00 -0.28792666179E+03  0.35292041700E+04  0.35174394538E+04 0.  0.
        2    1    3    3  502    0  0.70382841539E+03 -0.72710939731E+03  0.12992609142E+04  0.16468580501E+04  0.25500000920E-02 0.  1.
       -2    1    3    3    0  502 -0.70382841539E+03  0.72710939731E+03 -0.15871875760E+04  0.18823461199E+04  0.25500000920E-02 0. -1.
</event>
<event>
 5   0  0.9311672E-07  0.3483819E+04  0.7818609E-02  0.8117635E-01
        2   -1    0    0  501    0  0.00000000000E+00  0.00000000000E+00  0.26624550056E+04  0.26624550056E+04  0.25500000920E-02 0. -1.
       -2   -1    0    0    0  501  0.00000000000E+00  0.00000000000E+00 -0.11396430278E+04  0.11396430278E+04  0.25500000920E-02 0.  1.
    10030    2    1    2    0    0  0.00000000000E+00  0.00000000000E+00  0.15228119778E+04  0.38020980334E+04  0.34838187576E+04 0.  0.
        4    1    3    3  502    0  0.54416814896E+03  0.45105494626E+03 -0.97611108410E+03  0.12051406558E+04  0.12699999809E+01 0.  1.
       -4    1    3    3    0  502 -0.54416814896E+03 -0.45105494626E+03  0.24989230619E+04  0.25969573776E+04  0.12699999809E+01 0. -1.
</event>
<event>
 5   0  0.3026332E-07  0.3523092E+04  0.7818609E-02  0.8108339E-01
        1   -1    0    0  501    0  0.00000000000E+00  0.00000000000E+00  0.19048931783E+04  0.19048931783E+04  0.50400001928E-02 0.  1.
       -1   -1    0    0    0  501  0.00000000000E+00  0.00000000000E+00 -0.16289858326E+04  0.16289858326E+04  0.50400001928E-02 0. -1.
    10030    2    1    2    0    0  0.00000000000E+00  0.00000000000E+00  0.27590734568E+03  0.35338790109E+04  0.35230918240E+04 0.  0.
        1    1    3    3  502    0  0.75946030184E+03 -0.13589628629E+04 -0.68887842406E+03  0.17023846499E+04  0.50400001928E-02 0. -1.
       -1    1    3    3    0  502 -0.75946030184E+03  0.13589628629E+04  0.96478576973E+03  0.18314943610E+04  0.50400001928E-02 0.  1.
</event>
<event>
 5   0  0.8845195E-07  0.3491277E+04  0.7818609E-02  0.8115860E-01
        2   -1    0    0  501    0  0.00000000000E+00  0.00000000000E+00  0.25044971762E+04  0.25044971762E+04  0.25500000920E-02 0. -1.
       -2   -1    0    0    0  501  0.00000000000E+00  0.00000000000E+00 -0.12167125399E+04  0.12167125399E+04  0.25500000920E-02 0.  1.
    10030    2    1    2    0    0  0.00000000000E+00  0.00000000000E+00  0.12877846363E+04  0.37212097162E+04  0.34912766264E+04 0.  0.
        5    1    3    3  502    0 -0.66125714133E+03  0.96728097938E+03 -0.73528908152E+03  0.13833168919E+04  0.46999998093E+01 0.  1.
       -5    1    3    3    0  502  0.66125714133E+03 -0.96728097938E+03  0.20230737178E+04  0.23378928243E+04  0.46999998093E+01 0. -1.
</event>
<event>
 5   0  0.8950809E-07  0.3474442E+04  0.7818609E-02  0.8119874E-01
       -2   -1    0    0    0  501  0.00000000000E+00  0.00000000000E+00  0.15932880906E+04  0.15932880906E+04  0.25500000920E-02 0. -1.
        2   -1    0    0  501    0  0.00000000000E+00  0.00000000000E+00 -0.18941565052E+04  0.18941565052E+04  0.25500000920E-02 0.  1.
    10030    2    1    2    0    0  0.00000000000E+00  0.00000000000E+00 -0.30086841457E+03  0.34874445958E+04  0.34744421143E+04 0.  0.
        2    1    3    3  502    0 -0.11668779961E+04 -0.12758899184E+04  0.18831571292E+02  0.17291194203E+04  0.25500000920E-02 0. -1.
       -2    1    3    3    0  502  0.11668779961E+04  0.12758899184E+04 -0.31969998586E+03  0.17583251755E+04  0.25500000920E-02 0.  1.
</event>
<event>
 5   0  0.6188930E-07  0.3490443E+04  0.7818609E-02  0.8116059E-01
       -2   -1    0    0    0  501  0.00000000000E+00  0.00000000000E+00  0.16066756198E+04  0.16066756198E+04  0.25500000920E-02 0. -1.
        2   -1    0    0  501    0  0.00000000000E+00  0.00000000000E+00 -0.18957139638E+04  0.18957139638E+04  0.25500000920E-02 0.  1.
    10030    2    1    2    0    0  0.00000000000E+00  0.00000000000E+00 -0.28903834399E+03  0.35023895836E+04  0.34904426124E+04 0.  0.
        3    1    3    3  502    0  0.11609100542E+04 -0.12723836801E+04 -0.42677365656E+03  0.17744881368E+04  0.10100000352E+00 0.  1.
       -3    1    3    3    0  502 -0.11609100542E+04  0.12723836801E+04  0.13773531257E+03  0.17279014468E+04  0.10100000352E+00 0. -1.
</event>
<event>
 5   0  0.2972541E-07  0.3490405E+04  0.7818609E-02  0.8116068E-01
        1   -1    0    0  501    0  0.00000000000E+00  0.00000000000E+00  0.89711901543E+03  0.89711901544E+03  0.50400001928E-02 0. -1.
       -1   -1    0    0    0  501  0.00000000000E+00  0.00000000000E+00 -0.33950133652E+04  0.33950133652E+04  0.50400001928E-02 0.  1.
    10030    2    1    2    0    0  0.00000000000E+00  0.00000000000E+00 -0.24978943498E+04  0.42921323806E+04  0.34904045883E+04 0.  0.
        3    1    3    3  502    0  0.10921376153E+04  0.12422310373E+04 -0.56447148026E+03  0.17477215405E+04  0.10100000352E+00 0. -1.
       -3    1    3    3    0  502 -0.10921376153E+04 -0.12422310373E+04 -0.19334228695E+04  0.25444108401E+04  0.10100000352E+00 0.  1.
</event>
<event>
 5   0  0.2936607E-07  0.3605451E+04  0.7818609E-02  0.8089244E-01
       -1   -1    0    0    0  501  0.00000000000E+00  0.00000000000E+00  0.24134916658E+04  0.24134916658E+04  0.50400001928E-02 0.  1.
        1   -1    0    0  501    0  0.00000000000E+00  0.00000000000E+00 -0.13465219079E+04  0.13465219079E+04  0.50400001928E-02 0. -1.
    10030    2    1    2    0    0  0.00000000000E+00  0.00000000000E+00  0.10669697579E+04  0.37600135737E+04  0.36054510966E+04 0.  0.
        2    1    3    3  502    0 -0.13580170162E+03  0.17075766442E+04  0.11193131128E+04  0.20462458167E+04  0.25500000920E-02 0.  1.
       -2    1    3    3    0  502  0.13580170162E+03 -0.17075766442E+04 -0.52343354847E+02  0.17137677570E+04  0.25500000920E-02 0. -1.
</event>
<event>
 5   0  0.6188930E-07  0.3505520E+04  0.7818609E-02  0.8112483E-01
        2   -1    0    0  501    0  0.00000000000E+00  0.00000000000E+00  0.24479691538E+04  0.24479691538E+04  0.25500000920E-02 0. -1.
       -2   -1    0    0    0  501  0.00000000000E+00  0.00000000000E+00 -0.12549863461E+04  0.12549863461E+04  0.25500000920E-02 0.  1.
    10030    2    1    2    0    0  0.00000000000E+00  0.00000000000E+00  0.11929828077E+04  0.37029554999E+04  0.35055201404E+04 0.  0.
        3    1    3    3  502    0 -0.15434641365E+04 -0.83015193950E+03  0.62511108897E+03  0.18606981665E+04  0.10100000352E+00 0.  1.
       -3    1    3    3    0  502  0.15434641365E+04  0.83015193950E+03  0.56787171874E+03  0.18422573334E+04  0.10100000352E+00 0. -1.
</event>
<event>
 5   0  0.8845195E-07  0.3471547E+04  0.7818609E-02  0.8120566E-01
        2   -1    0    0  501    0  0.00000000000E+00  0.00000000000E+00  0.15014158345E+04  0.15014158345E+04  0.25500000920E-02 0. -1.
       -2   -1    0    0    0  501  0.00000000000E+00  0.00000000000E+00 -0.20067125986E+04  0.20067125986E+04  0.25500000920E-02 0.  1.
    10030    2    1    2    0    0  0.00000000000E+00  0.00000000000E+00 -0.50529676413E+03  0.35081284331E+04  0.34715472463E+04 0.  0.
        5    1    3    3  502    0 -0.16219255831E+04  0.81133903189E+02  0.36672341619E+03  0.16648523842E+04  0.46999998093E+01 0. -1.
       -5    1    3    3    0  502  0.16219255831E+04 -0.81133903189E+02 -0.87202018032E+03  0.18432760488E+04  0.46999998093E+01 0.  1.
</event>
<event>
 5   0  0.9311672E-07  0.3491322E+04  0.7818609E-02  0.8115850E-01
        2   -1    0    0  501    0  0.00000000000E+00  0.00000000000E+00  0.17847344800E+04  0.17847344800E+04  0.25500000920E-02 0. -1.
       -2   -1    0    0    0  501  0.00000000000E+00  0.00000000000E+00 -0.17074426401E+04  0.17074426401E+04  0.25500000920E-02 0.  1.
    10030    2    1    2    0    0  0.00000000000E+00  0.00000000000E+00  0.77291839876E+02  0.34921771201E+04  0.34913216709E+04 0.  0.
        4    1    3    3  502    0 -0.10086352302E+03  0.15255864065E+04 -0.80402284829E+03  0.17274378968E+04  0.12699999809E+01 0.  1.
       -4    1    3    3    0  502  0.10086352302E+03 -0.15255864065E+04  0.88131468817E+03  0.17647392233E+04  0.12699999809E+01 0. -1.
</event>
<event>
 5   0  0.2933506E-07  0.3007631E+04  0.7818609E-02  0.8241555E-01
        1   -1    0    0  501    0  0.00000000000E+00  0.00000000000E+00  0.15967595393E+04  0.15967595393E+04  0.50400001928E-02 0.  1.
       -1   -1    0    0    0  501  0.00000000000E+00  0.00000000000E+00 -0.14162814332E+04  0.14162814332E+04  0.50400001928E-02 0. -1.
    10030    2    1    2    0    0  0.00000000000E+00  0.00000000000E+00  0.18047810611E+03  0.30130409725E+04  0.30076308874E+04 0.  0.
        4    1    3    3  502    0  0.72603454044E+03 -0.51897642709E+03  0.13027866858E+04  0.15791508628E+04  0.12699999809E+01 0.  1.
       -4    1    3    3    0  502 -0.72603454044E+03  0.51897642709E+03 -0.11223085797E+04  0.14338901097E+04  0.12699999809E+01 0. -1.
</event>
<event>
 5   0  0.2933506E-07  0.3434668E+04  0.7818609E-02  0.8129450E-01
        1   -1    0    0  501    0  0.00000000000E+00  0.00000000000E+00  0.14256503130E+04  0.14256503130E+04  0.50400001928E-02 0. -1.
       -1   -1    0    0    0  501  0.00000000000E+00  0.00000000000E+00 -0.20686947627E+04  0.20686947627E+04  0.50400001928E-02 0.  1.
    10030    2    1    2    0    0  0.00000000000E+00  0.00000000000E+00 -0.64304444966E+03  0.34943450757E+04  0.34346675740E+04 0.  0.
        4    1    3    3  502    0 -0.54901732674E+03  0.13597143485E+04 -0.12309158643E+04  0.19145230770E+04  0.12699999809E+01 0.  1.
       -4    1    3    3    0  502  0.54901732674E+03 -0.13597143485E+04  0.58787141460E+03  0.15798219987E+04  0.12699999809E+01 0. -1.
</event>
<event>
 5   0  0.2972541E-07  0.3502867E+04  0.7818609E-02  0.8113111E-01
       -1   -1    0    0    0  501  0.00000000000E+00  0.00000000000E+00  0.24894888170E+04  0.24894888170E+04  0.50400001928E-02 0.  1.
        1   -1    0    0  501    0  0.00000000000E+00  0.00000000000E+00 -0.12321882625E+04  0.12321882625E+04  0.50400001928E-02 0. -1.
    10030    2    1    2    0    0  0.00000000000E+00  0.00000000000E+00  0.12573005544E+04  0.37216770795E+04  0.35028667688E+04 0.  0.
        3    1    3    3  502    0 -0.15125007129E+04 -0.22515530716E+03  0.15359027189E+04  0.21673371891E+04  0.10100000352E+00 0.  1.
       -3    1    3    3    0  502  0.15125007129E+04  0.22515530716E+03 -0.27860216452E+03  0.15543398905E+04  0.10100000352E+00 0. -1.
</event>
<event>
 5   0  0.3026332E-07  0.3466140E+04  0.7818609E-02  0.8121862E-01
       -1   -1    0    0    0  501  0.00000000000E+00  0.00000000000E+00  0.17126196011E+04  0.17126196011E+04  0.50400001928E-02 0. -1.
        1   -1    0    0  501    0  0.00000000000E+00  0.00000000000E+00 -0.17537643016E+04  0.17537643016E+04  0.50400001928E-02 0.  1.
    10030    2    1    2    0    0  0.00000000000E+00  0.00000000000E+00 -0.41144700524E+02  0.34663839027E+04  0.34661397079E+04 0.  0.
        1    1    3    3  502    0 -0.62378546800E+03  0.59852253142E+03 -0.15227412834E+04  0.17510221435E+04  0.50400001928E-02 0.  1.
       -1    1    3    3    0  502  0.62378546800E+03 -0.59852253142E+03  0.14815965829E+04  0.17153617593E+04  0.50400001928E-02 0. -1.
</event>
<event>
 5   0  0.8950809E-07  0.3499071E+04  0.7818609E-02  0.8114010E-01
        2   -1    0    0  501    0  0.00000000000E+00  0.00000000000E+00  0.22053437866E+04  0.22053437866E+04  0.25500000920E-02 0. -1.
       -2   -1    0    0    0  501  0.00000000000E+00  0.00000000000E+00 -0.13879355391E+04  0.13879355391E+04  0.25500000920E-02 0.  1.
    10030    2    1    2    0    0  0.00000000000E+00  0.00000000000E+00  0.81740824758E+03  0.35932793257E+04  0.34990713153E+04 0.  0.
        2    1    3    3  502    0 -0.29675666497E+03  0.90032728662E+03 -0.11013351851E+04  0.14531321107E+04  0.25500000920E-02 0.  1.
       -2    1    3    3    0  502  0.29675666497E+03 -0.90032728662E+03  0.19187434327E+04  0.21401472150E+04  0.25500000920E-02 0. -1.
</event>
<event>
 5   0  0.2933506E-07  0.3436653E+04  0.7818609E-02  0.8128969E-01
        1   -1    0    0  501    0  0.00000000000E+00  0.00000000000E+00  0.27623851237E+04  0.27623851237E+04  0.50400001928E-02 0.  1.
       -1   -1    0    0    0  501  0.00000000000E+00  0.00000000000E+00 -0.10688754501E+04  0.10688754501E+04  0.50400001928E-02 0. -1.
    10030    2    1    2    0    0  0.00000000000E+00  0.00000000000E+00  0.16935096736E+04  0.38312605738E+04  0.34366528149E+04 0.  0.
        4    1    3    3  502    0 -0.73041528261E+03  0.12714622626E+04 -0.15194344644E+03  0.14741815337E+04  0.12699999809E+01 0. -1.
       -4    1    3    3    0  502  0.73041528261E+03 -0.12714622626E+04  0.18454531201E+04  0.23570790402E+04  0.12699999809E+01 0.  1.
</event>
<event>
 5   0  0.6188930E-07  0.3574110E+04  0.7818609E-02  0.8096448E-01
        2   -1    0    0  501    0  0.00000000000E+00  0.00000000000E+00  0.11279794932E+04  0.11279794932E+04  0.25500000920E-02 0.  1.
       -2   -1    0    0    0  501  0.00000000000E+00  0.00000000000E+00 -0.28312264910E+04  0.28312264910E+04  0.25500000920E-02 0. -1.
    10030    2    1    2    0    0  0.00000000000E+00  0.00000000000E+00 -0.17032469978E+04  0.39592059842E+04  0.35741099157E+04 0.  0.
        3    1    3    3  502    0 -0.67598234287E+03 -0.21469753065E+03 -0.26686370421E+04  0.27612806504E+04  0.10100000352E+00 0. -1.
       -3    1    3    3    0  502  0.67598234287E+03  0.21469753065E+03  0.96539004430E+03  0.11979253338E+04  0.10100000352E+00 0.  1.
</event>
<event>
 5   0  0.3061330E-07  0.2992569E+04  0.7818609E-02  0.8245856E-01
        1   -1    0    0  501    0  0.00000000000E+00  0.00000000000E+00  0.18310445183E+04  0.18310445183E+04  0.50400001928E-02 0.  1.
       -1   -1    0    0    0  501  0.00000000000E+00  0.00000000000E+00 -0.12227272365E+04  0.12227272365E+04  0.50400001928E-02 0. -1.
    10030    2    1    2    0    0  0.00000000000E+00  0.00000000000E+00  0.60831728181E+03  0.30537717548E+04  0.29925694671E+04 0.  0.
        5    1    3    3  502    0  0.28633755796E+03  0.71769092003E+03 -0.10033643845E+04  0.12664247439E+04  0.46999998093E+01 0. -1.
       -5    1    3    3    0  502 -0.28633755796E+03 -0.71769092003E+03  0.16116816664E+04  0.17873470109E+04  0.46999998093E+01 0.  1.
</event>
<event>
 5   0  0.9311672E-07  0.3485660E+04  0.7818609E-02  0.8117197E-01
       -2   -1    0    0    0  501  0.00000000000E+00  0.00000000000E+00  0.13632318401E+04  0.13632318401E+04  0.25500000920E-02 0. -1.
        2   -1    0    0  501    0  0.00000000000E+00  0.00000000000E+00 -0.22281288004E+04  0.22281288004E+04  0.25500000920E-02 0.  1.
    10030    2    1    2    0    0  0.00000000000E+00  0.00000000000E+00 -0.86489696035E+03  0.35913606405E+04  0.34856598368E+04 0.  0.
        4    1    3    3  502    0  0.11443700735E+04  0.13136583946E+04 -0.38441647163E+03  0.17841129110E+04  0.12699999809E+01 0.  1.
       -4    1    3    3    0  502 -0.11443700735E+04 -0.13136583946E+04 -0.48048048871E+03  0.18072477295E+04  0.12699999809E+01 0. -1.
</event>
<event>
 5   0  0.3026332E-07  0.3489637E+04  0.7818609E-02  0.8116250E-01
        1   -1    0    0  501    0  0.00000000000E+00  0.00000000000E+00  0.18266981740E+04  0.18266981740E+04  0.50400001928E-02 0.  1.
       -1   -1    0    0    0  501  0.00000000000E+00  0.00000000000E+00 -0.16666086571E+04  0.16666086571E+04  0.50400001928E-02 0. -1.
    10030    2    1    2    0    0  0.00000000000E+00  0.00000000000E+00  0.16008951697E+03  0.34933068311E+04  0.34896366520E+04 0.  0.
        1    1    3    3  502    0  0.83649515998E+03 -0.89109885831E+03  0.13265891999E+04  0.18037794303E+04  0.50400001928E-02 0.  1.
       -1    1    3    3    0  502 -0.83649515998E+03  0.89109885831E+03 -0.11664996829E+04  0.16895274008E+04  0.50400001928E-02 0. -1.
</event>
<event>
 5   0  0.6188930E-07  0.3466622E+04  0.7818609E-02  0.8121746E-01
       -2   -1    0    0    0  501  0.00000000000E+00  0.00000000000E+00  0.17215138395E+04  0.17215138395E+04  0.25500000920E-02 0.  1.
        2   -1    0    0  501    0  0.00000000000E+00  0.00000000000E+00 -0.17451885905E+04  0.17451885905E+04  0.25500000920E-02 0. -1.
    10030    2    1    2    0    0  0.00000000000E+00  0.00000000000E+00 -0.23674751012E+02  0.34667024299E+04  0.34666215894E+04 0.  0.
        3    1    3    3  502    0  0.10632697690E+04 -0.56648681462E+03 -0.12580270945E+04  0.17418616747E+04  0.10100000352E+00 0. -1.
       -3    1    3    3    0  502 -0.10632697690E+04  0.56648681462E+03  0.12343523435E+04  0.17248407553E+04  0.10100000352E+00 0.  1.
</event>
<event>
 5   0  0.3061330E-07  0.3374955E+04  0.7818609E-02  0.8144081E-01
        1   -1    0    0  501    0  0.00000000000E+00  0.00000000000E+00  0.21357011629E+04  0.21357011629E+04  0.50400001928E-02 0.  1.
       -1   -1    0    0    0  501  0.00000000000E+00  0.00000000000E+00 -0.13333235818E+04  0.13333235818E+04  0.50400001928E-02 0. -1.
    10030    2    1    2    0    0  0.00000000000E+00  0.00000000000E+00  0.80237758109E+03  0.34690247446E+04  0.33749552436E+04 0.  0.
        5    1    3    3  502    0 -0.40560334942E+02  0.28137014625E+03 -0.13085268885E+04  0.13390590009E+04  0.46999998093E+01 0. -1.
       -5    1    3    3    0  502  0.40560334942E+02 -0.28137014625E+03  0.21109044696E+04  0.21299657438E+04  0.46999998093E+01 0.  1.
</event>
<event>
 5   0  0.9128871E-07  0.3532978E+04  0.7818609E-02  0.8106019E-01
        2   -1    0    0  501    0  0.00000000000E+00  0.00000000000E+00  0.19032601565E+04  0.19032601565E+04  0.25500000920E-02 0. -1.
       -2   -1    0    0    0  501  0.00000000000E+00  0.00000000000E+00 -0.16395465563E+04  0.16395465563E+04  0.25500000920E-02 0.  1.
    10030    2    1    2    0    0  0.00000000000E+00  0.00000000000E+00  0.26371360022E+03  0.35428067127E+04  0.35329781404E+04 0.  0.
        1    1    3    3  502    0 -0.13756609324E+04 -0.62204909583E+03  0.10515207819E+04  0.18398597863E+04  0.50400001928E-02 0. -1.
       -1    1    3    3    0  502  0.13756609324E+04  0.62204909583E+03 -0.78780718164E+03  0.17029469264E+04  0.50400001928E-02 0.  1.
</event>
<event>
 5   0  0.6188930E-07  0.3440886E+04  0.7818609E-02  0.8127944E-01
       -2   -1    0    0    0  501  0.00000000000E+00  0.00000000000E+00  0.15617710179E+04  0.15617710179E+04  0.25500000920E-02 0. -1.
        2   -1    0    0  501    0  0.00000000000E+00  0.00000000000E+00 -0.18952352717E+04  0.18952352717E+04  0.25500000920E-02 0.  1.
    10030    2    1    2    0    0  0.00000000000E+00  0.00000000000E+00 -0.33346425376E+03  0.34570062896E+04  0.34408856531E+04 0.  0.
        3    1    3    3  502    0  0.60334303195E+03  0.95609239442E+03  0.11361812938E+04  0.16028235784E+04  0.10100000352E+00 0. -1.
       -3    1    3    3    0  502 -0.60334303195E+03 -0.95609239442E+03 -0.14696455475E+04  0.18541827112E+04  0.10100000352E+00 0.  1.
</event>
<event>
 5   0  0.2933506E-07  0.3566385E+04  0.7818609E-02  0.8098235E-01
        1   -1    0    0  501    0  0.00000000000E+00  0.00000000000E+00  0.13189547612E+04  0.13189547612E+04  0.50400001928E-02 0.  1.
       -1   -1    0    0    0  501  0.00000000000E+00  0.00000000000E+00 -0.24108303926E+04  0.24108303926E+04  0.50400001928E-02 0. -1.
    10030    2    1    2    0    0  0.00000000000E+00  0.00000000000E+00 -0.10918756315E+04  0.37297851538E+04  0.35663854109E+04 0.  0.
        4    1    3    3  502    0  0.83943926227E+03 -0.64573574011E+03  0.95441423559E+03  0.14256721457E+04  0.12699999809E+01 0.  1.
       -4    1    3    3    0  502 -0.83943926227E+03  0.64573574011E+03 -0.20462898670E+04  0.23041130081E+04  0.12699999809E+01 0. -1.
</event>
<event>
 5   0  0.8845195E-07  0.3546067E+04  0.7818609E-02  0.8102959E-01
        2   -1    0    0  501    0  0.00000000000E+00  0.00000000000E+00  0.18448942218E+04  0.18448942218E+04  0.25500000920E-02 0. -1.
       -2   -1    0    0    0  501  0.00000000000E+00  0.00000000000E+00 -0.17039719112E+04  0.17039719112E+04  0.25500000920E-02 0.  1.
    10030    2    1    2    0    0  0.00000000000E+00  0.00000000000E+00  0.14092231056E+03  0.35488661330E+04  0.35460670795E+04 0.  0.
        5    1    3    3  502    0 -0.12290098648E+04 -0.51457279894E+02 -0.12074620890E+04  0.17236878736E+04  0.46999998093E+01 0.  1.
       -5    1    3    3    0  502  0.12290098648E+04  0.51457279894E+02  0.13483843995E+04  0.18251782593E+04  0.46999998093E+01 0. -1.
</event>
<event>
 5   0  0.9128871E-07  0.3453587E+04  0.7818609E-02  0.8124878E-01
       -2   -1    0    0    0  501  0.00000000000E+00  0.00000000000E+00  0.15922122899E+04  0.15922122899E+04  0.25500000920E-02 0.  1.
        2   -1    0    0  501    0  0.00000000000E+00  0.00000000000E+00 -0.18727506069E+04  0.18727506069E+04  0.25500000920E-02 0. -1.
    10030    2    1    2    0    0  0.00000000000E+00  0.00000000000E+00 -0.28053831706E+03  0.34649628968E+04  0.34535874289E+04 0.  0.
        1    1    3    3  502    0  0.12365849592E+03 -0.44255925579E+03  0.15297453869E+04  0.15972698793E+04  0.50400001928E-02 0.  1.
       -1    1    3    3    0  502 -0.12365849592E+03  0.44255925579E+03 -0.18102837040E+04  0.18676930175E+04  0.50400001928E-02 0. -1.
</event>
<event>
 5   0  0.6188930E-07  0.3501445E+04  0.7818609E-02  0.8113448E-01
       -2   -1    0    0    0  501  0.00000000000E+00  0.00000000000E+00  0.14596985664E+04  0.14596985664E+04  0.25500000920E-02 0. -1.
        2   -1    0    0  501    0  0.00000000000E+00  0.00000000000E+00 -0.20997690504E+04  0.20997690504E+04  0.25500000920E-02 0.  1.
    10030    2    1    2    0    0  0.00000000000E+00  0.00000000000E+00 -0.64007048405E+03  0.35594676168E+04  0.35014453431E+04 0.  0.
        3    1    3    3  502    0  0.37687229928E+03  0.78116681343E+03  0.12259467744E+04  0.15017322745E+04  0.10100000352E+00 0. -1.
       -3    1    3    3    0  502 -0.37687229928E+03 -0.78116681343E+03 -0.18660172584E+04  0.20577353424E+04  0.10100000352E+00 0.  1.
</event>
<event>
 5   0  0.3061330E-07  0.3472189E+04  0.7818609E-02  0.8120413E-01
       -1   -1    0    0    0  501  0.00000000000E+00  0.00000000000E+00  0.16193643494E+04  0.16193643494E+04  0.50400001928E-02 0.  1.
        1   -1    0    0  501    0  0.00000000000E+00  0.00000000000E+00 -0.18612385724E+04  0.18612385724E+04  0.50400001928E-02 0. -1.
    10030    2    1    2    0    0  0.00000000000E+00  0.00000000000E+00 -0.24187422300E+03  0.34806029218E+04  0.34721885835E+04 0.  0.
        5    1    3    3  502    0  0.78454662141E+03  0.23801978936E+03 -0.16549509361E+04  0.18469032222E+04  0.46999998093E+01 0. -1.
       -5    1    3    3    0  502 -0.78454662141E+03 -0.23801978936E+03  0.14130767131E+04  0.16336996996E+04  0.46999998093E+01 0.  1.
</event>
<event>
 5   0  0.6188930E-07  0.3686699E+04  0.7818609E-02  0.8070916E-01
        2   -1    0    0  501    0  0.00000000000E+00  0.00000000000E+00  0.22096577771E+04  0.22096577771E+04  0.25500000920E-02 0. -1.
       -2   -1    0    0    0  501  0.00000000000E+00  0.00000000000E+00 -0.15377662126E+04  0.15377662126E+04  0.25500000920E-02 0.  1.
    10030    2    1    2    0    0  0.00000000000E+00  0.00000000000E+00  0.67189156448E+03  0.37474239897E+04  0.36866988329E+04 0.  0.
        3    1    3    3  502    0 -0.16623253819E+04  0.61165043079E+03 -0.18284826059E+03  0.17806952073E+04  0.10100000352E+00 0.  1.
       -3    1    3    3    0  502  0.16623253819E+04 -0.61165043079E+03  0.85473982506E+03  0.19667287824E+04  0.10100000352E+00 0. -1.
</event>
<event>
 5   0  0.2936607E-07  0.3441807E+04  0.7818609E-02  0.8127721E-01
       -1   -1    0    0    0  501  0.00000000000E+00  0.00000000000E+00  0.18074168861E+04  0.18074168861E+04  0.50400001928E-02 0.  1.
        1   -1    0    0  501    0  0.00000000000E+00  0.00000000000E+00 -0.16385312065E+04  0.16385312065E+04  0.50400001928E-02 0. -1.
    10030    2    1    2    0    0  0.00000000000E+00  0.00000000000E+00  0.16888567965E+03  0.34459480926E+04  0.34418070667E+04 0.  0.
        2    1    3    3  502    0  0.62735821383E+03  0.80964045856E+03 -0.13001212055E+04  0.16551166574E+04  0.25500000920E-02 0. -1.
       -2    1    3    3    0  502 -0.62735821383E+03 -0.80964045856E+03  0.14690068852E+04  0.17908314352E+04  0.25500000920E-02 0.  1.
</event>
<event>
 5   0  0.2933506E-07  0.3180759E+04  0.7818609E-02  0.8193917E-01
        1   -1    0    0  501    0  0.00000000000E+00  0.00000000000E+00  0.14514358866E+04  0.14514358866E+04  0.50400001928E-02 0. -1.
       -1   -1    0    0    0  501  0.00000000000E+00  0.00000000000E+00 -0.17426243322E+04  0.17426243322E+04  0.50400001928E-02 0.  1.
    10030    2    1    2    0    0  0.00000000000E+00  0.00000000000E+00 -0.29118844559E+03  0.31940602189E+04  0.31807593387E+04 0.  0.
        4    1    3    3  502    0 -0.11033059013E+04 -0.91705856173E+03 -0.83477717674E+03  0.16598598933E+04  0.12699999809E+01 0.  1.
       -4    1    3    3    0  502  0.11033059013E+04  0.91705856173E+03  0.54358873115E+03  0.15342003256E+04  0.12699999809E+01 0. -1.
</event>
<event>
 5   0  0.6188930E-07  0.3504999E+04  0.7818609E-02  0.8112606E-01
        2   -1    0    0  501    0  0.00000000000E+00  0.00000000000E+00  0.20627529408E+04  0.20627529408E+04  0.25500000920E-02 0. -1.
       -2   -1    0    0    0  501  0.00000000000E+00  0.00000000000E+00 -0.14889104361E+04  0.14889104361E+04  0.25500000920E-02 0.  1.
    10030    2    1    2    0    0  0.00000000000E+00  0.00000000000E+00  0.57384250478E+03  0.35516633769E+04  0.35049989333E+04 0.  0.
        3    1    3    3  502    0  0.10825083227E+04  0.12307522398E+04 -0.34156120623E+03  0.16742877329E+04  0.10100000352E+00 0.  1.
       -3    1    3    3    0  502 -0.10825083227E+04 -0.12307522398E+04  0.91540371101E+03  0.18773756441E+04  0.10100000352E+00 0. -1.
</event>
<event>
 5   0  0.2972541E-07  0.3500656E+04  0.7818609E-02  0.8113634E-01
        1   -1    0    0  501    0  0.00000000000E+00  0.00000000000E+00  0.91615840006E+03  0.91615840008E+03  0.50400001928E-02 0.  1.
       -1   -1    0    0    0  501  0.00000000000E+00  0.00000000000E+00 -0.33440162820E+04  0.33440162820E+04  0.50400001928E-02 0. -1.
    10030    2    1    2    0    0  0.00000000000E+00  0.00000000000E+00 -0.24278578819E+04  0.42601746820E+04  0.35006562852E+04 0.  0.
        3    1    3    3  502    0 -0.13027886894E+04  0.11689232533E+04 -0.12175092161E+04  0.21321277267E+04  0.10100000352E+00 0. -1.
       -3    1    3    3    0  502  0.13027886894E+04 -0.11689232533E+04 -0.12103486657E+04  0.21280469553E+04  0.10100000352E+00 0.  1.
</event>
<event>
 5   0  0.2933506E-07  0.3502795E+04  0.7818609E-02  0.8113128E-01
       -1   -1    0    0    0  501  0.00000000000E+00  0.00000000000E+00  0.16982755455E+04  0.16982755455E+04  0.50400001928E-02 0.  1.
        1   -1    0    0  501    0  0.00000000000E+00  0.00000000000E+00 -0.18061815312E+04  0.18061815312E+04  0.50400001928E-02 0. -1.
    10030    2    1    2    0    0  0.00000000000E+00  0.00000000000E+00 -0.10790598571E+03  0.35044570766E+04  0.35027954123E+04 0.  0.
        4    1    3    3  502    0 -0.97413563278E+03 -0.40772965956E+03 -0.14518303951E+04  0.17952706803E+04  0.12699999809E+01 0. -1.
       -4    1    3    3    0  502  0.97413563278E+03  0.40772965956E+03  0.13439244094E+04  0.17091863964E+04  0.12699999809E+01 0.  1.
</event>
<event>
 5   0  0.2936607E-07  0.3538336E+04  0.7818609E-02  0.8104765E-01
       -1   -1    0    0    0  501  0.00000000000E+00  0.00000000000E+00  0.13420383133E+04  0.13420383133E+04  0.50400001928E-02 0. -1.
        1   -1    0    0  501    0  0.00000000000E+00  0.00000000000E+00 -0.23322394520E+04  0.23322394520E+04  0.50400001928E-02 0.  1.
    10030    2    1    2    0    0  0.00000000000E+00  0.00000000000E+00 -0.99020113875E+03  0.36742777653E+04  0.35383355976E+04 0.  0.
        2    1    3    3  502    0  0.17112427422E+04  0.12608743072E+03 -0.47609174668E+02  0.17165419880E+04  0.25500000920E-02 0. -1.
       -2    1    3    3    0  502 -0.17112427422E+04 -0.12608743072E+03 -0.94259196408E+03  0.19577357773E+04  0.25500000920E-02 0.  1.
</event>
<event>
 5   0  0.8950809E-07  0.3491333E+04  0.7818609E-02  0.8115847E-01
       -2   -1    0    0    0  501  0.00000000000E+00  0.00000000000E+00  0.16282051598E+04  0.16282051598E+04  0.25500000920E-02 0. -1.
        2   -1    0    0  501    0  0.00000000000E+00  0.00000000000E+00 -0.18716012023E+04  0.18716012023E+04  0.25500000920E-02 0.  1.
    10030    2    1    2    0    0  0.00000000000E+00  0.00000000000E+00 -0.24339604245E+03  0.34998063621E+04  0.34913325449E+04 0.  0.
        2    1    3    3  502    0 -0.51374013372E+02 -0.90787474488E+02 -0.18684740808E+04  0.18713837248E+04  0.25500000920E-02 0.  1.
       -2    1    3    3    0  502  0.51374013372E+02  0.90787474488E+02  0.16250780384E+04  0.16284226373E+04  0.25500000920E-02 0. -1.
</event>
<event>
 5   0  0.8950809E-07  0.3243886E+04  0.7818609E-02  0.8177322E-01
        2   -1    0    0  501    0  0.00000000000E+00  0.00000000000E+00  0.22216479716E+04  0.22216479716E+04  0.25500000920E-02 0. -1.
       -2   -1    0    0    0  501  0.00000000000E+00  0.00000000000E+00 -0.11841206599E+04  0.11841206599E+04  0.25500000920E-02 0.  1.
    10030    2    1    2    0    0  0.00000000000E+00  0.00000000000E+00  0.10375273117E+04  0.34057686315E+04  0.32438861029E+04 0.  0.
        2    1    3    3  502    0 -0.12863143054E+04 -0.84276676906E+03  0.10600896033E+04  0.18677928917E+04  0.25500000920E-02 0. -1.
       -2    1    3    3    0  502  0.12863143054E+04  0.84276676906E+03 -0.22562291580E+02  0.15379757398E+04  0.25500000920E-02 0.  1.
</event>
<event>
 5   0  0.8950809E-07  0.3505895E+04  0.7818609E-02  0.8112394E-01
        2   -1    0    0  501    0  0.00000000000E+00  0.00000000000E+00  0.27154809523E+04  0.27154809523E+04  0.25500000920E-02 0. -1.
       -2   -1    0    0    0  501  0.00000000000E+00  0.00000000000E+00 -0.11315950002E+04  0.11315950002E+04  0.25500000920E-02 0.  1.
    10030    2    1    2    0    0  0.00000000000E+00  0.00000000000E+00  0.15838859521E+04  0.38470759526E+04  0.35058948466E+04 0.  0.
        2    1    3    3  502    0  0.12943747937E+04 -0.91371122678E+03 -0.31081169821E+02  0.15846893549E+04  0.25500000920E-02 0.  1.
       -2    1    3    3    0  502 -0.12943747937E+04  0.91371122678E+03  0.16149671219E+04  0.22623865977E+04  0.25500000920E-02 0. -1.
</event>
<event>
 5   0  0.8845195E-07  0.3503778E+04  0.7818609E-02  0.8112895E-01
       -2   -1    0    0    0  501  0.00000000000E+00  0.00000000000E+00  0.16615790083E+04  0.16615790083E+04  0.25500000920E-02 0.  1.
        2   -1    0    0  501    0  0.00000000000E+00  0.00000000000E+00 -0.18471074999E+04  0.18471074999E+04  0.25500000920E-02 0. -1.
    10030    2    1    2    0    0  0.00000000000E+00  0.00000000000E+00 -0.18552849162E+03  0.35086865082E+04  0.35037779883E+04 0.  0.
        5    1    3    3  502    0 -0.11549336253E+04  0.16572263230E+02 -0.14117832351E+04  0.18240888990E+04  0.46999998093E+01 0. -1.
       -5    1    3    3    0  502  0.11549336253E+04 -0.16572263230E+02  0.12262547435E+04  0.16845976091E+04  0.46999998093E+01 0.  1.
</event>
<event>
 5   0  0.2933506E-07  0.3515284E+04  0.7818609E-02  0.8110177E-01
       -1   -1    0    0    0  501  0.00000000000E+00  0.00000000000E+00  0.26063317376E+04  0.26063317376E+04  0.50400001928E-02 0.  1.
        1   -1    0    0  501    0  0.00000000000E+00  0.00000000000E+00 -0.11853080084E+04  0.11853080084E+04  0.50400001928E-02 0. -1.
    10030    2    1    2    0    0  0.00000000000E+00  0.00000000000E+00  0.14210237292E+04  0.37916397460E+04  0.35152842737E+04 0.  0.
        4    1    3    3  502    0  0.12898747170E+04 -0.37613780091E+03 -0.51173017591E+03  0.14377502623E+04  0.12699999809E+01 0. -1.
       -4    1    3    3    0  502 -0.12898747170E+04  0.37613780091E+03  0.19327539051E+04  0.23538894837E+04  0.12699999809E+01 0.  1.
</event>
<event>
 5   0  0.2972541E-07  0.3439249E+04  0.7818609E-02  0.8128340E-01
        1   -1    0    0  501    0  0.00000000000E+00  0.00000000000E+00  0.22041660548E+04  0.22041660548E+04  0.50400001928E-02 0. -1.
       -1   -1    0    0    0  501  0.00000000000E+00  0.00000000000E+00 -0.13415994145E+04  0.13415994146E+04  0.50400001928E-02 0.  1.
    10030    2    1    2    0    0  0.00000000000E+00  0.00000000000E+00  0.86256664023E+03  0.35457654693E+04  0.34392486904E+04 0.  0.
        3    1    3    3  502    0 -0.14375604185E+04 -0.10171591976E+02  0.14041312668E+04  0.20095442375E+04  0.10100000352E+00 0. -1.
       -3    1    3    3    0  502  0.14375604185E+04  0.10171591976E+02 -0.54156462657E+03  0.15362212318E+04  0.10100000352E+00 0.  1.
</event>
<event>
 5   0  0.6188930E-07  0.3459187E+04  0.7818609E-02  0.8123531E-01
        2   -1    0    0  501    0  0.00000000000E+00  0.00000000000E+00  0.16452520643E+04  0.16452520643E+04  0.25500000920E-02 0.  1.
       -2   -1    0    0    0  501  0.00000000000E+00  0.00000000000E+00 -0.18182580611E+04  0.18182580611E+04  0.25500000920E-02 0. -1.
    10030    2    1    2    0    0  0.00000000000E+00  0.00000000000E+00 -0.17300599682E+03  0.34635101254E+04  0.34591865104E+04 0.  0.
        3    1    3    3  502    0 -0.15945064822E+04  0.57010823983E+03 -0.43910575637E+03  0.17493679437E+04  0.10100000352E+00 0. -1.
       -3    1    3    3    0  502  0.15945064822E+04 -0.57010823983E+03  0.26609975954E+03  0.17141421817E+04  0.10100000352E+00 0.  1.
</event>
<event>
 5   0  0.2936607E-07  0.3496234E+04  0.7818609E-02  0.8114683E-01
       -1   -1    0    0    0  501  0.00000000000E+00  0.00000000000E+00  0.17875436730E+04  0.17875436730E+04  0.50400001928E-02 0.  1.
        1   -1    0    0  501    0  0.00000000000E+00  0.00000000000E+00 -0.17095602378E+04  0.17095602378E+04  0.50400001928E-02 0. -1.
    10030    2    1    2    0    0  0.00000000000E+00  0.00000000000E+00  0.77983435161E+02  0.34971039108E+04  0.34962343094E+04 0.  0.
        2    1    3    3  502    0  0.78954572304E+03  0.10950485472E+04  0.11498532970E+04  0.17733235390E+04  0.25500000920E-02 0.  1.
       -2    1    3    3    0  502 -0.78954572304E+03 -0.10950485472E+04 -0.10718698618E+04  0.17237803718E+04  0.25500000920E-02 0. -1.
</event>
<event>
 5   0  0.6188930E-07  0.3506197E+04  0.7818609E-02  0.8112323E-01
       -2   -1    0    0    0  501  0.00000000000E+00  0.00000000000E+00  0.10272420002E+04  0.10272420002E+04  0.25500000920E-02 0. -1.
        2   -1    0    0  501    0  0.00000000000E+00  0.00000000000E+00 -0.29918503741E+04  0.29918503741E+04  0.25500000920E-02 0.  1.
    10030    2    1    2    0    0  0.00000000000E+00  0.00000000000E+00 -0.19646083740E+04  0.40190923743E+04  0.35061970068E+04 0.  0.
        3    1    3    3  502    0  0.36301524110E+03 -0.49178327786E+03 -0.28657421350E+04  0.29302062815E+04  0.10100000352E+00 0.  1.
       -3    1    3    3    0  502 -0.36301524110E+03  0.49178327786E+03  0.90113376103E+03  0.10888860928E+04  0.10100000352E+00 0. -1.
</event>
<event>
 5   0  0.2933506E-07  0.3374607E+04  0.7818609E-02  0.8144167E-01
       -1   -1    0    0    0  501  0.00000000000E+00  0.00000000000E+00  0.17353802414E+04  0.17353802414E+04  0.50400001928E-02 0.  1.
        1   -1    0    0  501    0  0.00000000000E+00  0.00000000000E+00 -0.16405584223E+04  0.16405584223E+04  0.50400001928E-02 0. -1.
    10030    2    1    2    0    0  0.00000000000E+00  0.00000000000E+00  0.94821819079E+02  0.33759386636E+04  0.33746067450E+04 0.  0.
        4    1    3    3  502    0  0.72928081975E+03  0.54916996828E+03  0.14669681138E+04  0.17278412044E+04  0.12699999809E+01 0.  1.
       -4    1    3    3    0  502 -0.72928081975E+03 -0.54916996828E+03 -0.13721462947E+04  0.16480974592E+04  0.12699999809E+01 0. -1.
</event>
<event>
 5   0  0.3061330E-07  0.3444369E+04  0.7818609E-02  0.8127102E-01
        1   -1    0    0  501    0  0.00000000000E+00  0.00000000000E+00  0.12373863606E+04  0.12373863606E+04  0.50400001928E-02 0. -1.
       -1   -1    0    0    0  501  0.00000000000E+00  0.00000000000E+00 -0.23969225498E+04  0.23969225498E+04  0.50400001928E-02 0.  1.
    10030    2    1    2    0    0  0.00000000000E+00  0.00000000000E+00 -0.11595361892E+04  0.36343089105E+04  0.34443688947E+04 0.  0.
        5    1    3    3  502    0  0.12321024862E+04 -0.11780431807E+03  0.68374018508E+03  0.14140286859E+04  0.46999998093E+01 0. -1.
       -5    1    3    3    0  502 -0.12321024862E+04  0.11780431807E+03 -0.18432763743E+04  0.22202802246E+04  0.46999998093E+01 0.  1.
</event>
<event>
 5   0  0.2972541E-07  0.3223390E+04  0.7818609E-02  0.8182667E-01
       -1   -1    0    0    0  501  0.00000000000E+00  0.00000000000E+00  0.14041570036E+04  0.14041570036E+04  0.50400001928E-02 0. -1.
        1   -1    0    0  501    0  0.00000000000E+00  0.00000000000E+00 -0.18499073785E+04  0.18499073785E+04  0.50400001928E-02 0.  1.
    10030    2    1    2    0    0  0.00000000000E+00  0.00000000000E+00 -0.44575037487E+03  0.32540643822E+04  0.32233897696E+04 0.  0.
        3    1    3    3  502    0  0.14414260808E+04 -0.15640123489E+03  0.48766212914E+03  0.15297009038E+04  0.10100000352E+00 0. -1.
       -3    1    3    3    0  502 -0.14414260808E+04  0.15640123489E+03 -0.93341250401E+03  0.17243634784E+04  0.10100000352E+00 0.  1.
</event>
<event>
 5   0  0.3026332E-07  0.3187790E+04  0.7818609E-02  0.8192049E-01
       -1   -1    0    0    0  501  0.00000000000E+00  0.00000000000E+00  0.13679345113E+04  0.13679345113E+04  0.50400001928E-02 0. -1.
        1   -1    0    0  501    0  0.00000000000E+00  0.00000000000E+00 -0.18571800165E+04  0.18571800165E+04  0.50400001928E-02 0.  1.
    10030    2    1    2    0    0  0.00000000000E+00  0.00000000000E+00 -0.48924550525E+03  0.32251145278E+04  0.31877896030E+04 0.  0.
        1    1    3    3  502    0 -0.10379323814E+04  0.77594215950E+03  0.69420302037E+03  0.14701386658E+04  0.50400001928E-02 0. -1.
       -1    1    3    3    0  502  0.10379323814E+04 -0.77594215950E+03 -0.11834485256E+04  0.17549758620E+04  0.50400001928E-02 0.  1.
</event>
<event>
 5   0  0.9311672E-07  0.3554155E+04  0.7818609E-02  0.8101075E-01
       -2   -1    0    0    0  501  0.00000000000E+00  0.00000000000E+00  0.15017537909E+04  0.15017537909E+04  0.25500000920E-02 0. -1.
        2   -1    0    0  501    0  0.00000000000E+00  0.00000000000E+00 -0.21028770908E+04  0.21028770908E+04  0.25500000920E-02 0.  1.
    10030    2    1    2    0    0  0.00000000000E+00  0.00000000000E+00 -0.60112329995E+03  0.36046308817E+04  0.35541545509E+04 0.  0.
        4    1    3    3  502    0 -0.99256785555E+03  0.98256084875E+03  0.81385457136E+03  0.16164707376E+04  0.12699999809E+01 0. -1.
       -4    1    3    3    0  502  0.99256785555E+03 -0.98256084875E+03 -0.14149778713E+04  0.19881601441E+04  0.12699999809E+01 0.  1.
</event>
<event>
 5   0  0.8950809E-07  0.2925675E+04  0.7818609E-02  0.8265279E-01
       -2   -1    0    0    0  501  0.00000000000E+00  0.00000000000E+00  0.11040840909E+04  0.11040840909E+04  0.25500000920E-02 0. -1.
        2   -1    0    0  501    0  0.00000000000E+00  0.00000000000E+00 -0.19381611704E+04  0.19381611704E+04  0.25500000920E-02 0.  1.
    10030    2    1    2    0    0  0.00000000000E+00  0.00000000000E+00 -0.83407707949E+03  0.30422452614E+04  0.29256745642E+04 0.  0.
        2    1    3    3  502    0  0.73851379001E+03  0.98492348081E+03  0.40464621672E+03  0.12958454544E+04  0.25500000920E-02 0. -1.
       -2    1    3    3    0  502 -0.73851379001E+03 -0.98492348081E+03 -0.12387232962E+04  0.17463998069E+04  0.25500000920E-02 0.  1.
</event>
<event>
 5   0  0.2972541E-07  0.3496442E+04  0.7818609E-02  0.8114634E-01
        1   -1    0    0  501    0  0.00000000000E+00  0.00000000000E+00  0.18857492692E+04  0.18857492692E+04  0.50400001928E-02 0. -1.
       -1   -1    0    0    0  501  0.00000000000E+00  0.00000000000E+00 -0.16207226051E+04  0.16207226051E+04  0.50400001928E-02 0.  1.
    10030    2    1    2    0    0  0.00000000000E+00  0.00000000000E+00  0.26502666409E+03  0.35064718743E+04  0.34964418875E+04 0.  0.
        3    1    3    3  502    0  0.16338437655E+04 -0.55491632226E+03 -0.14918188482E+03  0.17319448085E+04  0.10100000352E+00 0.  1.
       -3    1    3    3    0  502 -0.16338437655E+04  0.55491632226E+03  0.41420854891E+03  0.17745270657E+04  0.10100000352E+00 0. -1.
</event>
<event>
 5   0  0.6188930E-07  0.3464919E+04  0.7818609E-02  0.8122154E-01
       -2   -1    0    0    0  501  0.00000000000E+00  0.00000000000E+00  0.11240333354E+04  0.11240333354E+04  0.25500000920E-02 0. -1.
        2   -1    0    0  501    0  0.00000000000E+00  0.00000000000E+00 -0.26702199691E+04  0.26702199691E+04  0.25500000920E-02 0.  1.
    10030    2    1    2    0    0  0.00000000000E+00  0.00000000000E+00 -0.15461866337E+04  0.37942533045E+04  0.34649191957E+04 0.  0.
        3    1    3    3  502    0 -0.38257034513E+03  0.10499072736E+04  0.67665732232E+03  0.13063424108E+04  0.10100000352E+00 0. -1.
       -3    1    3    3    0  502  0.38257034513E+03 -0.10499072736E+04 -0.22228439560E+04  0.24879108937E+04  0.10100000352E+00 0.  1.
</event>
<event>
 5   0  0.2933506E-07  0.3579366E+04  0.7818609E-02  0.8095234E-01
        1   -1    0    0  501    0  0.00000000000E+00  0.00000000000E+00  0.26032450507E+04  0.26032450507E+04  0.50400001928E-02 0.  1.
       -1   -1    0    0    0  501  0.00000000000E+00  0.00000000000E+00 -0.12303744186E+04  0.12303744187E+04  0.50400001928E-02 0. -1.
    10030    2    1    2    0    0  0.00000000000E+00  0.00000000000E+00  0.13728706320E+04  0.38336194693E+04  0.35793664891E+04 0.  0.
        4    1    3    3  502    0 -0.98568805349E+03 -0.11425554894E+04 -0.34418031176E+03  0.15477324333E+04  0.12699999809E+01 0. -1.
       -4    1    3    3    0  502  0.98568805349E+03  0.11425554894E+04  0.17170509438E+04  0.22858870361E+04  0.12699999809E+01 0.  1.
</event>
<event>
 5   0  0.2933506E-07  0.3364353E+04  0.7818609E-02  0.8146711E-01
        1   -1    0    0  501    0  0.00000000000E+00  0.00000000000E+00  0.97117685594E+03  0.97117685596E+03  0.50400001928E-02 0. -1.
       -1   -1    0    0    0  501  0.00000000000E+00  0.00000000000E+00 -0.29137005594E+04  0.29137005594E+04  0.50400001928E-02 0.  1.
    10030    2    1    2    0    0  0.00000000000E+00  0.00000000000E+00 -0.19425237035E+04  0.38848774154E+04  0.33643534585E+04 0.  0.
        4    1    3    3  502    0  0.74951003338E+03 -0.12441255177E+04  0.86186506282E+01  0.14524770181E+04  0.12699999809E+01 0. -1.
       -4    1    3    3    0  502 -0.74951003338E+03  0.12441255177E+04 -0.19511423541E+04  0.24324003973E+04  0.12699999809E+01 0.  1.
</event>
<event>
 5   0  0.3061330E-07  0.3503746E+04  0.7818609E-02  0.8112903E-01
        1   -1    0    0  501    0  0.00000000000E+00  0.00000000000E+00  0.24048369616E+04  0.24048369616E+04  0.50400001928E-02 0. -1.
       -1   -1    0    0    0  501  0.00000000000E+00  0.00000000000E+00 -0.12762026215E+04  0.12762026215E+04  0.50400001928E-02 0.  1.
    10030    2    1    2    0    0  0.00000000000E+00  0.00000000000E+00  0.11286343401E+04  0.36810395831E+04  0.35037461293E+04 0.  0.
        5    1    3    3  502    0  0.15797280888E+04  0.29828729329E+03 -0.16698044899E+03  0.16162984576E+04  0.46999998093E+01 0. -1.
       -5    1    3    3    0  502 -0.15797280888E+04 -0.29828729329E+03  0.12956147890E+04  0.20647411255E+04  0.46999998093E+01 0.  1.
</event>
<event>
 5   0  0.6188930E-07  0.3511640E+04  0.7818609E-02  0.8111037E-01
        2   -1    0    0  501    0  0.00000000000E+00  0.00000000000E+00  0.29995833879E+04  0.29995833879E+04  0.25500000920E-02 0. -1.
       -2   -1    0    0    0  501  0.00000000000E+00  0.00000000000E+00 -0.10277771732E+04  0.10277771732E+04  0.25500000920E-02 0.  1.
    10030    2    1    2    0    0  0.00000000000E+00  0.00000000000E+00  0.19718062147E+04  0.40273605612E+04  0.35116396941E+04 0.  0.
        3    1    3    3  502    0 -0.88450199198E+03  0.25632692006E+03  0.27003946293E+04  0.28530997929E+04  0.10100000352E+00 0. -1.
       -3    1    3    3    0  502  0.88450199198E+03 -0.25632692006E+03 -0.72858841463E+03  0.11742607683E+04  0.10100000352E+00 0.  1.
</event>
<event>
 5   0  0.2933506E-07  0.3503255E+04  0.7818609E-02  0.8113019E-01
       -1   -1    0    0    0  501  0.00000000000E+00  0.00000000000E+00  0.15385957469E+04  0.15385957469E+04  0.50400001928E-02 0. -1.
        1   -1    0    0  501    0  0.00000000000E+00  0.00000000000E+00 -0.19941552433E+04  0.19941552433E+04  0.50400001928E-02 0.  1.
    10030    2    1    2    0    0  0.00000000000E+00  0.00000000000E+00 -0.45555949647E+03  0.35327509902E+04  0.35032549299E+04 0.  0.
        4    1    3    3  502    0 -0.12741058994E+04 -0.11673489469E+04 -0.51680722951E+03  0.18036465097E+04  0.12699999809E+01 0.  1.
       -4    1    3    3    0  502  0.12741058994E+04  0.11673489469E+04  0.61247733040E+02  0.17291044805E+04  0.12699999809E+01 0. -1.
</event>
<event>
 5   0  0.9128871E-07  0.3519207E+04  0.7818609E-02  0.8109253E-01
       -2   -1    0    0    0  501  0.00000000000E+00  0.00000000000E+00  0.15209668900E+04  0.15209668900E+04  0.25500000920E-02 0. -1.
        2   -1    0    0  501    0  0.00000000000E+00  0.00000000000E+00 -0.20356817801E+04  0.20356817801E+04  0.25500000920E-02 0.  1.
    10030    2    1    2    0    0  0.00000000000E+00  0.00000000000E+00 -0.51471489008E+03  0.35566486701E+04  0.35192070619E+04 0.  0.
        1    1    3    3  502    0  0.10435253944E+04 -0.12159974066E+04 -0.99214820782E+03  0.18846625713E+04  0.50400001928E-02 0.  1.
       -1    1    3    3    0  502 -0.10435253944E+04  0.12159974066E+04  0.47743331774E+03  0.16719860988E+04  0.50400001928E-02 0. -1.
</event>
<event>
 5   0  0.2933506E-07  0.3507405E+04  0.7818609E-02  0.8112037E-01
        1   -1    0    0  501    0  0.00000000000E+00  0.00000000000E+00  0.23483637046E+04  0.23483637046E+04  0.50400001928E-02 0.  1.
       -1   -1    0    0    0  501  0.00000000000E+00  0.00000000000E+00 -0.13096237184E+04  0.13096237184E+04  0.50400001928E-02 0. -1.
    10030    2    1    2    0    0  0.00000000000E+00  0.00000000000E+00  0.10387399862E+04  0.36579874229E+04  0.35074051987E+04 0.  0.
        4    1    3    3  502    0 -0.12743788156E+04  0.10681213525E+04  0.11005620352E+04  0.19940318442E+04  0.12699999809E+01 0.  1.
       -4    1    3    3    0  502  0.12743788156E+04 -0.10681213525E+04 -0.61822049033E+02  0.16639555787E+04  0.12699999809E+01 0. -1.
</event>
<event>
 5   0  0.3061330E-07  0.3462800E+04  0.7818609E-02  0.8122663E-01
       -1   -1    0    0    0  501  0.00000000000E+00  0.00000000000E+00  0.19652095818E+04  0.19652095818E+04  0.50400001928E-02 0. -1.
        1   -1    0    0  501    0  0.00000000000E+00  0.00000000000E+00 -0.15254073993E+04  0.15254073993E+04  0.50400001928E-02 0.  1.
    10030    2    1    2    0    0  0.00000000000E+00  0.00000000000E+00  0.43980218254E+03  0.34906169811E+04  0.34627995826E+04 0.  0.
        5    1    3    3  502    0 -0.13696470168E+04 -0.43726641785E+03 -0.75251834141E+03  0.16227879759E+04  0.46999998093E+01 0.  1.
       -5    1    3    3    0  502  0.13696470168E+04  0.43726641785E+03  0.11923205240E+04  0.18678290052E+04  0.46999998093E+01 0. -1.
</event>
<event>
 5   0  0.2907000E-07  0.3547313E+04  0.7818609E-02  0.8102668E-01
        3   -1    0    0  501    0  0.00000000000E+00  0.00000000000E+00  0.22094908963E+04  0.22094908986E+04  0.10100000352E+00 0.  1.
       -3   -1    0    0    0  501  0.00000000000E+00  0.00000000000E+00 -0.14237929394E+04  0.14237929430E+04  0.10100000352E+00 0. -1.
    10030    2    1    2    0    0  0.00000000000E+00  0.00000000000E+00  0.78569795687E+03  0.36332838416E+04  0.35473130950E+04 0.  0.
        3    1    3    3  502    0 -0.18404251316E+03 -0.14155243466E+04  0.14711100095E+04  0.20498159655E+04  0.10100000352E+00 0.  1.
       -3    1    3    3    0  502  0.18404251316E+03  0.14155243466E+04 -0.68541205258E+03  0.15834678760E+04  0.10100000352E+00 0. -1.
</event>
<event>
 5   0  0.8845195E-07  0.3483531E+04  0.7818609E-02  0.8117704E-01
        2   -1    0    0  501    0  0.00000000000E+00  0.00000000000E+00  0.16111461873E+04  0.16111461873E+04  0.25500000920E-02 0. -1.
       -2   -1    0    0    0  501  0.00000000000E+00  0.00000000000E+00 -0.18829739463E+04  0.18829739463E+04  0.25500000920E-02 0.  1.
    10030    2    1    2    0    0  0.00000000000E+00  0.00000000000E+00 -0.27182775906E+03  0.34941201336E+04  0.34835305621E+04 0.  0.
        5    1    3    3  502    0 -0.33523447461E+03  0.61123976930E+03 -0.17369264331E+04  0.18716120679E+04  0.46999998093E+01 0.  1.
       -5    1    3    3    0  502  0.33523447461E+03 -0.61123976930E+03  0.14650986741E+04  0.16225080657E+04  0.46999998093E+01 0. -1.
</event>
<event>
 5   0  0.2936607E-07  0.3393560E+04  0.7818609E-02  0.8139489E-01
       -1   -1    0    0    0  501  0.00000000000E+00  0.00000000000E+00  0.11514299320E+04  0.11514299320E+04  0.50400001928E-02 0.  1.
        1   -1    0    0  501    0  0.00000000000E+00  0.00000000000E+00 -0.25004232197E+04  0.25004232197E+04  0.50400001928E-02 0. -1.
    10030    2    1    2    0    0  0.00000000000E+00  0.00000000000E+00 -0.13489932876E+04  0.36518531517E+04  0.33935598642E+04 0.  0.
        2    1    3    3  502    0 -0.37884799714E+03 -0.37839811908E+03  0.10581288847E+04  0.11858953066E+04  0.25500000920E-02 0.  1.
       -2    1    3    3    0  502  0.37884799714E+03  0.37839811908E+03 -0.24071221723E+04  0.24659578451E+04  0.25500000920E-02 0. -1.
</event>
<event>
 5   0  0.2907000E-07  0.3595293E+04  0.7818609E-02  0.8091571E-01
       -3   -1    0    0    0  501  0.00000000000E+00  0.00000000000E+00  0.27076064667E+04  0.27076064686E+04  0.10100000352E+00 0. -1.
        3   -1    0    0  501    0  0.00000000000E+00  0.00000000000E+00 -0.11935017863E+04  0.11935017906E+04  0.10100000352E+00 0.  1.
    10030    2    1    2    0    0  0.00000000000E+00  0.00000000000E+00  0.15141046804E+04  0.39011082593E+04  0.35952931267E+04 0.  0.
        5    1    3    3  502    0 -0.11758222346E+03  0.17791267680E+04  0.10054183494E+04  0.20469503617E+04  0.46999998093E+01 0.  1.
       -5    1    3    3    0  502  0.11758222346E+03 -0.17791267680E+04  0.50868633100E+03  0.18541578976E+04  0.46999998093E+01 0. -1.
</event>
<event>
 5   0  0.3061330E-07  0.3526730E+04  0.7818609E-02  0.8107484E-01
        1   -1    0    0  501    0  0.00000000000E+00  0.00000000000E+00  0.14996149023E+04  0.14996149023E+04  0.50400001928E-02 0. -1.
       -1   -1    0    0    0  501  0.00000000000E+00  0.00000000000E+00 -0.20735027796E+04  0.20735027797E+04  0.50400001928E-02 0.  1.
    10030    2    1    2    0    0  0.00000000000E+00  0.00000000000E+00 -0.57388787734E+03  0.35731176820E+04  0.35267297420E+04 0.  0.
        5    1    3    3  502    0  0.74074082398E+03 -0.90809635823E+03 -0.16218853632E+04  0.20009673124E+04  0.46999998093E+01 0.  1.
       -5    1    3    3    0  502 -0.74074082398E+03  0.90809635823E+03  0.10479974858E+04  0.15721503695E+04  0.46999998093E+01 0. -1.
</event>
<event>
 5   0  0.8950809E-07  0.3486327E+04  0.7818609E-02  0.8117038E-01
        2   -1    0    0  501    0  0.00000000000E+00  0.00000000000E+00  0.14988427194E+04  0.14988427194E+04  0.25500000920E-02 0.  1.
       -2   -1    0    0    0  501  0.00000000000E+00  0.00000000000E+00 -0.20273099663E+04  0.20273099663E+04  0.25500000920E-02 0. -1.
    10030    2    1    2    0    0  0.00000000000E+00  0.00000000000E+00 -0.52846724695E+03  0.35261526857E+04  0.34863268825E+04 0.  0.
        2    1    3    3  502    0  0.14533917319E+04  0.71697025705E+03  0.38514819273E+03  0.16657529847E+04  0.25500000920E-02 0.  1.
       -2    1    3    3    0  502 -0.14533917319E+04 -0.71697025705E+03 -0.91361543968E+03  0.18603997010E+04  0.25500000920E-02 0. -1.
</event>
<event>
 5   0  0.2933506E-07  0.3500995E+04  0.7818609E-02  0.8113554E-01
       -1   -1    0    0    0  501  0.00000000000E+00  0.00000000000E+00  0.16556837487E+04  0.16556837488E+04  0.50400001928E-02 0.  1.
        1   -1    0    0  501    0  0.00000000000E+00  0.00000000000E+00 -0.18507403965E+04  0.18507403965E+04  0.50400001928E-02 0. -1.
    10030    2    1    2    0    0  0.00000000000E+00  0.00000000000E+00 -0.19505664778E+03  0.35064241453E+04  0.35009946002E+04 0.  0.
        4    1    3    3  502    0  0.13115543965E+03  0.17241200862E+04 -0.37080191854E+03  0.17684138363E+04  0.12699999809E+01 0. -1.
       -4    1    3    3    0  502 -0.13115543965E+03 -0.17241200862E+04  0.17574527076E+03  0.17380103089E+04  0.12699999809E+01 0.  1.
</event>
<event>
 5   0  0.2933506E-07  0.3166934E+04  0.7818609E-02  0.8197605E-01
        1   -1    0    0  501    0  0.00000000000E+00  0.00000000000E+00  0.31124276729E+04  0.31124276729E+04  0.50400001928E-02 0.  1.
       -1   -1    0    0    0  501  0.00000000000E+00  0.00000000000E+00 -0.80559852828E+03  0.80559852830E+03  0.50400001928E-02 0. -1.
    10030    2    1    2    0    0  0.00000000000E+00  0.00000000000E+00  0.23068291446E+04  0.39180262012E+04  0.31669336290E+04 0.  0.
        4    1    3    3  502    0  0.13100960586E+04 -0.18855759121E+03  0.22287255519E+04  0.25921274750E+04  0.12699999809E+01 0.  1.
       -4    1    3    3    0  502 -0.13100960586E+04  0.18855759121E+03  0.78103592724E+02  0.13258987262E+04  0.12699999809E+01 0. -1.
</event>
<event>
 5   0  0.3026332E-07  0.3540252E+04  0.7818609E-02  0.8104316E-01
        1   -1    0    0  501    0  0.00000000000E+00  0.00000000000E+00  0.15311264810E+04  0.15311264810E+04  0.50400001928E-02 0.  1.
       -1   -1    0    0    0  501  0.00000000000E+00  0.00000000000E+00 -0.20464319192E+04  0.20464319192E+04  0.50400001928E-02 0. -1.
    10030    2    1    2    0    0  0.00000000000E+00  0.00000000000E+00 -0.51530543818E+03  0.35775584001E+04  0.35402520266E+04 0.  0.
        1    1    3    3  502    0  0.14445708896E+04  0.10040677788E+04 -0.59605507663E+02  0.17602528160E+04  0.50400001928E-02 0.  1.
       -1    1    3    3    0  502 -0.14445708896E+04 -0.10040677788E+04 -0.45569993051E+03  0.18173055842E+04  0.50400001928E-02 0. -1.
</event>
<event>
 5   0  0.3061330E-07  0.3558310E+04  0.7818609E-02  0.8100109E-01
       -1   -1    0    0    0  501  0.00000000000E+00  0.00000000000E+00  0.17022933264E+04  0.17022933264E+04  0.50400001928E-02 0. -1.
        1   -1    0    0  501    0  0.00000000000E+00  0.00000000000E+00 -0.18594868524E+04  0.18594868524E+04  0.50400001928E-02 0.  1.
    10030    2    1    2    0    0  0.00000000000E+00  0.00000000000E+00 -0.15719352598E+03  0.35617801788E+04  0.35583097444E+04 0.  0.
        5    1    3    3  502    0 -0.19974630077E+03 -0.50688741136E+03  0.16167305378E+04  0.17060695045E+04  0.46999998093E+01 0. -1.
       -5    1    3    3    0  502  0.19974630077E+03  0.50688741136E+03 -0.17739240638E+04  0.18557106742E+04  0.46999998093E+01 0.  1.
</event>
<event>
 5   0  0.9311672E-07  0.2915008E+04  0.7818609E-02  0.8268426E-01
        2   -1    0    0  501    0  0.00000000000E+00  0.00000000000E+00  0.13026315080E+04  0.13026315080E+04  0.25500000920E-02 0.  1.
       -2   -1    0    0    0  501  0.00000000000E+00  0.00000000000E+00 -0.16307893599E+04  0.16307893599E+04  0.25500000920E-02 0. -1.
    10030    2    1    2    0    0  0.00000000000E+00  0.00000000000E+00 -0.32815785194E+03  0.29334208680E+04  0.29150077895E+04 0.  0.
        4    1    3    3  502    0  0.13458169865E+04 -0.53941910220E+03 -0.14412670219E+02  0.14499674710E+04  0.12699999809E+01 0.  1.
       -4    1    3    3    0  502 -0.13458169865E+04  0.53941910220E+03 -0.31374518172E+03  0.14834533970E+04  0.12699999809E+01 0. -1.
</event>
<event>
 5   0  0.3026332E-07  0.3535646E+04  0.7818609E-02  0.8105394E-01
        1   -1    0    0  501    0  0.00000000000E+00  0.00000000000E+00  0.21709063543E+04  0.21709063543E+04  0.50400001928E-02 0. -1.
       -1   -1    0    0    0  501  0.00000000000E+00  0.00000000000E+00 -0.14395823806E+04  0.14395823806E+04  0.50400001928E-02 0.  1.
    10030    2    1    2    0    0  0.00000000000E+00  0.00000000000E+00  0.73132397367E+03  0.36104887349E+04  0.35356462140E+04 0.  0.
        1    1    3    3  502    0  0.47150463195E+03 -0.14652222291E+04  0.12535531602E+04  0.19850915153E+04  0.50400001928E-02 0. -1.
       -1    1    3    3    0  502 -0.47150463195E+03  0.14652222291E+04 -0.52222918650E+03  0.16253972197E+04  0.50400001928E-02 0.  1.
</event>
<event>
 5   0  0.9311672E-07  0.3483248E+04  0.7818609E-02  0.8117772E-01
        2   -1    0    0  501    0  0.00000000000E+00  0.00000000000E+00  0.10533853583E+04  0.10533853583E+04  0.25500000920E-02 0. -1.
       -2   -1    0    0    0  501  0.00000000000E+00  0.00000000000E+00 -0.28795290106E+04  0.28795290106E+04  0.25500000920E-02 0.  1.
    10030    2    1    2    0    0  0.00000000000E+00  0.00000000000E+00 -0.18261436523E+04  0.39329143689E+04  0.34832477366E+04 0.  0.
        4    1    3    3  502    0  0.13485310416E+04  0.63594564663E+03  0.10329426129E+03  0.14945347613E+04  0.12699999809E+01 0. -1.
       -4    1    3    3    0  502 -0.13485310416E+04 -0.63594564663E+03 -0.19294379136E+04  0.24383796076E+04  0.12699999809E+01 0.  1.
</event>
<event>
 5   0  0.6188930E-07  0.3494599E+04  0.7818609E-02  0.8115071E-01
       -2   -1    0    0    0  501  0.00000000000E+00  0.00000000000E+00  0.14844746385E+04  0.14844746385E+04  0.25500000920E-02 0.  1.
        2   -1    0    0  501    0  0.00000000000E+00  0.00000000000E+00 -0.20566569665E+04  0.20566569665E+04  0.25500000920E-02 0. -1.
    10030    2    1    2    0    0  0.00000000000E+00  0.00000000000E+00 -0.57218232807E+03  0.35411316050E+04  0.34945987506E+04 0.  0.
        3    1    3    3  502    0 -0.12679027860E+04  0.71429829235E+02  0.93004610586E+03  0.15740601845E+04  0.10100000352E+00 0.  1.
       -3    1    3    3    0  502  0.12679027860E+04 -0.71429829235E+02 -0.15022284339E+04  0.19670714205E+04  0.10100000352E+00 0. -1.
</event>
<event>
 5   0  0.9128871E-07  0.3537835E+04  0.7818609E-02  0.8104882E-01
       -2   -1    0    0    0  501  0.00000000000E+00  0.00000000000E+00  0.17109011324E+04  0.17109011324E+04  0.25500000920E-02 0.  1.
        2   -1    0    0  501    0  0.00000000000E+00  0.00000000000E+00 -0.18289015032E+04  0.18289015032E+04  0.25500000920E-02 0. -1.
    10030    2    1    2    0    0  0.00000000000E+00  0.00000000000E+00 -0.11800037079E+03  0.35398026357E+04  0.35378353003E+04 0.  0.
        1    1    3    3  502    0  0.17316819054E+04 -0.34602714515E+03 -0.16207517142E+03  0.17733373531E+04  0.50400001928E-02 0.  1.
       -1    1    3    3    0  502 -0.17316819054E+04  0.34602714515E+03  0.44074800632E+02  0.17664652826E+04  0.50400001928E-02 0. -1.
</event>
<event>
 5   0  0.9311672E-07  0.3477894E+04  0.7818609E-02  0.8119049E-01
       -2   -1    0    0    0  501  0.00000000000E+00  0.00000000000E+00  0.10731895945E+04  0.10731895945E+04  0.25500000920E-02 0.  1.
        2   -1    0    0  501    0  0.00000000000E+00  0.00000000000E+00 -0.28177102500E+04  0.28177102500E+04  0.25500000920E-02 0. -1.
    10030    2    1    2    0    0  0.00000000000E+00  0.00000000000E+00 -0.17445206555E+04  0.38908998446E+04  0.34778943749E+04 0.  0.
        4    1    3    3  502    0 -0.13914173059E+04 -0.91882664687E+03 -0.14244876938E+04  0.21930461301E+04  0.12699999809E+01 0. -1.
       -4    1    3    3    0  502  0.13914173059E+04  0.91882664687E+03 -0.32003296171E+03  0.16978537144E+04  0.12699999809E+01 0.  1.
</event>
<event>
 5   0  0.3026332E-07  0.3505233E+04  0.7818609E-02  0.8112551E-01
        1   -1    0    0  501    0  0.00000000000E+00  0.00000000000E+00  0.11857365676E+04  0.11857365677E+04  0.50400001928E-02 0.  1.
       -1   -1    0    0    0  501  0.00000000000E+00  0.00000000000E+00 -0.25905120134E+04  0.25905120134E+04  0.50400001928E-02 0. -1.
    10030    2    1    2    0    0  0.00000000000E+00  0.00000000000E+00 -0.14047754458E+04  0.37762485811E+04  0.35052331296E+04 0.  0.
        1    1    3    3  502    0  0.16599883186E+04 -0.56140795095E+03 -0.66962738913E+03  0.18759373512E+04  0.50400001928E-02 0.  1.
       -1    1    3    3    0  502 -0.16599883186E+04  0.56140795095E+03 -0.73514805666E+03  0.19003112299E+04  0.50400001928E-02 0. -1.
</event>
<event>
 5   0  0.6188930E-07  0.3509889E+04  0.7818609E-02  0.8111450E-01
       -2   -1    0    0    0  501  0.00000000000E+00  0.00000000000E+00  0.12696075787E+04  0.12696075787E+04  0.25500000920E-02 0. -1.
        2   -1    0    0  501    0  0.00000000000E+00  0.00000000000E+00 -0.24258132087E+04  0.24258132087E+04  0.25500000920E-02 0.  1.
    10030    2    1    2    0    0  0.00000000000E+00  0.00000000000E+00 -0.11562056300E+04  0.36954207874E+04  0.35098893625E+04 0.  0.
        3    1    3    3  502    0 -0.13212603740E+04  0.10549632320E+04 -0.10732317300E+04  0.20026239670E+04  0.10100000352E+00 0.  1.
       -3    1    3    3    0  502  0.13212603740E+04 -0.10549632320E+04 -0.82973900023E+02  0.16927968204E+04  0.10100000352E+00 0. -1.
</event>
<event>
 5   0  0.3026332E-07  0.3531367E+04  0.7818609E-02  0.8106396E-01
       -1   -1    0    0    0  501  0.00000000000E+00  0.00000000000E+00  0.16687607184E+04  0.16687607184E+04  0.50400001928E-02 0. -1.
        1   -1    0    0  501    0  0.00000000000E+00  0.00000000000E+00 -0.18682358073E+04  0.18682358073E+04  0.50400001928E-02 0.  1.
    10030    2    1    2    0    0  0.00000000000E+00  0.00000000000E+00 -0.19947508895E+03  0.35369965257E+04  0.35313671732E+04 0.  0.
        1    1    3    3  502    0  0.15754561946E+04 -0.15810606695E+03 -0.88237857150E+03  0.18126366688E+04  0.50400001928E-02 0.  1.
       -1    1    3    3    0  502 -0.15754561946E+04  0.15810606695E+03  0.68290348255E+03  0.17243598569E+04  0.50400001928E-02 0. -1.
</event>
<event>
 5   0  0.9311672E-07  0.3396710E+04  0.7818609E-02  0.8138714E-01
        2   -1    0    0  501    0  0.00000000000E+00  0.00000000000E+00  0.21759196465E+04  0.21759196465E+04  0.25500000920E-02 0.  1.
       -2   -1    0    0    0  501  0.00000000000E+00  0.00000000000E+00 -0.13256049485E+04  0.13256049485E+04  0.25500000920E-02 0. -1.
    10030    2    1    2    0    0  0.00000000000E+00  0.00000000000E+00  0.85031469798E+03  0.35015245950E+04  0.33967100853E+04 0.  0.
        4    1    3    3  502    0 -0.11987983386E+04  0.53069479696E+03 -0.68781274541E+03  0.14804872204E+04  0.12699999809E+01 0. -1.
       -4    1    3    3    0  502  0.11987983386E+04 -0.53069479696E+03  0.15381274434E+04  0.20210373745E+04  0.12699999809E+01 0.  1.
</event>
<event>
 5   0  0.8950809E-07  0.3481706E+04  0.7818609E-02  0.8118139E-01
        2   -1    0    0  501    0  0.00000000000E+00  0.00000000000E+00  0.14588688644E+04  0.14588688644E+04  0.25500000920E-02 0.  1.
       -2   -1    0    0    0  501  0.00000000000E+00  0.00000000000E+00 -0.20773418986E+04  0.20773418986E+04  0.25500000920E-02 0. -1.
    10030    2    1    2    0    0  0.00000000000E+00  0.00000000000E+00 -0.61847303426E+03  0.35362107630E+04  0.34817061430E+04 0.  0.
        2    1    3    3  502    0  0.51944922891E+03  0.16031754036E+04 -0.75261428319E+03  0.18456508704E+04  0.25500000920E-02 0. -1.
       -2    1    3    3    0  502 -0.51944922891E+03 -0.16031754036E+04  0.13414124894E+03  0.16905598927E+04  0.25500000920E-02 0.  1.
</event>
<event>
 5   0  0.9128871E-07  0.3518214E+04  0.7818609E-02  0.8109487E-01
        2   -1    0    0  501    0  0.00000000000E+00  0.00000000000E+00  0.14388349165E+04  0.14388349165E+04  0.25500000920E-02 0. -1.
       -2   -1    0    0    0  501  0.00000000000E+00  0.00000000000E+00 -0.21506692330E+04  0.21506692330E+04  0.25500000920E-02 0.  1.
    10030    2    1    2    0    0  0.00000000000E+00  0.00000000000E+00 -0.71183431652E+03  0.35895041495E+04  0.35182143120E+04 0.  0.
        1    1    3    3  502    0 -0.12916047121E+04 -0.11776037543E+04 -0.15323463333E+03  0.17545581174E+04  0.50400001928E-02 0.  1.
       -1    1    3    3    0  502  0.12916047121E+04  0.11776037543E+04 -0.55859968320E+03  0.18349460321E+04  0.50400001928E-02 0. -1.
</event>
<event>
 5   0  0.6188930E-07  0.3432182E+04  0.7818609E-02  0.8130053E-01
        2   -1    0    0  501    0  0.00000000000E+00  0.00000000000E+00  0.10887989528E+04  0.10887989528E+04  0.25500000920E-02 0.  1.
       -2   -1    0    0    0  501  0.00000000000E+00  0.00000000000E+00 -0.27047869202E+04  0.27047869202E+04  0.25500000920E-02 0. -1.
    10030    2    1    2    0    0  0.00000000000E+00  0.00000000000E+00 -0.16159879675E+04  0.37935858730E+04  0.34321824929E+04 0.  0.
        3    1    3    3  502    0 -0.15819419707E+04  0.14046931595E+03 -0.15266055390E+04  0.22029063779E+04  0.10100000352E+00 0. -1.
       -3    1    3    3    0  502  0.15819419707E+04 -0.14046931595E+03 -0.89382428425E+02  0.15906794951E+04  0.10100000352E+00 0.  1.
</event>
<event>
 5   0  0.2907000E-07  0.3517179E+04  0.7818609E-02  0.8109731E-01
       -3   -1    0    0    0  501  0.00000000000E+00  0.00000000000E+00  0.20160242384E+04  0.20160242409E+04  0.10100000352E+00 0. -1.
        3   -1    0    0  501    0  0.00000000000E+00  0.00000000000E+00 -0.15340272786E+04  0.15340272819E+04  0.10100000352E+00 0.  1.
    10030    2    1    2    0    0  0.00000000000E+00  0.00000000000E+00  0.48199695979E+03  0.35500515228E+04  0.35171785206E+04 0.  0.
        2    1    3    3  502    0 -0.94181101878E+02  0.16630942044E+04  0.81007992256E+03  0.18522909852E+04  0.25500000920E-02 0. -1.
       -2    1    3    3    0  502  0.94181101878E+02 -0.16630942044E+04 -0.32808296277E+03  0.16977605377E+04  0.25500000920E-02 0.  1.
</event>
<event>
 5   0  0.8950809E-07  0.3481156E+04  0.7818609E-02  0.8118270E-01
       -2   -1    0    0    0  501  0.00000000000E+00  0.00000000000E+00  0.17059842169E+04  0.17059842169E+04  0.25500000920E-02 0.  1.
        2   -1    0    0  501    0  0.00000000000E+00  0.00000000000E+00 -0.17758733491E+04  0.17758733491E+04  0.25500000920E-02 0. -1.
    10030    2    1    2    0    0  0.00000000000E+00  0.00000000000E+00 -0.69889132212E+02  0.34818575659E+04  0.34811560750E+04 0.  0.
        2    1    3    3  502    0  0.81403158787E+03 -0.13852090923E+04  0.63463805448E+03  0.17274886731E+04  0.25500000920E-02 0.  1.
       -2    1    3    3    0  502 -0.81403158787E+03  0.13852090923E+04 -0.70452718669E+03  0.17543688929E+04  0.25500000920E-02 0. -1.
</event>
<event>
 5   0  0.2936607E-07  0.3023844E+04  0.7818609E-02  0.8236955E-01
        1   -1    0    0  501    0  0.00000000000E+00  0.00000000000E+00  0.11895186718E+04  0.11895186718E+04  0.50400001928E-02 0.  1.
       -1   -1    0    0    0  501  0.00000000000E+00  0.00000000000E+00 -0.19217083585E+04  0.19217083585E+04  0.50400001928E-02 0. -1.
    10030    2    1    2    0    0  0.00000000000E+00  0.00000000000E+00 -0.73218968666E+03  0.31112270303E+04  0.30238438943E+04 0.  0.
        2    1    3    3  502    0  0.10245674932E+04 -0.87413595581E+03  0.34082306783E+03  0.13892489269E+04  0.25500000920E-02 0.  1.
       -2    1    3    3    0  502 -0.10245674932E+04  0.87413595581E+03 -0.10730127545E+04  0.17219781034E+04  0.25500000920E-02 0. -1.
</event>
<event>
 5   0  0.2936607E-07  0.3504300E+04  0.7818609E-02  0.8112772E-01
       -1   -1    0    0    0  501  0.00000000000E+00  0.00000000000E+00  0.17221649606E+04  0.17221649606E+04  0.50400001928E-02 0.  1.
        1   -1    0    0  501    0  0.00000000000E+00  0.00000000000E+00 -0.17826572493E+04  0.17826572493E+04  0.50400001928E-02 0. -1.
    10030    2    1    2    0    0  0.00000000000E+00  0.00000000000E+00 -0.60492288769E+02  0.35048222099E+04  0.35043001307E+04 0.  0.
        2    1    3    3  502    0  0.79106124338E+03  0.14452336590E+04  0.56612419468E+03  0.17421179133E+04  0.25500000920E-02 0.  1.
       -2    1    3    3    0  502 -0.79106124338E+03 -0.14452336590E+04 -0.62661648345E+03  0.17627042966E+04  0.25500000920E-02 0. -1.
</event>
<event>
 5   0  0.2933506E-07  0.3478091E+04  0.7818609E-02  0.8119002E-01
        1   -1    0    0  501    0  0.00000000000E+00  0.00000000000E+00  0.29219561816E+04  0.29219561816E+04  0.50400001928E-02 0. -1.
       -1   -1    0    0    0  501  0.00000000000E+00  0.00000000000E+00 -0.10350183912E+04  0.10350183912E+04  0.50400001928E-02 0.  1.
    10030    2    1    2    0    0  0.00000000000E+00  0.00000000000E+00  0.18869377904E+04  0.39569745728E+04  0.34780905027E+04 0.  0.
        4    1    3    3  502    0  0.29834356154E+03  0.68714844868E+03  0.27289816368E+04  0.28299336137E+04  0.12699999809E+01 0. -1.
       -4    1    3    3    0  502 -0.29834356154E+03 -0.68714844868E+03 -0.84204384641E+03  0.11270409591E+04  0.12699999809E+01 0.  1.
</event>
<event>
 5   0  0.3061330E-07  0.3513516E+04  0.7818609E-02  0.8110594E-01
        1   -1    0    0  501    0  0.00000000000E+00  0.00000000000E+00  0.24828191800E+04  0.24828191801E+04  0.50400001928E-02 0. -1.
       -1   -1    0    0    0  501  0.00000000000E+00  0.00000000000E+00 -0.12430216363E+04  0.12430216363E+04  0.50400001928E-02 0.  1.
    10030    2    1    2    0    0  0.00000000000E+00  0.00000000000E+00  0.12397975437E+04  0.37258408164E+04  0.35135155954E+04 0.  0.
        5    1    3    3  502    0  0.29250015486E+02  0.15304808435E+04 -0.29413411594E+03  0.15587700740E+04  0.46999998093E+01 0. -1.
       -5    1    3    3    0  502 -0.29250015486E+02 -0.15304808435E+04  0.15339316597E+04  0.21670707423E+04  0.46999998093E+01 0.  1.
</event>
<event>
 5   0  0.3061330E-07  0.3549840E+04  0.7818609E-02  0.8102079E-01
        1   -1    0    0  501    0  0.00000000000E+00  0.00000000000E+00  0.11533148594E+04  0.11533148594E+04  0.50400001928E-02 0. -1.
       -1   -1    0    0    0  501  0.00000000000E+00  0.00000000000E+00 -0.27315529309E+04  0.27315529309E+04  0.50400001928E-02 0.  1.
    10030    2    1    2    0    0  0.00000000000E+00  0.00000000000E+00 -0.15782380715E+04  0.38848677903E+04  0.35498397623E+04 0.  0.
        5    1    3    3  502    0  0.88288257232E+03 -0.33943405726E+03 -0.24327359235E+04  0.26101577116E+04  0.46999998093E+01 0.  1.
       -5    1    3    3    0  502 -0.88288257232E+03  0.33943405726E+03  0.85449785204E+03  0.12747100788E+04  0.46999998093E+01 0. -1.
</event>
<event>
 5   0  0.6188930E-07  0.3437836E+04  0.7818609E-02  0.8128682E-01
       -2   -1    0    0    0  501  0.00000000000E+00  0.00000000000E+00  0.15521536506E+04  0.15521536506E+04  0.25500000920E-02 0. -1.
        2   -1    0    0  501    0  0.00000000000E+00  0.00000000000E+00 -0.19035998852E+04  0.19035998852E+04  0.25500000920E-02 0.  1.
    10030    2    1    2    0    0  0.00000000000E+00  0.00000000000E+00 -0.35144623458E+03  0.34557535359E+04  0.34378362446E+04 0.  0.
        3    1    3    3  502    0 -0.14040626168E+04 -0.97766562473E+03 -0.34229006415E+03  0.17448164384E+04  0.10100000352E+00 0.  1.
       -3    1    3    3    0  502  0.14040626168E+04  0.97766562473E+03 -0.91561704329E+01  0.17109370974E+04  0.10100000352E+00 0. -1.
</event>
<event>
 5   0  0.6188930E-07  0.3472560E+04  0.7818609E-02  0.8120324E-01
       -2   -1    0    0    0  501  0.00000000000E+00  0.00000000000E+00  0.14629032456E+04  0.14629032456E+04  0.25500000920E-02 0. -1.
        2   -1    0    0  501    0  0.00000000000E+00  0.00000000000E+00 -0.20607428386E+04  0.20607428386E+04  0.25500000920E-02 0.  1.
    10030    2    1    2    0    0  0.00000000000E+00  0.00000000000E+00 -0.59783959303E+03  0.35236460842E+04  0.34725595096E+04 0.  0.
        3    1    3    3  502    0 -0.13921981602E+03  0.62307591194E+03  0.13394737664E+04  0.14838449145E+04  0.10100000352E+00 0. -1.
       -3    1    3    3    0  502  0.13921981602E+03 -0.62307591194E+03 -0.19373133594E+04  0.20398011697E+04  0.10100000352E+00 0.  1.
</event>
<event>
 5   0  0.3061330E-07  0.3486927E+04  0.7818609E-02  0.8116895E-01
        1   -1    0    0  501    0  0.00000000000E+00  0.00000000000E+00  0.14439839945E+04  0.14439839945E+04  0.50400001928E-02 0. -1.
       -1   -1    0    0    0  501  0.00000000000E+00  0.00000000000E+00 -0.21050548709E+04  0.21050548709E+04  0.50400001928E-02 0.  1.
    10030    2    1    2    0    0  0.00000000000E+00  0.00000000000E+00 -0.66107087636E+03  0.35490388654E+04  0.34869273243E+04 0.  0.
        5    1    3    3  502    0 -0.17032191475E+04 -0.24899275376E+03 -0.48671890339E+02  0.17220173921E+04  0.46999998093E+01 0.  1.
       -5    1    3    3    0  502  0.17032191475E+04  0.24899275376E+03 -0.61239898602E+03  0.18270214733E+04  0.46999998093E+01 0. -1.
</event>
<event>
 5   0  0.9128871E-07  0.3537997E+04  0.7818609E-02  0.8104844E-01
       -2   -1    0    0    0  501  0.00000000000E+00  0.00000000000E+00  0.16978687376E+04  0.16978687376E+04  0.25500000920E-02 0.  1.
        2   -1    0    0  501    0  0.00000000000E+00  0.00000000000E+00 -0.18431084737E+04  0.18431084737E+04  0.25500000920E-02 0. -1.
    10030    2    1    2    0    0  0.00000000000E+00  0.00000000000E+00 -0.14523973606E+03  0.35409772113E+04  0.35379973191E+04 0.  0.
        1    1    3    3  502    0 -0.64053137384E+03 -0.84017600244E+03 -0.14926806933E+04  0.18287350295E+04  0.50400001928E-02 0. -1.
       -1    1    3    3    0  502  0.64053137384E+03  0.84017600244E+03  0.13474409572E+04  0.17122421818E+04  0.50400001928E-02 0.  1.
</event>
<event>
 5   0  0.2936607E-07  0.3498190E+04  0.7818609E-02  0.8114219E-01
       -1   -1    0    0    0  501  0.00000000000E+00  0.00000000000E+00  0.17676240135E+04  0.17676240135E+04  0.50400001928E-02 0. -1.
        1   -1    0    0  501    0  0.00000000000E+00  0.00000000000E+00 -0.17307600995E+04  0.17307600996E+04  0.50400001928E-02 0.  1.
    10030    2    1    2    0    0  0.00000000000E+00  0.00000000000E+00  0.36863913923E+02  0.34983841130E+04  0.34981898825E+04 0.  0.
        2    1    3    3  502    0 -0.51482604863E+03 -0.32039314865E+03 -0.16222795923E+04  0.17319032033E+04  0.25500000920E-02 0.  1.
       -2    1    3    3    0  502  0.51482604863E+03  0.32039314865E+03  0.16591435062E+04  0.17664809097E+04  0.25500000920E-02 0. -1.
</event>
<event>
 5   0  0.6188930E-07  0.3531997E+04  0.7818609E-02  0.8106249E-01
       -2   -1    0    0    0  501  0.00000000000E+00  0.00000000000E+00  0.11699868698E+04  0.11699868698E+04  0.25500000920E-02 0.  1.
        2   -1    0    0  501    0  0.00000000000E+00  0.00000000000E+00 -0.26656285995E+04  0.26656285995E+04  0.25500000920E-02 0. -1.
    10030    2    1    2    0    0  0.00000000000E+00  0.00000000000E+00 -0.14956417297E+04  0.38356154692E+04  0.35319968636E+04 0.  0.
        3    1    3    3  502    0  0.66235135857E+03  0.39955903188E+03  0.97622551800E+03  0.12455412536E+04  0.10100000352E+00 0.  1.
       -3    1    3    3    0  502 -0.66235135857E+03 -0.39955903188E+03 -0.24718672477E+04  0.25900742156E+04  0.10100000352E+00 0. -1.
</event>
<event>
 5   0  0.9311672E-07  0.3337300E+04  0.7818609E-02  0.8153469E-01
       -2   -1    0    0    0  501  0.00000000000E+00  0.00000000000E+00  0.22992806688E+04  0.22992806688E+04  0.25500000920E-02 0. -1.
        2   -1    0    0  501    0  0.00000000000E+00  0.00000000000E+00 -0.12109843593E+04  0.12109843593E+04  0.25500000920E-02 0.  1.
    10030    2    1    2    0    0  0.00000000000E+00  0.00000000000E+00  0.10882963094E+04  0.35102650281E+04  0.33373000630E+04 0.  0.
        4    1    3    3  502    0  0.10242181462E+04  0.12291649961E+04  0.45752760237E+02  0.16006137344E+04  0.12699999809E+01 0.  1.
       -4    1    3    3    0  502 -0.10242181462E+04 -0.12291649961E+04  0.10425435492E+04  0.19096512937E+04  0.12699999809E+01 0. -1.
</event>
<event>
 5   0  0.8845195E-07  0.3472973E+04  0.7818609E-02  0.8120225E-01
       -2   -1    0    0    0  501  0.00000000000E+00  0.00000000000E+00  0.10836921923E+04  0.10836921923E+04  0.25500000920E-02 0.  1.
        2   -1    0    0  501    0  0.00000000000E+00  0.00000000000E+00 -0.27825115312E+04  0.27825115312E+04  0.25500000920E-02 0. -1.
    10030    2    1    2    0    0  0.00000000000E+00  0.00000000000E+00 -0.16988193389E+04  0.38662037235E+04  0.34729733782E+04 0.  0.
        5    1    3    3  502    0 -0.82816606251E+02  0.77962623510E+03 -0.25742590067E+04  0.26910048644E+04  0.46999998093E+01 0. -1.
       -5    1    3    3    0  502  0.82816606251E+02 -0.77962623510E+03  0.87543966774E+03  0.11751988592E+04  0.46999998093E+01 0.  1.
</event>
<event>
 5   0  0.3026332E-07  0.3522113E+04  0.7818609E-02  0.8108569E-01
        1   -1    0    0  501    0  0.00000000000E+00  0.00000000000E+00  0.18077401139E+04  0.18077401139E+04  0.50400001928E-02 0.  1.
       -1   -1    0    0    0  501  0.00000000000E+00  0.00000000000E+00 -0.17155788055E+04  0.17155788055E+04  0.50400001928E-02 0. -1.
    10030    2    1    2    0    0  0.00000000000E+00  0.00000000000E+00  0.92161308419E+02  0.35233189193E+04  0.35221133571E+04 0.  0.
        1    1    3    3  502    0  0.10666405578E+03  0.10427893018E+04 -0.13695128541E+04  0.17246310348E+04  0.50400001928E-02 0. -1.
       -1    1    3    3    0  502 -0.10666405578E+03 -0.10427893018E+04  0.14616741625E+04  0.17986878845E+04  0.50400001928E-02 0.  1.
</event>
<event>
 5   0  0.3026332E-07  0.3479103E+04  0.7818609E-02  0.8118760E-01
       -1   -1    0    0    0  501  0.00000000000E+00  0.00000000000E+00  0.11017711017E+04  0.11017711017E+04  0.50400001928E-02 0.  1.
        1   -1    0    0  501    0  0.00000000000E+00  0.00000000000E+00 -0.27465225070E+04  0.27465225070E+04  0.50400001928E-02 0. -1.
    10030    2    1    2    0    0  0.00000000000E+00  0.00000000000E+00 -0.16447514052E+04  0.38482936087E+04  0.34791028317E+04 0.  0.
        1    1    3    3  502    0  0.15302813296E+04  0.73782028835E+03 -0.12360979398E+04  0.21009706905E+04  0.50400001928E-02 0. -1.
       -1    1    3    3    0  502 -0.15302813296E+04 -0.73782028835E+03 -0.40865346545E+03  0.17473229182E+04  0.50400001928E-02 0.  1.
</event>
<event>
 5   0  0.2933506E-07  0.3497006E+04  0.7818609E-02  0.8114500E-01
        1   -1    0    0  501    0  0.00000000000E+00  0.00000000000E+00  0.20296353242E+04  0.20296353242E+04  0.50400001928E-02 0.  1.
       -1   -1    0    0    0  501  0.00000000000E+00  0.00000000000E+00 -0.15063116383E+04  0.15063116383E+04  0.50400001928E-02 0. -1.
    10030    2    1    2    0    0  0.00000000000E+00  0.00000000000E+00  0.52332368590E+03  0.35359469626E+04  0.34970063257E+04 0.  0.
        4    1    3    3  502    0  0.81520780269E+03  0.49666072792E+03 -0.12195828923E+04  0.15487477794E+04  0.12699999809E+01 0. -1.
       -4    1    3    3    0  502 -0.81520780269E+03 -0.49666072792E+03  0.17429065782E+04  0.19871991831E+04  0.12699999809E+01 0.  1.
</event>
<event>
 5   0  0.2972541E-07  0.3316460E+04  0.7818609E-02  0.8158720E-01
       -1   -1    0    0    0  501  0.00000000000E+00  0.00000000000E+00  0.30295788690E+04  0.30295788690E+04  0.50400001928E-02 0. -1.
        1   -1    0    0  501    0  0.00000000000E+00  0.00000000000E+00 -0.90762695897E+03  0.90762695898E+03  0.50400001928E-02 0.  1.
    10030    2    1    2    0    0  0.00000000000E+00  0.00000000000E+00  0.21219519101E+04  0.39372058280E+04  0.33164604360E+04 0.  0.
        3    1    3    3  502    0  0.42254999441E+03 -0.68110001558E+03  0.27843303583E+04  0.28974025063E+04  0.10100000352E+00 0. -1.
       -3    1    3    3    0  502 -0.42254999441E+03  0.68110001558E+03 -0.66237844825E+03  0.10398033217E+04  0.10100000352E+00 0.  1.
</event>
<event>
 5   0  0.6188930E-07  0.3539484E+04  0.7818609E-02  0.8104496E-01
       -2   -1    0    0    0  501  0.00000000000E+00  0.00000000000E+00  0.12318500661E+04  0.12318500661E+04  0.25500000920E-02 0.  1.
        2   -1    0    0  501    0  0.00000000000E+00  0.00000000000E+00 -0.25425062472E+04  0.25425062472E+04  0.25500000920E-02 0. -1.
    10030    2    1    2    0    0  0.00000000000E+00  0.00000000000E+00 -0.13106561811E+04  0.37743563133E+04  0.35394838543E+04 0.  0.
        3    1    3    3  502    0  0.11023922075E+04 -0.10307001646E+04  0.33033216490E+03  0.15449047731E+04  0.10100000352E+00 0.  1.
       -3    1    3    3    0  502 -0.11023922075E+04  0.10307001646E+04 -0.16409883460E+04  0.22294515403E+04  0.10100000352E+00 0. -1.
</event>
<event>
 5   0  0.2936607E-07  0.3525097E+04  0.7818609E-02  0.8107868E-01
       -1   -1    0    0    0  501  0.00000000000E+00  0.00000000000E+00  0.12571159103E+04  0.12571159103E+04  0.50400001928E-02 0.  1.
        1   -1    0    0  501    0  0.00000000000E+00  0.00000000000E+00 -0.24711936321E+04  0.24711936321E+04  0.50400001928E-02 0. -1.
    10030    2    1    2    0    0  0.00000000000E+00  0.00000000000E+00 -0.12140777219E+04  0.37283095424E+04  0.35250967830E+04 0.  0.
        2    1    3    3  502    0 -0.16167043016E+04 -0.20250625984E+03  0.10389789984E+03  0.16326470401E+04  0.25500000920E-02 0.  1.
       -2    1    3    3    0  502  0.16167043016E+04  0.20250625984E+03 -0.13179756217E+04  0.20956625023E+04  0.25500000920E-02 0. -1.
</event>
<event>
 5   0  0.2936607E-07  0.3484533E+04  0.7818609E-02  0.8117465E-01
       -1   -1    0    0    0  501  0.00000000000E+00  0.00000000000E+00  0.17871162433E+04  0.17871162433E+04  0.50400001928E-02 0. -1.
        1   -1    0    0  501    0  0.00000000000E+00  0.00000000000E+00 -0.16985421207E+04  0.16985421208E+04  0.50400001928E-02 0.  1.
    10030    2    1    2    0    0  0.00000000000E+00  0.00000000000E+00  0.88574122503E+02  0.34856583640E+04  0.34845328030E+04 0.  0.
        2    1    3    3  502    0 -0.13272019150E+04  0.81177949527E+03 -0.74021197802E+03  0.17228942639E+04  0.25500000920E-02 0.  1.
       -2    1    3    3    0  502  0.13272019150E+04 -0.81177949527E+03  0.82878610052E+03  0.17627641001E+04  0.25500000920E-02 0. -1.
</event>
<event>
 5   0  0.3026332E-07  0.3540257E+04  0.7818609E-02  0.8104315E-01
       -1   -1    0    0    0  501  0.00000000000E+00  0.00000000000E+00  0.26203079228E+04  0.26203079228E+04  0.50400001928E-02 0.  1.
        1   -1    0    0  501    0  0.00000000000E+00  0.00000000000E+00 -0.11957965317E+04  0.11957965317E+04  0.50400001928E-02 0. -1.
    10030    2    1    2    0    0  0.00000000000E+00  0.00000000000E+00  0.14245113912E+04  0.38161044545E+04  0.35402571240E+04 0.  0.
        1    1    3    3  502    0  0.14521822836E+04 -0.10069268220E+04  0.60117205960E+03  0.18665858820E+04  0.50400001928E-02 0.  1.
       -1    1    3    3    0  502 -0.14521822836E+04  0.10069268220E+04  0.82333933158E+03  0.19495185725E+04  0.50400001928E-02 0. -1.
</event>
<event>
 5   0  0.2933506E-07  0.3336654E+04  0.7818609E-02  0.8153631E-01
        1   -1    0    0  501    0  0.00000000000E+00  0.00000000000E+00  0.11765965142E+04  0.11765965142E+04  0.50400001928E-02 0.  1.
       -1   -1    0    0    0  501  0.00000000000E+00  0.00000000000E+00 -0.23655650577E+04  0.23655650577E+04  0.50400001928E-02 0. -1.
    10030    2    1    2    0    0  0.00000000000E+00  0.00000000000E+00 -0.11889685435E+04  0.35421615719E+04  0.33366543728E+04 0.  0.
        4    1    3    3  502    0 -0.76800842981E+03 -0.12283850012E+04  0.28384809021E+03  0.14762581111E+04  0.12699999809E+01 0.  1.
       -4    1    3    3    0  502  0.76800842981E+03  0.12283850012E+04 -0.14728166337E+04  0.20659034607E+04  0.12699999809E+01 0. -1.
</event>
<event>
 5   0  0.8950809E-07  0.3487927E+04  0.7818609E-02  0.8116657E-01
        2   -1    0    0  501    0  0.00000000000E+00  0.00000000000E+00  0.12805814199E+04  0.12805814199E+04  0.25500000920E-02 0.  1.
       -2   -1    0    0    0  501  0.00000000000E+00  0.00000000000E+00 -0.23750218861E+04  0.23750218861E+04  0.25500000920E-02 0. -1.
    10030    2    1    2    0    0  0.00000000000E+00  0.00000000000E+00 -0.10944404662E+04  0.36556033060E+04  0.34879271203E+04 0.  0.
        2    1    3    3  502    0 -0.13762360580E+04  0.26769516086E+03 -0.16342508798E+04  0.21532446040E+04  0.25500000920E-02 0. -1.
       -2    1    3    3    0  502  0.13762360580E+04 -0.26769516086E+03  0.53981041361E+03  0.15023587019E+04  0.25500000920E-02 0.  1.
</event>
<event>
 5   0  0.6188930E-07  0.3481275E+04  0.7818609E-02  0.8118242E-01
       -2   -1    0    0    0  501  0.00000000000E+00  0.00000000000E+00  0.12135885505E+04  0.12135885505E+04  0.25500000920E-02 0.  1.
        2   -1    0    0  501    0  0.00000000000E+00  0.00000000000E+00 -0.24965778699E+04  0.24965778699E+04  0.25500000920E-02 0. -1.
    10030    2    1    2    0    0  0.00000000000E+00  0.00000000000E+00 -0.12829893194E+04  0.37101664204E+04  0.34812746621E+04 0.  0.
        3    1    3    3  502    0 -0.13021999805E+04 -0.22321918011E+03 -0.18492604244E+04  0.22727330946E+04  0.10100000352E+00 0. -1.
       -3    1    3    3    0  502  0.13021999805E+04  0.22321918011E+03  0.56627110505E+03  0.14374333258E+04  0.10100000352E+00 0.  1.
</event>
<event>
 5   0  0.6188930E-07  0.3496106E+04  0.7818609E-02  0.8114713E-01
        2   -1    0    0  501    0  0.00000000000E+00  0.00000000000E+00  0.12075594244E+04  0.12075594245E+04  0.25500000920E-02 0.  1.
       -2   -1    0    0    0  501  0.00000000000E+00  0.00000000000E+00 -0.25304672695E+04  0.25304672695E+04  0.25500000920E-02 0. -1.
    10030    2    1    2    0    0  0.00000000000E+00  0.00000000000E+00 -0.13229078450E+04  0.37380266939E+04  0.34961061766E+04 0.  0.
        3    1    3    3  502    0 -0.14156864776E+03 -0.37883839168E+03 -0.24797585477E+04  0.25125211788E+04  0.10100000352E+00 0. -1.
       -3    1    3    3    0  502  0.14156864776E+03  0.37883839168E+03  0.11568507027E+04  0.12255055151E+04  0.10100000352E+00 0.  1.
</event>
<event>
 5   0  0.8845195E-07  0.3521779E+04  0.7818609E-02  0.8108648E-01
       -2   -1    0    0    0  501  0.00000000000E+00  0.00000000000E+00  0.18610953037E+04  0.18610953037E+04  0.25500000920E-02 0. -1.
        2   -1    0    0  501    0  0.00000000000E+00  0.00000000000E+00 -0.16660787886E+04  0.16660787886E+04  0.25500000920E-02 0.  1.
    10030    2    1    2    0    0  0.00000000000E+00  0.00000000000E+00  0.19501651516E+03  0.35271740923E+04  0.35217787603E+04 0.  0.
        5    1    3    3  502    0  0.38376394990E+03 -0.30068684447E+03  0.17921471384E+04  0.18572831781E+04  0.46999998093E+01 0. -1.
       -5    1    3    3    0  502 -0.38376394990E+03  0.30068684447E+03 -0.15971306233E+04  0.16698909143E+04  0.46999998093E+01 0.  1.
</event>
<event>
 5   0  0.2933506E-07  0.3500910E+04  0.7818609E-02  0.8113574E-01
        1   -1    0    0  501    0  0.00000000000E+00  0.00000000000E+00  0.23448409614E+04  0.23448409614E+04  0.50400001928E-02 0. -1.
       -1   -1    0    0    0  501  0.00000000000E+00  0.00000000000E+00 -0.13067381071E+04  0.13067381071E+04  0.50400001928E-02 0.  1.
    10030    2    1    2    0    0  0.00000000000E+00  0.00000000000E+00  0.10381028543E+04  0.36515790685E+04  0.35009101898E+04 0.  0.
        4    1    3    3  502    0  0.37807064416E+03 -0.44610049064E+03 -0.12018485754E+04  0.13365570211E+04  0.12699999809E+01 0.  1.
       -4    1    3    3    0  502 -0.37807064416E+03  0.44610049064E+03  0.22399514296E+04  0.23150220473E+04  0.12699999809E+01 0. -1.
</event>
<event>
 5   0  0.2972541E-07  0.3495680E+04  0.7818609E-02  0.8114814E-01
        1   -1    0    0  501    0  0.00000000000E+00  0.00000000000E+00  0.19745097310E+04  0.19745097310E+04  0.50400001928E-02 0. -1.
       -1   -1    0    0    0  501  0.00000000000E+00  0.00000000000E+00 -0.15471919068E+04  0.15471919069E+04  0.50400001928E-02 0.  1.
    10030    2    1    2    0    0  0.00000000000E+00  0.00000000000E+00  0.42731782416E+03  0.35217016379E+04  0.34956804636E+04 0.  0.
        3    1    3    3  502    0 -0.11287447221E+04  0.90048282125E+03  0.12058818780E+04  0.18812456174E+04  0.10100000352E+00 0. -1.
       -3    1    3    3    0  502  0.11287447221E+04 -0.90048282125E+03 -0.77856405384E+03  0.16404560205E+04  0.10100000352E+00 0.  1.
</event>
<event>
 5   0  0.2972541E-07  0.3449932E+04  0.7818609E-02  0.8125759E-01
        1   -1    0    0  501    0  0.00000000000E+00  0.00000000000E+00  0.19141905991E+04  0.19141905991E+04  0.50400001928E-02 0.  1.
       -1   -1    0    0    0  501  0.00000000000E+00  0.00000000000E+00 -0.15544471168E+04  0.15544471168E+04  0.50400001928E-02 0. -1.
    10030    2    1    2    0    0  0.00000000000E+00  0.00000000000E+00  0.35974348231E+03  0.34686377160E+04  0.34499322068E+04 0.  0.
        3    1    3    3  502    0 -0.23264636095E+03 -0.87741898347E+03 -0.12948872040E+04  0.15813669034E+04  0.10100000352E+00 0. -1.
       -3    1    3    3    0  502  0.23264636095E+03  0.87741898347E+03  0.16546306863E+04  0.18872708126E+04  0.10100000352E+00 0.  1.
</event>
<event>
 5   0  0.2972541E-07  0.3481470E+04  0.7818609E-02  0.8118195E-01
        1   -1    0    0  501    0  0.00000000000E+00  0.00000000000E+00  0.17774802806E+04  0.17774802806E+04  0.50400001928E-02 0. -1.
       -1   -1    0    0    0  501  0.00000000000E+00  0.00000000000E+00 -0.17047494327E+04  0.17047494327E+04  0.50400001928E-02 0.  1.
    10030    2    1    2    0    0  0.00000000000E+00  0.00000000000E+00  0.72730847917E+02  0.34822297134E+04  0.34814700918E+04 0.  0.
        3    1    3    3  502    0 -0.67418631566E+03 -0.75791965008E+03  0.14513079950E+04  0.17706677528E+04  0.10100000352E+00 0. -1.
       -3    1    3    3    0  502  0.67418631566E+03  0.75791965008E+03 -0.13785771471E+04  0.17115619606E+04  0.10100000352E+00 0.  1.
</event>
<event>
 5   0  0.8950809E-07  0.3500336E+04  0.7818609E-02  0.8113710E-01
       -2   -1    0    0    0  501  0.00000000000E+00  0.00000000000E+00  0.14289121202E+04  0.14289121202E+04  0.25500000920E-02 0. -1.
        2   -1    0    0  501    0  0.00000000000E+00  0.00000000000E+00 -0.21436503251E+04  0.21436503251E+04  0.25500000920E-02 0.  1.
    10030    2    1    2    0    0  0.00000000000E+00  0.00000000000E+00 -0.71473820487E+03  0.35725624453E+04  0.35003359444E+04 0.  0.
        2    1    3    3  502    0 -0.16297405432E+04  0.44500611118E+03  0.10923292836E+03  0.16929313364E+04  0.25500000920E-02 0.  1.
       -2    1    3    3    0  502  0.16297405432E+04 -0.44500611118E+03 -0.82397113323E+03  0.18796311089E+04  0.25500000920E-02 0. -1.
</event>
<event>
 5   0  0.6188930E-07  0.3605956E+04  0.7818609E-02  0.8089129E-01
       -2   -1    0    0    0  501  0.00000000000E+00  0.00000000000E+00  0.16911869773E+04  0.16911869773E+04  0.25500000920E-02 0. -1.
        2   -1    0    0  501    0  0.00000000000E+00  0.00000000000E+00 -0.19221584564E+04  0.19221584564E+04  0.25500000920E-02 0.  1.
    10030    2    1    2    0    0  0.00000000000E+00  0.00000000000E+00 -0.23097147909E+03  0.36133454337E+04  0.36059558232E+04 0.  0.
        3    1    3    3  502    0  0.10778018404E+04 -0.48794742941E+03 -0.14787809977E+04  0.18938169791E+04  0.10100000352E+00 0.  1.
       -3    1    3    3    0  502 -0.10778018404E+04  0.48794742941E+03  0.12478095186E+04  0.17195284545E+04  0.10100000352E+00 0. -1.
</event>
<event>
 5   0  0.6188930E-07  0.3500161E+04  0.7818609E-02  0.8113752E-01
       -2   -1    0    0    0  501  0.00000000000E+00  0.00000000000E+00  0.15532844112E+04  0.15532844112E+04  0.25500000920E-02 0. -1.
        2   -1    0    0  501    0  0.00000000000E+00  0.00000000000E+00 -0.19718101595E+04  0.19718101596E+04  0.25500000920E-02 0.  1.
    10030    2    1    2    0    0  0.00000000000E+00  0.00000000000E+00 -0.41852574836E+03  0.35250945707E+04  0.35001611292E+04 0.  0.
        3    1    3    3  502    0 -0.74121251551E+03  0.15542364766E+04  0.10559002159E+03  0.17251655808E+04  0.10100000352E+00 0. -1.
       -3    1    3    3    0  502  0.74121251551E+03 -0.15542364766E+04 -0.52411576995E+03  0.17999289899E+04  0.10100000352E+00 0.  1.
</event>
<event>
 5   0  0.2936607E-07  0.3460468E+04  0.7818609E-02  0.8123223E-01
       -1   -1    0    0    0  501  0.00000000000E+00  0.00000000000E+00  0.16071507303E+04  0.16071507303E+04  0.50400001928E-02 0. -1.
        1   -1    0    0  501    0  0.00000000000E+00  0.00000000000E+00 -0.18627434517E+04  0.18627434517E+04  0.50400001928E-02 0.  1.
    10030    2    1    2    0    0  0.00000000000E+00  0.00000000000E+00 -0.25559272143E+03  0.34698941820E+04  0.34604678868E+04 0.  0.
        2    1    3    3  502    0 -0.88336645875E+03  0.38358006382E+03  0.13135612336E+04  0.16287765594E+04  0.25500000920E-02 0. -1.
       -2    1    3    3    0  502  0.88336645875E+03 -0.38358006382E+03 -0.15691539551E+04  0.18411176227E+04  0.25500000920E-02 0.  1.
</event>
<event>
 5   0  0.9311672E-07  0.3473353E+04  0.7818609E-02  0.8120134E-01
       -2   -1    0    0    0  501  0.00000000000E+00  0.00000000000E+00  0.15074469019E+04  0.15074469019E+04  0.25500000920E-02 0.  1.
        2   -1    0    0  501    0  0.00000000000E+00  0.00000000000E+00 -0.20007644026E+04  0.20007644026E+04  0.25500000920E-02 0. -1.
    10030    2    1    2    0    0  0.00000000000E+00  0.00000000000E+00 -0.49331750069E+03  0.35082113045E+04  0.34733534805E+04 0.  0.
        4    1    3    3  502    0  0.94535744057E+03 -0.85320816135E+03 -0.14393479187E+04  0.19218191645E+04  0.12699999809E+01 0.  1.
       -4    1    3    3    0  502 -0.94535744057E+03  0.85320816135E+03  0.94603041804E+03  0.15863921400E+04  0.12699999809E+01 0. -1.
</event>
<event>
 5   0  0.6188930E-07  0.3524754E+04  0.7818609E-02  0.8107948E-01
        2   -1    0    0  501    0  0.00000000000E+00  0.00000000000E+00  0.18668102609E+04  0.18668102609E+04  0.25500000920E-02 0. -1.
       -2   -1    0    0    0  501  0.00000000000E+00  0.00000000000E+00 -0.16637861742E+04  0.16637861742E+04  0.25500000920E-02 0.  1.
    10030    2    1    2    0    0  0.00000000000E+00  0.00000000000E+00  0.20302408677E+03  0.35305964351E+04  0.35247542336E+04 0.  0.
        3    1    3    3  502    0 -0.99170941478E+03  0.71660895599E+03 -0.11690371189E+04  0.16922363176E+04  0.10100000352E+00 0.  1.
       -3    1    3    3    0  502  0.99170941478E+03 -0.71660895599E+03  0.13720612056E+04  0.18383601174E+04  0.10100000352E+00 0. -1.
</event>
<event>
 5   0  0.6188930E-07  0.3520511E+04  0.7818609E-02  0.8108946E-01
        2   -1    0    0  501    0  0.00000000000E+00  0.00000000000E+00  0.32138262517E+04  0.32138262517E+04  0.25500000920E-02 0. -1.
       -2   -1    0    0    0  501  0.00000000000E+00  0.00000000000E+00 -0.96411536923E+03  0.96411536924E+03  0.25500000920E-02 0.  1.
    10030    2    1    2    0    0  0.00000000000E+00  0.00000000000E+00  0.22497108825E+04  0.41779416209E+04  0.35205109193E+04 0.  0.
        3    1    3    3  502    0  0.13403381870E+04  0.25231649602E+03 -0.19575500732E+03  0.13778570690E+04  0.10100000352E+00 0.  1.
       -3    1    3    3    0  502 -0.13403381870E+04 -0.25231649602E+03  0.24454658898E+04  0.28000845519E+04  0.10100000352E+00 0. -1.
</event>
<event>
 5   0  0.2907000E-07  0.3473347E+04  0.7818609E-02  0.8120136E-01
       -3   -1    0    0    0  501  0.00000000000E+00  0.00000000000E+00  0.14485692500E+04  0.14485692535E+04  0.10100000352E+00 0.  1.
        3   -1    0    0  501    0  0.00000000000E+00  0.00000000000E+00 -0.20820780877E+04  0.20820780901E+04  0.10100000352E+00 0. -1.
    10030    2    1    2    0    0  0.00000000000E+00  0.00000000000E+00 -0.63350883774E+03  0.35306473436E+04  0.34733466884E+04 0.  0.
        4    1    3    3  502    0  0.15024145905E+04  0.69017467384E+03 -0.85697466038E+03  0.18622561219E+04  0.12699999809E+01 0.  1.
       -4    1    3    3    0  502 -0.15024145905E+04 -0.69017467384E+03  0.22346582264E+03  0.16683912218E+04  0.12699999809E+01 0. -1.
</event>
<event>
 5   0  0.6188930E-07  0.3475669E+04  0.7818609E-02  0.8119580E-01
        2   -1    0    0  501    0  0.00000000000E+00  0.00000000000E+00  0.15855451129E+04  0.15855451129E+04  0.25500000920E-02 0. -1.
       -2   -1    0    0    0  501  0.00000000000E+00  0.00000000000E+00 -0.19047510400E+04  0.19047510400E+04  0.25500000920E-02 0.  1.
    10030    2    1    2    0    0  0.00000000000E+00  0.00000000000E+00 -0.31920592706E+03  0.34902961529E+04  0.34756689732E+04 0.  0.
        3    1    3    3  502    0  0.39169837207E+02  0.65123931649E+03  0.14578965600E+04  0.15972192440E+04  0.10100000352E+00 0. -1.
       -3    1    3    3    0  502 -0.39169837207E+02 -0.65123931649E+03 -0.17771024870E+04  0.18930769089E+04  0.10100000352E+00 0.  1.
</event>
<event>
 5   0  0.8845195E-07  0.3459174E+04  0.7818609E-02  0.8123534E-01
        2   -1    0    0  501    0  0.00000000000E+00  0.00000000000E+00  0.24933296902E+04  0.24933296902E+04  0.25500000920E-02 0.  1.
       -2   -1    0    0    0  501  0.00000000000E+00  0.00000000000E+00 -0.11997894302E+04  0.11997894303E+04  0.25500000920E-02 0. -1.
    10030    2    1    2    0    0  0.00000000000E+00  0.00000000000E+00  0.12935402600E+04  0.36931191205E+04  0.34591736635E+04 0.  0.
        5    1    3    3  502    0 -0.67195040959E+03 -0.13943376301E+04  0.14708215999E+04  0.21351892302E+04  0.46999998093E+01 0.  1.
       -5    1    3    3    0  502  0.67195040959E+03  0.13943376301E+04 -0.17728133993E+03  0.15579298903E+04  0.46999998093E+01 0. -1.
</event>
<event>
 5   0  0.2972541E-07  0.3454685E+04  0.7818609E-02  0.8124614E-01
       -1   -1    0    0    0  501  0.00000000000E+00  0.00000000000E+00  0.15020093324E+04  0.15020093324E+04  0.50400001928E-02 0. -1.
        1   -1    0    0  501    0  0.00000000000E+00  0.00000000000E+00 -0.19864804912E+04  0.19864804912E+04  0.50400001928E-02 0.  1.
    10030    2    1    2    0    0  0.00000000000E+00  0.00000000000E+00 -0.48447115882E+03  0.34884898237E+04  0.34546850719E+04 0.  0.
        3    1    3    3  502    0 -0.91439634908E+03  0.13119200400E+04  0.41719153401E+03  0.16526656228E+04  0.10100000352E+00 0. -1.
       -3    1    3    3    0  502  0.91439634908E+03 -0.13119200400E+04 -0.90166269283E+03  0.18358242008E+04  0.10100000352E+00 0.  1.
</event>
<event>
 5   0  0.3061330E-07  0.3477269E+04  0.7818609E-02  0.8119198E-01
       -1   -1    0    0    0  501  0.00000000000E+00  0.00000000000E+00  0.17577099371E+04  0.17577099371E+04  0.50400001928E-02 0.  1.
        1   -1    0    0  501    0  0.00000000000E+00  0.00000000000E+00 -0.17197659442E+04  0.17197659442E+04  0.50400001928E-02 0. -1.
    10030    2    1    2    0    0  0.00000000000E+00  0.00000000000E+00  0.37943992885E+02  0.34774758813E+04  0.34772688649E+04 0.  0.
        5    1    3    3  502    0 -0.70269091226E+03 -0.13379271240E+04 -0.84073265466E+03  0.17293573933E+04  0.46999998093E+01 0. -1.
       -5    1    3    3    0  502  0.70269091226E+03  0.13379271240E+04  0.87867664755E+03  0.17481184880E+04  0.46999998093E+01 0.  1.
</event>
<event>
 5   0  0.2936607E-07  0.3487526E+04  0.7818609E-02  0.8116753E-01
        1   -1    0    0  501    0  0.00000000000E+00  0.00000000000E+00  0.14738415975E+04  0.14738415975E+04  0.50400001928E-02 0. -1.
       -1   -1    0    0    0  501  0.00000000000E+00  0.00000000000E+00 -0.20631178865E+04  0.20631178865E+04  0.50400001928E-02 0.  1.
    10030    2    1    2    0    0  0.00000000000E+00  0.00000000000E+00 -0.58927628901E+03  0.35369594840E+04  0.34875257486E+04 0.  0.
        2    1    3    3  502    0  0.67511217151E+03  0.40212785614E+03 -0.18733744483E+04  0.20315056191E+04  0.25500000920E-02 0.  1.
       -2    1    3    3    0  502 -0.67511217151E+03 -0.40212785614E+03  0.12840981593E+04  0.15054538650E+04  0.25500000920E-02 0. -1.
</event>
<event>
 5   0  0.2933506E-07  0.3461227E+04  0.7818609E-02  0.8123041E-01
       -1   -1    0    0    0  501  0.00000000000E+00  0.00000000000E+00  0.12936781332E+04  0.12936781332E+04  0.50400001928E-02 0.  1.
        1   -1    0    0  501    0  0.00000000000E+00  0.00000000000E+00 -0.23151217579E+04  0.23151217579E+04  0.50400001928E-02 0. -1.
    10030    2    1    2    0    0  0.00000000000E+00  0.00000000000E+00 -0.10214436247E+04  0.36087998911E+04  0.34612265999E+04 0.  0.
        4    1    3    3  502    0 -0.15165190232E+04 -0.76068398626E+03 -0.15477080775E+03  0.17036506950E+04  0.12699999809E+01 0.  1.
       -4    1    3    3    0  502  0.15165190232E+04  0.76068398626E+03 -0.86667281692E+03  0.19051491961E+04  0.12699999809E+01 0. -1.
</event>
<event>
 5   0  0.6188930E-07  0.3505601E+04  0.7818609E-02  0.8112464E-01
        2   -1    0    0  501    0  0.00000000000E+00  0.00000000000E+00  0.17025843589E+04  0.17025843589E+04  0.25500000920E-02 0.  1.
       -2   -1    0    0    0  501  0.00000000000E+00  0.00000000000E+00 -0.18044973645E+04  0.18044973645E+04  0.25500000920E-02 0. -1.
    10030    2    1    2    0    0  0.00000000000E+00  0.00000000000E+00 -0.10191300562E+03  0.35070817235E+04  0.35056006553E+04 0.  0.
        3    1    3    3  502    0 -0.12580865254E+04 -0.10670700634E+04  0.54165239588E+03  0.17363201184E+04  0.10100000352E+00 0. -1.
       -3    1    3    3    0  502  0.12580865254E+04  0.10670700634E+04 -0.64356540150E+03  0.17707616050E+04  0.10100000352E+00 0.  1.
</event>
<event>
 5   0  0.6188930E-07  0.3525499E+04  0.7818609E-02  0.8107774E-01
        2   -1    0    0  501    0  0.00000000000E+00  0.00000000000E+00  0.23732233740E+04  0.23732233740E+04  0.25500000920E-02 0.  1.
       -2   -1    0    0    0  501  0.00000000000E+00  0.00000000000E+00 -0.13093101565E+04  0.13093101565E+04  0.25500000920E-02 0. -1.
    10030    2    1    2    0    0  0.00000000000E+00  0.00000000000E+00  0.10639132175E+04  0.36825335305E+04  0.35254988113E+04 0.  0.
        3    1    3    3  502    0  0.14942151299E+04 -0.25566474325E+03 -0.40769180014E+03  0.15697948686E+04  0.10100000352E+00 0. -1.
       -3    1    3    3    0  502 -0.14942151299E+04  0.25566474325E+03  0.14716050177E+04  0.21127386619E+04  0.10100000352E+00 0.  1.
</event>
<event>
 5   0  0.9128871E-07  0.3530116E+04  0.7818609E-02  0.8106690E-01
        2   -1    0    0  501    0  0.00000000000E+00  0.00000000000E+00  0.21443448690E+04  0.21443448690E+04  0.25500000920E-02 0. -1.
       -2   -1    0    0    0  501  0.00000000000E+00  0.00000000000E+00 -0.14528587051E+04  0.14528587051E+04  0.25500000920E-02 0.  1.
    10030    2    1    2    0    0  0.00000000000E+00  0.00000000000E+00  0.69148616390E+03  0.35972035740E+04  0.35301162075E+04 0.  0.
        1    1    3    3  502    0  0.56266923977E+03 -0.16058732035E+04  0.82370355681E+03  0.18904795605E+04  0.50400001928E-02 0. -1.
       -1    1    3    3    0  502 -0.56266923977E+03  0.16058732035E+04 -0.13221739290E+03  0.17067240135E+04  0.50400001928E-02 0.  1.
</event>
<event>
 5   0  0.2933506E-07  0.3514213E+04  0.7818609E-02  0.8110430E-01
        1   -1    0    0  501    0  0.00000000000E+00  0.00000000000E+00  0.25232468479E+04  0.25232468479E+04  0.50400001928E-02 0.  1.
       -1   -1    0    0    0  501  0.00000000000E+00  0.00000000000E+00 -0.12235913648E+04  0.12235913648E+04  0.50400001928E-02 0. -1.
    10030    2    1    2    0    0  0.00000000000E+00  0.00000000000E+00  0.12996554831E+04  0.37468382127E+04  0.35142128873E+04 0.  0.
        4    1    3    3  502    0  0.88193953109E+03 -0.14670712868E+04  0.10727002395E+04  0.20200997286E+04  0.12699999809E+01 0.  1.
       -4    1    3    3    0  502 -0.88193953109E+03  0.14670712868E+04  0.22695524363E+03  0.17267384841E+04  0.12699999809E+01 0. -1.
</event>
<event>
 5   0  0.8950809E-07  0.3261072E+04  0.7818609E-02  0.8172872E-01
        2   -1    0    0  501    0  0.00000000000E+00  0.00000000000E+00  0.28972207978E+04  0.28972207978E+04  0.25500000920E-02 0.  1.
       -2   -1    0    0    0  501  0.00000000000E+00  0.00000000000E+00 -0.91765443247E+03  0.91765443247E+03  0.25500000920E-02 0. -1.
    10030    2    1    2    0    0  0.00000000000E+00  0.00000000000E+00  0.19795663653E+04  0.38148752303E+04  0.32610719139E+04 0.  0.
        2    1    3    3  502    0 -0.17603240313E+03  0.10728188784E+04  0.24113556534E+04  0.26451018582E+04  0.25500000920E-02 0.  1.
       -2    1    3    3    0  502  0.17603240313E+03 -0.10728188784E+04 -0.43178928810E+03  0.11697733721E+04  0.25500000920E-02 0. -1.
</event>
<event>
 5   0  0.6188930E-07  0.3537609E+04  0.7818609E-02  0.8104935E-01
       -2   -1    0    0    0  501  0.00000000000E+00  0.00000000000E+00  0.10247961265E+04  0.10247961265E+04  0.25500000920E-02 0.  1.
        2   -1    0    0  501    0  0.00000000000E+00  0.00000000000E+00 -0.30529674003E+04  0.30529674003E+04  0.25500000920E-02 0. -1.
    10030    2    1    2    0    0  0.00000000000E+00  0.00000000000E+00 -0.20281712738E+04  0.40777635268E+04  0.35376088908E+04 0.  0.
        3    1    3    3  502    0  0.14024675630E+04  0.58259258292E+03 -0.20593782183E+04  0.25587825306E+04  0.10100000352E+00 0. -1.
       -3    1    3    3    0  502 -0.14024675630E+04 -0.58259258292E+03  0.31206944529E+02  0.15189809961E+04  0.10100000352E+00 0.  1.
</event>
<event>
 5   0  0.3026332E-07  0.3574995E+04  0.7818609E-02  0.8096243E-01
        1   -1    0    0  501    0  0.00000000000E+00  0.00000000000E+00  0.14418518003E+04  0.14418518003E+04  0.50400001928E-02 0. -1.
       -1   -1    0    0    0  501  0.00000000000E+00  0.00000000000E+00 -0.22160028577E+04  0.22160028577E+04  0.50400001928E-02 0.  1.
    10030    2    1    2    0    0  0.00000000000E+00  0.00000000000E+00 -0.77415105742E+03  0.36578546580E+04  0.35749952223E+04 0.  0.
        1    1    3    3  502    0 -0.47824620262E+03  0.18393983978E+03  0.13650974598E+04  0.14580961455E+04  0.50400001928E-02 0. -1.
       -1    1    3    3    0  502  0.47824620262E+03 -0.18393983978E+03 -0.21392485172E+04  0.21997585125E+04  0.50400001928E-02 0.  1.
</event>
<event>
 5   0  0.9311672E-07  0.3444936E+04  0.7818609E-02  0.8126965E-01
       -2   -1    0    0    0  501  0.00000000000E+00  0.00000000000E+00  0.12858070834E+04  0.12858070834E+04  0.25500000920E-02 0. -1.
        2   -1    0    0  501    0  0.00000000000E+00  0.00000000000E+00 -0.23074198129E+04  0.23074198129E+04  0.25500000920E-02 0.  1.
    10030    2    1    2    0    0  0.00000000000E+00  0.00000000000E+00 -0.10216127295E+04  0.35932268963E+04  0.34449364231E+04 0.  0.
        4    1    3    3  502    0 -0.21529435705E+03 -0.25113548095E+03 -0.22739780684E+04  0.22979117821E+04  0.12699999809E+01 0.  1.
       -4    1    3    3    0  502  0.21529435705E+03  0.25113548095E+03  0.12523653389E+04  0.12953151142E+04  0.12699999809E+01 0. -1.
</event>
<event>
 5   0  0.3061330E-07  0.3465776E+04  0.7818609E-02  0.8121949E-01
       -1   -1    0    0    0  501  0.00000000000E+00  0.00000000000E+00  0.17329877275E+04  0.17329877275E+04  0.50400001928E-02 0.  1.
        1   -1    0    0  501    0  0.00000000000E+00  0.00000000000E+00 -0.17327886036E+04  0.17327886036E+04  0.50400001928E-02 0. -1.
    10030    2    1    2    0    0  0.00000000000E+00  0.00000000000E+00  0.19912386515E+00  0.34657763311E+04  0.34657763254E+04 0.  0.
        5    1    3    3  502    0  0.11747054197E+04  0.12737871155E+04  0.20418413659E+02  0.17328893330E+04  0.46999998093E+01 0. -1.
       -5    1    3    3    0  502 -0.11747054197E+04 -0.12737871155E+04 -0.20219289793E+02  0.17328869981E+04  0.46999998093E+01 0.  1.
</event>
<event>
 5   0  0.6188930E-07  0.3505227E+04  0.7818609E-02  0.8112552E-01
       -2   -1    0    0    0  501  0.00000000000E+00  0.00000000000E+00  0.22217976845E+04  0.22217976845E+04  0.25500000920E-02 0.  1.
        2   -1    0    0  501    0  0.00000000000E+00  0.00000000000E+00 -0.13825081646E+04  0.13825081646E+04  0.25500000920E-02 0. -1.
    10030    2    1    2    0    0  0.00000000000E+00  0.00000000000E+00  0.83928951991E+03  0.36043058491E+04  0.35052266340E+04 0.  0.
        3    1    3    3  502    0 -0.22895664497E+03 -0.11157918259E+04  0.17893017712E+04  0.21210877829E+04  0.10100000352E+00 0.  1.
       -3    1    3    3    0  502  0.22895664497E+03  0.11157918259E+04 -0.95001225133E+03  0.14832180662E+04  0.10100000352E+00 0. -1.
</event>
<event>
 5   0  0.9311672E-07  0.3490147E+04  0.7818609E-02  0.8116129E-01
       -2   -1    0    0    0  501  0.00000000000E+00  0.00000000000E+00  0.11842984116E+04  0.11842984116E+04  0.25500000920E-02 0.  1.
        2   -1    0    0  501    0  0.00000000000E+00  0.00000000000E+00 -0.25713798625E+04  0.25713798625E+04  0.25500000920E-02 0. -1.
    10030    2    1    2    0    0  0.00000000000E+00  0.00000000000E+00 -0.13870814509E+04  0.37556782741E+04  0.34901467515E+04 0.  0.
        4    1    3    3  502    0  0.27334115491E+03  0.74076050304E+03  0.98108298116E+03  0.12593517930E+04  0.12699999809E+01 0.  1.
       -4    1    3    3    0  502 -0.27334115491E+03 -0.74076050304E+03 -0.23681644320E+04  0.24963264810E+04  0.12699999809E+01 0. -1.
</event>
<event>
 5   0  0.6188930E-07  0.3483389E+04  0.7818609E-02  0.8117738E-01
       -2   -1    0    0    0  501  0.00000000000E+00  0.00000000000E+00  0.15872042217E+04  0.15872042217E+04  0.25500000920E-02 0.  1.
        2   -1    0    0  501    0  0.00000000000E+00  0.00000000000E+00 -0.19112219358E+04  0.19112219358E+04  0.25500000920E-02 0. -1.
    10030    2    1    2    0    0  0.00000000000E+00  0.00000000000E+00 -0.32401771418E+03  0.34984261575E+04  0.34833888816E+04 0.  0.
        3    1    3    3  502    0  0.50963353047E+03  0.13163958087E+04 -0.11866459934E+04  0.18441130617E+04  0.10100000352E+00 0. -1.
       -3    1    3    3    0  502 -0.50963353047E+03 -0.13163958087E+04  0.86262827921E+03  0.16543130958E+04  0.10100000352E+00 0.  1.
</event>
<event>
 5   0  0.6188930E-07  0.3456234E+04  0.7818609E-02  0.8124241E-01
        2   -1    0    0  501    0  0.00000000000E+00  0.00000000000E+00  0.22784557469E+04  0.22784557469E+04  0.25500000920E-02 0.  1.
       -2   -1    0    0    0  501  0.00000000000E+00  0.00000000000E+00 -0.13107070278E+04  0.13107070278E+04  0.25500000920E-02 0. -1.
    10030    2    1    2    0    0  0.00000000000E+00  0.00000000000E+00  0.96774871907E+03  0.35891627747E+04  0.34562337652E+04 0.  0.
        3    1    3    3  502    0  0.16647089705E+04 -0.39100631148E+03  0.74296156747E+03  0.18644392704E+04  0.10100000352E+00 0.  1.
       -3    1    3    3    0  502 -0.16647089705E+04  0.39100631148E+03  0.22478715159E+03  0.17247235042E+04  0.10100000352E+00 0. -1.
</event>
<event>
 5   0  0.9311672E-07  0.3514310E+04  0.7818609E-02  0.8110407E-01
       -2   -1    0    0    0  501  0.00000000000E+00  0.00000000000E+00  0.19147689606E+04  0.19147689606E+04  0.25500000920E-02 0. -1.
        2   -1    0    0  501    0  0.00000000000E+00  0.00000000000E+00 -0.16125148222E+04  0.16125148222E+04  0.25500000920E-02 0.  1.
    10030    2    1    2    0    0  0.00000000000E+00  0.00000000000E+00  0.30225413844E+03  0.35272837828E+04  0.35143097929E+04 0.  0.
        4    1    3    3  502    0 -0.30005914635E+03  0.15954507280E+04 -0.52373395469E+03  0.17058128224E+04  0.12699999809E+01 0. -1.
       -4    1    3    3    0  502  0.30005914635E+03 -0.15954507280E+04  0.82598809314E+03  0.18214709604E+04  0.12699999809E+01 0.  1.
</event>
<event>
 5   0  0.6188930E-07  0.3505836E+04  0.7818609E-02  0.8112408E-01
        2   -1    0    0  501    0  0.00000000000E+00  0.00000000000E+00  0.27316614309E+04  0.27316614309E+04  0.25500000920E-02 0. -1.
       -2   -1    0    0    0  501  0.00000000000E+00  0.00000000000E+00 -0.11248545360E+04  0.11248545360E+04  0.25500000920E-02 0.  1.
    10030    2    1    2    0    0  0.00000000000E+00  0.00000000000E+00  0.16068068949E+04  0.38565159669E+04  0.35058361350E+04 0.  0.
        3    1    3    3  502    0 -0.44535139823E+03 -0.16772289834E+03  0.26592423062E+04  0.27014881994E+04  0.10100000352E+00 0. -1.
       -3    1    3    3    0  502  0.44535139823E+03  0.16772289834E+03 -0.10524354113E+04  0.11550277675E+04  0.10100000352E+00 0.  1.
</event>
<event>
 5   0  0.2907000E-07  0.3305609E+04  0.7818609E-02  0.8161470E-01
       -3   -1    0    0    0  501  0.00000000000E+00  0.00000000000E+00  0.15513582558E+04  0.15513582591E+04  0.10100000352E+00 0.  1.
        3   -1    0    0  501    0  0.00000000000E+00  0.00000000000E+00 -0.17608846823E+04  0.17608846852E+04  0.10100000352E+00 0. -1.
    10030    2    1    2    0    0  0.00000000000E+00  0.00000000000E+00 -0.20952642650E+03  0.33122429443E+04  0.33056091721E+04 0.  0.
        2    1    3    3  502    0  0.27527844829E+03  0.11067820167E+04 -0.13034156680E+04  0.17319460327E+04  0.25500000920E-02 0. -1.
       -2    1    3    3    0  502 -0.27527844829E+03 -0.11067820167E+04  0.10938892415E+04  0.15802969117E+04  0.25500000920E-02 0.  1.
</event>
<event>
 5   0  0.2972541E-07  0.3586039E+04  0.7818609E-02  0.8093697E-01
        1   -1    0    0  501    0  0.00000000000E+00  0.00000000000E+00  0.26466909208E+04  0.26466909208E+04  0.50400001928E-02 0.  1.
       -1   -1    0    0    0  501  0.00000000000E+00  0.00000000000E+00 -0.12146938526E+04  0.12146938526E+04  0.50400001928E-02 0. -1.
    10030    2    1    2    0    0  0.00000000000E+00  0.00000000000E+00  0.14319970683E+04  0.38613847734E+04  0.35860391471E+04 0.  0.
        3    1    3    3  502    0  0.16831438982E+04  0.34635199497E+03  0.12671451863E+04  0.21350854831E+04  0.10100000352E+00 0.  1.
       -3    1    3    3    0  502 -0.16831438982E+04 -0.34635199497E+03  0.16485188191E+03  0.17262992903E+04  0.10100000352E+00 0. -1.
</event>
<event>
 5   0  0.9128871E-07  0.3249414E+04  0.7818609E-02  0.8175888E-01
        2   -1    0    0  501    0  0.00000000000E+00  0.00000000000E+00  0.20641242903E+04  0.20641242903E+04  0.25500000920E-02 0.  1.
       -2   -1    0    0    0  501  0.00000000000E+00  0.00000000000E+00 -0.12788340290E+04  0.12788340290E+04  0.25500000920E-02 0. -1.
    10030    2    1    2    0    0  0.00000000000E+00  0.00000000000E+00  0.78529026135E+03  0.33429583193E+04  0.32494137209E+04 0.  0.
        1    1    3    3  502    0 -0.68274247014E+03  0.13917670658E+04 -0.10768823024E+03  0.15539464601E+04  0.50400001928E-02 0. -1.
       -1    1    3    3    0  502  0.68274247014E+03 -0.13917670658E+04  0.89297849159E+03  0.17890118592E+04  0.50400001928E-02 0.  1.
</event>
<event>
 5   0  0.3026332E-07  0.3495676E+04  0.7818609E-02  0.8114815E-01
       -1   -1    0    0    0  501  0.00000000000E+00  0.00000000000E+00  0.18192073610E+04  0.18192073610E+04  0.50400001928E-02 0.  1.
        1   -1    0    0  501    0  0.00000000000E+00  0.00000000000E+00 -0.16792689269E+04  0.16792689269E+04  0.50400001928E-02 0. -1.
    10030    2    1    2    0    0  0.00000000000E+00  0.00000000000E+00  0.13993843412E+03  0.34984762878E+04  0.34956764111E+04 0.  0.
        1    1    3    3  502    0  0.14986407273E+04  0.89668311350E+03  0.14055057477E+03  0.17520613858E+04  0.50400001928E-02 0. -1.
       -1    1    3    3    0  502 -0.14986407273E+04 -0.89668311350E+03 -0.61214065615E+00  0.17464149021E+04  0.50400001928E-02 0.  1.
</event>
<event>
 5   0  0.9311672E-07  0.3491078E+04  0.7818609E-02  0.8115907E-01
        2   -1    0    0  501    0  0.00000000000E+00  0.00000000000E+00  0.22325930774E+04  0.22325930774E+04  0.25500000920E-02 0. -1.
       -2   -1    0    0    0  501  0.00000000000E+00  0.00000000000E+00 -0.13647391358E+04  0.13647391358E+04  0.25500000920E-02 0.  1.
    10030    2    1    2    0    0  0.00000000000E+00  0.00000000000E+00  0.86785394160E+03  0.35973322131E+04  0.34910784276E+04 0.  0.
        4    1    3    3  502    0 -0.72700121999E+03  0.15517803702E+04  0.91623015944E+02  0.17160855111E+04  0.12699999809E+01 0.  1.
       -4    1    3    3    0  502  0.72700121999E+03 -0.15517803702E+04  0.77623092565E+03  0.18812467021E+04  0.12699999809E+01 0. -1.
</event>
<event>
 5   0  0.9311672E-07  0.3283767E+04  0.7818609E-02  0.8167038E-01
        2   -1    0    0  501    0  0.00000000000E+00  0.00000000000E+00  0.16438134792E+04  0.16438134792E+04  0.25500000920E-02 0. -1.
       -2   -1    0    0    0  501  0.00000000000E+00  0.00000000000E+00 -0.16399555173E+04  0.16399555173E+04  0.25500000920E-02 0.  1.
    10030    2    1    2    0    0  0.00000000000E+00  0.00000000000E+00  0.38579618547E+01  0.32837689965E+04  0.32837667302E+04 0.  0.
        4    1    3    3  502    0  0.48687363410E+03  0.89484465760E+02 -0.15635515680E+04  0.16400452811E+04  0.12699999809E+01 0.  1.
       -4    1    3    3    0  502 -0.48687363410E+03 -0.89484465760E+02  0.15674095299E+04  0.16437237154E+04  0.12699999809E+01 0. -1.
</event>
<event>
 5   0  0.3061330E-07  0.3509702E+04  0.7818609E-02  0.8111495E-01
       -1   -1    0    0    0  501  0.00000000000E+00  0.00000000000E+00  0.18852883570E+04  0.18852883570E+04  0.50400001928E-02 0.  1.
        1   -1    0    0  501    0  0.00000000000E+00  0.00000000000E+00 -0.16334377917E+04  0.16334377917E+04  0.50400001928E-02 0. -1.
    10030    2    1    2    0    0  0.00000000000E+00  0.00000000000E+00  0.25185056532E+03  0.35187261488E+04  0.35097015547E+04 0.  0.
        5    1    3    3  502    0  0.17004084291E+04  0.39125553192E+03  0.31351450595E+03  0.17727896526E+04  0.46999998093E+01 0. -1.
       -5    1    3    3    0  502 -0.17004084291E+04 -0.39125553192E+03 -0.61663940631E+02  0.17459364961E+04  0.46999998093E+01 0.  1.
</event>
<event>
 5   0  0.9311672E-07  0.3430089E+04  0.7818609E-02  0.8130561E-01
       -2   -1    0    0    0  501  0.00000000000E+00  0.00000000000E+00  0.15532013164E+04  0.15532013164E+04  0.25500000920E-02 0. -1.
        2   -1    0    0  501    0  0.00000000000E+00  0.00000000000E+00 -0.18937520067E+04  0.18937520067E+04  0.25500000920E-02 0.  1.
    10030    2    1    2    0    0  0.00000000000E+00  0.00000000000E+00 -0.34055069028E+03  0.34469533231E+04  0.34300892756E+04 0.  0.
        4    1    3    3  502    0 -0.11082720168E+04  0.44221259990E+03 -0.14082238452E+04  0.18457829932E+04  0.12699999809E+01 0.  1.
       -4    1    3    3    0  502  0.11082720168E+04 -0.44221259990E+03  0.10676731549E+04  0.16011703299E+04  0.12699999809E+01 0. -1.
</event>
<event>
 5   0  0.9128871E-07  0.3491268E+04  0.7818609E-02  0.8115863E-01
       -2   -1    0    0    0  501  0.00000000000E+00  0.00000000000E+00  0.26307218666E+04  0.26307218666E+04  0.25500000920E-02 0.  1.
        2   -1    0    0  501    0  0.00000000000E+00  0.00000000000E+00 -0.11583273919E+04  0.11583273919E+04  0.25500000920E-02 0. -1.
    10030    2    1    2    0    0  0.00000000000E+00  0.00000000000E+00  0.14723944747E+04  0.37890492585E+04  0.34912675054E+04 0.  0.
        1    1    3    3  502    0 -0.30481575382E+03  0.13905424190E+03 -0.11231064256E+04  0.11720139799E+04  0.50400001928E-02 0. -1.
       -1    1    3    3    0  502  0.30481575382E+03 -0.13905424190E+03  0.25955009003E+04  0.26170352786E+04  0.50400001928E-02 0.  1.
</event>
<event>
 5   0  0.2933506E-07  0.3510455E+04  0.7818609E-02  0.8111317E-01
       -1   -1    0    0    0  501  0.00000000000E+00  0.00000000000E+00  0.16231930339E+04  0.16231930339E+04  0.50400001928E-02 0.  1.
        1   -1    0    0  501    0  0.00000000000E+00  0.00000000000E+00 -0.18980021438E+04  0.18980021438E+04  0.50400001928E-02 0. -1.
    10030    2    1    2    0    0  0.00000000000E+00  0.00000000000E+00 -0.27480910990E+03  0.35211951777E+04  0.35104551603E+04 0.  0.
        4    1    3    3  502    0  0.11503144937E+04  0.10354097172E+04 -0.96790235124E+03  0.18254131837E+04  0.12699999809E+01 0. -1.
       -4    1    3    3    0  502 -0.11503144937E+04 -0.10354097172E+04  0.69309324134E+03  0.16957819939E+04  0.12699999809E+01 0.  1.
</event>
<event>
 5   0  0.3061330E-07  0.3472743E+04  0.7818609E-02  0.8120280E-01
        1   -1    0    0  501    0  0.00000000000E+00  0.00000000000E+00  0.21309574570E+04  0.21309574570E+04  0.50400001928E-02 0.  1.
       -1   -1    0    0    0  501  0.00000000000E+00  0.00000000000E+00 -0.14148504936E+04  0.14148504936E+04  0.50400001928E-02 0. -1.
    10030    2    1    2    0    0  0.00000000000E+00  0.00000000000E+00  0.71610696340E+03  0.35458079506E+04  0.34727431289E+04 0.  0.
        5    1    3    3  502    0  0.91202759799E+03 -0.55688181601E+03 -0.10393361453E+04  0.14906889043E+04  0.46999998093E+01 0. -1.
       -5    1    3    3    0  502 -0.91202759799E+03  0.55688181601E+03  0.17554431087E+04  0.20551190463E+04  0.46999998093E+01 0.  1.
</event>
<event>
 5   0  0.2972541E-07  0.3159046E+04  0.7818609E-02  0.8199717E-01
        1   -1    0    0  501    0  0.00000000000E+00  0.00000000000E+00  0.18791118958E+04  0.18791118958E+04  0.50400001928E-02 0. -1.
       -1   -1    0    0    0  501  0.00000000000E+00  0.00000000000E+00 -0.13276980604E+04  0.13276980604E+04  0.50400001928E-02 0.  1.
    10030    2    1    2    0    0  0.00000000000E+00  0.00000000000E+00  0.55141383544E+03  0.32068099562E+04  0.31590461974E+04 0.  0.
        3    1    3    3  502    0  0.72589290907E+03 -0.13307835469E+04 -0.17483682338E+03  0.15259335795E+04  0.10100000352E+00 0.  1.
       -3    1    3    3    0  502 -0.72589290907E+03  0.13307835469E+04  0.72625065882E+03  0.16808763767E+04  0.10100000352E+00 0. -1.
</event>
<event>
 5   0  0.9311672E-07  0.3518884E+04  0.7818609E-02  0.8109329E-01
        2   -1    0    0  501    0  0.00000000000E+00  0.00000000000E+00  0.11406868804E+04  0.11406868804E+04  0.25500000920E-02 0. -1.
       -2   -1    0    0    0  501  0.00000000000E+00  0.00000000000E+00 -0.27138349713E+04  0.27138349713E+04  0.25500000920E-02 0.  1.
    10030    2    1    2    0    0  0.00000000000E+00  0.00000000000E+00 -0.15731480909E+04  0.38545218517E+04  0.35188838840E+04 0.  0.
        4    1    3    3  502    0  0.10461437589E+04  0.13913613685E+04 -0.10665531386E+04  0.20415289448E+04  0.12699999809E+01 0.  1.
       -4    1    3    3    0  502 -0.10461437589E+04 -0.13913613685E+04 -0.50659495234E+03  0.18129929069E+04  0.12699999809E+01 0. -1.
</event>
<event>
 5   0  0.9128871E-07  0.3463109E+04  0.7818609E-02  0.8122589E-01
        2   -1    0    0  501    0  0.00000000000E+00  0.00000000000E+00  0.11976017586E+04  0.11976017586E+04  0.25500000920E-02 0.  1.
       -2   -1    0    0    0  501  0.00000000000E+00  0.00000000000E+00 -0.25035715433E+04  0.25035715433E+04  0.25500000920E-02 0. -1.
    10030    2    1    2    0    0  0.00000000000E+00  0.00000000000E+00 -0.13059697848E+04  0.37011733019E+04  0.34631094022E+04 0.  0.
        1    1    3    3  502    0  0.14271204145E+04 -0.55728656927E+03  0.20935261084E+03  0.15463083501E+04  0.50400001928E-02 0.  1.
       -1    1    3    3    0  502 -0.14271204145E+04  0.55728656927E+03 -0.15153223956E+04  0.21548649518E+04  0.50400001928E-02 0. -1.
</event>
<event>
 5   0  0.8950809E-07  0.3487462E+04  0.7818609E-02  0.8116768E-01
       -2   -1    0    0    0  501  0.00000000000E+00  0.00000000000E+00  0.17761476364E+04  0.17761476364E+04  0.25500000920E-02 0. -1.
        2   -1    0    0  501    0  0.00000000000E+00  0.00000000000E+00 -0.17119058774E+04  0.17119058774E+04  0.25500000920E-02 0.  1.
    10030    2    1    2    0    0  0.00000000000E+00  0.00000000000E+00  0.64241758945E+02  0.34880535138E+04  0.34874618724E+04 0.  0.
        2    1    3    3  502    0  0.16548011020E+04 -0.50573989534E+03  0.24769873814E+03  0.17479971951E+04  0.25500000920E-02 0. -1.
       -2    1    3    3    0  502 -0.16548011020E+04  0.50573989534E+03 -0.18345697919E+03  0.17400563187E+04  0.25500000920E-02 0.  1.
</event>
<event>
 5   0  0.6188930E-07  0.3502865E+04  0.7818609E-02  0.8113111E-01
       -2   -1    0    0    0  501  0.00000000000E+00  0.00000000000E+00  0.12601905185E+04  0.12601905185E+04  0.25500000920E-02 0.  1.
        2   -1    0    0  501    0  0.00000000000E+00  0.00000000000E+00 -0.24341686922E+04  0.24341686922E+04  0.25500000920E-02 0. -1.
    10030    2    1    2    0    0  0.00000000000E+00  0.00000000000E+00 -0.11739781738E+04  0.36943592107E+04  0.35028652879E+04 0.  0.
        3    1    3    3  502    0 -0.38332267617E+03 -0.16914461042E+04 -0.84444492051E+03  0.19289928542E+04  0.10100000352E+00 0.  1.
       -3    1    3    3    0  502  0.38332267617E+03  0.16914461042E+04 -0.32953325325E+03  0.17653663565E+04  0.10100000352E+00 0. -1.
</event>
<event>
 5   0  0.8950809E-07  0.3477855E+04  0.7818609E-02  0.8119058E-01
        2   -1    0    0  501    0  0.00000000000E+00  0.00000000000E+00  0.24555270773E+04  0.24555270773E+04  0.25500000920E-02 0. -1.
       -2   -1    0    0    0  501  0.00000000000E+00  0.00000000000E+00 -0.12314538548E+04  0.12314538548E+04  0.25500000920E-02 0.  1.
    10030    2    1    2    0    0  0.00000000000E+00  0.00000000000E+00  0.12240732225E+04  0.36869809320E+04  0.34778546748E+04 0.  0.
        2    1    3    3  502    0 -0.98350867709E+03 -0.74466752088E+03 -0.68723978070E+03  0.14121322710E+04  0.25500000920E-02 0.  1.
       -2    1    3    3    0  502  0.98350867709E+03  0.74466752088E+03  0.19113130032E+04  0.22748486611E+04  0.25500000920E-02 0. -1.
</event>
<event>
 5   0  0.2972541E-07  0.3469159E+04  0.7818609E-02  0.8121138E-01
       -1   -1    0    0    0  501  0.00000000000E+00  0.00000000000E+00  0.13916664131E+04  0.13916664131E+04  0.50400001928E-02 0.  1.
        1   -1    0    0  501    0  0.00000000000E+00  0.00000000000E+00 -0.21619881357E+04  0.21619881357E+04  0.50400001928E-02 0. -1.
    10030    2    1    2    0    0  0.00000000000E+00  0.00000000000E+00 -0.77032172263E+03  0.35536545488E+04  0.34691591339E+04 0.  0.
        3    1    3    3  502    0 -0.38348447007E+03 -0.98093318054E+03  0.10266219614E+04  0.14707966907E+04  0.10100000352E+00 0.  1.
       -3    1    3    3    0  502  0.38348447007E+03  0.98093318054E+03 -0.17969436840E+04  0.20828578582E+04  0.10100000352E+00 0. -1.
</event>
<event>
 5   0  0.9128871E-07  0.3426567E+04  0.7818609E-02  0.8131417E-01
       -2   -1    0    0    0  501  0.00000000000E+00  0.00000000000E+00  0.10579034148E+04  0.10579034148E+04  0.25500000920E-02 0. -1.
        2   -1    0    0  501    0  0.00000000000E+00  0.00000000000E+00 -0.27746765982E+04  0.27746765982E+04  0.25500000920E-02 0.  1.
    10030    2    1    2    0    0  0.00000000000E+00  0.00000000000E+00 -0.17167731834E+04  0.38325800131E+04  0.34265667064E+04 0.  0.
        1    1    3    3  502    0  0.19548032830E+03 -0.90758850092E+01 -0.27621354418E+04  0.27690588888E+04  0.50400001928E-02 0.  1.
       -1    1    3    3    0  502 -0.19548032830E+03  0.90758850092E+01  0.10453622584E+04  0.10635211243E+04  0.50400001928E-02 0. -1.
</event>
<event>
 5   0  0.2936607E-07  0.3499258E+04  0.7818609E-02  0.8113966E-01
       -1   -1    0    0    0  501  0.00000000000E+00  0.00000000000E+00  0.14147478620E+04  0.14147478620E+04  0.50400001928E-02 0.  1.
        1   -1    0    0  501    0  0.00000000000E+00  0.00000000000E+00 -0.21637789728E+04  0.21637789728E+04  0.50400001928E-02 0. -1.
    10030    2    1    2    0    0  0.00000000000E+00  0.00000000000E+00 -0.74903111075E+03  0.35785268348E+04  0.34992580217E+04 0.  0.
        2    1    3    3  502    0  0.10243953616E+04 -0.22773836087E+03 -0.18062119284E+04  0.20889356496E+04  0.25500000920E-02 0. -1.
       -2    1    3    3    0  502 -0.10243953616E+04  0.22773836087E+03  0.10571808176E+04  0.14895911852E+04  0.25500000920E-02 0.  1.
</event>
<event>
 5   0  0.2936607E-07  0.3496562E+04  0.7818609E-02  0.8114605E-01
       -1   -1    0    0    0  501  0.00000000000E+00  0.00000000000E+00  0.17123176007E+04  0.17123176007E+04  0.50400001928E-02 0. -1.
        1   -1    0    0  501    0  0.00000000000E+00  0.00000000000E+00 -0.17850000322E+04  0.17850000322E+04  0.50400001928E-02 0.  1.
    10030    2    1    2    0    0  0.00000000000E+00  0.00000000000E+00 -0.72682431522E+02  0.34973176329E+04  0.34965622959E+04 0.  0.
        2    1    3    3  502    0 -0.10317770114E+04 -0.13470379435E+04 -0.45763518456E+03  0.17574142894E+04  0.25500000920E-02 0.  1.
       -2    1    3    3    0  502  0.10317770114E+04  0.13470379435E+04  0.38495275304E+03  0.17399033435E+04  0.25500000920E-02 0. -1.
</event>
<event>
 5   0  0.6188930E-07  0.3500637E+04  0.7818609E-02  0.8113639E-01
       -2   -1    0    0    0  501  0.00000000000E+00  0.00000000000E+00  0.12763318115E+04  0.12763318115E+04  0.25500000920E-02 0.  1.
        2   -1    0    0  501    0  0.00000000000E+00  0.00000000000E+00 -0.24003281669E+04  0.24003281669E+04  0.25500000920E-02 0. -1.
    10030    2    1    2    0    0  0.00000000000E+00  0.00000000000E+00 -0.11239963554E+04  0.36766599784E+04  0.35006371976E+04 0.  0.
        3    1    3    3  502    0 -0.12933079910E+04 -0.11736484224E+04 -0.68411592321E+03  0.18756627591E+04  0.10100000352E+00 0.  1.
       -3    1    3    3    0  502  0.12933079910E+04  0.11736484224E+04 -0.43988043219E+03  0.18009972193E+04  0.10100000352E+00 0. -1.
</event>
<event>
 5   0  0.6188930E-07  0.3494596E+04  0.7818609E-02  0.8115072E-01
       -2   -1    0    0    0  501  0.00000000000E+00  0.00000000000E+00  0.10778137608E+04  0.10778137608E+04  0.25500000920E-02 0. -1.
        2   -1    0    0  501    0  0.00000000000E+00  0.00000000000E+00 -0.28326318883E+04  0.28326318883E+04  0.25500000920E-02 0.  1.
    10030    2    1    2    0    0  0.00000000000E+00  0.00000000000E+00 -0.17548181275E+04  0.39104456491E+04  0.34945956152E+04 0.  0.
        3    1    3    3  502    0  0.14819495311E+04 -0.45444640637E+03  0.25001402795E+02  0.15502648256E+04  0.10100000352E+00 0. -1.
       -3    1    3    3    0  502 -0.14819495311E+04  0.45444640637E+03 -0.17798195303E+04  0.23601808235E+04  0.10100000352E+00 0.  1.
</event>
<event>
 5   0  0.2907000E-07  0.3464013E+04  0.7818609E-02  0.8122372E-01
        3   -1    0    0  501    0  0.00000000000E+00  0.00000000000E+00  0.24138701370E+04  0.24138701391E+04  0.10100000352E+00 0. -1.
       -3   -1    0    0    0  501  0.00000000000E+00  0.00000000000E+00 -0.12427538806E+04  0.12427538847E+04  0.10100000352E+00 0.  1.
    10030    2    1    2    0    0  0.00000000000E+00  0.00000000000E+00  0.11711162564E+04  0.36566240239E+04  0.34640129858E+04 0.  0.
        4    1    3    3  502    0  0.16817766840E+03  0.55603833693E+03 -0.11368498294E+04  0.12766720440E+04  0.12699999809E+01 0.  1.
       -4    1    3    3    0  502 -0.16817766840E+03 -0.55603833693E+03  0.23079660858E+04  0.23799519799E+04  0.12699999809E+01 0. -1.
</event>
<event>
 5   0  0.3061330E-07  0.3433267E+04  0.7818609E-02  0.8129789E-01
        1   -1    0    0  501    0  0.00000000000E+00  0.00000000000E+00  0.17589617419E+04  0.17589617419E+04  0.50400001928E-02 0. -1.
       -1   -1    0    0    0  501  0.00000000000E+00  0.00000000000E+00 -0.16753236573E+04  0.16753236573E+04  0.50400001928E-02 0.  1.
    10030    2    1    2    0    0  0.00000000000E+00  0.00000000000E+00  0.83638084607E+02  0.34342853992E+04  0.34332667933E+04 0.  0.
        5    1    3    3  502    0  0.81865433687E+03 -0.52777708186E+03  0.14557675325E+04  0.17515777944E+04  0.46999998093E+01 0. -1.
       -5    1    3    3    0  502 -0.81865433687E+03  0.52777708186E+03 -0.13721294479E+04  0.16827076048E+04  0.46999998093E+01 0.  1.
</event>
<event>
 5   0  0.6188930E-07  0.3379852E+04  0.7818609E-02  0.8142869E-01
       -2   -1    0    0    0  501  0.00000000000E+00  0.00000000000E+00  0.17012264999E+04  0.17012264999E+04  0.25500000920E-02 0. -1.
        2   -1    0    0  501    0  0.00000000000E+00  0.00000000000E+00 -0.16787007002E+04  0.16787007002E+04  0.25500000920E-02 0.  1.
    10030    2    1    2    0    0  0.00000000000E+00  0.00000000000E+00  0.22525799701E+02  0.33799272000E+04  0.33798521367E+04 0.  0.
        3    1    3    3  502    0 -0.20537009733E+03 -0.57895708271E+03 -0.15630915763E+04  0.16794711866E+04  0.10100000352E+00 0.  1.
       -3    1    3    3    0  502  0.20537009733E+03  0.57895708271E+03  0.15856173760E+04  0.17004560135E+04  0.10100000352E+00 0. -1.
</event>
<event>
 5   0  0.9128871E-07  0.3379890E+04  0.7818609E-02  0.8142860E-01
        2   -1    0    0  501    0  0.00000000000E+00  0.00000000000E+00  0.27256540089E+04  0.27256540089E+04  0.25500000920E-02 0.  1.
       -2   -1    0    0    0  501  0.00000000000E+00  0.00000000000E+00 -0.10477903952E+04  0.10477903952E+04  0.25500000920E-02 0. -1.
    10030    2    1    2    0    0  0.00000000000E+00  0.00000000000E+00  0.16778636137E+04  0.37734444041E+04  0.33798899929E+04 0.  0.
        1    1    3    3  502    0 -0.80207726262E+03 -0.10811629656E+04  0.19794903254E+04  0.23938720186E+04  0.50400001928E-02 0.  1.
       -1    1    3    3    0  502  0.80207726262E+03  0.10811629656E+04 -0.30162671161E+03  0.13795723854E+04  0.50400001928E-02 0. -1.
</event>
<event>
 5   0  0.2933506E-07  0.3456444E+04  0.7818609E-02  0.8124190E-01
       -1   -1    0    0    0  501  0.00000000000E+00  0.00000000000E+00  0.14732796059E+04  0.14732796059E+04  0.50400001928E-02 0.  1.
        1   -1    0    0  501    0  0.00000000000E+00  0.00000000000E+00 -0.20272803695E+04  0.20272803695E+04  0.50400001928E-02 0. -1.
    10030    2    1    2    0    0  0.00000000000E+00  0.00000000000E+00 -0.55400076360E+03  0.35005599754E+04  0.34564437353E+04 0.  0.
        4    1    3    3  502    0 -0.26708587072E+03 -0.99321695669E+03 -0.16835879125E+04  0.19728873909E+04  0.12699999809E+01 0. -1.
       -4    1    3    3    0  502  0.26708587072E+03  0.99321695669E+03  0.11295871489E+04  0.15276725844E+04  0.12699999809E+01 0.  1.
</event>
<event>
 5   0  0.3061330E-07  0.3375463E+04  0.7818609E-02  0.8143955E-01
       -1   -1    0    0    0  501  0.00000000000E+00  0.00000000000E+00  0.17916546674E+04  0.17916546674E+04  0.50400001928E-02 0.  1.
        1   -1    0    0  501    0  0.00000000000E+00  0.00000000000E+00 -0.15898364654E+04  0.15898364654E+04  0.50400001928E-02 0. -1.
    10030    2    1    2    0    0  0.00000000000E+00  0.00000000000E+00  0.20181820202E+03  0.33814911328E+04  0.33754631823E+04 0.  0.
        5    1    3    3  502    0  0.13672119211E+04  0.27726487671E+02  0.10918057473E+04  0.17498854463E+04  0.46999998093E+01 0.  1.
       -5    1    3    3    0  502 -0.13672119211E+04 -0.27726487671E+02 -0.88998754529E+03  0.16316056865E+04  0.46999998093E+01 0. -1.
</event>
<event>
 5   0  0.8845195E-07  0.3627372E+04  0.7818609E-02  0.8084250E-01
       -2   -1    0    0    0  501  0.00000000000E+00  0.00000000000E+00  0.19068264711E+04  0.19068264711E+04  0.25500000920E-02 0. -1.
        2   -1    0    0  501    0  0.00000000000E+00  0.00000000000E+00 -0.17250953986E+04  0.17250953986E+04  0.25500000920E-02 0.  1.
    10030    2    1    2    0    0  0.00000000000E+00  0.00000000000E+00  0.18173107254E+03  0.36319218697E+04  0.36273723664E+04 0.  0.
        5    1    3    3  502    0 -0.14655875126E+04  0.97480923314E+03 -0.34698796108E+03  0.17940519873E+04  0.46999998093E+01 0.  1.
       -5    1    3    3    0  502  0.14655875126E+04 -0.97480923314E+03  0.52871903362E+03  0.18378698824E+04  0.46999998093E+01 0. -1.
</event>
<event>
 5   0  0.8950809E-07  0.3494273E+04  0.7818609E-02  0.8115148E-01
       -2   -1    0    0    0  501  0.00000000000E+00  0.00000000000E+00  0.17952866630E+04  0.17952866630E+04  0.25500000920E-02 0. -1.
        2   -1    0    0  501    0  0.00000000000E+00  0.00000000000E+00 -0.17002778073E+04  0.17002778073E+04  0.25500000920E-02 0.  1.
    10030    2    1    2    0    0  0.00000000000E+00  0.00000000000E+00  0.95008855694E+02  0.34955644703E+04  0.34942730694E+04 0.  0.
        2    1    3    3  502    0 -0.17303870907E+04 -0.16522347082E+03  0.22348928893E+03  0.17525654742E+04  0.25500000920E-02 0. -1.
       -2    1    3    3    0  502  0.17303870907E+04  0.16522347082E+03 -0.12848043323E+03  0.17429989962E+04  0.25500000920E-02 0.  1.
</event>
<event>
 5   0  0.6188930E-07  0.3469049E+04  0.7818609E-02  0.8121164E-01
        2   -1    0    0  501    0  0.00000000000E+00  0.00000000000E+00  0.17660479112E+04  0.17660479112E+04  0.25500000920E-02 0.  1.
       -2   -1    0    0    0  501  0.00000000000E+00  0.00000000000E+00 -0.17035633643E+04  0.17035633643E+04  0.25500000920E-02 0. -1.
    10030    2    1    2    0    0  0.00000000000E+00  0.00000000000E+00  0.62484546934E+02  0.34696112755E+04  0.34690485850E+04 0.  0.
        3    1    3    3  502    0  0.26720127148E+03 -0.11566215526E+04 -0.12336385409E+04  0.17120262834E+04  0.10100000352E+00 0. -1.
       -3    1    3    3    0  502 -0.26720127148E+03  0.11566215526E+04  0.12961230878E+04  0.17575849921E+04  0.10100000352E+00 0.  1.
</event>
<event>
 5   0  0.2933506E-07  0.3387955E+04  0.7818609E-02  0.8140869E-01
       -1   -1    0    0    0  501  0.00000000000E+00  0.00000000000E+00  0.10562204592E+04  0.10562204592E+04  0.50400001928E-02 0.  1.
        1   -1    0    0  501    0  0.00000000000E+00  0.00000000000E+00 -0.27168185489E+04  0.27168185489E+04  0.50400001928E-02 0. -1.
    10030    2    1    2    0    0  0.00000000000E+00  0.00000000000E+00 -0.16605980897E+04  0.37730390082E+04  0.33879547432E+04 0.  0.
        4    1    3    3  502    0  0.15498455742E+04  0.57473191574E+03 -0.41776305907E+03  0.17049532737E+04  0.12699999809E+01 0. -1.
       -4    1    3    3    0  502 -0.15498455742E+04 -0.57473191574E+03 -0.12428350306E+04  0.20680857345E+04  0.12699999809E+01 0.  1.
</event>
<event>
 5   0  0.6188930E-07  0.3486369E+04  0.7818609E-02  0.8117028E-01
       -2   -1    0    0    0  501  0.00000000000E+00  0.00000000000E+00  0.11162394402E+04  0.11162394402E+04  0.25500000920E-02 0. -1.
        2   -1    0    0  501    0  0.00000000000E+00  0.00000000000E+00 -0.27222576478E+04  0.27222576478E+04  0.25500000920E-02 0.  1.
    10030    2    1    2    0    0  0.00000000000E+00  0.00000000000E+00 -0.16060182076E+04  0.38384970881E+04  0.34863685135E+04 0.  0.
        3    1    3    3  502    0  0.27264994816E+03 -0.74110965204E+03  0.90801594618E+03  0.12033596633E+04  0.10100000352E+00 0. -1.
       -3    1    3    3    0  502 -0.27264994816E+03  0.74110965204E+03 -0.25140341538E+04  0.26351374248E+04  0.10100000352E+00 0.  1.
</event>
<event>
 5   0  0.8845195E-07  0.3509747E+04  0.7818609E-02  0.8111484E-01
        2   -1    0    0  501    0  0.00000000000E+00  0.00000000000E+00  0.23761991636E+04  0.23761991636E+04  0.25500000920E-02 0. -1.
       -2   -1    0    0    0  501  0.00000000000E+00  0.00000000000E+00 -0.12960110486E+04  0.12960110486E+04  0.25500000920E-02 0.  1.
    10030    2    1    2    0    0  0.00000000000E+00  0.00000000000E+00  0.10801881149E+04  0.36722102122E+04  0.35097466403E+04 0.  0.
        5    1    3    3  502    0  0.63341132588E+03 -0.80133944278E+03  0.20331028096E+04  0.22752766721E+04  0.46999998093E+01 0. -1.
       -5    1    3    3    0  502 -0.63341132588E+03  0.80133944278E+03 -0.95291469462E+03  0.13969335401E+04  0.46999998093E+01 0.  1.
</event>
<event>
 5   0  0.2933506E-07  0.3492319E+04  0.7818609E-02  0.8115613E-01
       -1   -1    0    0    0  501  0.00000000000E+00  0.00000000000E+00  0.13646963740E+04  0.13646963740E+04  0.50400001928E-02 0.  1.
        1   -1    0    0  501    0  0.00000000000E+00  0.00000000000E+00 -0.22342498352E+04  0.22342498352E+04  0.50400001928E-02 0. -1.
    10030    2    1    2    0    0  0.00000000000E+00  0.00000000000E+00 -0.86955346118E+03  0.35989462092E+04  0.34923187991E+04 0.  0.
        4    1    3    3  502    0 -0.11174300169E+04  0.69857482632E+03 -0.16153609346E+04  0.20847180127E+04  0.12699999809E+01 0. -1.
       -4    1    3    3    0  502  0.11174300169E+04 -0.69857482632E+03  0.74580747339E+03  0.15142281965E+04  0.12699999809E+01 0.  1.
</event>
<event>
 5   0  0.8845195E-07  0.3383656E+04  0.7818609E-02  0.8141929E-01
       -2   -1    0    0    0  501  0.00000000000E+00  0.00000000000E+00  0.14025883426E+04  0.14025883426E+04  0.25500000920E-02 0.  1.
        2   -1    0    0  501    0  0.00000000000E+00  0.00000000000E+00 -0.20407141735E+04  0.20407141735E+04  0.25500000920E-02 0. -1.
    10030    2    1    2    0    0  0.00000000000E+00  0.00000000000E+00 -0.63812583089E+03  0.34433025161E+04  0.33836559579E+04 0.  0.
        5    1    3    3  502    0  0.24339266494E+03  0.12432953684E+04 -0.14600939703E+04  0.19331114439E+04  0.46999998093E+01 0. -1.
       -5    1    3    3    0  502 -0.24339266494E+03 -0.12432953684E+04  0.82196813939E+03  0.15101910722E+04  0.46999998093E+01 0.  1.
</event>
<event>
 5   0  0.9311672E-07  0.3495670E+04  0.7818609E-02  0.8114817E-01
        2   -1    0    0  501    0  0.00000000000E+00  0.00000000000E+00  0.18590217803E+04  0.18590217803E+04  0.25500000920E-02 0. -1.
       -2   -1    0    0    0  501  0.00000000000E+00  0.00000000000E+00 -0.16432978296E+04  0.16432978296E+04  0.25500000920E-02 0.  1.
    10030    2    1    2    0    0  0.00000000000E+00  0.00000000000E+00  0.21572395071E+03  0.35023196099E+04  0.34956695821E+04 0.  0.
        4    1    3    3  502    0  0.90580669323E+03 -0.67158510830E+03  0.14458471644E+04  0.18335724580E+04  0.12699999809E+01 0. -1.
       -4    1    3    3    0  502 -0.90580669323E+03  0.67158510830E+03 -0.12301232137E+04  0.16687471519E+04  0.12699999809E+01 0.  1.
</event>
<event>
 5   0  0.9311672E-07  0.3441546E+04  0.7818609E-02  0.8127784E-01
       -2   -1    0    0    0  501  0.00000000000E+00  0.00000000000E+00  0.27409477930E+04  0.27409477930E+04  0.25500000920E-02 0.  1.
        2   -1    0    0  501    0  0.00000000000E+00  0.00000000000E+00 -0.10803049463E+04  0.10803049463E+04  0.25500000920E-02 0. -1.
    10030    2    1    2    0    0  0.00000000000E+00  0.00000000000E+00  0.16606428467E+04  0.38212527393E+04  0.34415458494E+04 0.  0.
        4    1    3    3  502    0  0.14564474007E+04 -0.28551095360E+03  0.17972032398E+04  0.23308145859E+04  0.12699999809E+01 0.  1.
       -4    1    3    3    0  502 -0.14564474007E+04  0.28551095360E+03 -0.13656039312E+03  0.14904381535E+04  0.12699999809E+01 0. -1.
</event>
<event>
 5   0  0.8950809E-07  0.3518962E+04  0.7818609E-02  0.8109311E-01
        2   -1    0    0  501    0  0.00000000000E+00  0.00000000000E+00  0.29410527201E+04  0.29410527201E+04  0.25500000920E-02 0. -1.
       -2   -1    0    0    0  501  0.00000000000E+00  0.00000000000E+00 -0.10526075045E+04  0.10526075045E+04  0.25500000920E-02 0.  1.
    10030    2    1    2    0    0  0.00000000000E+00  0.00000000000E+00  0.18884452156E+04  0.39936602245E+04  0.35189624403E+04 0.  0.
        2    1    3    3  502    0 -0.16098409590E+03  0.15017385557E+04  0.19685510670E+04  0.24811948477E+04  0.25500000920E-02 0. -1.
       -2    1    3    3    0  502  0.16098409590E+03 -0.15017385557E+04 -0.80105851418E+02  0.15124653768E+04  0.25500000920E-02 0.  1.
</event>
<event>
 5   0  0.9128871E-07  0.3490911E+04  0.7818609E-02  0.8115947E-01
        2   -1    0    0  501    0  0.00000000000E+00  0.00000000000E+00  0.28059707448E+04  0.28059707448E+04  0.25500000920E-02 0. -1.
       -2   -1    0    0    0  501  0.00000000000E+00  0.00000000000E+00 -0.10857612490E+04  0.10857612490E+04  0.25500000920E-02 0.  1.
    10030    2    1    2    0    0  0.00000000000E+00  0.00000000000E+00  0.17202094958E+04  0.38917319938E+04  0.34909106552E+04 0.  0.
        1    1    3    3  502    0 -0.12385382620E+04 -0.34566424252E+03  0.21759465435E+04  0.25274896944E+04  0.50400001928E-02 0. -1.
       -1    1    3    3    0  502  0.12385382620E+04  0.34566424252E+03 -0.45573704768E+03  0.13642422995E+04  0.50400001928E-02 0.  1.
</event>
<event>
 5   0  0.9311672E-07  0.3436479E+04  0.7818609E-02  0.8129011E-01
        2   -1    0    0  501    0  0.00000000000E+00  0.00000000000E+00  0.29346971842E+04  0.29346971842E+04  0.25500000920E-02 0.  1.
       -2   -1    0    0    0  501  0.00000000000E+00  0.00000000000E+00 -0.10060141692E+04  0.10060141692E+04  0.25500000920E-02 0. -1.
    10030    2    1    2    0    0  0.00000000000E+00  0.00000000000E+00  0.19286830150E+04  0.39407113534E+04  0.34364789826E+04 0.  0.
        4    1    3    3  502    0 -0.14649009961E+04  0.58668870442E+03  0.17439545308E+04  0.23519178520E+04  0.12699999809E+01 0.  1.
       -4    1    3    3    0  502  0.14649009961E+04 -0.58668870442E+03  0.18472848424E+03  0.15887935014E+04  0.12699999809E+01 0. -1.
</event>
<event>
 5   0  0.6188930E-07  0.3493942E+04  0.7818609E-02  0.8115227E-01
       -2   -1    0    0    0  501  0.00000000000E+00  0.00000000000E+00  0.19605592858E+04  0.19605592858E+04  0.25500000920E-02 0. -1.
        2   -1    0    0  501    0  0.00000000000E+00  0.00000000000E+00 -0.15566517856E+04  0.15566517856E+04  0.25500000920E-02 0.  1.
    10030    2    1    2    0    0  0.00000000000E+00  0.00000000000E+00  0.40390750016E+03  0.35172110714E+04  0.34939422508E+04 0.  0.
        3    1    3    3  502    0 -0.71657121503E+03 -0.14508743423E+04 -0.46075984437E+03  0.16825012059E+04  0.10100000352E+00 0.  1.
       -3    1    3    3    0  502  0.71657121503E+03  0.14508743423E+04  0.86466734453E+03  0.18347098655E+04  0.10100000352E+00 0. -1.
</event>
<event>
 5   0  0.3026332E-07  0.3472284E+04  0.7818609E-02  0.8120390E-01
       -1   -1    0    0    0  501  0.00000000000E+00  0.00000000000E+00  0.10598385401E+04  0.10598385401E+04  0.50400001928E-02 0.  1.
        1   -1    0    0  501    0  0.00000000000E+00  0.00000000000E+00 -0.28440075054E+04  0.28440075054E+04  0.50400001928E-02 0. -1.
    10030    2    1    2    0    0  0.00000000000E+00  0.00000000000E+00 -0.17841689653E+04  0.39038460455E+04  0.34722838378E+04 0.  0.
        1    1    3    3  502    0  0.78080282135E+03 -0.14490966255E+04 -0.15126410770E+04  0.22355350822E+04  0.50400001928E-02 0.  1.
       -1    1    3    3    0  502 -0.78080282135E+03  0.14490966255E+04 -0.27152788831E+03  0.16683109633E+04  0.50400001928E-02 0. -1.
</event>
<event>
 5   0  0.3026332E-07  0.3514391E+04  0.7818609E-02  0.8110388E-01
        1   -1    0    0  501    0  0.00000000000E+00  0.00000000000E+00  0.20597454034E+04  0.20597454034E+04  0.50400001928E-02 0.  1.
       -1   -1    0    0    0  501  0.00000000000E+00  0.00000000000E+00 -0.14990862077E+04  0.14990862077E+04  0.50400001928E-02 0. -1.
    10030    2    1    2    0    0  0.00000000000E+00  0.00000000000E+00  0.56065919570E+03  0.35588316111E+04  0.35143909433E+04 0.  0.
        1    1    3    3  502    0  0.13979345820E+04 -0.70999484519E+03 -0.52306402384E+03  0.16528489794E+04  0.50400001928E-02 0. -1.
       -1    1    3    3    0  502 -0.13979345820E+04  0.70999484519E+03  0.10837232195E+04  0.19059826317E+04  0.50400001928E-02 0.  1.
</event>
<event>
 5   0  0.2933506E-07  0.3496865E+04  0.7818609E-02  0.8114533E-01
       -1   -1    0    0    0  501  0.00000000000E+00  0.00000000000E+00  0.10346291267E+04  0.10346291267E+04  0.50400001928E-02 0. -1.
        1   -1    0    0  501    0  0.00000000000E+00  0.00000000000E+00 -0.29546979372E+04  0.29546979372E+04  0.50400001928E-02 0.  1.
    10030    2    1    2    0    0  0.00000000000E+00  0.00000000000E+00 -0.19200688105E+04  0.39893270639E+04  0.34968651941E+04 0.  0.
        4    1    3    3  502    0 -0.14749331929E+04  0.72174300308E+03 -0.16451726324E+04  0.23244215387E+04  0.12699999809E+01 0.  1.
       -4    1    3    3    0  502  0.14749331929E+04 -0.72174300308E+03 -0.27489617804E+03  0.16649055252E+04  0.12699999809E+01 0. -1.
</event>
<event>
 5   0  0.3026332E-07  0.3510873E+04  0.7818609E-02  0.8111218E-01
       -1   -1    0    0    0  501  0.00000000000E+00  0.00000000000E+00  0.22110646641E+04  0.22110646641E+04  0.50400001928E-02 0.  1.
        1   -1    0    0  501    0  0.00000000000E+00  0.00000000000E+00 -0.13936980681E+04  0.13936980681E+04  0.50400001928E-02 0. -1.
    10030    2    1    2    0    0  0.00000000000E+00  0.00000000000E+00  0.81736659600E+03  0.36047627323E+04  0.35108725701E+04 0.  0.
        1    1    3    3  502    0  0.61981794525E+02 -0.20957799526E+03 -0.13796748984E+04  0.13968777699E+04  0.50400001928E-02 0. -1.
       -1    1    3    3    0  502 -0.61981794525E+02  0.20957799526E+03  0.21970414944E+04  0.22078849623E+04  0.50400001928E-02 0.  1.
</event>
<event>
 5   0  0.9128871E-07  0.3493007E+04  0.7818609E-02  0.8115449E-01
       -2   -1    0    0    0  501  0.00000000000E+00  0.00000000000E+00  0.21237358678E+04  0.21237358678E+04  0.25500000920E-02 0.  1.
        2   -1    0    0  501    0  0.00000000000E+00  0.00000000000E+00 -0.14362777689E+04  0.14362777689E+04  0.25500000920E-02 0. -1.
    10030    2    1    2    0    0  0.00000000000E+00  0.00000000000E+00  0.68745809892E+03  0.35600136367E+04  0.34930070793E+04 0.  0.
        1    1    3    3  502    0 -0.16085906554E+04 -0.29918135922E+03 -0.27889190072E+03  0.16597753085E+04  0.50400001928E-02 0. -1.
       -1    1    3    3    0  502  0.16085906554E+04  0.29918135922E+03  0.96634999964E+03  0.19002383283E+04  0.50400001928E-02 0.  1.
</event>
<event>
 5   0  0.9311672E-07  0.3651414E+04  0.7818609E-02  0.8078815E-01
        2   -1    0    0  501    0  0.00000000000E+00  0.00000000000E+00  0.21561023682E+04  0.21561023682E+04  0.25500000920E-02 0. -1.
       -2   -1    0    0    0  501  0.00000000000E+00  0.00000000000E+00 -0.15459401221E+04  0.15459401221E+04  0.25500000920E-02 0.  1.
    10030    2    1    2    0    0  0.00000000000E+00  0.00000000000E+00  0.61016224608E+03  0.37020424903E+04  0.36514135117E+04 0.  0.
        4    1    3    3  502    0 -0.86470016120E+03 -0.28976851217E+03 -0.12984720257E+04  0.15867272525E+04  0.12699999809E+01 0.  1.
       -4    1    3    3    0  502  0.86470016120E+03  0.28976851217E+03  0.19086342717E+04  0.21153152379E+04  0.12699999809E+01 0. -1.
</event>
<event>
 5   0  0.8950809E-07  0.3500517E+04  0.7818609E-02  0.8113667E-01
       -2   -1    0    0    0  501  0.00000000000E+00  0.00000000000E+00  0.16999879031E+04  0.16999879031E+04  0.25500000920E-02 0. -1.
        2   -1    0    0  501    0  0.00000000000E+00  0.00000000000E+00 -0.18020160367E+04  0.18020160367E+04  0.25500000920E-02 0.  1.
    10030    2    1    2    0    0  0.00000000000E+00  0.00000000000E+00 -0.10202813367E+03  0.35020039398E+04  0.35005173695E+04 0.  0.
        2    1    3    3  502    0 -0.17006823781E+04  0.37709793471E+03  0.11900533249E+03  0.17460485883E+04  0.25500000920E-02 0.  1.
       -2    1    3    3    0  502  0.17006823781E+04 -0.37709793471E+03 -0.22103346617E+03  0.17559553515E+04  0.25500000920E-02 0. -1.
</event>
<event>
 5   0  0.3061330E-07  0.3468092E+04  0.7818609E-02  0.8121394E-01
        1   -1    0    0  501    0  0.00000000000E+00  0.00000000000E+00  0.17182833467E+04  0.17182833467E+04  0.50400001928E-02 0. -1.
       -1   -1    0    0    0  501  0.00000000000E+00  0.00000000000E+00 -0.17499536195E+04  0.17499536195E+04  0.50400001928E-02 0.  1.
    10030    2    1    2    0    0  0.00000000000E+00  0.00000000000E+00 -0.31670272843E+02  0.34682369662E+04  0.34680923643E+04 0.  0.
        5    1    3    3  502    0 -0.47704367019E+03 -0.43181578635E+03 -0.16261378278E+04  0.17488229932E+04  0.46999998093E+01 0.  1.
       -5    1    3    3    0  502  0.47704367019E+03  0.43181578635E+03  0.15944675549E+04  0.17194139730E+04  0.46999998093E+01 0. -1.
</event>
<event>
 5   0  0.2972541E-07  0.3558259E+04  0.7818609E-02  0.8100120E-01
        1   -1    0    0  501    0  0.00000000000E+00  0.00000000000E+00  0.16201285572E+04  0.16201285572E+04  0.50400001928E-02 0. -1.
       -1   -1    0    0    0  501  0.00000000000E+00  0.00000000000E+00 -0.19537350863E+04  0.19537350863E+04  0.50400001928E-02 0.  1.
    10030    2    1    2    0    0  0.00000000000E+00  0.00000000000E+00 -0.33360652909E+03  0.35738636435E+04  0.35582591286E+04 0.  0.
        3    1    3    3  502    0 -0.14007128773E+03  0.17215268946E+04 -0.59532073132E+03  0.18269322916E+04  0.10100000352E+00 0.  1.
       -3    1    3    3    0  502  0.14007128773E+03 -0.17215268946E+04  0.26171420223E+03  0.17469313520E+04  0.10100000352E+00 0. -1.
</event>
<event>
 5   0  0.9128871E-07  0.3580471E+04  0.7818609E-02  0.8094980E-01
        2   -1    0    0  501    0  0.00000000000E+00  0.00000000000E+00  0.22775019962E+04  0.22775019963E+04  0.25500000920E-02 0.  1.
       -2   -1    0    0    0  501  0.00000000000E+00  0.00000000000E+00 -0.14072187179E+04  0.14072187179E+04  0.25500000920E-02 0. -1.
    10030    2    1    2    0    0  0.00000000000E+00  0.00000000000E+00  0.87028327839E+03  0.36847207141E+04  0.35804711640E+04 0.  0.
        1    1    3    3  502    0  0.16054763207E+04  0.59710087996E+03 -0.10045351813E+03  0.17158597223E+04  0.50400001928E-02 0. -1.
       -1    1    3    3    0  502 -0.16054763207E+04 -0.59710087996E+03  0.97073679652E+03  0.19688609919E+04  0.50400001928E-02 0.  1.
</event>
<event>
 5   0  0.2933506E-07  0.3602371E+04  0.7818609E-02  0.8089949E-01
       -1   -1    0    0    0  501  0.00000000000E+00  0.00000000000E+00  0.17054818896E+04  0.17054818896E+04  0.50400001928E-02 0.  1.
        1   -1    0    0  501    0  0.00000000000E+00  0.00000000000E+00 -0.19022593007E+04  0.19022593007E+04  0.50400001928E-02 0. -1.
    10030    2    1    2    0    0  0.00000000000E+00  0.00000000000E+00 -0.19677741114E+03  0.36077411903E+04  0.36023707675E+04 0.  0.
        4    1    3    3  502    0  0.99451339422E+03 -0.13184587646E+04  0.62162451618E+03  0.17645988375E+04  0.12699999809E+01 0.  1.
       -4    1    3    3    0  502 -0.99451339422E+03  0.13184587646E+04 -0.81840192732E+03  0.18431423528E+04  0.12699999809E+01 0. -1.
</event>
<event>
 5   0  0.3026332E-07  0.3511556E+04  0.7818609E-02  0.8111057E-01
       -1   -1    0    0    0  501  0.00000000000E+00  0.00000000000E+00  0.16846181469E+04  0.16846181469E+04  0.50400001928E-02 0.  1.
        1   -1    0    0  501    0  0.00000000000E+00  0.00000000000E+00 -0.18299436979E+04  0.18299436979E+04  0.50400001928E-02 0. -1.
    10030    2    1    2    0    0  0.00000000000E+00  0.00000000000E+00 -0.14532555102E+03  0.35145618448E+04  0.35115559863E+04 0.  0.
        1    1    3    3  502    0 -0.35950125375E+03  0.11861209822E+04 -0.13173640102E+04  0.18087487584E+04  0.50400001928E-02 0. -1.
       -1    1    3    3    0  502  0.35950125375E+03 -0.11861209822E+04  0.11720384592E+04  0.17058130864E+04  0.50400001928E-02 0.  1.
</event>
<event>
 5   0  0.2933506E-07  0.3468535E+04  0.7818609E-02  0.8121287E-01
       -1   -1    0    0    0  501  0.00000000000E+00  0.00000000000E+00  0.10932454336E+04  0.10932454336E+04  0.50400001928E-02 0.  1.
        1   -1    0    0  501    0  0.00000000000E+00  0.00000000000E+00 -0.27511512797E+04  0.27511512797E+04  0.50400001928E-02 0. -1.
    10030    2    1    2    0    0  0.00000000000E+00  0.00000000000E+00 -0.16579058460E+04  0.38443967133E+04  0.34685348917E+04 0.  0.
        4    1    3    3  502    0  0.10040877540E+04  0.14011399281E+04 -0.61779111458E+03  0.18311342905E+04  0.12699999809E+01 0.  1.
       -4    1    3    3    0  502 -0.10040877540E+04 -0.14011399281E+04 -0.10401147315E+04  0.20132624228E+04  0.12699999809E+01 0. -1.
</event>
<event>
 5   0  0.2907000E-07  0.3518909E+04  0.7818609E-02  0.8109323E-01
       -3   -1    0    0    0  501  0.00000000000E+00  0.00000000000E+00  0.24642069992E+04  0.24642070013E+04  0.10100000352E+00 0. -1.
        3   -1    0    0  501    0  0.00000000000E+00  0.00000000000E+00 -0.12562583282E+04  0.12562583322E+04  0.10100000352E+00 0.  1.
    10030    2    1    2    0    0  0.00000000000E+00  0.00000000000E+00  0.12079486710E+04  0.37204653335E+04  0.35189092495E+04 0.  0.
        2    1    3    3  502    0  0.40492701864E+03  0.73424712361E+03 -0.10314251913E+04  0.13292564291E+04  0.25500000920E-02 0.  1.
       -2    1    3    3    0  502 -0.40492701864E+03 -0.73424712361E+03  0.22393738624E+04  0.23912089044E+04  0.25500000920E-02 0. -1.
</event>
<event>
 5   0  0.3061330E-07  0.3517702E+04  0.7818609E-02  0.8109607E-01
       -1   -1    0    0    0  501  0.00000000000E+00  0.00000000000E+00  0.14565948505E+04  0.14565948505E+04  0.50400001928E-02 0. -1.
        1   -1    0    0  501    0  0.00000000000E+00  0.00000000000E+00 -0.21238285012E+04  0.21238285012E+04  0.50400001928E-02 0.  1.
    10030    2    1    2    0    0  0.00000000000E+00  0.00000000000E+00 -0.66723365068E+03  0.35804233516E+04  0.35177024650E+04 0.  0.
        5    1    3    3  502    0  0.55993897688E+03 -0.74541799100E+03  0.11844029136E+04  0.15073194721E+04  0.46999998093E+01 0. -1.
       -5    1    3    3    0  502 -0.55993897688E+03  0.74541799100E+03 -0.18516365643E+04  0.20731038796E+04  0.46999998093E+01 0.  1.
</event>
<event>
 5   0  0.2972541E-07  0.3461608E+04  0.7818609E-02  0.8122949E-01
        1   -1    0    0  501    0  0.00000000000E+00  0.00000000000E+00  0.18930546997E+04  0.18930546997E+04  0.50400001928E-02 0.  1.
       -1   -1    0    0    0  501  0.00000000000E+00  0.00000000000E+00 -0.15824593920E+04  0.15824593920E+04  0.50400001928E-02 0. -1.
    10030    2    1    2    0    0  0.00000000000E+00  0.00000000000E+00  0.31059530773E+03  0.34755140917E+04  0.34616078282E+04 0.  0.
        3    1    3    3  502    0 -0.55660635221E+03 -0.32772865270E+03 -0.14569132347E+04  0.15936790407E+04  0.10100000352E+00 0. -1.
       -3    1    3    3    0  502  0.55660635221E+03  0.32772865270E+03  0.17675085425E+04  0.18818350510E+04  0.10100000352E+00 0.  1.
</event>
<event>
 5   0  0.9311672E-07  0.3501752E+04  0.7818609E-02  0.8113375E-01
        2   -1    0    0  501    0  0.00000000000E+00  0.00000000000E+00  0.17982756530E+04  0.17982756530E+04  0.25500000920E-02 0.  1.
       -2   -1    0    0    0  501  0.00000000000E+00  0.00000000000E+00 -0.17047254174E+04  0.17047254174E+04  0.25500000920E-02 0. -1.
    10030    2    1    2    0    0  0.00000000000E+00  0.00000000000E+00  0.93550235541E+02  0.35030010704E+04  0.35017516835E+04 0.  0.
        4    1    3    3  502    0 -0.76708664297E+03 -0.13062116390E+04 -0.83157792674E+03  0.17280434672E+04  0.12699999809E+01 0. -1.
       -4    1    3    3    0  502  0.76708664297E+03  0.13062116390E+04  0.92512816228E+03  0.17749576032E+04  0.12699999809E+01 0.  1.
</event>
<event>
 5   0  0.9128871E-07  0.3526065E+04  0.7818609E-02  0.8107640E-01
        2   -1    0    0  501    0  0.00000000000E+00  0.00000000000E+00  0.22194368797E+04  0.22194368797E+04  0.25500000920E-02 0.  1.
       -2   -1    0    0    0  501  0.00000000000E+00  0.00000000000E+00 -0.14004833220E+04  0.14004833220E+04  0.25500000920E-02 0. -1.
    10030    2    1    2    0    0  0.00000000000E+00  0.00000000000E+00  0.81895355768E+03  0.36199202017E+04  0.35260654187E+04 0.  0.
        1    1    3    3  502    0  0.13665857813E+04 -0.86642057034E+03 -0.30918697337E+03  0.16473730260E+04  0.50400001928E-02 0.  1.
       -1    1    3    3    0  502 -0.13665857813E+04  0.86642057034E+03  0.11281405310E+04  0.19725471757E+04  0.50400001928E-02 0. -1.
</event>
<event>
 5   0  0.2933506E-07  0.3501887E+04  0.7818609E-02  0.8113343E-01
        1   -1    0    0  501    0  0.00000000000E+00  0.00000000000E+00  0.19321998838E+04  0.19321998838E+04  0.50400001928E-02 0. -1.
       -1   -1    0    0    0  501  0.00000000000E+00  0.00000000000E+00 -0.15866901036E+04  0.15866901036E+04  0.50400001928E-02 0.  1.
    10030    2    1    2    0    0  0.00000000000E+00  0.00000000000E+00  0.34550978021E+03  0.35188899874E+04  0.35018865965E+04 0.  0.
        4    1    3    3  502    0  0.13404972856E+03  0.13910097224E+04  0.12328290709E+04  0.18635306566E+04  0.12699999809E+01 0. -1.
       -4    1    3    3    0  502 -0.13404972856E+03 -0.13910097224E+04 -0.88731929064E+03  0.16553593307E+04  0.12699999809E+01 0.  1.
</event>
<event>
 5   0  0.8845195E-07  0.3509109E+04  0.7818609E-02  0.8111635E-01
       -2   -1    0    0    0  501  0.00000000000E+00  0.00000000000E+00  0.34718239609E+04  0.34718239609E+04  0.25500000920E-02 0. -1.
        2   -1    0    0  501    0  0.00000000000E+00  0.00000000000E+00 -0.88669840814E+03  0.88669840814E+03  0.25500000920E-02 0.  1.
    10030    2    1    2    0    0  0.00000000000E+00  0.00000000000E+00  0.25851255528E+04  0.43585223691E+04  0.35091085931E+04 0.  0.
        5    1    3    3  502    0 -0.10861135872E+04 -0.16304252523E+03  0.29920586365E+04  0.31872656876E+04  0.46999998093E+01 0. -1.
       -5    1    3    3    0  502  0.10861135872E+04  0.16304252523E+03 -0.40693308368E+03  0.11712566815E+04  0.46999998093E+01 0.  1.
</event>
<event>
 5   0  0.2936607E-07  0.3574262E+04  0.7818609E-02  0.8096413E-01
        1   -1    0    0  501    0  0.00000000000E+00  0.00000000000E+00  0.13809836855E+04  0.13809836855E+04  0.50400001928E-02 0. -1.
       -1   -1    0    0    0  501  0.00000000000E+00  0.00000000000E+00 -0.23127267494E+04  0.23127267494E+04  0.50400001928E-02 0.  1.
    10030    2    1    2    0    0  0.00000000000E+00  0.00000000000E+00 -0.93174306396E+03  0.36937104349E+04  0.35742623910E+04 0.  0.
        2    1    3    3  502    0  0.14695590443E+04  0.93170112933E+03 -0.44612742445E+02  0.17405921624E+04  0.25500000920E-02 0.  1.
       -2    1    3    3    0  502 -0.14695590443E+04 -0.93170112933E+03 -0.88713032151E+03  0.19531182725E+04  0.25500000920E-02 0. -1.
</event>
<event>
 5   0  0.2933506E-07  0.3512363E+04  0.7818609E-02  0.8110866E-01
       -1   -1    0    0    0  501  0.00000000000E+00  0.00000000000E+00  0.24304418335E+04  0.24304418335E+04  0.50400001928E-02 0. -1.
        1   -1    0    0  501    0  0.00000000000E+00  0.00000000000E+00 -0.12689762732E+04  0.12689762732E+04  0.50400001928E-02 0.  1.
    10030    2    1    2    0    0  0.00000000000E+00  0.00000000000E+00  0.11614655603E+04  0.36994181067E+04  0.35123627490E+04 0.  0.
        4    1    3    3  502    0 -0.40115169256E+03 -0.77379867010E+03  0.21865546494E+04  0.23538712603E+04  0.12699999809E+01 0. -1.
       -4    1    3    3    0  502  0.40115169256E+03  0.77379867010E+03 -0.10250890891E+04  0.13455468464E+04  0.12699999809E+01 0.  1.
</event>
<event>
 5   0  0.3026332E-07  0.3471201E+04  0.7818609E-02  0.8120649E-01
       -1   -1    0    0    0  501  0.00000000000E+00  0.00000000000E+00  0.14803219430E+04  0.14803219430E+04  0.50400001928E-02 0.  1.
        1   -1    0    0  501    0  0.00000000000E+00  0.00000000000E+00 -0.20349017477E+04  0.20349017477E+04  0.50400001928E-02 0. -1.
    10030    2    1    2    0    0  0.00000000000E+00  0.00000000000E+00 -0.55457980475E+03  0.35152236907E+04  0.34712013534E+04 0.  0.
        1    1    3    3  502    0  0.51304427586E+03  0.54685234057E+03  0.13078238670E+04  0.15075361284E+04  0.50400001928E-02 0.  1.
       -1    1    3    3    0  502 -0.51304427586E+03 -0.54685234057E+03 -0.18624036717E+04  0.20076875623E+04  0.50400001928E-02 0. -1.
</event>
<event>
 5   0  0.2972541E-07  0.3531732E+04  0.7818609E-02  0.8106311E-01
       -1   -1    0    0    0  501  0.00000000000E+00  0.00000000000E+00  0.14280052762E+04  0.14280052762E+04  0.50400001928E-02 0. -1.
        1   -1    0    0  501    0  0.00000000000E+00  0.00000000000E+00 -0.21836630369E+04  0.21836630369E+04  0.50400001928E-02 0.  1.
    10030    2    1    2    0    0  0.00000000000E+00  0.00000000000E+00 -0.75565776069E+03  0.36116683131E+04  0.35317317781E+04 0.  0.
        3    1    3    3  502    0  0.63371117936E+03 -0.16222898737E+04 -0.79913984691E+02  0.17435023798E+04  0.10100000352E+00 0. -1.
       -3    1    3    3    0  502 -0.63371117936E+03  0.16222898737E+04 -0.67574377600E+03  0.18681659333E+04  0.10100000352E+00 0.  1.
</event>
<event>
 5   0  0.6188930E-07  0.3508255E+04  0.7818609E-02  0.8111836E-01
        2   -1    0    0  501    0  0.00000000000E+00  0.00000000000E+00  0.29573737808E+04  0.29573737808E+04  0.25500000920E-02 0.  1.
       -2   -1    0    0    0  501  0.00000000000E+00  0.00000000000E+00 -0.10404377380E+04  0.10404377380E+04  0.25500000920E-02 0. -1.
    10030    2    1    2    0    0  0.00000000000E+00  0.00000000000E+00  0.19169360427E+04  0.39978115188E+04  0.35082550004E+04 0.  0.
        3    1    3    3  502    0  0.26647858775E+03 -0.10671135892E+04 -0.59867687524E+03  0.12522604606E+04  0.10100000352E+00 0. -1.
       -3    1    3    3    0  502 -0.26647858775E+03  0.10671135892E+04  0.25156129180E+04  0.27455510582E+04  0.10100000352E+00 0.  1.
</event>
<event>
 5   0  0.9128871E-07  0.3527540E+04  0.7818609E-02  0.8107294E-01
        2   -1    0    0  501    0  0.00000000000E+00  0.00000000000E+00  0.21401797974E+04  0.21401797974E+04  0.25500000920E-02 0. -1.
       -2   -1    0    0    0  501  0.00000000000E+00  0.00000000000E+00 -0.14535623257E+04  0.14535623257E+04  0.25500000920E-02 0.  1.
    10030    2    1    2    0    0  0.00000000000E+00  0.00000000000E+00  0.68661747166E+03  0.35937421231E+04  0.35275400628E+04 0.  0.
        1    1    3    3  502    0  0.11472040502E+04  0.12908575789E+04  0.70849706532E+03  0.18666436493E+04  0.50400001928E-02 0. -1.
       -1    1    3    3    0  502 -0.11472040502E+04 -0.12908575789E+04 -0.21879593658E+02  0.17270984738E+04  0.50400001928E-02 0.  1.
</event>
<event>
 5   0  0.2933506E-07  0.3455262E+04  0.7818609E-02  0.8124475E-01
       -1   -1    0    0    0  501  0.00000000000E+00  0.00000000000E+00  0.27753335665E+04  0.27753335665E+04  0.50400001928E-02 0. -1.
        1   -1    0    0  501    0  0.00000000000E+00  0.00000000000E+00 -0.10754414126E+04  0.10754414126E+04  0.50400001928E-02 0.  1.
    10030    2    1    2    0    0  0.00000000000E+00  0.00000000000E+00  0.16998921539E+04  0.38507749791E+04  0.34552618721E+04 0.  0.
        4    1    3    3  502    0 -0.38632939214E+03  0.16829928090E+04  0.91090490819E+03  0.19522972517E+04  0.12699999809E+01 0.  1.
       -4    1    3    3    0  502  0.38632939214E+03 -0.16829928090E+04  0.78898724573E+03  0.18984777274E+04  0.12699999809E+01 0. -1.
</event>
<event>
 5   0  0.2972541E-07  0.3381776E+04  0.7818609E-02  0.8142394E-01
       -1   -1    0    0    0  501  0.00000000000E+00  0.00000000000E+00  0.99019867627E+03  0.99019867628E+03  0.50400001928E-02 0. -1.
        1   -1    0    0  501    0  0.00000000000E+00  0.00000000000E+00 -0.28874028020E+04  0.28874028020E+04  0.50400001928E-02 0.  1.
    10030    2    1    2    0    0  0.00000000000E+00  0.00000000000E+00 -0.18972041257E+04  0.38776014783E+04  0.33817761206E+04 0.  0.
        3    1    3    3  502    0 -0.95528471161E+03 -0.42701300290E+03  0.57436818851E+03  0.11936531368E+04  0.10100000352E+00 0. -1.
       -3    1    3    3    0  502  0.95528471161E+03  0.42701300290E+03 -0.24715723142E+04  0.26839483414E+04  0.10100000352E+00 0.  1.
</event>
<event>
 5   0  0.6188930E-07  0.3520244E+04  0.7818609E-02  0.8109009E-01
        2   -1    0    0  501    0  0.00000000000E+00  0.00000000000E+00  0.24543756462E+04  0.24543756462E+04  0.25500000920E-02 0. -1.
       -2   -1    0    0    0  501  0.00000000000E+00  0.00000000000E+00 -0.12622474348E+04  0.12622474348E+04  0.25500000920E-02 0.  1.
    10030    2    1    2    0    0  0.00000000000E+00  0.00000000000E+00  0.11921282114E+04  0.37166230811E+04  0.35202439481E+04 0.  0.
        3    1    3    3  502    0 -0.11627647276E+04  0.78512628962E+03 -0.52604496596E+03  0.14983886074E+04  0.10100000352E+00 0.  1.
       -3    1    3    3    0  502  0.11627647276E+04 -0.78512628962E+03  0.17181731774E+04  0.22182344736E+04  0.10100000352E+00 0. -1.
</event>
<event>
 5   0  0.2972541E-07  0.3510179E+04  0.7818609E-02  0.8111382E-01
        1   -1    0    0  501    0  0.00000000000E+00  0.00000000000E+00  0.11628816493E+04  0.11628816494E+04  0.50400001928E-02 0.  1.
       -1   -1    0    0    0  501  0.00000000000E+00  0.00000000000E+00 -0.26488844540E+04  0.26488844540E+04  0.50400001928E-02 0. -1.
    10030    2    1    2    0    0  0.00000000000E+00  0.00000000000E+00 -0.14860028047E+04  0.38117661034E+04  0.35101789828E+04 0.  0.
        3    1    3    3  502    0 -0.27325036892E+02 -0.50981069570E+03 -0.25664659263E+04  0.26167538983E+04  0.10100000352E+00 0. -1.
       -3    1    3    3    0  502  0.27325036892E+02  0.50981069570E+03  0.10804631216E+04  0.11950122051E+04  0.10100000352E+00 0.  1.
</event>
<event>
 5   0  0.3026332E-07  0.3489125E+04  0.7818609E-02  0.8116372E-01
       -1   -1    0    0    0  501  0.00000000000E+00  0.00000000000E+00  0.12475870526E+04  0.12475870526E+04  0.50400001928E-02 0.  1.
        1   -1    0    0  501    0  0.00000000000E+00  0.00000000000E+00 -0.24395080670E+04  0.24395080670E+04  0.50400001928E-02 0. -1.
    10030    2    1    2    0    0  0.00000000000E+00  0.00000000000E+00 -0.11919210143E+04  0.36870951196E+04  0.34891252079E+04 0.  0.
        1    1    3    3  502    0  0.11460383563E+04 -0.72290655838E+03 -0.17571725037E+04  0.22189306014E+04  0.50400001928E-02 0. -1.
       -1    1    3    3    0  502 -0.11460383563E+04  0.72290655838E+03  0.56525148933E+03  0.14681645182E+04  0.50400001928E-02 0.  1.
</event>
<event>
 5   0  0.9311672E-07  0.3491957E+04  0.7818609E-02  0.8115699E-01
        2   -1    0    0  501    0  0.00000000000E+00  0.00000000000E+00  0.26063289293E+04  0.26063289293E+04  0.25500000920E-02 0.  1.
       -2   -1    0    0    0  501  0.00000000000E+00  0.00000000000E+00 -0.11696302131E+04  0.11696302131E+04  0.25500000920E-02 0. -1.
    10030    2    1    2    0    0  0.00000000000E+00  0.00000000000E+00  0.14366987162E+04  0.37759591423E+04  0.34919570793E+04 0.  0.
        4    1    3    3  502    0 -0.14469007163E+04  0.78245080329E+03  0.13513558414E+04  0.21288295295E+04  0.12699999809E+01 0.  1.
       -4    1    3    3    0  502  0.14469007163E+04 -0.78245080329E+03  0.85342874817E+02  0.16471296129E+04  0.12699999809E+01 0. -1.
</event>
<event>
 5   0  0.8950809E-07  0.3364252E+04  0.7818609E-02  0.8146736E-01
       -2   -1    0    0    0  501  0.00000000000E+00  0.00000000000E+00  0.14221206986E+04  0.14221206986E+04  0.25500000920E-02 0.  1.
        2   -1    0    0  501    0  0.00000000000E+00  0.00000000000E+00 -0.19896673064E+04  0.19896673064E+04  0.25500000920E-02 0. -1.
    10030    2    1    2    0    0  0.00000000000E+00  0.00000000000E+00 -0.56754660780E+03  0.34117880051E+04  0.33642515125E+04 0.  0.
        2    1    3    3  502    0  0.84216041361E+03  0.14348431350E+04 -0.32199429853E+02  0.16640450076E+04  0.25500000920E-02 0.  1.
       -2    1    3    3    0  502 -0.84216041361E+03 -0.14348431350E+04 -0.53534717795E+03  0.17477429974E+04  0.25500000920E-02 0. -1.
</event>
<event>
 5   0  0.8845195E-07  0.3537402E+04  0.7818609E-02  0.8104983E-01
        2   -1    0    0  501    0  0.00000000000E+00  0.00000000000E+00  0.18254242368E+04  0.18254242368E+04  0.25500000920E-02 0.  1.
       -2   -1    0    0    0  501  0.00000000000E+00  0.00000000000E+00 -0.17137400420E+04  0.17137400420E+04  0.25500000920E-02 0. -1.
    10030    2    1    2    0    0  0.00000000000E+00  0.00000000000E+00  0.11168419478E+03  0.35391642788E+04  0.35374016499E+04 0.  0.
        5    1    3    3  502    0  0.84746867784E+03  0.79802302521E+03 -0.12764507379E+04  0.17275394308E+04  0.46999998093E+01 0. -1.
       -5    1    3    3    0  502 -0.84746867784E+03 -0.79802302521E+03  0.13881349326E+04  0.18116248480E+04  0.46999998093E+01 0.  1.
</event>
<event>
 5   0  0.8950809E-07  0.3510573E+04  0.7818609E-02  0.8111289E-01
        2   -1    0    0  501    0  0.00000000000E+00  0.00000000000E+00  0.22332005509E+04  0.22332005509E+04  0.25500000920E-02 0. -1.
       -2   -1    0    0    0  501  0.00000000000E+00  0.00000000000E+00 -0.13796478212E+04  0.13796478212E+04  0.25500000920E-02 0.  1.
    10030    2    1    2    0    0  0.00000000000E+00  0.00000000000E+00  0.85355272962E+03  0.36128483721E+04  0.35105727592E+04 0.  0.
        2    1    3    3  502    0 -0.12958316710E+04  0.43573965735E+03  0.15597498673E+04  0.20740946018E+04  0.25500000920E-02 0. -1.
       -2    1    3    3    0  502  0.12958316710E+04 -0.43573965735E+03 -0.70619713763E+03  0.15387537704E+04  0.25500000920E-02 0.  1.
</event>
<event>
 5   0  0.2936607E-07  0.3495858E+04  0.7818609E-02  0.8114772E-01
       -1   -1    0    0    0  501  0.00000000000E+00  0.00000000000E+00  0.12664994288E+04  0.12664994288E+04  0.50400001928E-02 0. -1.
        1   -1    0    0  501    0  0.00000000000E+00  0.00000000000E+00 -0.24123618640E+04  0.24123618640E+04  0.50400001928E-02 0.  1.
    10030    2    1    2    0    0  0.00000000000E+00  0.00000000000E+00 -0.11458624351E+04  0.36788612928E+04  0.34958575044E+04 0.  0.
        2    1    3    3  502    0  0.56532761641E+02  0.76353266519E+03 -0.22265180085E+04  0.23544766990E+04  0.25500000920E-02 0.  1.
       -2    1    3    3    0  502 -0.56532761641E+02 -0.76353266519E+03  0.10806555734E+04  0.13243845938E+04  0.25500000920E-02 0. -1.
</event>
<event>
 5   0  0.3061330E-07  0.3570332E+04  0.7818609E-02  0.8097322E-01
       -1   -1    0    0    0  501  0.00000000000E+00  0.00000000000E+00  0.12462849704E+04  0.12462849704E+04  0.50400001928E-02 0. -1.
        1   -1    0    0  501    0  0.00000000000E+00  0.00000000000E+00 -0.25570532030E+04  0.25570532030E+04  0.50400001928E-02 0.  1.
    10030    2    1    2    0    0  0.00000000000E+00  0.00000000000E+00 -0.13107682326E+04  0.38033381735E+04  0.35703316235E+04 0.  0.
        5    1    3    3  502    0 -0.12893880577E+04  0.29307283025E+02 -0.19702014314E+04  0.23548028050E+04  0.46999998093E+01 0.  1.
       -5    1    3    3    0  502  0.12893880577E+04 -0.29307283025E+02  0.65943319876E+03  0.14485353685E+04  0.46999998093E+01 0. -1.
</event>
<event>
 5   0  0.3026332E-07  0.3487818E+04  0.7818609E-02  0.8116683E-01
        1   -1    0    0  501    0  0.00000000000E+00  0.00000000000E+00  0.20668391244E+04  0.20668391244E+04  0.50400001928E-02 0. -1.
       -1   -1    0    0    0  501  0.00000000000E+00  0.00000000000E+00 -0.14714343785E+04  0.14714343786E+04  0.50400001928E-02 0.  1.
    10030    2    1    2    0    0  0.00000000000E+00  0.00000000000E+00  0.59540474588E+03  0.35382735030E+04  0.34878177376E+04 0.  0.
        1    1    3    3  502    0 -0.10373203436E+04 -0.13073580538E+04 -0.21558104386E+03  0.16827637275E+04  0.50400001928E-02 0.  1.
       -1    1    3    3    0  502  0.10373203436E+04  0.13073580538E+04  0.81098578973E+03  0.18555097755E+04  0.50400001928E-02 0. -1.
</event>
<event>
 5   0  0.8950809E-07  0.3505063E+04  0.7818609E-02  0.8112591E-01
       -2   -1    0    0    0  501  0.00000000000E+00  0.00000000000E+00  0.12761520185E+04  0.12761520186E+04  0.25500000920E-02 0.  1.
        2   -1    0    0  501    0  0.00000000000E+00  0.00000000000E+00 -0.24067398621E+04  0.24067398621E+04  0.25500000920E-02 0. -1.
    10030    2    1    2    0    0  0.00000000000E+00  0.00000000000E+00 -0.11305878435E+04  0.36828918806E+04  0.35050625861E+04 0.  0.
        2    1    3    3  502    0  0.17362254383E+04 -0.37680054408E+02 -0.31782994049E+03  0.17654785272E+04  0.25500000920E-02 0. -1.
       -2    1    3    3    0  502 -0.17362254383E+04  0.37680054408E+02 -0.81275790305E+03  0.19174133534E+04  0.25500000920E-02 0.  1.
</event>
<event>
 5   0  0.9311672E-07  0.3615524E+04  0.7818609E-02  0.8086945E-01
       -2   -1    0    0    0  501  0.00000000000E+00  0.00000000000E+00  0.18050073693E+04  0.18050073693E+04  0.25500000920E-02 0.  1.
        2   -1    0    0  501    0  0.00000000000E+00  0.00000000000E+00 -0.18105206395E+04  0.18105206395E+04  0.25500000920E-02 0. -1.
    10030    2    1    2    0    0  0.00000000000E+00  0.00000000000E+00 -0.55132702760E+01  0.36155280088E+04  0.36155238053E+04 0.  0.
        4    1    3    3  502    0  0.11819453642E+04  0.11385756619E+04 -0.76081562898E+03  0.18089199584E+04  0.12699999809E+01 0. -1.
       -4    1    3    3    0  502 -0.11819453642E+04 -0.11385756619E+04  0.75530235870E+03  0.18066080504E+04  0.12699999809E+01 0.  1.
</event>
<event>
 5   0  0.9128871E-07  0.3431797E+04  0.7818609E-02  0.8130146E-01
       -2   -1    0    0    0  501  0.00000000000E+00  0.00000000000E+00  0.12468766818E+04  0.12468766818E+04  0.25500000920E-02 0.  1.
        2   -1    0    0  501    0  0.00000000000E+00  0.00000000000E+00 -0.23613463764E+04  0.23613463764E+04  0.25500000920E-02 0. -1.
    10030    2    1    2    0    0  0.00000000000E+00  0.00000000000E+00 -0.11144696946E+04  0.36082230581E+04  0.34317970419E+04 0.  0.
        1    1    3    3  502    0  0.14366450899E+04  0.80247203679E+03 -0.10684373744E+04  0.19620063474E+04  0.50400001928E-02 0. -1.
       -1    1    3    3    0  502 -0.14366450899E+04 -0.80247203679E+03 -0.46032320236E+02  0.16462167108E+04  0.50400001928E-02 0.  1.
</event>
<event>
 5   0  0.9128871E-07  0.3501888E+04  0.7818609E-02  0.8113343E-01
       -2   -1    0    0    0  501  0.00000000000E+00  0.00000000000E+00  0.28725111166E+04  0.28725111166E+04  0.25500000920E-02 0. -1.
        2   -1    0    0  501    0  0.00000000000E+00  0.00000000000E+00 -0.10672906341E+04  0.10672906341E+04  0.25500000920E-02 0.  1.
    10030    2    1    2    0    0  0.00000000000E+00  0.00000000000E+00  0.18052204825E+04  0.39398017507E+04  0.35018876116E+04 0.  0.
        1    1    3    3  502    0 -0.39965981618E+03 -0.14186604027E+04 -0.16083300240E+03  0.14826302848E+04  0.50400001928E-02 0.  1.
       -1    1    3    3    0  502  0.39965981618E+03  0.14186604027E+04  0.19660534849E+04  0.24571714658E+04  0.50400001928E-02 0. -1.
</event>
<event>
 5   0  0.8845195E-07  0.3423068E+04  0.7818609E-02  0.8132268E-01
       -2   -1    0    0    0  501  0.00000000000E+00  0.00000000000E+00  0.28418348064E+04  0.28418348064E+04  0.25500000920E-02 0. -1.
        2   -1    0    0  501    0  0.00000000000E+00  0.00000000000E+00 -0.10307949039E+04  0.10307949039E+04  0.25500000920E-02 0.  1.
    10030    2    1    2    0    0  0.00000000000E+00  0.00000000000E+00  0.18110399025E+04  0.38726297103E+04  0.34230681186E+04 0.  0.
        5    1    3    3  502    0 -0.57629890006E+03  0.74842894677E+02  0.27267920090E+04  0.27880349050E+04  0.46999998093E+01 0. -1.
       -5    1    3    3    0  502  0.57629890006E+03 -0.74842894677E+02 -0.91575210651E+03  0.10845948053E+04  0.46999998093E+01 0.  1.
</event>
<event>
 5   0  0.8845195E-07  0.3490487E+04  0.7818609E-02  0.8116048E-01
       -2   -1    0    0    0  501  0.00000000000E+00  0.00000000000E+00  0.11613536742E+04  0.11613536742E+04  0.25500000920E-02 0. -1.
        2   -1    0    0  501    0  0.00000000000E+00  0.00000000000E+00 -0.26226929274E+04  0.26226929274E+04  0.25500000920E-02 0.  1.
    10030    2    1    2    0    0  0.00000000000E+00  0.00000000000E+00 -0.14613392532E+04  0.37840466016E+04  0.34904865377E+04 0.  0.
        5    1    3    3  502    0  0.39902561564E+03 -0.16167867742E+04 -0.12967240347E+04  0.21106246060E+04  0.46999998093E+01 0.  1.
       -5    1    3    3    0  502 -0.39902561564E+03  0.16167867742E+04 -0.16461521849E+03  0.16734219956E+04  0.46999998093E+01 0. -1.
</event>
<event>
 5   0  0.9128871E-07  0.3485726E+04  0.7818609E-02  0.8117181E-01
       -2   -1    0    0    0  501  0.00000000000E+00  0.00000000000E+00  0.12897210239E+04  0.12897210239E+04  0.25500000920E-02 0. -1.
        2   -1    0    0  501    0  0.00000000000E+00  0.00000000000E+00 -0.23552157731E+04  0.23552157731E+04  0.25500000920E-02 0.  1.
    10030    2    1    2    0    0  0.00000000000E+00  0.00000000000E+00 -0.10654947492E+04  0.36449367970E+04  0.34857259206E+04 0.  0.
        1    1    3    3  502    0  0.26477700977E+03 -0.81371658132E+03 -0.21204285458E+04  0.22865823312E+04  0.50400001928E-02 0.  1.
       -1    1    3    3    0  502 -0.26477700977E+03  0.81371658132E+03  0.10549337966E+04  0.13583544658E+04  0.50400001928E-02 0. -1.
</event>
<event>
 5   0  0.8845195E-07  0.3522218E+04  0.7818609E-02  0.8108545E-01
        2   -1    0    0  501    0  0.00000000000E+00  0.00000000000E+00  0.21637381442E+04  0.21637381443E+04  0.25500000920E-02 0. -1.
       -2   -1    0    0    0  501  0.00000000000E+00  0.00000000000E+00 -0.14334014815E+04  0.14334014815E+04  0.25500000920E-02 0.  1.
    10030    2    1    2    0    0  0.00000000000E+00  0.00000000000E+00  0.73033666272E+03  0.35971396258E+04  0.35222183133E+04 0.  0.
        5    1    3    3  502    0 -0.98497202440E+03 -0.11548604501E+04 -0.54691925337E+03  0.16133862860E+04  0.46999998093E+01 0.  1.
       -5    1    3    3    0  502  0.98497202440E+03  0.11548604501E+04  0.12772559161E+04  0.19837533398E+04  0.46999998093E+01 0. -1.
</event>
<event>
 5   0  0.9311672E-07  0.3334196E+04  0.7818609E-02  0.8154248E-01
        2   -1    0    0  501    0  0.00000000000E+00  0.00000000000E+00  0.11703756457E+04  0.11703756457E+04  0.25500000920E-02 0. -1.
       -2   -1    0    0    0  501  0.00000000000E+00  0.00000000000E+00 -0.23746349793E+04  0.23746349793E+04  0.25500000920E-02 0.  1.
    10030    2    1    2    0    0  0.00000000000E+00  0.00000000000E+00 -0.12042593336E+04  0.35450106251E+04  0.33341955236E+04 0.  0.
        4    1    3    3  502    0  0.99003760999E+03  0.87329209833E+03  0.48027618711E+03  0.14048061742E+04  0.12699999809E+01 0. -1.
       -4    1    3    3    0  502 -0.99003760999E+03 -0.87329209833E+03 -0.16845355207E+04  0.21402044509E+04  0.12699999809E+01 0.  1.
</event>
<event>
 5   0  0.3026332E-07  0.3491017E+04  0.7818609E-02  0.8115922E-01
       -1   -1    0    0    0  501  0.00000000000E+00  0.00000000000E+00  0.16385533779E+04  0.16385533780E+04  0.50400001928E-02 0. -1.
        1   -1    0    0  501    0  0.00000000000E+00  0.00000000000E+00 -0.18594448295E+04  0.18594448295E+04  0.50400001928E-02 0.  1.
    10030    2    1    2    0    0  0.00000000000E+00  0.00000000000E+00 -0.22089145153E+03  0.34979982074E+04  0.34910168183E+04 0.  0.
        1    1    3    3  502    0  0.10311540294E+04  0.13989941698E+04 -0.27305485136E+03  0.17592675383E+04  0.50400001928E-02 0. -1.
       -1    1    3    3    0  502 -0.10311540294E+04 -0.13989941698E+04  0.52163399830E+02  0.17387306691E+04  0.50400001928E-02 0.  1.
</event>
<event>
 5   0  0.6188930E-07  0.3163429E+04  0.7818609E-02  0.8198543E-01
        2   -1    0    0  501    0  0.00000000000E+00  0.00000000000E+00  0.21957947129E+04  0.21957947129E+04  0.25500000920E-02 0. -1.
       -2   -1    0    0    0  501  0.00000000000E+00  0.00000000000E+00 -0.11393690671E+04  0.11393690671E+04  0.25500000920E-02 0.  1.
    10030    2    1    2    0    0  0.00000000000E+00  0.00000000000E+00  0.10564256458E+04  0.33351637801E+04  0.31634288825E+04 0.  0.
        3    1    3    3  502    0  0.29207459192E+03 -0.13913876039E+04 -0.20264008114E+03  0.14360814894E+04  0.10100000352E+00 0.  1.
       -3    1    3    3    0  502 -0.29207459192E+03  0.13913876039E+04  0.12590657269E+04  0.18990822906E+04  0.10100000352E+00 0. -1.
</event>
<event>
 5   0  0.9128871E-07  0.3596448E+04  0.7818609E-02  0.8091306E-01
        2   -1    0    0  501    0  0.00000000000E+00  0.00000000000E+00  0.29062399712E+04  0.29062399712E+04  0.25500000920E-02 0.  1.
       -2   -1    0    0    0  501  0.00000000000E+00  0.00000000000E+00 -0.11126438174E+04  0.11126438174E+04  0.25500000920E-02 0. -1.
    10030    2    1    2    0    0  0.00000000000E+00  0.00000000000E+00  0.17935961538E+04  0.40188837886E+04  0.35964482123E+04 0.  0.
        1    1    3    3  502    0  0.14693931427E+04  0.10174464102E+04  0.11183159338E+04  0.21083035676E+04  0.50400001928E-02 0.  1.
       -1    1    3    3    0  502 -0.14693931427E+04 -0.10174464102E+04  0.67528022000E+03  0.19105802210E+04  0.50400001928E-02 0. -1.
</event>
<event>
 5   0  0.2936607E-07  0.3502950E+04  0.7818609E-02  0.8113091E-01
        1   -1    0    0  501    0  0.00000000000E+00  0.00000000000E+00  0.21112307168E+04  0.21112307168E+04  0.50400001928E-02 0. -1.
       -1   -1    0    0    0  501  0.00000000000E+00  0.00000000000E+00 -0.14530216445E+04  0.14530216445E+04  0.50400001928E-02 0.  1.
    10030    2    1    2    0    0  0.00000000000E+00  0.00000000000E+00  0.65820907237E+03  0.35642523613E+04  0.35029495732E+04 0.  0.
        2    1    3    3  502    0 -0.16245328211E+04  0.16210100687E+03  0.97445993226E+03  0.19013037061E+04  0.25500000920E-02 0. -1.
       -2    1    3    3    0  502  0.16245328211E+04 -0.16210100687E+03 -0.31625085988E+03  0.16629486552E+04  0.25500000920E-02 0.  1.
</event>
<event>
 5   0  0.6188930E-07  0.3339890E+04  0.7818609E-02  0.8152819E-01
        2   -1    0    0  501    0  0.00000000000E+00  0.00000000000E+00  0.18670593750E+04  0.18670593750E+04  0.25500000920E-02 0. -1.
       -2   -1    0    0    0  501  0.00000000000E+00  0.00000000000E+00 -0.14936406367E+04  0.14936406367E+04  0.25500000920E-02 0.  1.
    10030    2    1    2    0    0  0.00000000000E+00  0.00000000000E+00  0.37341873829E+03  0.33607000117E+04  0.33398896710E+04 0.  0.
        3    1    3    3  502    0  0.11030186498E+04 -0.60657874123E+03  0.12908742358E+04  0.18030374965E+04  0.10100000352E+00 0. -1.
       -3    1    3    3    0  502 -0.11030186498E+04  0.60657874123E+03 -0.91745549753E+03  0.15576625152E+04  0.10100000352E+00 0.  1.
</event>
<event>
 5   0  0.9128871E-07  0.3504171E+04  0.7818609E-02  0.8112802E-01
        2   -1    0    0  501    0  0.00000000000E+00  0.00000000000E+00  0.29987587866E+04  0.29987587866E+04  0.25500000920E-02 0.  1.
       -2   -1    0    0    0  501  0.00000000000E+00  0.00000000000E+00 -0.10236911753E+04  0.10236911753E+04  0.25500000920E-02 0. -1.
    10030    2    1    2    0    0  0.00000000000E+00  0.00000000000E+00  0.19750676113E+04  0.40224499620E+04  0.35041706047E+04 0.  0.
        1    1    3    3  502    0  0.11543443023E+04 -0.11671412112E+04  0.16905472283E+04  0.23564123803E+04  0.50400001928E-02 0.  1.
       -1    1    3    3    0  502 -0.11543443023E+04  0.11671412112E+04  0.28452038304E+03  0.16660375816E+04  0.50400001928E-02 0. -1.
</event>
<event>
 5   0  0.2936607E-07  0.3465433E+04  0.7818609E-02  0.8122031E-01
        1   -1    0    0  501    0  0.00000000000E+00  0.00000000000E+00  0.16706449683E+04  0.16706449683E+04  0.50400001928E-02 0. -1.
       -1   -1    0    0    0  501  0.00000000000E+00  0.00000000000E+00 -0.17970945415E+04  0.17970945415E+04  0.50400001928E-02 0.  1.
    10030    2    1    2    0    0  0.00000000000E+00  0.00000000000E+00 -0.12644957322E+03  0.34677395098E+04  0.34654332793E+04 0.  0.
        2    1    3    3  502    0  0.11184535645E+03  0.80688298424E+03 -0.15935356354E+04  0.17896718569E+04  0.25500000920E-02 0.  1.
       -2    1    3    3    0  502 -0.11184535645E+03 -0.80688298424E+03  0.14670860622E+04  0.16780676529E+04  0.25500000920E-02 0. -1.
</event>
<event>
 5   0  0.8845195E-07  0.3548058E+04  0.7818609E-02  0.8102494E-01
        2   -1    0    0  501    0  0.00000000000E+00  0.00000000000E+00  0.19422577104E+04  0.19422577104E+04  0.25500000920E-02 0.  1.
       -2   -1    0    0    0  501  0.00000000000E+00  0.00000000000E+00 -0.16203712732E+04  0.16203712732E+04  0.25500000920E-02 0. -1.
    10030    2    1    2    0    0  0.00000000000E+00  0.00000000000E+00  0.32188643717E+03  0.35626289836E+04  0.35480578344E+04 0.  0.
        5    1    3    3  502    0 -0.17146070454E+04 -0.37621545543E+03  0.41839651451E+03  0.18045756073E+04  0.46999998093E+01 0.  1.
       -5    1    3    3    0  502  0.17146070454E+04  0.37621545543E+03 -0.96510077341E+02  0.17580533763E+04  0.46999998093E+01 0. -1.
</event>
<event>
 5   0  0.3026332E-07  0.3518340E+04  0.7818609E-02  0.8109457E-01
       -1   -1    0    0    0  501  0.00000000000E+00  0.00000000000E+00  0.10592876045E+04  0.10592876045E+04  0.50400001928E-02 0. -1.
        1   -1    0    0  501    0  0.00000000000E+00  0.00000000000E+00 -0.29214725958E+04  0.29214725958E+04  0.50400001928E-02 0.  1.
    10030    2    1    2    0    0  0.00000000000E+00  0.00000000000E+00 -0.18621849913E+04  0.39807602003E+04  0.35183403517E+04 0.  0.
        1    1    3    3  502    0  0.75853629704E+03 -0.15665210453E+04 -0.64193663391E+03  0.18551140508E+04  0.50400001928E-02 0.  1.
       -1    1    3    3    0  502 -0.75853629704E+03  0.15665210453E+04 -0.12202483574E+04  0.21256461496E+04  0.50400001928E-02 0. -1.
</event>
<event>
 5   0  0.9128871E-07  0.2880395E+04  0.7818609E-02  0.8278735E-01
       -2   -1    0    0    0  501  0.00000000000E+00  0.00000000000E+00  0.15744335625E+04  0.15744335625E+04  0.25500000920E-02 0.  1.
        2   -1    0    0  501    0  0.00000000000E+00  0.00000000000E+00 -0.13174060623E+04  0.13174060623E+04  0.25500000920E-02 0. -1.
    10030    2    1    2    0    0  0.00000000000E+00  0.00000000000E+00  0.25702750017E+03  0.28918396247E+04  0.28803946395E+04 0.  0.
        1    1    3    3  502    0  0.97898975128E+03 -0.47891530806E+03  0.10737361940E+04  0.15299314428E+04  0.50400001928E-02 0.  1.
       -1    1    3    3    0  502 -0.97898975128E+03  0.47891530806E+03 -0.81670869381E+03  0.13619081819E+04  0.50400001928E-02 0. -1.
</event>
<event>
 5   0  0.8950809E-07  0.3476840E+04  0.7818609E-02  0.8119301E-01
        2   -1    0    0  501    0  0.00000000000E+00  0.00000000000E+00  0.10372407431E+04  0.10372407431E+04  0.25500000920E-02 0.  1.
       -2   -1    0    0    0  501  0.00000000000E+00  0.00000000000E+00 -0.29135996897E+04  0.29135996897E+04  0.25500000920E-02 0. -1.
    10030    2    1    2    0    0  0.00000000000E+00  0.00000000000E+00 -0.18763589466E+04  0.39508404328E+04  0.34768401213E+04 0.  0.
        2    1    3    3  502    0  0.15327755439E+03  0.91768477058E+03 -0.26068706593E+04  0.27679259350E+04  0.25500000920E-02 0. -1.
       -2    1    3    3    0  502 -0.15327755439E+03 -0.91768477058E+03  0.73051171274E+03  0.11829144979E+04  0.25500000920E-02 0.  1.
</event>
<event>
 5   0  0.3061330E-07  0.3503404E+04  0.7818609E-02  0.8112984E-01
       -1   -1    0    0    0  501  0.00000000000E+00  0.00000000000E+00  0.12998719746E+04  0.12998719746E+04  0.50400001928E-02 0. -1.
        1   -1    0    0  501    0  0.00000000000E+00  0.00000000000E+00 -0.23605862281E+04  0.23605862281E+04  0.50400001928E-02 0.  1.
    10030    2    1    2    0    0  0.00000000000E+00  0.00000000000E+00 -0.10607142536E+04  0.36604582027E+04  0.35034039913E+04 0.  0.
        5    1    3    3  502    0 -0.54830683520E+03  0.23816009285E+03  0.11899903395E+04  0.13317130748E+04  0.46999998093E+01 0. -1.
       -5    1    3    3    0  502  0.54830683520E+03 -0.23816009285E+03 -0.22507045931E+04  0.23287451279E+04  0.46999998093E+01 0.  1.
</event>
<event>
 5   0  0.2972541E-07  0.3439174E+04  0.7818609E-02  0.8128358E-01
        1   -1    0    0  501    0  0.00000000000E+00  0.00000000000E+00  0.24343067088E+04  0.24343067088E+04  0.50400001928E-02 0.  1.
       -1   -1    0    0    0  501  0.00000000000E+00  0.00000000000E+00 -0.12147112489E+04  0.12147112489E+04  0.50400001928E-02 0. -1.
    10030    2    1    2    0    0  0.00000000000E+00  0.00000000000E+00  0.12195954599E+04  0.36490179577E+04  0.34391741697E+04 0.  0.
        3    1    3    3  502    0 -0.13556168392E+04  0.10495710625E+04  0.46870536342E+03  0.17773522886E+04  0.10100000352E+00 0. -1.
       -3    1    3    3    0  502  0.13556168392E+04 -0.10495710625E+04  0.75089009653E+03  0.18716656691E+04  0.10100000352E+00 0.  1.
</event>
<event>
 5   0  0.6188930E-07  0.3470104E+04  0.7818609E-02  0.8120912E-01
       -2   -1    0    0    0  501  0.00000000000E+00  0.00000000000E+00  0.23465642860E+04  0.23465642860E+04  0.25500000920E-02 0.  1.
        2   -1    0    0  501    0  0.00000000000E+00  0.00000000000E+00 -0.12828994358E+04  0.12828994358E+04  0.25500000920E-02 0. -1.
    10030    2    1    2    0    0  0.00000000000E+00  0.00000000000E+00  0.10636648503E+04  0.36294637218E+04  0.34701043203E+04 0.  0.
        3    1    3    3  502    0 -0.11720687406E+04 -0.12398212072E+04  0.20190326580E+03  0.17180415295E+04  0.10100000352E+00 0. -1.
       -3    1    3    3    0  502  0.11720687406E+04  0.12398212072E+04  0.86176158446E+03  0.19114221922E+04  0.10100000352E+00 0.  1.
</event>
<event>
 5   0  0.8845195E-07  0.3497739E+04  0.7818609E-02  0.8114326E-01
        2   -1    0    0  501    0  0.00000000000E+00  0.00000000000E+00  0.22082332357E+04  0.22082332357E+04  0.25500000920E-02 0.  1.
       -2   -1    0    0    0  501  0.00000000000E+00  0.00000000000E+00 -0.13850644516E+04  0.13850644516E+04  0.25500000920E-02 0. -1.
    10030    2    1    2    0    0  0.00000000000E+00  0.00000000000E+00  0.82316878408E+03  0.35932976873E+04  0.34977394732E+04 0.  0.
        5    1    3    3  502    0  0.38620309944E+03 -0.86331961544E+03  0.19228449652E+04  0.21428552080E+04  0.46999998093E+01 0.  1.
       -5    1    3    3    0  502 -0.38620309944E+03  0.86331961544E+03 -0.10996761811E+04  0.14504424793E+04  0.46999998093E+01 0. -1.
</event>
<event>
 5   0  0.3061330E-07  0.3589692E+04  0.7818609E-02  0.8092857E-01
       -1   -1    0    0    0  501  0.00000000000E+00  0.00000000000E+00  0.21756960897E+04  0.21756960897E+04  0.50400001928E-02 0.  1.
        1   -1    0    0  501    0  0.00000000000E+00  0.00000000000E+00 -0.14806626215E+04  0.14806626215E+04  0.50400001928E-02 0. -1.
    10030    2    1    2    0    0  0.00000000000E+00  0.00000000000E+00  0.69503346818E+03  0.36563587111E+04  0.35896918395E+04 0.  0.
        5    1    3    3  502    0 -0.48623895436E+03 -0.35815254797E+03  0.20690983282E+04  0.21554330308E+04  0.46999998093E+01 0.  1.
       -5    1    3    3    0  502  0.48623895436E+03  0.35815254797E+03 -0.13740648600E+04  0.15009256804E+04  0.46999998093E+01 0. -1.
</event>
<event>
 5   0  0.9128871E-07  0.3472113E+04  0.7818609E-02  0.8120431E-01
       -2   -1    0    0    0  501  0.00000000000E+00  0.00000000000E+00  0.13929282106E+04  0.13929282106E+04  0.25500000920E-02 0.  1.
        2   -1    0    0  501    0  0.00000000000E+00  0.00000000000E+00 -0.21637090068E+04  0.21637090068E+04  0.25500000920E-02 0. -1.
    10030    2    1    2    0    0  0.00000000000E+00  0.00000000000E+00 -0.77078079627E+03  0.35566372174E+04  0.34721125068E+04 0.  0.
        1    1    3    3  502    0  0.11608111536E+04 -0.22064010540E+03  0.91747142833E+03  0.14959673835E+04  0.50400001928E-02 0.  1.
       -1    1    3    3    0  502 -0.11608111536E+04  0.22064010540E+03 -0.16882522246E+04  0.20606698339E+04  0.50400001928E-02 0. -1.
</event>
<event>
 5   0  0.2933506E-07  0.3042391E+04  0.7818609E-02  0.8231729E-01
        1   -1    0    0  501    0  0.00000000000E+00  0.00000000000E+00  0.22361722963E+04  0.22361722963E+04  0.50400001928E-02 0. -1.
       -1   -1    0    0    0  501  0.00000000000E+00  0.00000000000E+00 -0.10348197118E+04  0.10348197118E+04  0.50400001928E-02 0.  1.
    10030    2    1    2    0    0  0.00000000000E+00  0.00000000000E+00  0.12013525845E+04  0.32709920081E+04  0.30423906200E+04 0.  0.
        4    1    3    3  502    0  0.58128905477E+03  0.44780128729E+03 -0.83196800080E+03  0.11093220116E+04  0.12699999809E+01 0.  1.
       -4    1    3    3    0  502 -0.58128905477E+03 -0.44780128729E+03  0.20333205853E+04  0.21616699965E+04  0.12699999809E+01 0. -1.
</event>
<event>
 5   0  0.6188930E-07  0.3238654E+04  0.7818609E-02  0.8178683E-01
       -2   -1    0    0    0  501  0.00000000000E+00  0.00000000000E+00  0.16761674886E+04  0.16761674886E+04  0.25500000920E-02 0.  1.
        2   -1    0    0  501    0  0.00000000000E+00  0.00000000000E+00 -0.15644142529E+04  0.15644142529E+04  0.25500000920E-02 0. -1.
    10030    2    1    2    0    0  0.00000000000E+00  0.00000000000E+00  0.11175323566E+03  0.32405817415E+04  0.32386542325E+04 0.  0.
        3    1    3    3  502    0  0.78349975779E+03 -0.10243514062E+04  0.10357717855E+04  0.16540830921E+04  0.10100000352E+00 0.  1.
       -3    1    3    3    0  502 -0.78349975779E+03  0.10243514062E+04 -0.92401854984E+03  0.15864986494E+04  0.10100000352E+00 0. -1.
</event>
<event>
 5   0  0.9311672E-07  0.3620651E+04  0.7818609E-02  0.8085778E-01
        2   -1    0    0  501    0  0.00000000000E+00  0.00000000000E+00  0.26617867896E+04  0.26617867896E+04  0.25500000920E-02 0.  1.
       -2   -1    0    0    0  501  0.00000000000E+00  0.00000000000E+00 -0.12312323613E+04  0.12312323613E+04  0.25500000920E-02 0. -1.
    10030    2    1    2    0    0  0.00000000000E+00  0.00000000000E+00  0.14305544282E+04  0.38930191509E+04  0.36206507892E+04 0.  0.
        4    1    3    3  502    0 -0.70189109395E+03  0.40687881695E+03 -0.10248214100E+04  0.13070814874E+04  0.12699999809E+01 0. -1.
       -4    1    3    3    0  502  0.70189109395E+03 -0.40687881695E+03  0.24553758382E+04  0.25859376635E+04  0.12699999809E+01 0.  1.
</event>
<event>
 5   0  0.8950809E-07  0.3509397E+04  0.7818609E-02  0.8111567E-01
       -2   -1    0    0    0  501  0.00000000000E+00  0.00000000000E+00  0.13633659039E+04  0.13633659039E+04  0.25500000920E-02 0. -1.
        2   -1    0    0  501    0  0.00000000000E+00  0.00000000000E+00 -0.22583565702E+04  0.22583565702E+04  0.25500000920E-02 0.  1.
    10030    2    1    2    0    0  0.00000000000E+00  0.00000000000E+00 -0.89499066637E+03  0.36217224741E+04  0.35093967269E+04 0.  0.
        2    1    3    3  502    0  0.82389521055E+03  0.13280923564E+04  0.37574221526E+03  0.16074249088E+04  0.25500000920E-02 0. -1.
       -2    1    3    3    0  502 -0.82389521055E+03 -0.13280923564E+04 -0.12707328816E+04  0.20142975653E+04  0.25500000920E-02 0.  1.
</event>
<event>
 5   0  0.8950809E-07  0.3500970E+04  0.7818609E-02  0.8113560E-01
       -2   -1    0    0    0  501  0.00000000000E+00  0.00000000000E+00  0.13788691564E+04  0.13788691564E+04  0.25500000920E-02 0.  1.
        2   -1    0    0  501    0  0.00000000000E+00  0.00000000000E+00 -0.22222538379E+04  0.22222538379E+04  0.25500000920E-02 0. -1.
    10030    2    1    2    0    0  0.00000000000E+00  0.00000000000E+00 -0.84338468154E+03  0.36011229943E+04  0.35009697369E+04 0.  0.
        2    1    3    3  502    0  0.15823189402E+04  0.30749297718E+03 -0.11237965874E+04  0.19649946385E+04  0.25500000920E-02 0. -1.
       -2    1    3    3    0  502 -0.15823189402E+04 -0.30749297718E+03  0.28041190584E+03  0.16361283558E+04  0.25500000920E-02 0.  1.
</event>
<event>
 5   0  0.9128871E-07  0.3491674E+04  0.7818609E-02  0.8115766E-01
       -2   -1    0    0    0  501  0.00000000000E+00  0.00000000000E+00  0.14170784844E+04  0.14170784844E+04  0.25500000920E-02 0.  1.
        2   -1    0    0  501    0  0.00000000000E+00  0.00000000000E+00 -0.21508661519E+04  0.21508661519E+04  0.25500000920E-02 0. -1.
    10030    2    1    2    0    0  0.00000000000E+00  0.00000000000E+00 -0.73378766754E+03  0.35679446364E+04  0.34916736083E+04 0.  0.
        1    1    3    3  502    0  0.16178682091E+04  0.12970421739E+03  0.29029182482E+03  0.16488147469E+04  0.50400001928E-02 0.  1.
       -1    1    3    3    0  502 -0.16178682091E+04 -0.12970421739E+03 -0.10240794924E+04  0.19191298895E+04  0.50400001928E-02 0. -1.
</event>
<event>
 5   0  0.3061330E-07  0.3535427E+04  0.7818609E-02  0.8105445E-01
       -1   -1    0    0    0  501  0.00000000000E+00  0.00000000000E+00  0.18117230746E+04  0.18117230746E+04  0.50400001928E-02 0.  1.
        1   -1    0    0  501    0  0.00000000000E+00  0.00000000000E+00 -0.17247731801E+04  0.17247731801E+04  0.50400001928E-02 0. -1.
    10030    2    1    2    0    0  0.00000000000E+00  0.00000000000E+00  0.86949894465E+02  0.35364962548E+04  0.35354271985E+04 0.  0.
        5    1    3    3  502    0  0.58939070319E+03  0.78861253631E+03  0.15120803805E+04  0.18043559240E+04  0.46999998093E+01 0.  1.
       -5    1    3    3    0  502 -0.58939070319E+03 -0.78861253631E+03 -0.14251304860E+04  0.17321403308E+04  0.46999998093E+01 0. -1.
</event>
<event>
 5   0  0.3026332E-07  0.3471607E+04  0.7818609E-02  0.8120552E-01
       -1   -1    0    0    0  501  0.00000000000E+00  0.00000000000E+00  0.13841394324E+04  0.13841394324E+04  0.50400001928E-02 0.  1.
        1   -1    0    0  501    0  0.00000000000E+00  0.00000000000E+00 -0.21768134752E+04  0.21768134753E+04  0.50400001928E-02 0. -1.
    10030    2    1    2    0    0  0.00000000000E+00  0.00000000000E+00 -0.79267404284E+03  0.35609529077E+04  0.34716067566E+04 0.  0.
        1    1    3    3  502    0  0.14494214326E+04  0.33325784748E+03  0.52175714145E+03  0.15761071654E+04  0.50400001928E-02 0.  1.
       -1    1    3    3    0  502 -0.14494214326E+04 -0.33325784748E+03 -0.13144311843E+04  0.19848457422E+04  0.50400001928E-02 0. -1.
</event>
<event>
 5   0  0.9128871E-07  0.3484473E+04  0.7818609E-02  0.8117480E-01
       -2   -1    0    0    0  501  0.00000000000E+00  0.00000000000E+00  0.16028609368E+04  0.16028609368E+04  0.25500000920E-02 0.  1.
        2   -1    0    0  501    0  0.00000000000E+00  0.00000000000E+00 -0.18937312792E+04  0.18937312793E+04  0.25500000920E-02 0. -1.
    10030    2    1    2    0    0  0.00000000000E+00  0.00000000000E+00 -0.29087034242E+03  0.34965922161E+04  0.34844729256E+04 0.  0.
        1    1    3    3  502    0 -0.99207893854E+03  0.10062832679E+04 -0.11680779375E+04  0.18333664946E+04  0.50400001928E-02 0. -1.
       -1    1    3    3    0  502  0.99207893854E+03 -0.10062832679E+04  0.87720759505E+03  0.16632257214E+04  0.50400001928E-02 0.  1.
</event>
<event>
 5   0  0.2936607E-07  0.3504948E+04  0.7818609E-02  0.8112618E-01
        1   -1    0    0  501    0  0.00000000000E+00  0.00000000000E+00  0.22192275348E+04  0.22192275348E+04  0.50400001928E-02 0. -1.
       -1   -1    0    0    0  501  0.00000000000E+00  0.00000000000E+00 -0.13838893182E+04  0.13838893182E+04  0.50400001928E-02 0.  1.
    10030    2    1    2    0    0  0.00000000000E+00  0.00000000000E+00  0.83533821660E+03  0.36031168530E+04  0.35049480910E+04 0.  0.
        2    1    3    3  502    0 -0.11925407373E+02  0.32699436230E+03 -0.13522076150E+04  0.13912343305E+04  0.25500000920E-02 0.  1.
       -2    1    3    3    0  502  0.11925407373E+02 -0.32699436230E+03  0.21875458316E+04  0.22118825226E+04  0.25500000920E-02 0. -1.
</event>
<event>
 5   0  0.2972541E-07  0.3477617E+04  0.7818609E-02  0.8119115E-01
       -1   -1    0    0    0  501  0.00000000000E+00  0.00000000000E+00  0.11934554736E+04  0.11934554737E+04  0.50400001928E-02 0. -1.
        1   -1    0    0  501    0  0.00000000000E+00  0.00000000000E+00 -0.25333627471E+04  0.25333627471E+04  0.50400001928E-02 0.  1.
    10030    2    1    2    0    0  0.00000000000E+00  0.00000000000E+00 -0.13399072735E+04  0.37268182208E+04  0.34776173667E+04 0.  0.
        3    1    3    3  502    0 -0.42665832235E+03  0.12660175751E+04 -0.18626367576E+04  0.22922158549E+04  0.10100000352E+00 0.  1.
       -3    1    3    3    0  502  0.42665832235E+03 -0.12660175751E+04  0.52272948414E+03  0.14346023659E+04  0.10100000352E+00 0. -1.
</event>
<event>
 5   0  0.2933506E-07  0.3425852E+04  0.7818609E-02  0.8131590E-01
        1   -1    0    0  501    0  0.00000000000E+00  0.00000000000E+00  0.18993691438E+04  0.18993691438E+04  0.50400001928E-02 0.  1.
       -1   -1    0    0    0  501  0.00000000000E+00  0.00000000000E+00 -0.15447840388E+04  0.15447840388E+04  0.50400001928E-02 0. -1.
    10030    2    1    2    0    0  0.00000000000E+00  0.00000000000E+00  0.35458510503E+03  0.34441531826E+04  0.34258517990E+04 0.  0.
        4    1    3    3  502    0  0.90013000961E+02 -0.16233172649E+04  0.71948079407E+03  0.17778963718E+04  0.12699999809E+01 0.  1.
       -4    1    3    3    0  502 -0.90013000961E+02  0.16233172649E+04 -0.36489568904E+03  0.16662568108E+04  0.12699999809E+01 0. -1.
</event>
<event>
 5   0  0.9128871E-07  0.3493234E+04  0.7818609E-02  0.8115395E-01
       -2   -1    0    0    0  501  0.00000000000E+00  0.00000000000E+00  0.16848894795E+04  0.16848894795E+04  0.25500000920E-02 0.  1.
        2   -1    0    0  501    0  0.00000000000E+00  0.00000000000E+00 -0.18106061576E+04  0.18106061576E+04  0.25500000920E-02 0. -1.
    10030    2    1    2    0    0  0.00000000000E+00  0.00000000000E+00 -0.12571667805E+03  0.34954956371E+04  0.34932341842E+04 0.  0.
        1    1    3    3  502    0  0.10045012963E+03 -0.16656363025E+04 -0.57917371776E+03  0.17663172751E+04  0.50400001928E-02 0. -1.
       -1    1    3    3    0  502 -0.10045012963E+03  0.16656363025E+04  0.45345703971E+03  0.17291783620E+04  0.50400001928E-02 0.  1.
</event>
<event>
 5   0  0.2936607E-07  0.3498932E+04  0.7818609E-02  0.8114043E-01
       -1   -1    0    0    0  501  0.00000000000E+00  0.00000000000E+00  0.13696623270E+04  0.13696623270E+04  0.50400001928E-02 0. -1.
        1   -1    0    0  501    0  0.00000000000E+00  0.00000000000E+00 -0.22345881715E+04  0.22345881715E+04  0.50400001928E-02 0.  1.
    10030    2    1    2    0    0  0.00000000000E+00  0.00000000000E+00 -0.86492584451E+03  0.36042504985E+04  0.34989319712E+04 0.  0.
        2    1    3    3  502    0  0.12869082734E+03 -0.14287281109E+04  0.59908143266E+03  0.15545815858E+04  0.25500000920E-02 0. -1.
       -2    1    3    3    0  502 -0.12869082734E+03  0.14287281109E+04 -0.14640072772E+04  0.20496689127E+04  0.25500000920E-02 0.  1.
</event>
<event>
 5   0  0.2972541E-07  0.3499710E+04  0.7818609E-02  0.8113859E-01
        1   -1    0    0  501    0  0.00000000000E+00  0.00000000000E+00  0.23531993623E+04  0.23531993623E+04  0.50400001928E-02 0.  1.
       -1   -1    0    0    0  501  0.00000000000E+00  0.00000000000E+00 -0.13012040836E+04  0.13012040836E+04  0.50400001928E-02 0. -1.
    10030    2    1    2    0    0  0.00000000000E+00  0.00000000000E+00  0.10519952787E+04  0.36544034459E+04  0.34997100564E+04 0.  0.
        3    1    3    3  502    0 -0.49027489889E+03  0.16598000955E+04  0.25634524125E+03  0.17495767278E+04  0.10100000352E+00 0. -1.
       -3    1    3    3    0  502  0.49027489889E+03 -0.16598000955E+04  0.79565003747E+03  0.19048267181E+04  0.10100000352E+00 0.  1.
</event>
<event>
 5   0  0.3061330E-07  0.3481371E+04  0.7818609E-02  0.8118219E-01
       -1   -1    0    0    0  501  0.00000000000E+00  0.00000000000E+00  0.21469891935E+04  0.21469891935E+04  0.50400001928E-02 0.  1.
        1   -1    0    0  501    0  0.00000000000E+00  0.00000000000E+00 -0.14112723255E+04  0.14112723255E+04  0.50400001928E-02 0. -1.
    10030    2    1    2    0    0  0.00000000000E+00  0.00000000000E+00  0.73571686802E+03  0.35582615190E+04  0.34813712425E+04 0.  0.
        5    1    3    3  502    0  0.10459779073E+04 -0.41029025030E+03  0.17267167457E+04  0.20600923965E+04  0.46999998093E+01 0.  1.
       -5    1    3    3    0  502 -0.10459779073E+04  0.41029025030E+03 -0.99099987770E+03  0.14981691225E+04  0.46999998093E+01 0. -1.
</event>
<event>
 5   0  0.9128871E-07  0.3540361E+04  0.7818609E-02  0.8104291E-01
        2   -1    0    0  501    0  0.00000000000E+00  0.00000000000E+00  0.13572449636E+04  0.13572449636E+04  0.25500000920E-02 0.  1.
       -2   -1    0    0    0  501  0.00000000000E+00  0.00000000000E+00 -0.23087495911E+04  0.23087495911E+04  0.25500000920E-02 0. -1.
    10030    2    1    2    0    0  0.00000000000E+00  0.00000000000E+00 -0.95150462743E+03  0.36659945547E+04  0.35403608600E+04 0.  0.
        1    1    3    3  502    0 -0.17170282545E+04 -0.61187556198E+02 -0.91703078717E+03  0.19475305924E+04  0.50400001928E-02 0. -1.
       -1    1    3    3    0  502  0.17170282545E+04  0.61187556198E+02 -0.34473840261E+02  0.17184639622E+04  0.50400001928E-02 0.  1.
</event>
<event>
 5   0  0.3061330E-07  0.3437079E+04  0.7818609E-02  0.8128865E-01
       -1   -1    0    0    0  501  0.00000000000E+00  0.00000000000E+00  0.19882382969E+04  0.19882382969E+04  0.50400001928E-02 0. -1.
        1   -1    0    0  501    0  0.00000000000E+00  0.00000000000E+00 -0.14854247259E+04  0.14854247259E+04  0.50400001928E-02 0.  1.
    10030    2    1    2    0    0  0.00000000000E+00  0.00000000000E+00  0.50281357100E+03  0.34736630228E+04  0.34370791828E+04 0.  0.
        5    1    3    3  502    0  0.12236027888E+03 -0.14014235020E+04  0.12490286900E+04  0.18812375257E+04  0.46999998093E+01 0. -1.
       -5    1    3    3    0  502 -0.12236027888E+03  0.14014235020E+04 -0.74621511901E+03  0.15924254970E+04  0.46999998093E+01 0.  1.
</event>
<event>
 5   0  0.2972541E-07  0.3456203E+04  0.7818609E-02  0.8124248E-01
        1   -1    0    0  501    0  0.00000000000E+00  0.00000000000E+00  0.11217044641E+04  0.11217044641E+04  0.50400001928E-02 0.  1.
       -1   -1    0    0    0  501  0.00000000000E+00  0.00000000000E+00 -0.26623183930E+04  0.26623183930E+04  0.50400001928E-02 0. -1.
    10030    2    1    2    0    0  0.00000000000E+00  0.00000000000E+00 -0.15406139288E+04  0.37840228571E+04  0.34562027871E+04 0.  0.
        3    1    3    3  502    0  0.13611421292E+04 -0.89328657891E+03 -0.14046263119E+04  0.21502660055E+04  0.10100000352E+00 0. -1.
       -3    1    3    3    0  502 -0.13611421292E+04  0.89328657891E+03 -0.13598761689E+03  0.16337568516E+04  0.10100000352E+00 0.  1.
</event>
<event>
 5   0  0.2907000E-07  0.3496747E+04  0.7818609E-02  0.8114561E-01
       -3   -1    0    0    0  501  0.00000000000E+00  0.00000000000E+00  0.16005399270E+04  0.16005399302E+04  0.10100000352E+00 0. -1.
        3   -1    0    0  501    0  0.00000000000E+00  0.00000000000E+00 -0.19098615503E+04  0.19098615529E+04  0.10100000352E+00 0.  1.
    10030    2    1    2    0    0  0.00000000000E+00  0.00000000000E+00 -0.30932162325E+03  0.35104014832E+04  0.34967468748E+04 0.  0.
        5    1    3    3  502    0 -0.10890118170E+04 -0.10541646062E+04  0.72028012109E+03  0.16781046741E+04  0.46999998093E+01 0. -1.
       -5    1    3    3    0  502  0.10890118170E+04  0.10541646062E+04 -0.10296017443E+04  0.18322968090E+04  0.46999998093E+01 0.  1.
</event>
<event>
 5   0  0.8950809E-07  0.3463432E+04  0.7818609E-02  0.8122511E-01
       -2   -1    0    0    0  501  0.00000000000E+00  0.00000000000E+00  0.12924247004E+04  0.12924247004E+04  0.25500000920E-02 0. -1.
        2   -1    0    0  501    0  0.00000000000E+00  0.00000000000E+00 -0.23203214748E+04  0.23203214748E+04  0.25500000920E-02 0.  1.
    10030    2    1    2    0    0  0.00000000000E+00  0.00000000000E+00 -0.10278967744E+04  0.36127461753E+04  0.34634322785E+04 0.  0.
        2    1    3    3  502    0 -0.90750415429E+02 -0.75063688271E+03 -0.21390443308E+04  0.22687445905E+04  0.25500000920E-02 0.  1.
       -2    1    3    3    0  502  0.90750415429E+02  0.75063688271E+03  0.11111475565E+04  0.13440015848E+04  0.25500000920E-02 0. -1.
</event>
<event>
 5   0  0.2936607E-07  0.3465973E+04  0.7818609E-02  0.8121902E-01
        1   -1    0    0  501    0  0.00000000000E+00  0.00000000000E+00  0.10440504379E+04  0.10440504379E+04  0.50400001928E-02 0.  1.
       -1   -1    0    0    0  501  0.00000000000E+00  0.00000000000E+00 -0.28765292332E+04  0.28765292332E+04  0.50400001928E-02 0. -1.
    10030    2    1    2    0    0  0.00000000000E+00  0.00000000000E+00 -0.18324787953E+04  0.39205796711E+04  0.34659726517E+04 0.  0.
        2    1    3    3  502    0  0.14447424294E+04 -0.23310578319E+02 -0.19985072684E+04  0.24661417989E+04  0.25500000920E-02 0. -1.
       -2    1    3    3    0  502 -0.14447424294E+04  0.23310578319E+02  0.16602847313E+03  0.14544378722E+04  0.25500000920E-02 0.  1.
</event>
<event>
 5   0  0.8845195E-07  0.3497740E+04  0.7818609E-02  0.8114326E-01
        2   -1    0    0  501    0  0.00000000000E+00  0.00000000000E+00  0.22907224660E+04  0.22907224660E+04  0.25500000920E-02 0.  1.
       -2   -1    0    0    0  501  0.00000000000E+00  0.00000000000E+00 -0.13351881864E+04  0.13351881864E+04  0.25500000920E-02 0. -1.
    10030    2    1    2    0    0  0.00000000000E+00  0.00000000000E+00  0.95553427965E+03  0.36259106524E+04  0.34977395986E+04 0.  0.
        5    1    3    3  502    0  0.14543869040E+04 -0.92216709215E+03  0.79371416848E+03  0.18962166764E+04  0.46999998093E+01 0.  1.
       -5    1    3    3    0  502 -0.14543869040E+04  0.92216709215E+03  0.16182011118E+03  0.17296939761E+04  0.46999998093E+01 0. -1.
</event>
<event>
 5   0  0.9311672E-07  0.3531936E+04  0.7818609E-02  0.8106263E-01
        2   -1    0    0  501    0  0.00000000000E+00  0.00000000000E+00  0.19740858860E+04  0.19740858860E+04  0.25500000920E-02 0. -1.
       -2   -1    0    0    0  501  0.00000000000E+00  0.00000000000E+00 -0.15797909192E+04  0.15797909192E+04  0.25500000920E-02 0.  1.
    10030    2    1    2    0    0  0.00000000000E+00  0.00000000000E+00  0.39429496686E+03  0.35538768052E+04  0.35319359883E+04 0.  0.
        4    1    3    3  502    0  0.12494229257E+04  0.78849161750E+02  0.14504235622E+04  0.19159866806E+04  0.12699999809E+01 0. -1.
       -4    1    3    3    0  502 -0.12494229257E+04 -0.78849161750E+02 -0.10561285953E+04  0.16378901246E+04  0.12699999809E+01 0.  1.
</event>
<event>
 5   0  0.9311672E-07  0.3411654E+04  0.7818609E-02  0.8135052E-01
       -2   -1    0    0    0  501  0.00000000000E+00  0.00000000000E+00  0.25944426506E+04  0.25944426506E+04  0.25500000920E-02 0.  1.
        2   -1    0    0  501    0  0.00000000000E+00  0.00000000000E+00 -0.11215687401E+04  0.11215687401E+04  0.25500000920E-02 0. -1.
    10030    2    1    2    0    0  0.00000000000E+00  0.00000000000E+00  0.14728739105E+04  0.37160113907E+04  0.34116540123E+04 0.  0.
        4    1    3    3  502    0  0.20755243664E+02 -0.76424220234E+03  0.23973846730E+04  0.25163369820E+04  0.12699999809E+01 0.  1.
       -4    1    3    3    0  502 -0.20755243664E+02  0.76424220234E+03 -0.92451076252E+03  0.11996744087E+04  0.12699999809E+01 0. -1.
</event>
<event>
 5   0  0.3061330E-07  0.3491380E+04  0.7818609E-02  0.8115836E-01
        1   -1    0    0  501    0  0.00000000000E+00  0.00000000000E+00  0.19503730887E+04  0.19503730887E+04  0.50400001928E-02 0. -1.
       -1   -1    0    0    0  501  0.00000000000E+00  0.00000000000E+00 -0.15624874601E+04  0.15624874602E+04  0.50400001928E-02 0.  1.
    10030    2    1    2    0    0  0.00000000000E+00  0.00000000000E+00  0.38788562854E+03  0.35128605488E+04  0.34913799528E+04 0.  0.
        5    1    3    3  502    0 -0.57858799384E+03 -0.33962361416E+03  0.18154732922E+04  0.19354776234E+04  0.46999998093E+01 0. -1.
       -5    1    3    3    0  502  0.57858799384E+03  0.33962361416E+03 -0.14275876637E+04  0.15773829254E+04  0.46999998093E+01 0.  1.
</event>
<event>
 5   0  0.3061330E-07  0.3035053E+04  0.7818609E-02  0.8233792E-01
        1   -1    0    0  501    0  0.00000000000E+00  0.00000000000E+00  0.17347789680E+04  0.17347789680E+04  0.50400001928E-02 0.  1.
       -1   -1    0    0    0  501  0.00000000000E+00  0.00000000000E+00 -0.13274808936E+04  0.13274808936E+04  0.50400001928E-02 0. -1.
    10030    2    1    2    0    0  0.00000000000E+00  0.00000000000E+00  0.40729807439E+03  0.30622598617E+04  0.30350525101E+04 0.  0.
        5    1    3    3  502    0 -0.77843409975E+03  0.76754507098E+03 -0.85829675836E+03  0.13898850668E+04  0.46999998093E+01 0. -1.
       -5    1    3    3    0  502  0.77843409975E+03 -0.76754507098E+03  0.12655948328E+04  0.16723747948E+04  0.46999998093E+01 0.  1.
</event>
<event>
 5   0  0.3061330E-07  0.3531495E+04  0.7818609E-02  0.8106366E-01
       -1   -1    0    0    0  501  0.00000000000E+00  0.00000000000E+00  0.11197855173E+04  0.11197855173E+04  0.50400001928E-02 0. -1.
        1   -1    0    0  501    0  0.00000000000E+00  0.00000000000E+00 -0.27843405577E+04  0.27843405577E+04  0.50400001928E-02 0.  1.
    10030    2    1    2    0    0  0.00000000000E+00  0.00000000000E+00 -0.16645550404E+04  0.39041260750E+04  0.35314949988E+04 0.  0.
        5    1    3    3  502    0 -0.90783858207E+03 -0.13554517715E+04 -0.85401695578E+02  0.16336266206E+04  0.46999998093E+01 0. -1.
       -5    1    3    3    0  502  0.90783858207E+03  0.13554517715E+04 -0.15791533448E+04  0.22704994544E+04  0.46999998093E+01 0.  1.
</event>
<event>
 5   0  0.9311672E-07  0.3565119E+04  0.7818609E-02  0.8098529E-01
        2   -1    0    0  501    0  0.00000000000E+00  0.00000000000E+00  0.25700425086E+04  0.25700425086E+04  0.25500000920E-02 0.  1.
       -2   -1    0    0    0  501  0.00000000000E+00  0.00000000000E+00 -0.12363677009E+04  0.12363677009E+04  0.25500000920E-02 0. -1.
    10030    2    1    2    0    0  0.00000000000E+00  0.00000000000E+00  0.13336748077E+04  0.38064102095E+04  0.35651185380E+04 0.  0.
        4    1    3    3  502    0  0.10451119245E+04 -0.12738517477E+04 -0.59310442574E+02  0.16487803223E+04  0.12699999809E+01 0. -1.
       -4    1    3    3    0  502 -0.10451119245E+04  0.12738517477E+04  0.13929852503E+04  0.21576298872E+04  0.12699999809E+01 0.  1.
</event>
<event>
 5   0  0.6188930E-07  0.3410747E+04  0.7818609E-02  0.8135274E-01
       -2   -1    0    0    0  501  0.00000000000E+00  0.00000000000E+00  0.26143959017E+04  0.26143959017E+04  0.25500000920E-02 0.  1.
        2   -1    0    0  501    0  0.00000000000E+00  0.00000000000E+00 -0.11124172914E+04  0.11124172914E+04  0.25500000920E-02 0. -1.
    10030    2    1    2    0    0  0.00000000000E+00  0.00000000000E+00  0.15019786102E+04  0.37268131931E+04  0.34107472540E+04 0.  0.
        3    1    3    3  502    0  0.70288386836E+03  0.47390300212E+03  0.23678677140E+04  0.25150402201E+04  0.10100000352E+00 0.  1.
       -3    1    3    3    0  502 -0.70288386836E+03 -0.47390300212E+03 -0.86588910376E+03  0.12117729730E+04  0.10100000352E+00 0. -1.
</event>
<event>
 5   0  0.2972541E-07  0.3326583E+04  0.7818609E-02  0.8156164E-01
        1   -1    0    0  501    0  0.00000000000E+00  0.00000000000E+00  0.14125809965E+04  0.14125809965E+04  0.50400001928E-02 0. -1.
       -1   -1    0    0    0  501  0.00000000000E+00  0.00000000000E+00 -0.19584992056E+04  0.19584992056E+04  0.50400001928E-02 0.  1.
    10030    2    1    2    0    0  0.00000000000E+00  0.00000000000E+00 -0.54591820910E+03  0.33710802020E+04  0.33265830874E+04 0.  0.
        3    1    3    3  502    0 -0.26980152009E+03  0.15722068996E+04 -0.75033498367E+03  0.17628471271E+04  0.10100000352E+00 0. -1.
       -3    1    3    3    0  502  0.26980152009E+03 -0.15722068996E+04  0.20441677457E+03  0.16082330750E+04  0.10100000352E+00 0.  1.
</event>
<event>
 5   0  0.9311672E-07  0.3503822E+04  0.7818609E-02  0.8112885E-01
       -2   -1    0    0    0  501  0.00000000000E+00  0.00000000000E+00  0.25490523211E+04  0.25490523211E+04  0.25500000920E-02 0. -1.
        2   -1    0    0  501    0  0.00000000000E+00  0.00000000000E+00 -0.12040519119E+04  0.12040519119E+04  0.25500000920E-02 0.  1.
    10030    2    1    2    0    0  0.00000000000E+00  0.00000000000E+00  0.13450004092E+04  0.37531042330E+04  0.35038215255E+04 0.  0.
        4    1    3    3  502    0 -0.94925714881E+03  0.60130073517E+03 -0.76720044352E+03  0.13606064244E+04  0.12699999809E+01 0.  1.
       -4    1    3    3    0  502  0.94925714881E+03 -0.60130073517E+03  0.21122008528E+04  0.23924978086E+04  0.12699999809E+01 0. -1.
</event>
<event>
 5   0  0.9128871E-07  0.3524643E+04  0.7818609E-02  0.8107975E-01
        2   -1    0    0  501    0  0.00000000000E+00  0.00000000000E+00  0.21787905397E+04  0.21787905397E+04  0.25500000920E-02 0. -1.
       -2   -1    0    0    0  501  0.00000000000E+00  0.00000000000E+00 -0.14254589815E+04  0.14254589815E+04  0.25500000920E-02 0.  1.
    10030    2    1    2    0    0  0.00000000000E+00  0.00000000000E+00  0.75333155820E+03  0.36042495211E+04  0.35246427016E+04 0.  0.
        1    1    3    3  502    0 -0.17543133884E+04 -0.61025447065E+02  0.21681179708E+03  0.17687133531E+04  0.50400001928E-02 0. -1.
       -1    1    3    3    0  502  0.17543133884E+04  0.61025447065E+02  0.53651976112E+03  0.18355361680E+04  0.50400001928E-02 0.  1.
</event>
<event>
 5   0  0.3026332E-07  0.2840291E+04  0.7818609E-02  0.8290868E-01
        1   -1    0    0  501    0  0.00000000000E+00  0.00000000000E+00  0.16114800070E+04  0.16114800070E+04  0.50400001928E-02 0. -1.
       -1   -1    0    0    0  501  0.00000000000E+00  0.00000000000E+00 -0.12515288883E+04  0.12515288883E+04  0.50400001928E-02 0.  1.
    10030    2    1    2    0    0  0.00000000000E+00  0.00000000000E+00  0.35995111867E+03  0.28630088953E+04  0.28402913806E+04 0.  0.
        1    1    3    3  502    0 -0.61278332607E+03 -0.12728884549E+04  0.33675593033E+02  0.14131109189E+04  0.50400001928E-02 0.  1.
       -1    1    3    3    0  502  0.61278332607E+03  0.12728884549E+04  0.32627552564E+03  0.14498979764E+04  0.50400001928E-02 0. -1.
</event>
<event>
 5   0  0.6188930E-07  0.3488084E+04  0.7818609E-02  0.8116620E-01
        2   -1    0    0  501    0  0.00000000000E+00  0.00000000000E+00  0.13501447417E+04  0.13501447417E+04  0.25500000920E-02 0. -1.
       -2   -1    0    0    0  501  0.00000000000E+00  0.00000000000E+00 -0.22528570179E+04  0.22528570179E+04  0.25500000920E-02 0.  1.
    10030    2    1    2    0    0  0.00000000000E+00  0.00000000000E+00 -0.90271227620E+03  0.36030017597E+04  0.34880843204E+04 0.  0.
        3    1    3    3  502    0 -0.14315843627E+02 -0.16999478040E+04 -0.85361597906E+03  0.19022848708E+04  0.10100000352E+00 0.  1.
       -3    1    3    3    0  502  0.14315843627E+02  0.16999478040E+04 -0.49096297142E+02  0.17007168889E+04  0.10100000352E+00 0. -1.
</event>
<event>
 5   0  0.3026332E-07  0.3492077E+04  0.7818609E-02  0.8115670E-01
       -1   -1    0    0    0  501  0.00000000000E+00  0.00000000000E+00  0.18988476576E+04  0.18988476576E+04  0.50400001928E-02 0.  1.
        1   -1    0    0  501    0  0.00000000000E+00  0.00000000000E+00 -0.16055269023E+04  0.16055269023E+04  0.50400001928E-02 0. -1.
    10030    2    1    2    0    0  0.00000000000E+00  0.00000000000E+00  0.29332075529E+03  0.35043745600E+04  0.34920773175E+04 0.  0.
        1    1    3    3  502    0  0.10719093605E+04 -0.63458148859E+03  0.13744752128E+04  0.18549569950E+04  0.50400001928E-02 0.  1.
       -1    1    3    3    0  502 -0.10719093605E+04  0.63458148859E+03 -0.10811544575E+04  0.16494175650E+04  0.50400001928E-02 0. -1.
</event>
<event>
 5   0  0.3061330E-07  0.3474182E+04  0.7818609E-02  0.8119936E-01
        1   -1    0    0  501    0  0.00000000000E+00  0.00000000000E+00  0.21394667523E+04  0.21394667523E+04  0.50400001928E-02 0. -1.
       -1   -1    0    0    0  501  0.00000000000E+00  0.00000000000E+00 -0.14103914434E+04  0.14103914434E+04  0.50400001928E-02 0.  1.
    10030    2    1    2    0    0  0.00000000000E+00  0.00000000000E+00  0.72907530892E+03  0.35498581957E+04  0.34741822640E+04 0.  0.
        5    1    3    3  502    0  0.20453241277E+03  0.14978016462E+04 -0.50980017328E+03  0.15953562567E+04  0.46999998093E+01 0.  1.
       -5    1    3    3    0  502 -0.20453241277E+03 -0.14978016462E+04  0.12388754822E+04  0.19545019390E+04  0.46999998093E+01 0. -1.
</event>
<event>
 5   0  0.2907000E-07  0.3544624E+04  0.7818609E-02  0.8103295E-01
       -3   -1    0    0    0  501  0.00000000000E+00  0.00000000000E+00  0.13787532576E+04  0.13787532613E+04  0.10100000352E+00 0. -1.
        3   -1    0    0  501    0  0.00000000000E+00  0.00000000000E+00 -0.22782103445E+04  0.22782103467E+04  0.10100000352E+00 0.  1.
    10030    2    1    2    0    0  0.00000000000E+00  0.00000000000E+00 -0.89945708686E+03  0.36569636080E+04  0.35446240674E+04 0.  0.
        3    1    3    3  502    0  0.15866470184E+04  0.68725847721E+03 -0.85105173655E+03  0.19271901941E+04  0.10100000352E+00 0.  1.
       -3    1    3    3    0  502 -0.15866470184E+04 -0.68725847721E+03 -0.48405350310E+02  0.17297734140E+04  0.10100000352E+00 0. -1.
</event>
<event>
 5   0  0.3026332E-07  0.3547932E+04  0.7818609E-02  0.8102524E-01
        1   -1    0    0  501    0  0.00000000000E+00  0.00000000000E+00  0.15776734247E+04  0.15776734247E+04  0.50400001928E-02 0. -1.
       -1   -1    0    0    0  501  0.00000000000E+00  0.00000000000E+00 -0.19946813974E+04  0.19946813974E+04  0.50400001928E-02 0.  1.
    10030    2    1    2    0    0  0.00000000000E+00  0.00000000000E+00 -0.41700797272E+03  0.35723548221E+04  0.35479322606E+04 0.  0.
        1    1    3    3  502    0 -0.24038976998E+03  0.16099641497E+03 -0.19707656801E+04  0.19918896689E+04  0.50400001928E-02 0.  1.
       -1    1    3    3    0  502  0.24038976998E+03 -0.16099641497E+03  0.15537577074E+04  0.15804651532E+04  0.50400001928E-02 0. -1.
</event>
<event>
 5   0  0.2933506E-07  0.3501814E+04  0.7818609E-02  0.8113360E-01
        1   -1    0    0  501    0  0.00000000000E+00  0.00000000000E+00  0.28126168376E+04  0.28126168376E+04  0.50400001928E-02 0.  1.
       -1   -1    0    0    0  501  0.00000000000E+00  0.00000000000E+00 -0.10899726625E+04  0.10899726625E+04  0.50400001928E-02 0. -1.
    10030    2    1    2    0    0  0.00000000000E+00  0.00000000000E+00  0.17226441751E+04  0.39025895001E+04  0.35018140802E+04 0.  0.
        4    1    3    3  502    0 -0.42805041088E+02 -0.16564062023E+04  0.14919067037E+04  0.22296414519E+04  0.12699999809E+01 0.  1.
       -4    1    3    3    0  502  0.42805041088E+02  0.16564062023E+04  0.23073747148E+03  0.16729480483E+04  0.12699999809E+01 0. -1.
</event>
<event>
 5   0  0.2907000E-07  0.3506189E+04  0.7818609E-02  0.8112325E-01
        3   -1    0    0  501    0  0.00000000000E+00  0.00000000000E+00  0.13831449229E+04  0.13831449266E+04  0.10100000352E+00 0.  1.
       -3   -1    0    0    0  501  0.00000000000E+00  0.00000000000E+00 -0.22219949864E+04  0.22219949887E+04  0.10100000352E+00 0. -1.
    10030    2    1    2    0    0  0.00000000000E+00  0.00000000000E+00 -0.83885006350E+03  0.36051399154E+04  0.35061894388E+04 0.  0.
        3    1    3    3  502    0 -0.16819221641E+04 -0.20838412119E+03 -0.88047092825E+03  0.19098468980E+04  0.10100000352E+00 0. -1.
       -3    1    3    3    0  502  0.16819221641E+04  0.20838412119E+03  0.41620864752E+02  0.16952930174E+04  0.10100000352E+00 0.  1.
</event>
<event>
 5   0  0.6188930E-07  0.3507677E+04  0.7818609E-02  0.8111973E-01
       -2   -1    0    0    0  501  0.00000000000E+00  0.00000000000E+00  0.16845077436E+04  0.16845077436E+04  0.25500000920E-02 0.  1.
        2   -1    0    0  501    0  0.00000000000E+00  0.00000000000E+00 -0.18260229811E+04  0.18260229811E+04  0.25500000920E-02 0. -1.
    10030    2    1    2    0    0  0.00000000000E+00  0.00000000000E+00 -0.14151523746E+03  0.35105307248E+04  0.35076772096E+04 0.  0.
        3    1    3    3  502    0  0.77366694871E+02 -0.46870786647E+03  0.16188921945E+04  0.16871528138E+04  0.10100000352E+00 0.  1.
       -3    1    3    3    0  502 -0.77366694871E+02  0.46870786647E+03 -0.17604074319E+04  0.18233779110E+04  0.10100000352E+00 0. -1.
</event>
<event>
 5   0  0.3026332E-07  0.3413616E+04  0.7818609E-02  0.8134573E-01
       -1   -1    0    0    0  501  0.00000000000E+00  0.00000000000E+00  0.15288775943E+04  0.15288775943E+04  0.50400001928E-02 0. -1.
        1   -1    0    0  501    0  0.00000000000E+00  0.00000000000E+00 -0.19054458199E+04  0.19054458199E+04  0.50400001928E-02 0.  1.
    10030    2    1    2    0    0  0.00000000000E+00  0.00000000000E+00 -0.37656822559E+03  0.34343234142E+04  0.34136159252E+04 0.  0.
        1    1    3    3  502    0  0.13119879846E+04 -0.80445423274E+03 -0.93082250027E+03  0.17985798874E+04  0.50400001928E-02 0.  1.
       -1    1    3    3    0  502 -0.13119879846E+04  0.80445423274E+03  0.55425427467E+03  0.16357435268E+04  0.50400001928E-02 0. -1.
</event>
<event>
 5   0  0.2936607E-07  0.3465342E+04  0.7818609E-02  0.8122053E-01
       -1   -1    0    0    0  501  0.00000000000E+00  0.00000000000E+00  0.11752461055E+04  0.11752461055E+04  0.50400001928E-02 0.  1.
        1   -1    0    0  501    0  0.00000000000E+00  0.00000000000E+00 -0.25544848559E+04  0.25544848559E+04  0.50400001928E-02 0. -1.
    10030    2    1    2    0    0  0.00000000000E+00  0.00000000000E+00 -0.13792387504E+04  0.37297309615E+04  0.34653417601E+04 0.  0.
        2    1    3    3  502    0 -0.14830378694E+04 -0.26201301524E+03 -0.16117828834E+04  0.22058776497E+04  0.25500000920E-02 0. -1.
       -2    1    3    3    0  502  0.14830378694E+04  0.26201301524E+03  0.23254413294E+03  0.15238533118E+04  0.25500000920E-02 0.  1.
</event>
<event>
 5   0  0.2972541E-07  0.2820866E+04  0.7818609E-02  0.8296819E-01
       -1   -1    0    0    0  501  0.00000000000E+00  0.00000000000E+00  0.14265912622E+04  0.14265912622E+04  0.50400001928E-02 0. -1.
        1   -1    0    0  501    0  0.00000000000E+00  0.00000000000E+00 -0.13944576682E+04  0.13944576683E+04  0.50400001928E-02 0.  1.
    10030    2    1    2    0    0  0.00000000000E+00  0.00000000000E+00  0.32133593997E+02  0.28210489305E+04  0.28208659132E+04 0.  0.
        3    1    3    3  502    0 -0.33733055188E+03 -0.44974875865E+03  0.13096944079E+04  0.14252597306E+04  0.10100000352E+00 0. -1.
       -3    1    3    3    0  502  0.33733055188E+03  0.44974875865E+03 -0.12775608140E+04  0.13957891999E+04  0.10100000352E+00 0.  1.
</event>
<event>
 5   0  0.9128871E-07  0.3462170E+04  0.7818609E-02  0.8122814E-01
        2   -1    0    0  501    0  0.00000000000E+00  0.00000000000E+00  0.17713214064E+04  0.17713214064E+04  0.25500000920E-02 0.  1.
       -2   -1    0    0    0  501  0.00000000000E+00  0.00000000000E+00 -0.16917625554E+04  0.16917625554E+04  0.25500000920E-02 0. -1.
    10030    2    1    2    0    0  0.00000000000E+00  0.00000000000E+00  0.79558851050E+02  0.34630839618E+04  0.34621699721E+04 0.  0.
        1    1    3    3  502    0 -0.15647856133E+04 -0.35245855391E+03  0.69100750437E+03  0.17465029112E+04  0.50400001928E-02 0.  1.
       -1    1    3    3    0  502  0.15647856133E+04  0.35245855391E+03 -0.61144865332E+03  0.17165810506E+04  0.50400001928E-02 0. -1.
</event>
<event>
 5   0  0.6188930E-07  0.3510002E+04  0.7818609E-02  0.8111424E-01
        2   -1    0    0  501    0  0.00000000000E+00  0.00000000000E+00  0.20426757739E+04  0.20426757739E+04  0.25500000920E-02 0. -1.
       -2   -1    0    0    0  501  0.00000000000E+00  0.00000000000E+00 -0.15078399968E+04  0.15078399968E+04  0.25500000920E-02 0.  1.
    10030    2    1    2    0    0  0.00000000000E+00  0.00000000000E+00  0.53483577714E+03  0.35505157707E+04  0.35100018418E+04 0.  0.
        3    1    3    3  502    0  0.61044337768E+03  0.14992795220E+04 -0.41830642944E+03  0.16719630622E+04  0.10100000352E+00 0. -1.
       -3    1    3    3    0  502 -0.61044337768E+03 -0.14992795220E+04  0.95314220658E+03  0.18785527085E+04  0.10100000352E+00 0.  1.
</event>
<event>
 5   0  0.2933506E-07  0.3499548E+04  0.7818609E-02  0.8113897E-01
        1   -1    0    0  501    0  0.00000000000E+00  0.00000000000E+00  0.14367422390E+04  0.14367422390E+04  0.50400001928E-02 0.  1.
       -1   -1    0    0    0  501  0.00000000000E+00  0.00000000000E+00 -0.21310079816E+04  0.21310079816E+04  0.50400001928E-02 0. -1.
    10030    2    1    2    0    0  0.00000000000E+00  0.00000000000E+00 -0.69426574263E+03  0.35677502206E+04  0.34995480730E+04 0.  0.
        4    1    3    3  502    0 -0.12444923429E+04  0.12058624201E+04 -0.59443446864E+03  0.18319987222E+04  0.12699999809E+01 0. -1.
       -4    1    3    3    0  502  0.12444923429E+04 -0.12058624201E+04 -0.99831273992E+02  0.17357514983E+04  0.12699999809E+01 0.  1.
</event>
<event>
 5   0  0.8845195E-07  0.3484230E+04  0.7818609E-02  0.8117537E-01
       -2   -1    0    0    0  501  0.00000000000E+00  0.00000000000E+00  0.96127227552E+03  0.96127227553E+03  0.25500000920E-02 0. -1.
        2   -1    0    0  501    0  0.00000000000E+00  0.00000000000E+00 -0.31572376877E+04  0.31572376877E+04  0.25500000920E-02 0.  1.
    10030    2    1    2    0    0  0.00000000000E+00  0.00000000000E+00 -0.21959654122E+04  0.41185099633E+04  0.34842302200E+04 0.  0.
        5    1    3    3  502    0 -0.12282276616E+04 -0.41216853018E+03 -0.24747035220E+04  0.27933144646E+04  0.46999998093E+01 0. -1.
       -5    1    3    3    0  502  0.12282276616E+04  0.41216853018E+03  0.27873810983E+03  0.13251954987E+04  0.46999998093E+01 0.  1.
</event>
<event>
 5   0  0.2936607E-07  0.3464924E+04  0.7818609E-02  0.8122153E-01
        1   -1    0    0  501    0  0.00000000000E+00  0.00000000000E+00  0.20511264470E+04  0.20511264470E+04  0.50400001928E-02 0. -1.
       -1   -1    0    0    0  501  0.00000000000E+00  0.00000000000E+00 -0.14633056362E+04  0.14633056362E+04  0.50400001928E-02 0.  1.
    10030    2    1    2    0    0  0.00000000000E+00  0.00000000000E+00  0.58782081077E+03  0.35144320832E+04  0.34649241784E+04 0.  0.
        2    1    3    3  502    0  0.96728937430E+03 -0.12176774483E+03  0.17464862770E+04  0.20001726008E+04  0.25500000920E-02 0. -1.
       -2    1    3    3    0  502 -0.96728937430E+03  0.12176774483E+03 -0.11586654662E+04  0.15142594824E+04  0.25500000920E-02 0.  1.
</event>
<event>
 5   0  0.3026332E-07  0.3482328E+04  0.7818609E-02  0.8117991E-01
       -1   -1    0    0    0  501  0.00000000000E+00  0.00000000000E+00  0.20771335052E+04  0.20771335052E+04  0.50400001928E-02 0.  1.
        1   -1    0    0  501    0  0.00000000000E+00  0.00000000000E+00 -0.14595366994E+04  0.14595366994E+04  0.50400001928E-02 0. -1.
    10030    2    1    2    0    0  0.00000000000E+00  0.00000000000E+00  0.61759680583E+03  0.35366702047E+04  0.34823282904E+04 0.  0.
        1    1    3    3  502    0 -0.98955655459E+03  0.52600400655E+02  0.17628042307E+04  0.20222432428E+04  0.50400001928E-02 0.  1.
       -1    1    3    3    0  502  0.98955655459E+03 -0.52600400655E+02 -0.11452074249E+04  0.15144269619E+04  0.50400001928E-02 0. -1.
</event>
<event>
 5   0  0.3061330E-07  0.3511078E+04  0.7818609E-02  0.8111170E-01
       -1   -1    0    0    0  501  0.00000000000E+00  0.00000000000E+00  0.13581488382E+04  0.13581488382E+04  0.50400001928E-02 0.  1.
        1   -1    0    0  501    0  0.00000000000E+00  0.00000000000E+00 -0.22692040385E+04  0.22692040385E+04  0.50400001928E-02 0. -1.
    10030    2    1    2    0    0  0.00000000000E+00  0.00000000000E+00 -0.91105520031E+03  0.36273528767E+04  0.35110777995E+04 0.  0.
        5    1    3    3  502    0 -0.13892764661E+03 -0.75476943711E+03  0.11756575485E+04  0.14039838160E+04  0.46999998093E+01 0.  1.
       -5    1    3    3    0  502  0.13892764661E+03  0.75476943711E+03 -0.20867127488E+04  0.22233690607E+04  0.46999998093E+01 0. -1.
</event>
<event>
 5   0  0.2933506E-07  0.3323990E+04  0.7818609E-02  0.8156818E-01
        1   -1    0    0  501    0  0.00000000000E+00  0.00000000000E+00  0.10207097366E+04  0.10207097366E+04  0.50400001928E-02 0. -1.
       -1   -1    0    0    0  501  0.00000000000E+00  0.00000000000E+00 -0.27061832190E+04  0.27061832190E+04  0.50400001928E-02 0.  1.
    10030    2    1    2    0    0  0.00000000000E+00  0.00000000000E+00 -0.16854734824E+04  0.37268929556E+04  0.33239901087E+04 0.  0.
        4    1    3    3  502    0 -0.98042510360E+03  0.71319202818E+03 -0.21173464394E+04  0.24398839747E+04  0.12699999809E+01 0.  1.
       -4    1    3    3    0  502  0.98042510360E+03 -0.71319202818E+03  0.43187295701E+03  0.12870089808E+04  0.12699999809E+01 0. -1.
</event>
<event>
 5   0  0.9311672E-07  0.3477309E+04  0.7818609E-02  0.8119189E-01
       -2   -1    0    0    0  501  0.00000000000E+00  0.00000000000E+00  0.13423298086E+04  0.13423298086E+04  0.25500000920E-02 0.  1.
        2   -1    0    0  501    0  0.00000000000E+00  0.00000000000E+00 -0.22519945973E+04  0.22519945973E+04  0.25500000920E-02 0. -1.
    10030    2    1    2    0    0  0.00000000000E+00  0.00000000000E+00 -0.90966478871E+03  0.35943244059E+04  0.34773090037E+04 0.  0.
        4    1    3    3  502    0 -0.16100460503E+04 -0.63844958812E+02  0.22028772914E+03  0.16263003288E+04  0.12699999809E+01 0.  1.
       -4    1    3    3    0  502  0.16100460503E+04  0.63844958812E+02 -0.11299525179E+04  0.19680240772E+04  0.12699999809E+01 0. -1.
</event>
<event>
 5   0  0.3061330E-07  0.3539022E+04  0.7818609E-02  0.8104604E-01
       -1   -1    0    0    0  501  0.00000000000E+00  0.00000000000E+00  0.12620713168E+04  0.12620713168E+04  0.50400001928E-02 0.  1.
        1   -1    0    0  501    0  0.00000000000E+00  0.00000000000E+00 -0.24809766784E+04  0.24809766784E+04  0.50400001928E-02 0. -1.
    10030    2    1    2    0    0  0.00000000000E+00  0.00000000000E+00 -0.12189053616E+04  0.37430479953E+04  0.35390221834E+04 0.  0.
        5    1    3    3  502    0 -0.10869912848E+04 -0.86636872507E+02  0.86447761274E+03  0.13915457714E+04  0.46999998093E+01 0.  1.
       -5    1    3    3    0  502  0.10869912848E+04  0.86636872507E+02 -0.20833829744E+04  0.23515022239E+04  0.46999998093E+01 0. -1.
</event>
<event>
 5   0  0.9311672E-07  0.3541732E+04  0.7818609E-02  0.8103971E-01
       -2   -1    0    0    0  501  0.00000000000E+00  0.00000000000E+00  0.14282563661E+04  0.14282563661E+04  0.25500000920E-02 0.  1.
        2   -1    0    0  501    0  0.00000000000E+00  0.00000000000E+00 -0.21956612434E+04  0.21956612434E+04  0.25500000920E-02 0. -1.
    10030    2    1    2    0    0  0.00000000000E+00  0.00000000000E+00 -0.76740487734E+03  0.36239176095E+04  0.35417324285E+04 0.  0.
        4    1    3    3  502    0 -0.91992761509E+03 -0.14871738920E+04 -0.66949094553E+03  0.18724777011E+04  0.12699999809E+01 0.  1.
       -4    1    3    3    0  502  0.91992761509E+03  0.14871738920E+04 -0.97913931811E+02  0.17514399085E+04  0.12699999809E+01 0. -1.
</event>
<event>
 5   0  0.3026332E-07  0.3500760E+04  0.7818609E-02  0.8113610E-01
       -1   -1    0    0    0  501  0.00000000000E+00  0.00000000000E+00  0.13217686928E+04  0.13217686928E+04  0.50400001928E-02 0. -1.
        1   -1    0    0  501    0  0.00000000000E+00  0.00000000000E+00 -0.23179775018E+04  0.23179775018E+04  0.50400001928E-02 0.  1.
    10030    2    1    2    0    0  0.00000000000E+00  0.00000000000E+00 -0.99620880898E+03  0.36397461946E+04  0.35007599703E+04 0.  0.
        1    1    3    3  502    0 -0.14137465018E+04 -0.29951108831E+03 -0.15249613467E+04  0.21009267413E+04  0.50400001928E-02 0.  1.
       -1    1    3    3    0  502  0.14137465018E+04  0.29951108831E+03  0.52875253771E+03  0.15388194532E+04  0.50400001928E-02 0. -1.
</event>
<event>
 5   0  0.2936607E-07  0.3353193E+04  0.7818609E-02  0.8149491E-01
        1   -1    0    0  501    0  0.00000000000E+00  0.00000000000E+00  0.16878623531E+04  0.16878623531E+04  0.50400001928E-02 0. -1.
       -1   -1    0    0    0  501  0.00000000000E+00  0.00000000000E+00 -0.16654062812E+04  0.16654062812E+04  0.50400001928E-02 0.  1.
    10030    2    1    2    0    0  0.00000000000E+00  0.00000000000E+00  0.22456071841E+02  0.33532686343E+04  0.33531934419E+04 0.  0.
        2    1    3    3  502    0  0.58881830565E+03 -0.59186752043E+03 -0.14427517488E+04  0.16668973476E+04  0.25500000920E-02 0.  1.
       -2    1    3    3    0  502 -0.58881830565E+03  0.59186752043E+03  0.14652078207E+04  0.16863712867E+04  0.25500000920E-02 0. -1.
</event>
<event>
 5   0  0.9311672E-07  0.3501926E+04  0.7818609E-02  0.8113334E-01
        2   -1    0    0  501    0  0.00000000000E+00  0.00000000000E+00  0.11553382110E+04  0.11553382110E+04  0.25500000920E-02 0.  1.
       -2   -1    0    0    0  501  0.00000000000E+00  0.00000000000E+00 -0.26536578094E+04  0.26536578094E+04  0.25500000920E-02 0. -1.
    10030    2    1    2    0    0  0.00000000000E+00  0.00000000000E+00 -0.14983195984E+04  0.38089960204E+04  0.35019264790E+04 0.  0.
        4    1    3    3  502    0 -0.10209913202E+04 -0.10948454589E+04  0.23863673944E+03  0.15159350122E+04  0.12699999809E+01 0.  1.
       -4    1    3    3    0  502  0.10209913202E+04  0.10948454589E+04 -0.17369563379E+04  0.22930610082E+04  0.12699999809E+01 0. -1.
</event>
<event>
 5   0  0.9311672E-07  0.3333264E+04  0.7818609E-02  0.8154482E-01
       -2   -1    0    0    0  501  0.00000000000E+00  0.00000000000E+00  0.13168351016E+04  0.13168351016E+04  0.25500000920E-02 0. -1.
        2   -1    0    0  501    0  0.00000000000E+00  0.00000000000E+00 -0.21093475725E+04  0.21093475725E+04  0.25500000920E-02 0.  1.
    10030    2    1    2    0    0  0.00000000000E+00  0.00000000000E+00 -0.79251247097E+03  0.34261826741E+04  0.33332644209E+04 0.  0.
        4    1    3    3  502    0 -0.12708400548E+03  0.14525979357E+04 -0.12258930720E+04  0.19049951559E+04  0.12699999809E+01 0.  1.
       -4    1    3    3    0  502  0.12708400548E+03 -0.14525979357E+04  0.43338060102E+03  0.15211875182E+04  0.12699999809E+01 0. -1.
</event>
<event>
 5   0  0.8845195E-07  0.3307018E+04  0.7818609E-02  0.8161112E-01
       -2   -1    0    0    0  501  0.00000000000E+00  0.00000000000E+00  0.19040682855E+04  0.19040682855E+04  0.25500000920E-02 0. -1.
        2   -1    0    0  501    0  0.00000000000E+00  0.00000000000E+00 -0.14359210171E+04  0.14359210171E+04  0.25500000920E-02 0.  1.
    10030    2    1    2    0    0  0.00000000000E+00  0.00000000000E+00  0.46814726838E+03  0.33399893025E+04  0.33070177919E+04 0.  0.
        5    1    3    3  502    0  0.44216222883E+03  0.56316198343E+03  0.17393733385E+04  0.18809839332E+04  0.46999998093E+01 0. -1.
       -5    1    3    3    0  502 -0.44216222883E+03 -0.56316198343E+03 -0.12712260702E+04  0.14590053693E+04  0.46999998093E+01 0.  1.
</event>
<event>
 5   0  0.9128871E-07  0.3606159E+04  0.7818609E-02  0.8089082E-01
       -2   -1    0    0    0  501  0.00000000000E+00  0.00000000000E+00  0.18513689121E+04  0.18513689121E+04  0.25500000920E-02 0.  1.
        2   -1    0    0  501    0  0.00000000000E+00  0.00000000000E+00 -0.17560496014E+04  0.17560496014E+04  0.25500000920E-02 0. -1.
    10030    2    1    2    0    0  0.00000000000E+00  0.00000000000E+00  0.95319310707E+02  0.36074185135E+04  0.36061589760E+04 0.  0.
        1    1    3    3  502    0 -0.95292229765E+02  0.55506185759E+03 -0.16658079422E+04  0.17584340690E+04  0.50400001928E-02 0. -1.
       -1    1    3    3    0  502  0.95292229765E+02 -0.55506185759E+03  0.17611272529E+04  0.18489844444E+04  0.50400001928E-02 0.  1.
</event>
<event>
 5   0  0.3061330E-07  0.3518602E+04  0.7818609E-02  0.8109396E-01
       -1   -1    0    0    0  501  0.00000000000E+00  0.00000000000E+00  0.23676852776E+04  0.23676852776E+04  0.50400001928E-02 0. -1.
        1   -1    0    0  501    0  0.00000000000E+00  0.00000000000E+00 -0.13072430753E+04  0.13072430753E+04  0.50400001928E-02 0.  1.
    10030    2    1    2    0    0  0.00000000000E+00  0.00000000000E+00  0.10604422023E+04  0.36749283529E+04  0.35186020995E+04 0.  0.
        5    1    3    3  502    0  0.17791176680E+02  0.16338087369E+04  0.12114820358E+04  0.20340497358E+04  0.46999998093E+01 0.  1.
       -5    1    3    3    0  502 -0.17791176680E+02 -0.16338087369E+04 -0.15103983354E+03  0.16408786171E+04  0.46999998093E+01 0. -1.
</event>
<event>
 5   0  0.6188930E-07  0.3458598E+04  0.7818609E-02  0.8123672E-01
        2   -1    0    0  501    0  0.00000000000E+00  0.00000000000E+00  0.26798795753E+04  0.26798795753E+04  0.25500000920E-02 0. -1.
       -2   -1    0    0    0  501  0.00000000000E+00  0.00000000000E+00 -0.11158992862E+04  0.11158992862E+04  0.25500000920E-02 0.  1.
    10030    2    1    2    0    0  0.00000000000E+00  0.00000000000E+00  0.15639802891E+04  0.37957788614E+04  0.34585983896E+04 0.  0.
        3    1    3    3  502    0 -0.13696391408E+04 -0.33430170785E+03 -0.31703942824E+03  0.14450546762E+04  0.10100000352E+00 0.  1.
       -3    1    3    3    0  502  0.13696391408E+04  0.33430170785E+03  0.18810197173E+04  0.23507241852E+04  0.10100000352E+00 0. -1.
</event>
<event>
 5   0  0.8845195E-07  0.3493124E+04  0.7818609E-02  0.8115421E-01
       -2   -1    0    0    0  501  0.00000000000E+00  0.00000000000E+00  0.14310314164E+04  0.14310314164E+04  0.25500000920E-02 0. -1.
        2   -1    0    0  501    0  0.00000000000E+00  0.00000000000E+00 -0.21316641846E+04  0.21316641846E+04  0.25500000920E-02 0.  1.
    10030    2    1    2    0    0  0.00000000000E+00  0.00000000000E+00 -0.70063276816E+03  0.35626956010E+04  0.34931237695E+04 0.  0.
        5    1    3    3  502    0  0.63479269990E+03 -0.16195241441E+04 -0.19023134691E+03  0.17498657893E+04  0.46999998093E+01 0.  1.
       -5    1    3    3    0  502 -0.63479269990E+03  0.16195241441E+04 -0.51040142125E+03  0.18128298117E+04  0.46999998093E+01 0. -1.
</event>
<event>
 5   0  0.6188930E-07  0.3511347E+04  0.7818609E-02  0.8111106E-01
       -2   -1    0    0    0  501  0.00000000000E+00  0.00000000000E+00  0.11813258806E+04  0.11813258806E+04  0.25500000920E-02 0. -1.
        2   -1    0    0  501    0  0.00000000000E+00  0.00000000000E+00 -0.26092631263E+04  0.26092631263E+04  0.25500000920E-02 0.  1.
    10030    2    1    2    0    0  0.00000000000E+00  0.00000000000E+00 -0.14279372457E+04  0.37905890069E+04  0.35113473542E+04 0.  0.
        3    1    3    3  502    0  0.35713180148E+03  0.17006623320E+04 -0.98405407848E+03  0.19970372883E+04  0.10100000352E+00 0.  1.
       -3    1    3    3    0  502 -0.35713180148E+03 -0.17006623320E+04 -0.44388316718E+03  0.17935517187E+04  0.10100000352E+00 0. -1.
</event>
<event>
 5   0  0.3026332E-07  0.3466991E+04  0.7818609E-02  0.8121657E-01
       -1   -1    0    0    0  501  0.00000000000E+00  0.00000000000E+00  0.17394192393E+04  0.17394192394E+04  0.50400001928E-02 0.  1.
        1   -1    0    0  501    0  0.00000000000E+00  0.00000000000E+00 -0.17275919139E+04  0.17275919139E+04  0.50400001928E-02 0. -1.
    10030    2    1    2    0    0  0.00000000000E+00  0.00000000000E+00  0.11827325499E+02  0.34670111532E+04  0.34669909793E+04 0.  0.
        1    1    3    3  502    0  0.48053478694E+03 -0.10284687656E+04 -0.13041874417E+04  0.17290363114E+04  0.50400001928E-02 0. -1.
       -1    1    3    3    0  502 -0.48053478694E+03  0.10284687656E+04  0.13160147672E+04  0.17379748418E+04  0.50400001928E-02 0.  1.
</event>
<event>
 5   0  0.2936607E-07  0.3390381E+04  0.7818609E-02  0.8140271E-01
        1   -1    0    0  501    0  0.00000000000E+00  0.00000000000E+00  0.15245172116E+04  0.15245172116E+04  0.50400001928E-02 0.  1.
       -1   -1    0    0    0  501  0.00000000000E+00  0.00000000000E+00 -0.18849713843E+04  0.18849713843E+04  0.50400001928E-02 0. -1.
    10030    2    1    2    0    0  0.00000000000E+00  0.00000000000E+00 -0.36045417272E+03  0.34094885959E+04  0.33903812876E+04 0.  0.
        2    1    3    3  502    0 -0.12792102270E+04 -0.10794303488E+04 -0.45029718014E+03  0.17332963489E+04  0.25500000920E-02 0. -1.
       -2    1    3    3    0  502  0.12792102270E+04  0.10794303488E+04  0.89843007418E+02  0.16761922470E+04  0.25500000920E-02 0.  1.
</event>
<event>
 5   0  0.2972541E-07  0.3758343E+04  0.7818609E-02  0.8055154E-01
        1   -1    0    0  501    0  0.00000000000E+00  0.00000000000E+00  0.23526100534E+04  0.23526100534E+04  0.50400001928E-02 0. -1.
       -1   -1    0    0    0  501  0.00000000000E+00  0.00000000000E+00 -0.15010071846E+04  0.15010071846E+04  0.50400001928E-02 0.  1.
    10030    2    1    2    0    0  0.00000000000E+00  0.00000000000E+00  0.85160286875E+03  0.38536172380E+04  0.37583425032E+04 0.  0.
        3    1    3    3  502    0  0.81471067075E+03  0.16803768343E+04  0.21105285583E+03  0.18793517767E+04  0.10100000352E+00 0. -1.
       -3    1    3    3    0  502 -0.81471067075E+03 -0.16803768343E+04  0.64055001292E+03  0.19742654613E+04  0.10100000352E+00 0.  1.
</event>
<event>
 5   0  0.2972541E-07  0.3333890E+04  0.7818609E-02  0.8154325E-01
        1   -1    0    0  501    0  0.00000000000E+00  0.00000000000E+00  0.14369742870E+04  0.14369742870E+04  0.50400001928E-02 0. -1.
       -1   -1    0    0    0  501  0.00000000000E+00  0.00000000000E+00 -0.19337200557E+04  0.19337200557E+04  0.50400001928E-02 0.  1.
    10030    2    1    2    0    0  0.00000000000E+00  0.00000000000E+00 -0.49674576876E+03  0.33706943427E+04  0.33338902191E+04 0.  0.
        3    1    3    3  502    0  0.13787292915E+04 -0.74733359169E+03 -0.81968084854E+03  0.17695419351E+04  0.10100000352E+00 0.  1.
       -3    1    3    3    0  502 -0.13787292915E+04  0.74733359169E+03  0.32293507978E+03  0.16011524076E+04  0.10100000352E+00 0. -1.
</event>
<event>
 5   0  0.8950809E-07  0.3493670E+04  0.7818609E-02  0.8115292E-01
        2   -1    0    0  501    0  0.00000000000E+00  0.00000000000E+00  0.20949263565E+04  0.20949263565E+04  0.25500000920E-02 0.  1.
       -2   -1    0    0    0  501  0.00000000000E+00  0.00000000000E+00 -0.14565819358E+04  0.14565819358E+04  0.25500000920E-02 0. -1.
    10030    2    1    2    0    0  0.00000000000E+00  0.00000000000E+00  0.63834442063E+03  0.35515082923E+04  0.34936696396E+04 0.  0.
        2    1    3    3  502    0 -0.12832536536E+04  0.96135824814E+03  0.10238160819E+04  0.19024061055E+04  0.25500000920E-02 0. -1.
       -2    1    3    3    0  502  0.12832536536E+04 -0.96135824814E+03 -0.38547166124E+03  0.16491021868E+04  0.25500000920E-02 0.  1.
</event>
<event>
 5   0  0.2972541E-07  0.3466713E+04  0.7818609E-02  0.8121724E-01
        1   -1    0    0  501    0  0.00000000000E+00  0.00000000000E+00  0.23980856973E+04  0.23980856973E+04  0.50400001928E-02 0.  1.
       -1   -1    0    0    0  501  0.00000000000E+00  0.00000000000E+00 -0.12528848887E+04  0.12528848887E+04  0.50400001928E-02 0. -1.
    10030    2    1    2    0    0  0.00000000000E+00  0.00000000000E+00  0.11452008086E+04  0.36509705860E+04  0.34667133322E+04 0.  0.
        3    1    3    3  502    0  0.75690609872E+03  0.12166135386E+03 -0.10646393693E+04  0.13119319053E+04  0.10100000352E+00 0. -1.
       -3    1    3    3    0  502 -0.75690609872E+03 -0.12166135386E+03  0.22098401779E+04  0.23390386806E+04  0.10100000352E+00 0.  1.
</event>
<event>
 5   0  0.8845195E-07  0.3447951E+04  0.7818609E-02  0.8126237E-01
        2   -1    0    0  501    0  0.00000000000E+00  0.00000000000E+00  0.27808240135E+04  0.27808240135E+04  0.25500000920E-02 0. -1.
       -2   -1    0    0    0  501  0.00000000000E+00  0.00000000000E+00 -0.10687807380E+04  0.10687807380E+04  0.25500000920E-02 0.  1.
    10030    2    1    2    0    0  0.00000000000E+00  0.00000000000E+00  0.17120432755E+04  0.38496047516E+04  0.34479507778E+04 0.  0.
        5    1    3    3  502    0  0.11773310304E+04 -0.19421790527E+03 -0.53320864141E+03  0.13069669067E+04  0.46999998093E+01 0.  1.
       -5    1    3    3    0  502 -0.11773310304E+04  0.19421790527E+03  0.22452519169E+04  0.25426378449E+04  0.46999998093E+01 0. -1.
</event>
<event>
 5   0  0.3026332E-07  0.3490121E+04  0.7818609E-02  0.8116135E-01
       -1   -1    0    0    0  501  0.00000000000E+00  0.00000000000E+00  0.17698324835E+04  0.17698324835E+04  0.50400001928E-02 0.  1.
        1   -1    0    0  501    0  0.00000000000E+00  0.00000000000E+00 -0.17206350405E+04  0.17206350405E+04  0.50400001928E-02 0. -1.
    10030    2    1    2    0    0  0.00000000000E+00  0.00000000000E+00  0.49197443059E+02  0.34904675240E+04  0.34901207927E+04 0.  0.
        1    1    3    3  502    0  0.71921271111E+03  0.89224099872E+03 -0.12915391861E+04  0.17266830609E+04  0.50400001928E-02 0. -1.
       -1    1    3    3    0  502 -0.71921271111E+03 -0.89224099872E+03  0.13407366291E+04  0.17637844631E+04  0.50400001928E-02 0.  1.
</event>
<event>
 5   0  0.9128871E-07  0.3496752E+04  0.7818609E-02  0.8114560E-01
        2   -1    0    0  501    0  0.00000000000E+00  0.00000000000E+00  0.23444284870E+04  0.23444284870E+04  0.25500000920E-02 0.  1.
       -2   -1    0    0    0  501  0.00000000000E+00  0.00000000000E+00 -0.13038650255E+04  0.13038650255E+04  0.25500000920E-02 0. -1.
    10030    2    1    2    0    0  0.00000000000E+00  0.00000000000E+00  0.10405634615E+04  0.36482935125E+04  0.34967518122E+04 0.  0.
        1    1    3    3  502    0 -0.94510102883E+03  0.13398986454E+04 -0.11287390447E+03  0.16435585944E+04  0.50400001928E-02 0. -1.
       -1    1    3    3    0  502  0.94510102883E+03 -0.13398986454E+04  0.11534373660E+04  0.20047349181E+04  0.50400001928E-02 0.  1.
</event>
<event>
 5   0  0.8950809E-07  0.3505841E+04  0.7818609E-02  0.8112407E-01
       -2   -1    0    0    0  501  0.00000000000E+00  0.00000000000E+00  0.15764624939E+04  0.15764624939E+04  0.25500000920E-02 0. -1.
        2   -1    0    0  501    0  0.00000000000E+00  0.00000000000E+00 -0.19491300270E+04  0.19491300270E+04  0.25500000920E-02 0.  1.
    10030    2    1    2    0    0  0.00000000000E+00  0.00000000000E+00 -0.37266753304E+03  0.35255925209E+04  0.35058410593E+04 0.  0.
        2    1    3    3  502    0 -0.85356566180E+03  0.86265615006E+02  0.13509098567E+04  0.16003042012E+04  0.25500000920E-02 0. -1.
       -2    1    3    3    0  502  0.85356566180E+03 -0.86265615006E+02 -0.17235773898E+04  0.19252883197E+04  0.25500000920E-02 0.  1.
</event>
<event>
 5   0  0.2972541E-07  0.3500542E+04  0.7818609E-02  0.8113662E-01
       -1   -1    0    0    0  501  0.00000000000E+00  0.00000000000E+00  0.30882132880E+04  0.30882132880E+04  0.50400001928E-02 0. -1.
        1   -1    0    0  501    0  0.00000000000E+00  0.00000000000E+00 -0.99198064570E+03  0.99198064572E+03  0.50400001928E-02 0.  1.
    10030    2    1    2    0    0  0.00000000000E+00  0.00000000000E+00  0.20962326423E+04  0.40801939337E+04  0.35005415647E+04 0.  0.
        3    1    3    3  502    0  0.85871632789E+03  0.15150869797E+04  0.12518962540E+04  0.21447905559E+04  0.10100000352E+00 0.  1.
       -3    1    3    3    0  502 -0.85871632789E+03 -0.15150869797E+04  0.84433638834E+03  0.19354033778E+04  0.10100000352E+00 0. -1.
</event>
<event>
 5   0  0.9128871E-07  0.3465539E+04  0.7818609E-02  0.8122006E-01
        2   -1    0    0  501    0  0.00000000000E+00  0.00000000000E+00  0.16007163541E+04  0.16007163541E+04  0.25500000920E-02 0. -1.
       -2   -1    0    0    0  501  0.00000000000E+00  0.00000000000E+00 -0.18757166705E+04  0.18757166705E+04  0.25500000920E-02 0.  1.
    10030    2    1    2    0    0  0.00000000000E+00  0.00000000000E+00 -0.27500031640E+03  0.34764330247E+04  0.34655391213E+04 0.  0.
        1    1    3    3  502    0  0.14261632415E+04  0.71505832043E+03 -0.81582127726E+03  0.17918745351E+04  0.50400001928E-02 0.  1.
       -1    1    3    3    0  502 -0.14261632415E+04 -0.71505832043E+03  0.54082096086E+03  0.16845584896E+04  0.50400001928E-02 0. -1.
</event>
<event>
 5   0  0.3026332E-07  0.3530979E+04  0.7818609E-02  0.8106487E-01
       -1   -1    0    0    0  501  0.00000000000E+00  0.00000000000E+00  0.20107311356E+04  0.20107311356E+04  0.50400001928E-02 0. -1.
        1   -1    0    0  501    0  0.00000000000E+00  0.00000000000E+00 -0.15501586901E+04  0.15501586902E+04  0.50400001928E-02 0.  1.
    10030    2    1    2    0    0  0.00000000000E+00  0.00000000000E+00  0.46057244547E+03  0.35608898258E+04  0.35309785292E+04 0.  0.
        1    1    3    3  502    0  0.13933718958E+04  0.99038910892E+03 -0.21458159621E+03  0.17229048402E+04  0.50400001928E-02 0. -1.
       -1    1    3    3    0  502 -0.13933718958E+04 -0.99038910892E+03  0.67515404168E+03  0.18379849855E+04  0.50400001928E-02 0.  1.
</event>
<event>
 5   0  0.2972541E-07  0.3510583E+04  0.7818609E-02  0.8111287E-01
        1   -1    0    0  501    0  0.00000000000E+00  0.00000000000E+00  0.17101408169E+04  0.17101408169E+04  0.50400001928E-02 0. -1.
       -1   -1    0    0    0  501  0.00000000000E+00  0.00000000000E+00 -0.18016340681E+04  0.18016340681E+04  0.50400001928E-02 0.  1.
    10030    2    1    2    0    0  0.00000000000E+00  0.00000000000E+00 -0.91493251239E+02  0.35117748850E+04  0.35105828331E+04 0.  0.
        3    1    3    3  502    0 -0.15534426058E+04  0.52420983111E+03 -0.67291092280E+03  0.17722271290E+04  0.10100000352E+00 0. -1.
       -3    1    3    3    0  502  0.15534426058E+04 -0.52420983111E+03  0.58141767156E+03  0.17395477560E+04  0.10100000352E+00 0.  1.
</event>
<event>
 5   0  0.9311672E-07  0.3490068E+04  0.7818609E-02  0.8116148E-01
        2   -1    0    0  501    0  0.00000000000E+00  0.00000000000E+00  0.14680813987E+04  0.14680813987E+04  0.25500000920E-02 0.  1.
       -2   -1    0    0    0  501  0.00000000000E+00  0.00000000000E+00 -0.20742335332E+04  0.20742335332E+04  0.25500000920E-02 0. -1.
    10030    2    1    2    0    0  0.00000000000E+00  0.00000000000E+00 -0.60615213453E+03  0.35423149319E+04  0.34900680031E+04 0.  0.
        4    1    3    3  502    0 -0.69714203895E+03  0.10251802669E+04 -0.15495240959E+04  0.19844465573E+04  0.12699999809E+01 0. -1.
       -4    1    3    3    0  502  0.69714203895E+03 -0.10251802669E+04  0.94337196134E+03  0.15578683746E+04  0.12699999809E+01 0.  1.
</event>
<event>
 5   0  0.8845195E-07  0.3499695E+04  0.7818609E-02  0.8113862E-01
       -2   -1    0    0    0  501  0.00000000000E+00  0.00000000000E+00  0.13215115958E+04  0.13215115958E+04  0.25500000920E-02 0.  1.
        2   -1    0    0  501    0  0.00000000000E+00  0.00000000000E+00 -0.23170186407E+04  0.23170186407E+04  0.25500000920E-02 0. -1.
    10030    2    1    2    0    0  0.00000000000E+00  0.00000000000E+00 -0.99550704486E+03  0.36385302365E+04  0.34996954161E+04 0.  0.
        5    1    3    3  502    0 -0.78012586345E+03 -0.15380573507E+04 -0.80569287135E+03  0.19035177619E+04  0.46999998093E+01 0. -1.
       -5    1    3    3    0  502  0.78012586345E+03  0.15380573507E+04 -0.18981417351E+03  0.17350124747E+04  0.46999998093E+01 0.  1.
</event>
<event>
 5   0  0.3061330E-07  0.3496623E+04  0.7818609E-02  0.8114591E-01
       -1   -1    0    0    0  501  0.00000000000E+00  0.00000000000E+00  0.13761802982E+04  0.13761802983E+04  0.50400001928E-02 0. -1.
        1   -1    0    0  501    0  0.00000000000E+00  0.00000000000E+00 -0.22210703147E+04  0.22210703147E+04  0.50400001928E-02 0.  1.
    10030    2    1    2    0    0  0.00000000000E+00  0.00000000000E+00 -0.84489001641E+03  0.35972506129E+04  0.34966230612E+04 0.  0.
        5    1    3    3  502    0  0.47226977483E+03  0.15270772619E+04 -0.11510405917E+04  0.19697513137E+04  0.46999998093E+01 0.  1.
       -5    1    3    3    0  502 -0.47226977483E+03 -0.15270772619E+04  0.30615057526E+03  0.16274992992E+04  0.46999998093E+01 0. -1.
</event>
<event>
 5   0  0.9128871E-07  0.3796335E+04  0.7818609E-02  0.8046942E-01
       -2   -1    0    0    0  501  0.00000000000E+00  0.00000000000E+00  0.12426064787E+04  0.12426064787E+04  0.25500000920E-02 0. -1.
        2   -1    0    0  501    0  0.00000000000E+00  0.00000000000E+00 -0.28995829871E+04  0.28995829871E+04  0.25500000920E-02 0.  1.
    10030    2    1    2    0    0  0.00000000000E+00  0.00000000000E+00 -0.16569765084E+04  0.41421894659E+04  0.37963353937E+04 0.  0.
        1    1    3    3  502    0 -0.14055708858E+04  0.56953910493E+03  0.41701149059E+03  0.15728645493E+04  0.50400001928E-02 0.  1.
       -1    1    3    3    0  502  0.14055708858E+04 -0.56953910493E+03 -0.20739879990E+04  0.25693249166E+04  0.50400001928E-02 0. -1.
</event>
<event>
 5   0  0.6188930E-07  0.3478661E+04  0.7818609E-02  0.8118866E-01
        2   -1    0    0  501    0  0.00000000000E+00  0.00000000000E+00  0.12693924750E+04  0.12693924750E+04  0.25500000920E-02 0.  1.
       -2   -1    0    0    0  501  0.00000000000E+00  0.00000000000E+00 -0.23832434723E+04  0.23832434723E+04  0.25500000920E-02 0. -1.
    10030    2    1    2    0    0  0.00000000000E+00  0.00000000000E+00 -0.11138509972E+04  0.36526359473E+04  0.34786614264E+04 0.  0.
        3    1    3    3  502    0 -0.56049097008E+03 -0.80635287393E+03 -0.20643112217E+04  0.22859868580E+04  0.10100000352E+00 0. -1.
       -3    1    3    3    0  502  0.56049097008E+03  0.80635287393E+03  0.95046022442E+03  0.13666490893E+04  0.10100000352E+00 0.  1.
</event>
<event>
 5   0  0.9311672E-07  0.3394197E+04  0.7818609E-02  0.8139332E-01
       -2   -1    0    0    0  501  0.00000000000E+00  0.00000000000E+00  0.23941494819E+04  0.23941494819E+04  0.25500000920E-02 0. -1.
        2   -1    0    0  501    0  0.00000000000E+00  0.00000000000E+00 -0.12029925676E+04  0.12029925676E+04  0.25500000920E-02 0.  1.
    10030    2    1    2    0    0  0.00000000000E+00  0.00000000000E+00  0.11911569144E+04  0.35971420495E+04  0.33941974205E+04 0.  0.
        4    1    3    3  502    0  0.64619767835E+03  0.10239565083E+04  0.18558325046E+04  0.22158913034E+04  0.12699999809E+01 0. -1.
       -4    1    3    3    0  502 -0.64619767835E+03 -0.10239565083E+04 -0.66467559023E+03  0.13812507461E+04  0.12699999809E+01 0.  1.
</event>
<event>
 5   0  0.2972541E-07  0.3805439E+04  0.7818609E-02  0.8044989E-01
       -1   -1    0    0    0  501  0.00000000000E+00  0.00000000000E+00  0.21235290049E+04  0.21235290049E+04  0.50400001928E-02 0. -1.
        1   -1    0    0  501    0  0.00000000000E+00  0.00000000000E+00 -0.17048705568E+04  0.17048705568E+04  0.50400001928E-02 0.  1.
    10030    2    1    2    0    0  0.00000000000E+00  0.00000000000E+00  0.41865844814E+03  0.38283995617E+04  0.38054393055E+04 0.  0.
        3    1    3    3  502    0  0.77541277948E+03 -0.89227920192E+03  0.17092691934E+04  0.20782272105E+04  0.10100000352E+00 0. -1.
       -3    1    3    3    0  502 -0.77541277948E+03  0.89227920192E+03 -0.12906107453E+04  0.17501723512E+04  0.10100000352E+00 0.  1.
</event>
<event>
 5   0  0.2972541E-07  0.3492238E+04  0.7818609E-02  0.8115632E-01
       -1   -1    0    0    0  501  0.00000000000E+00  0.00000000000E+00  0.14035103513E+04  0.14035103513E+04  0.50400001928E-02 0.  1.
        1   -1    0    0  501    0  0.00000000000E+00  0.00000000000E+00 -0.21723611653E+04  0.21723611653E+04  0.50400001928E-02 0. -1.
    10030    2    1    2    0    0  0.00000000000E+00  0.00000000000E+00 -0.76885081405E+03  0.35758715166E+04  0.34922378970E+04 0.  0.
        3    1    3    3  502    0 -0.15970189741E+04  0.64455571327E+03 -0.89411485937E+02  0.17245045941E+04  0.10100000352E+00 0.  1.
       -3    1    3    3    0  502  0.15970189741E+04 -0.64455571327E+03 -0.67943932811E+03  0.18513669225E+04  0.10100000352E+00 0. -1.
</event>
<event>
 5   0  0.6188930E-07  0.3504509E+04  0.7818609E-02  0.8112722E-01
        2   -1    0    0  501    0  0.00000000000E+00  0.00000000000E+00  0.29578704861E+04  0.29578704861E+04  0.25500000920E-02 0.  1.
       -2   -1    0    0    0  501  0.00000000000E+00  0.00000000000E+00 -0.10380427705E+04  0.10380427705E+04  0.25500000920E-02 0. -1.
    10030    2    1    2    0    0  0.00000000000E+00  0.00000000000E+00  0.19198277156E+04  0.39959132566E+04  0.35045091378E+04 0.  0.
        3    1    3    3  502    0 -0.10798500119E+04  0.12975057689E+04  0.14956947304E+04  0.22553713675E+04  0.10100000352E+00 0.  1.
       -3    1    3    3    0  502  0.10798500119E+04 -0.12975057689E+04  0.42413298520E+03  0.17405418891E+04  0.10100000352E+00 0. -1.
</event>
<event>
 5   0  0.9311672E-07  0.3441717E+04  0.7818609E-02  0.8127743E-01
        2   -1    0    0  501    0  0.00000000000E+00  0.00000000000E+00  0.24038930828E+04  0.24038930828E+04  0.25500000920E-02 0.  1.
       -2   -1    0    0    0  501  0.00000000000E+00  0.00000000000E+00 -0.12318992536E+04  0.12318992536E+04  0.25500000920E-02 0. -1.
    10030    2    1    2    0    0  0.00000000000E+00  0.00000000000E+00  0.11719938292E+04  0.36357923363E+04  0.34417170682E+04 0.  0.
        4    1    3    3  502    0  0.15347521823E+04 -0.73414501085E+03  0.31272205838E+03  0.17298063062E+04  0.12699999809E+01 0. -1.
       -4    1    3    3    0  502 -0.15347521823E+04  0.73414501085E+03  0.85927177085E+03  0.19059860302E+04  0.12699999809E+01 0.  1.
</event>
<event>
 5   0  0.2936607E-07  0.3486424E+04  0.7818609E-02  0.8117015E-01
        1   -1    0    0  501    0  0.00000000000E+00  0.00000000000E+00  0.87943858291E+03  0.87943858292E+03  0.50400001928E-02 0. -1.
       -1   -1    0    0    0  501  0.00000000000E+00  0.00000000000E+00 -0.34553734591E+04  0.34553734591E+04  0.50400001928E-02 0.  1.
    10030    2    1    2    0    0  0.00000000000E+00  0.00000000000E+00 -0.25759348762E+04  0.43348120420E+04  0.34864243794E+04 0.  0.
        2    1    3    3  502    0  0.15641911692E+04  0.76749986544E+03 -0.12194292577E+04  0.21266776370E+04  0.25500000920E-02 0. -1.
       -2    1    3    3    0  502 -0.15641911692E+04 -0.76749986544E+03 -0.13565056185E+04  0.22081344050E+04  0.25500000920E-02 0.  1.
</event>
<event>
 5   0  0.3026332E-07  0.3482437E+04  0.7818609E-02  0.8117965E-01
       -1   -1    0    0    0  501  0.00000000000E+00  0.00000000000E+00  0.12171506210E+04  0.12171506210E+04  0.50400001928E-02 0. -1.
        1   -1    0    0  501    0  0.00000000000E+00  0.00000000000E+00 -0.24909343105E+04  0.24909343105E+04  0.50400001928E-02 0.  1.
    10030    2    1    2    0    0  0.00000000000E+00  0.00000000000E+00 -0.12737836895E+04  0.37080849315E+04  0.34824372171E+04 0.  0.
        1    1    3    3  502    0  0.15697458396E+04  0.49000768274E+03 -0.27411076590E+02  0.16446765327E+04  0.50400001928E-02 0. -1.
       -1    1    3    3    0  502 -0.15697458396E+04 -0.49000768274E+03 -0.12463726129E+04  0.20634083988E+04  0.50400001928E-02 0.  1.
</event>
<event>
 5   0  0.8845195E-07  0.3491529E+04  0.7818609E-02  0.8115800E-01
       -2   -1    0    0    0  501  0.00000000000E+00  0.00000000000E+00  0.19990801645E+04  0.19990801645E+04  0.25500000920E-02 0. -1.
        2   -1    0    0  501    0  0.00000000000E+00  0.00000000000E+00 -0.15245478461E+04  0.15245478461E+04  0.25500000920E-02 0.  1.
    10030    2    1    2    0    0  0.00000000000E+00  0.00000000000E+00  0.47453231843E+03  0.35236280105E+04  0.34915288106E+04 0.  0.
        5    1    3    3  502    0 -0.11845068705E+04  0.52872123946E+03  0.14163689332E+04  0.19206055608E+04  0.46999998093E+01 0. -1.
       -5    1    3    3    0  502  0.11845068705E+04 -0.52872123946E+03 -0.94183661475E+03  0.16030224497E+04  0.46999998093E+01 0.  1.
</event>
<event>
 5   0  0.3061330E-07  0.3553530E+04  0.7818609E-02  0.8101220E-01
        1   -1    0    0  501    0  0.00000000000E+00  0.00000000000E+00  0.15372507141E+04  0.15372507141E+04  0.50400001928E-02 0.  1.
       -1   -1    0    0    0  501  0.00000000000E+00  0.00000000000E+00 -0.20535974992E+04  0.20535974992E+04  0.50400001928E-02 0. -1.
    10030    2    1    2    0    0  0.00000000000E+00  0.00000000000E+00 -0.51634678502E+03  0.35908482133E+04  0.35535302009E+04 0.  0.
        5    1    3    3  502    0 -0.16514478235E+04  0.48625219064E+03 -0.70227827329E+03  0.18592842627E+04  0.46999998093E+01 0. -1.
       -5    1    3    3    0  502  0.16514478235E+04 -0.48625219064E+03  0.18593148827E+03  0.17315639506E+04  0.46999998093E+01 0.  1.
</event>
<event>
 5   0  0.9311672E-07  0.3491501E+04  0.7818609E-02  0.8115807E-01
        2   -1    0    0  501    0  0.00000000000E+00  0.00000000000E+00  0.18873968028E+04  0.18873968028E+04  0.25500000920E-02 0.  1.
       -2   -1    0    0    0  501  0.00000000000E+00  0.00000000000E+00 -0.16147350020E+04  0.16147350020E+04  0.25500000920E-02 0. -1.
    10030    2    1    2    0    0  0.00000000000E+00  0.00000000000E+00  0.27266180082E+03  0.35021318049E+04  0.34915014995E+04 0.  0.
        4    1    3    3  502    0  0.16286623387E+03 -0.17372596979E+04  0.19170222831E+03  0.17553768898E+04  0.12699999809E+01 0. -1.
       -4    1    3    3    0  502 -0.16286623387E+03  0.17372596979E+04  0.80959572506E+02  0.17467549151E+04  0.12699999809E+01 0.  1.
</event>
<event>
 5   0  0.9311672E-07  0.3464608E+04  0.7818609E-02  0.8122229E-01
        2   -1    0    0  501    0  0.00000000000E+00  0.00000000000E+00  0.21002503866E+04  0.21002503866E+04  0.25500000920E-02 0. -1.
       -2   -1    0    0    0  501  0.00000000000E+00  0.00000000000E+00 -0.14288185720E+04  0.14288185720E+04  0.25500000920E-02 0.  1.
    10030    2    1    2    0    0  0.00000000000E+00  0.00000000000E+00  0.67143181457E+03  0.35290689586E+04  0.34646077747E+04 0.  0.
        4    1    3    3  502    0  0.12686555585E+04  0.99896309343E+03  0.97465121935E+03  0.18860967103E+04  0.12699999809E+01 0. -1.
       -4    1    3    3    0  502 -0.12686555585E+04 -0.99896309343E+03 -0.30321940478E+03  0.16429722483E+04  0.12699999809E+01 0.  1.
</event>
<event>
 5   0  0.8845195E-07  0.3528915E+04  0.7818609E-02  0.8106971E-01
       -2   -1    0    0    0  501  0.00000000000E+00  0.00000000000E+00  0.12389607169E+04  0.12389607169E+04  0.25500000920E-02 0. -1.
        2   -1    0    0  501    0  0.00000000000E+00  0.00000000000E+00 -0.25128404822E+04  0.25128404822E+04  0.25500000920E-02 0.  1.
    10030    2    1    2    0    0  0.00000000000E+00  0.00000000000E+00 -0.12738797652E+04  0.37518011991E+04  0.35289152131E+04 0.  0.
        5    1    3    3  502    0  0.75707967048E+02 -0.27329853474E+03  0.12145660888E+04  0.12472436247E+04  0.46999998093E+01 0. -1.
       -5    1    3    3    0  502 -0.75707967048E+02  0.27329853474E+03 -0.24884458540E+04  0.25045575744E+04  0.46999998093E+01 0.  1.
</event>
<event>
 5   0  0.2907000E-07  0.3535370E+04  0.7818609E-02  0.8105459E-01
       -3   -1    0    0    0  501  0.00000000000E+00  0.00000000000E+00  0.21874472159E+04  0.21874472182E+04  0.10100000352E+00 0.  1.
        3   -1    0    0  501    0  0.00000000000E+00  0.00000000000E+00 -0.14284732726E+04  0.14284732761E+04  0.10100000352E+00 0. -1.
    10030    2    1    2    0    0  0.00000000000E+00  0.00000000000E+00  0.75897394334E+03  0.36159204944E+04  0.35353697933E+04 0.  0.
        3    1    3    3  502    0 -0.17028580812E+04  0.45038110559E+03  0.22729785094E+03  0.17760160777E+04  0.10100000352E+00 0.  1.
       -3    1    3    3    0  502  0.17028580812E+04 -0.45038110559E+03  0.53167609239E+03  0.18399044167E+04  0.10100000352E+00 0. -1.
</event>
<event>
 5   0  0.2972541E-07  0.3298839E+04  0.7818609E-02  0.8163191E-01
        1   -1    0    0  501    0  0.00000000000E+00  0.00000000000E+00  0.20854414612E+04  0.20854414612E+04  0.50400001928E-02 0. -1.
       -1   -1    0    0    0  501  0.00000000000E+00  0.00000000000E+00 -0.13045608485E+04  0.13045608485E+04  0.50400001928E-02 0.  1.
    10030    2    1    2    0    0  0.00000000000E+00  0.00000000000E+00  0.78088061268E+03  0.33900023097E+04  0.32988393608E+04 0.  0.
        3    1    3    3  502    0 -0.14377472494E+04 -0.39192799971E+03  0.11169865518E+04  0.18623597067E+04  0.10100000352E+00 0. -1.
       -3    1    3    3    0  502  0.14377472494E+04  0.39192799971E+03 -0.33610593910E+03  0.15276426030E+04  0.10100000352E+00 0.  1.
</event>
<event>
 5   0  0.2907000E-07  0.3508608E+04  0.7818609E-02  0.8111753E-01
        4   -1    0    0  501    0  0.00000000000E+00  0.00000000000E+00  0.18461614141E+04  0.18461618510E+04  0.12699999809E+01 0.  1.
       -4   -1    0    0    0  501  0.00000000000E+00  0.00000000000E+00 -0.16670158657E+04  0.16670163495E+04  0.12699999809E+01 0. -1.
    10030    2    1    2    0    0  0.00000000000E+00  0.00000000000E+00  0.17914554842E+03  0.35131782004E+04  0.35086076926E+04 0.  0.
        2    1    3    3  502    0 -0.47754608824E+03  0.54431003406E+03 -0.15104005603E+04  0.16750025469E+04  0.25500000920E-02 0. -1.
       -2    1    3    3    0  502  0.47754608824E+03 -0.54431003406E+03  0.16895461088E+04  0.18381756535E+04  0.25500000920E-02 0.  1.
</event>
<event>
 5   0  0.9128871E-07  0.3462772E+04  0.7818609E-02  0.8122670E-01
        2   -1    0    0  501    0  0.00000000000E+00  0.00000000000E+00  0.23531165064E+04  0.23531165064E+04  0.25500000920E-02 0.  1.
       -2   -1    0    0    0  501  0.00000000000E+00  0.00000000000E+00 -0.12739263778E+04  0.12739263778E+04  0.25500000920E-02 0. -1.
    10030    2    1    2    0    0  0.00000000000E+00  0.00000000000E+00  0.10791901286E+04  0.36270428842E+04  0.34627718305E+04 0.  0.
        1    1    3    3  502    0 -0.78958471799E+03 -0.67848916203E+03  0.19886640893E+04  0.22446773554E+04  0.50400001928E-02 0.  1.
       -1    1    3    3    0  502  0.78958471799E+03  0.67848916203E+03 -0.90947396070E+03  0.13823655288E+04  0.50400001928E-02 0. -1.
</event>
<event>
 5   0  0.2936607E-07  0.3546193E+04  0.7818609E-02  0.8102929E-01
       -1   -1    0    0    0  501  0.00000000000E+00  0.00000000000E+00  0.10715679717E+04  0.10715679717E+04  0.50400001928E-02 0. -1.
        1   -1    0    0  501    0  0.00000000000E+00  0.00000000000E+00 -0.29338978795E+04  0.29338978795E+04  0.50400001928E-02 0.  1.
    10030    2    1    2    0    0  0.00000000000E+00  0.00000000000E+00 -0.18623299078E+04  0.40054658513E+04  0.35461928882E+04 0.  0.
        2    1    3    3  502    0 -0.66338885833E+03  0.10279124967E+04 -0.23808093764E+04  0.26767409596E+04  0.25500000920E-02 0.  1.
       -2    1    3    3    0  502  0.66338885833E+03 -0.10279124967E+04  0.51847946858E+03  0.13287248916E+04  0.25500000920E-02 0. -1.
</event>
<event>
 5   0  0.9311672E-07  0.3498065E+04  0.7818609E-02  0.8114249E-01
       -2   -1    0    0    0  501  0.00000000000E+00  0.00000000000E+00  0.23602524311E+04  0.23602524311E+04  0.25500000920E-02 0.  1.
        2   -1    0    0  501    0  0.00000000000E+00  0.00000000000E+00 -0.12960966748E+04  0.12960966748E+04  0.25500000920E-02 0. -1.
    10030    2    1    2    0    0  0.00000000000E+00  0.00000000000E+00  0.10641557563E+04  0.36563491058E+04  0.34980653668E+04 0.  0.
        4    1    3    3  502    0 -0.12709620331E+03 -0.16415982204E+04  0.11487885273E+04  0.20076640295E+04  0.12699999809E+01 0.  1.
       -4    1    3    3    0  502  0.12709620331E+03  0.16415982204E+04 -0.84632771059E+02  0.16486850763E+04  0.12699999809E+01 0. -1.
</event>
<event>
 5   0  0.3061330E-07  0.3457855E+04  0.7818609E-02  0.8123851E-01
        1   -1    0    0  501    0  0.00000000000E+00  0.00000000000E+00  0.18209023202E+04  0.18209023202E+04  0.50400001928E-02 0.  1.
       -1   -1    0    0    0  501  0.00000000000E+00  0.00000000000E+00 -0.16415979257E+04  0.16415979257E+04  0.50400001928E-02 0. -1.
    10030    2    1    2    0    0  0.00000000000E+00  0.00000000000E+00  0.17930439454E+03  0.34625002459E+04  0.34578545208E+04 0.  0.
        5    1    3    3  502    0 -0.38666035345E+01  0.16192433505E+04  0.69643944349E+03  0.17626723936E+04  0.46999998093E+01 0.  1.
       -5    1    3    3    0  502  0.38666035345E+01 -0.16192433505E+04 -0.51713504895E+03  0.16998278523E+04  0.46999998093E+01 0. -1.
</event>
<event>
 5   0  0.8950809E-07  0.3517753E+04  0.7818609E-02  0.8109596E-01
       -2   -1    0    0    0  501  0.00000000000E+00  0.00000000000E+00  0.10330894463E+04  0.10330894464E+04  0.25500000920E-02 0.  1.
        2   -1    0    0  501    0  0.00000000000E+00  0.00000000000E+00 -0.29945576986E+04  0.29945576986E+04  0.25500000920E-02 0. -1.
    10030    2    1    2    0    0  0.00000000000E+00  0.00000000000E+00 -0.19614682523E+04  0.40276471450E+04  0.35177526661E+04 0.  0.
        2    1    3    3  502    0 -0.19986889602E+02 -0.10663171626E+04 -0.25821138198E+04  0.27936971105E+04  0.25500000920E-02 0. -1.
       -2    1    3    3    0  502  0.19986889602E+02  0.10663171626E+04  0.62064556749E+03  0.12339500345E+04  0.25500000920E-02 0.  1.
</event>
<event>
 5   0  0.2933506E-07  0.3106985E+04  0.7818609E-02  0.8213824E-01
        1   -1    0    0  501    0  0.00000000000E+00  0.00000000000E+00  0.17727840154E+04  0.17727840154E+04  0.50400001928E-02 0.  1.
       -1   -1    0    0    0  501  0.00000000000E+00  0.00000000000E+00 -0.13613272628E+04  0.13613272628E+04  0.50400001928E-02 0. -1.
    10030    2    1    2    0    0  0.00000000000E+00  0.00000000000E+00  0.41145675255E+03  0.31341112782E+04  0.31069851698E+04 0.  0.
        4    1    3    3  502    0  0.10175830873E+04 -0.94588320595E+01 -0.97830524232E+03  0.14116116920E+04  0.12699999809E+01 0.  1.
       -4    1    3    3    0  502 -0.10175830873E+04  0.94588320595E+01  0.13897619949E+04  0.17224995862E+04  0.12699999809E+01 0. -1.
</event>
<event>
 5   0  0.9311672E-07  0.3642095E+04  0.7818609E-02  0.8080917E-01
        2   -1    0    0  501    0  0.00000000000E+00  0.00000000000E+00  0.14140139851E+04  0.14140139851E+04  0.25500000920E-02 0. -1.
       -2   -1    0    0    0  501  0.00000000000E+00  0.00000000000E+00 -0.23452488238E+04  0.23452488238E+04  0.25500000920E-02 0.  1.
    10030    2    1    2    0    0  0.00000000000E+00  0.00000000000E+00 -0.93123483868E+03  0.37592628088E+04  0.36420953504E+04 0.  0.
        4    1    3    3  502    0  0.94409553383E+03  0.15569924800E+04 -0.49235566309E+03  0.18862549329E+04  0.12699999809E+01 0.  1.
       -4    1    3    3    0  502 -0.94409553383E+03 -0.15569924800E+04 -0.43887917559E+03  0.18730078760E+04  0.12699999809E+01 0. -1.
</event>
<event>
 5   0  0.2972541E-07  0.3427207E+04  0.7818609E-02  0.8131261E-01
        1   -1    0    0  501    0  0.00000000000E+00  0.00000000000E+00  0.14287563194E+04  0.14287563194E+04  0.50400001928E-02 0.  1.
       -1   -1    0    0    0  501  0.00000000000E+00  0.00000000000E+00 -0.20552398982E+04  0.20552398982E+04  0.50400001928E-02 0. -1.
    10030    2    1    2    0    0  0.00000000000E+00  0.00000000000E+00 -0.62648357882E+03  0.34839962176E+04  0.34272070217E+04 0.  0.
        3    1    3    3  502    0  0.27178603462E+03 -0.14622394158E+04  0.55199328824E+03  0.15864136781E+04  0.10100000352E+00 0.  1.
       -3    1    3    3    0  502 -0.27178603462E+03  0.14622394158E+04 -0.11784768671E+04  0.18975825395E+04  0.10100000352E+00 0. -1.
</event>
<event>
 5   0  0.6188930E-07  0.3498911E+04  0.7818609E-02  0.8114048E-01
        2   -1    0    0  501    0  0.00000000000E+00  0.00000000000E+00  0.25864631192E+04  0.25864631192E+04  0.25500000920E-02 0. -1.
       -2   -1    0    0    0  501  0.00000000000E+00  0.00000000000E+00 -0.11833129001E+04  0.11833129001E+04  0.25500000920E-02 0.  1.
    10030    2    1    2    0    0  0.00000000000E+00  0.00000000000E+00  0.14031502191E+04  0.37697760193E+04  0.34989113590E+04 0.  0.
        3    1    3    3  502    0 -0.36092016419E+03  0.15530938860E+04  0.14771868548E+04  0.21735788456E+04  0.10100000352E+00 0.  1.
       -3    1    3    3    0  502  0.36092016419E+03 -0.15530938860E+04 -0.74036635702E+02  0.15961971737E+04  0.10100000352E+00 0. -1.
</event>
<event>
 5   0  0.8845195E-07  0.3728886E+04  0.7818609E-02  0.8061590E-01
        2   -1    0    0  501    0  0.00000000000E+00  0.00000000000E+00  0.19670631153E+04  0.19670631153E+04  0.25500000920E-02 0. -1.
       -2   -1    0    0    0  501  0.00000000000E+00  0.00000000000E+00 -0.17671766970E+04  0.17671766970E+04  0.25500000920E-02 0.  1.
    10030    2    1    2    0    0  0.00000000000E+00  0.00000000000E+00  0.19988641832E+03  0.37342398123E+04  0.37288862138E+04 0.  0.
        5    1    3    3  502    0  0.73848320915E+03 -0.12815081573E+04 -0.10368100169E+04  0.18062717704E+04  0.46999998093E+01 0.  1.
       -5    1    3    3    0  502 -0.73848320915E+03  0.12815081573E+04  0.12366964353E+04  0.19279680419E+04  0.46999998093E+01 0. -1.
</event>
<event>
 5   0  0.9128871E-07  0.3382406E+04  0.7818609E-02  0.8142238E-01
       -2   -1    0    0    0  501  0.00000000000E+00  0.00000000000E+00  0.17553231919E+04  0.17553231919E+04  0.25500000920E-02 0. -1.
        2   -1    0    0  501    0  0.00000000000E+00  0.00000000000E+00 -0.16294252913E+04  0.16294252913E+04  0.25500000920E-02 0.  1.
    10030    2    1    2    0    0  0.00000000000E+00  0.00000000000E+00  0.12589790058E+03  0.33847484832E+04  0.33824062460E+04 0.  0.
        1    1    3    3  502    0 -0.33278511057E+02 -0.12799486463E+04 -0.10427107315E+04  0.16512485174E+04  0.50400001928E-02 0.  1.
       -1    1    3    3    0  502  0.33278511057E+02  0.12799486463E+04  0.11686086321E+04  0.17334999658E+04  0.50400001928E-02 0. -1.
</event>
<event>
 5   0  0.2936607E-07  0.3488720E+04  0.7818609E-02  0.8116468E-01
        1   -1    0    0  501    0  0.00000000000E+00  0.00000000000E+00  0.98156571493E+03  0.98156571495E+03  0.50400001928E-02 0.  1.
       -1   -1    0    0    0  501  0.00000000000E+00  0.00000000000E+00 -0.30999367099E+04  0.30999367099E+04  0.50400001928E-02 0. -1.
    10030    2    1    2    0    0  0.00000000000E+00  0.00000000000E+00 -0.21183709950E+04  0.40815024249E+04  0.34887198758E+04 0.  0.
        2    1    3    3  502    0 -0.32506074838E+02 -0.47408327156E+03 -0.30227530241E+04  0.30598770298E+04  0.25500000920E-02 0. -1.
       -2    1    3    3    0  502  0.32506074838E+02  0.47408327156E+03  0.90438202907E+03  0.10216253950E+04  0.25500000920E-02 0.  1.
</event>
<event>
 5   0  0.3026332E-07  0.3467774E+04  0.7818609E-02  0.8121470E-01
        1   -1    0    0  501    0  0.00000000000E+00  0.00000000000E+00  0.28307888381E+04  0.28307888381E+04  0.50400001928E-02 0. -1.
       -1   -1    0    0    0  501  0.00000000000E+00  0.00000000000E+00 -0.10620236799E+04  0.10620236800E+04  0.50400001928E-02 0.  1.
    10030    2    1    2    0    0  0.00000000000E+00  0.00000000000E+00  0.17687651582E+04  0.38928125181E+04  0.34677743750E+04 0.  0.
        1    1    3    3  502    0  0.24319277820E+03 -0.10294980399E+04  0.24265784976E+04  0.26471290385E+04  0.50400001928E-02 0. -1.
       -1    1    3    3    0  502 -0.24319277820E+03  0.10294980399E+04 -0.65781333945E+03  0.12456834795E+04  0.50400001928E-02 0.  1.
</event>
<event>
 5   0  0.3026332E-07  0.3341282E+04  0.7818609E-02  0.8152470E-01
       -1   -1    0    0    0  501  0.00000000000E+00  0.00000000000E+00  0.21396662711E+04  0.21396662711E+04  0.50400001928E-02 0. -1.
        1   -1    0    0  501    0  0.00000000000E+00  0.00000000000E+00 -0.13044280719E+04  0.13044280720E+04  0.50400001928E-02 0.  1.
    10030    2    1    2    0    0  0.00000000000E+00  0.00000000000E+00  0.83523819916E+03  0.34440943431E+04  0.33412816395E+04 0.  0.
        1    1    3    3  502    0  0.13416501276E+04 -0.78289073018E+03 -0.21619810513E+03  0.15683381590E+04  0.50400001928E-02 0. -1.
       -1    1    3    3    0  502 -0.13416501276E+04  0.78289073018E+03  0.10514363043E+04  0.18757561841E+04  0.50400001928E-02 0.  1.
</event>
<event>
 5   0  0.9311672E-07  0.2937135E+04  0.7818609E-02  0.8261914E-01
        2   -1    0    0  501    0  0.00000000000E+00  0.00000000000E+00  0.28784480120E+04  0.28784480120E+04  0.25500000920E-02 0.  1.
       -2   -1    0    0    0  501  0.00000000000E+00  0.00000000000E+00 -0.74925483794E+03  0.74925483795E+03  0.25500000920E-02 0. -1.
    10030    2    1    2    0    0  0.00000000000E+00  0.00000000000E+00  0.21291931741E+04  0.36277028500E+04  0.29371354063E+04 0.  0.
        4    1    3    3  502    0  0.81441533273E+02  0.14236519649E+04  0.14982469222E+04  0.20683720877E+04  0.12699999809E+01 0. -1.
       -4    1    3    3    0  502 -0.81441533273E+02 -0.14236519649E+04  0.63094625192E+03  0.15593307623E+04  0.12699999809E+01 0.  1.
</event>
<event>
 5   0  0.3061330E-07  0.3422643E+04  0.7818609E-02  0.8132371E-01
        1   -1    0    0  501    0  0.00000000000E+00  0.00000000000E+00  0.18398581008E+04  0.18398581008E+04  0.50400001928E-02 0. -1.
       -1   -1    0    0    0  501  0.00000000000E+00  0.00000000000E+00 -0.15917643147E+04  0.15917643147E+04  0.50400001928E-02 0.  1.
    10030    2    1    2    0    0  0.00000000000E+00  0.00000000000E+00  0.24809378611E+03  0.34316224155E+04  0.34226425282E+04 0.  0.
        5    1    3    3  502    0  0.85828132631E+03 -0.14712058113E+04  0.29032834733E+03  0.17278327505E+04  0.46999998093E+01 0.  1.
       -5    1    3    3    0  502 -0.85828132631E+03  0.14712058113E+04 -0.42234561218E+02  0.17037896650E+04  0.46999998093E+01 0. -1.
</event>
<event>
 5   0  0.2933506E-07  0.3469895E+04  0.7818609E-02  0.8120962E-01
       -1   -1    0    0    0  501  0.00000000000E+00  0.00000000000E+00  0.11816855280E+04  0.11816855280E+04  0.50400001928E-02 0. -1.
        1   -1    0    0  501    0  0.00000000000E+00  0.00000000000E+00 -0.25472451257E+04  0.25472451257E+04  0.50400001928E-02 0.  1.
    10030    2    1    2    0    0  0.00000000000E+00  0.00000000000E+00 -0.13655595977E+04  0.37289306538E+04  0.34698949272E+04 0.  0.
        4    1    3    3  502    0  0.10742925112E+04 -0.13619877182E+04 -0.65007531019E+03  0.18524887222E+04  0.12699999809E+01 0. -1.
       -4    1    3    3    0  502 -0.10742925112E+04  0.13619877182E+04 -0.71548428750E+03  0.18764419316E+04  0.12699999809E+01 0.  1.
</event>
<event>
 5   0  0.2936607E-07  0.3492660E+04  0.7818609E-02  0.8115532E-01
        1   -1    0    0  501    0  0.00000000000E+00  0.00000000000E+00  0.25114937066E+04  0.25114937066E+04  0.50400001928E-02 0. -1.
       -1   -1    0    0    0  501  0.00000000000E+00  0.00000000000E+00 -0.12142849740E+04  0.12142849740E+04  0.50400001928E-02 0.  1.
    10030    2    1    2    0    0  0.00000000000E+00  0.00000000000E+00  0.12972087327E+04  0.37257786806E+04  0.34926603443E+04 0.  0.
        2    1    3    3  502    0 -0.78119719324E+03  0.54158617038E+03  0.22113349169E+04  0.24069870688E+04  0.25500000920E-02 0. -1.
       -2    1    3    3    0  502  0.78119719324E+03 -0.54158617038E+03 -0.91412618424E+03  0.13187916118E+04  0.25500000920E-02 0.  1.
</event>
<event>
 5   0  0.6188930E-07  0.3435335E+04  0.7818609E-02  0.8129288E-01
        2   -1    0    0  501    0  0.00000000000E+00  0.00000000000E+00  0.12192115119E+04  0.12192115119E+04  0.25500000920E-02 0. -1.
       -2   -1    0    0    0  501  0.00000000000E+00  0.00000000000E+00 -0.24199102533E+04  0.24199102533E+04  0.25500000920E-02 0.  1.
    10030    2    1    2    0    0  0.00000000000E+00  0.00000000000E+00 -0.12006987414E+04  0.36391217652E+04  0.34353354646E+04 0.  0.
        3    1    3    3  502    0  0.70658444184E+03  0.34050225646E+03 -0.22191282488E+04  0.23536638577E+04  0.10100000352E+00 0.  1.
       -3    1    3    3    0  502 -0.70658444184E+03 -0.34050225646E+03  0.10184295074E+04  0.12854579075E+04  0.10100000352E+00 0. -1.
</event>
<event>
 5   0  0.9311672E-07  0.3456014E+04  0.7818609E-02  0.8124294E-01
        2   -1    0    0  501    0  0.00000000000E+00  0.00000000000E+00  0.14184345150E+04  0.14184345150E+04  0.25500000920E-02 0.  1.
       -2   -1    0    0    0  501  0.00000000000E+00  0.00000000000E+00 -0.21051439920E+04  0.21051439920E+04  0.25500000920E-02 0. -1.
    10030    2    1    2    0    0  0.00000000000E+00  0.00000000000E+00 -0.68670947699E+03  0.35235785070E+04  0.34560144082E+04 0.  0.
        4    1    3    3  502    0  0.28778756477E+03 -0.57310340596E+03  0.12926137593E+04  0.14429556958E+04  0.12699999809E+01 0.  1.
       -4    1    3    3    0  502 -0.28778756477E+03  0.57310340596E+03 -0.19793232363E+04  0.20806228113E+04  0.12699999809E+01 0. -1.
</event>
<event>
 5   0  0.9128871E-07  0.3454401E+04  0.7818609E-02  0.8124682E-01
       -2   -1    0    0    0  501  0.00000000000E+00  0.00000000000E+00  0.13257941853E+04  0.13257941853E+04  0.25500000920E-02 0. -1.
        2   -1    0    0  501    0  0.00000000000E+00  0.00000000000E+00 -0.22501395933E+04  0.22501395933E+04  0.25500000920E-02 0.  1.
    10030    2    1    2    0    0  0.00000000000E+00  0.00000000000E+00 -0.92434540803E+03  0.35759337786E+04  0.34544012442E+04 0.  0.
        1    1    3    3  502    0  0.35648297452E+03 -0.54095458755E+03  0.11952534788E+04  0.13595377359E+04  0.50400001928E-02 0. -1.
       -1    1    3    3    0  502 -0.35648297452E+03  0.54095458755E+03 -0.21195988868E+04  0.22163960427E+04  0.50400001928E-02 0.  1.
</event>
<event>
 5   0  0.6188930E-07  0.3504757E+04  0.7818609E-02  0.8112663E-01
       -2   -1    0    0    0  501  0.00000000000E+00  0.00000000000E+00  0.15477954080E+04  0.15477954080E+04  0.25500000920E-02 0. -1.
        2   -1    0    0  501    0  0.00000000000E+00  0.00000000000E+00 -0.19840032099E+04  0.19840032099E+04  0.25500000920E-02 0.  1.
    10030    2    1    2    0    0  0.00000000000E+00  0.00000000000E+00 -0.43620780188E+03  0.35317986179E+04  0.35047573712E+04 0.  0.
        3    1    3    3  502    0 -0.21733867477E+03  0.83344168590E+03 -0.17559749195E+04  0.19558397357E+04  0.10100000352E+00 0.  1.
       -3    1    3    3    0  502  0.21733867477E+03 -0.83344168590E+03  0.13197671177E+04  0.15759588822E+04  0.10100000352E+00 0. -1.
</event>
<event>
 5   0  0.3061330E-07  0.3502516E+04  0.7818609E-02  0.8113194E-01
        1   -1    0    0  501    0  0.00000000000E+00  0.00000000000E+00  0.15597969511E+04  0.15597969511E+04  0.50400001928E-02 0. -1.
       -1   -1    0    0    0  501  0.00000000000E+00  0.00000000000E+00 -0.19662204309E+04  0.19662204309E+04  0.50400001928E-02 0.  1.
    10030    2    1    2    0    0  0.00000000000E+00  0.00000000000E+00 -0.40642347982E+03  0.35260173820E+04  0.35025160290E+04 0.  0.
        5    1    3    3  502    0  0.14086223421E+04 -0.76604390238E+03  0.50567383538E+03  0.16812995810E+04  0.46999998093E+01 0. -1.
       -5    1    3    3    0  502 -0.14086223421E+04  0.76604390238E+03 -0.91209731520E+03  0.18447178011E+04  0.46999998093E+01 0.  1.
</event>
<event>
 5   0  0.2936607E-07  0.3491674E+04  0.7818609E-02  0.8115766E-01
        1   -1    0    0  501    0  0.00000000000E+00  0.00000000000E+00  0.25377549578E+04  0.25377549578E+04  0.50400001928E-02 0.  1.
       -1   -1    0    0    0  501  0.00000000000E+00  0.00000000000E+00 -0.12010408281E+04  0.12010408281E+04  0.50400001928E-02 0. -1.
    10030    2    1    2    0    0  0.00000000000E+00  0.00000000000E+00  0.13367141297E+04  0.37387957860E+04  0.34916742782E+04 0.  0.
        2    1    3    3  502    0  0.14170096248E+04 -0.62044915271E+03 -0.19829178533E+03  0.15595489925E+04  0.25500000920E-02 0. -1.
       -2    1    3    3    0  502 -0.14170096248E+04  0.62044915271E+03  0.15350059150E+04  0.21792467935E+04  0.25500000920E-02 0.  1.
</event>
<event>
 5   0  0.2972541E-07  0.3391039E+04  0.7818609E-02  0.8140109E-01
       -1   -1    0    0    0  501  0.00000000000E+00  0.00000000000E+00  0.10840680559E+04  0.10840680559E+04  0.50400001928E-02 0. -1.
        1   -1    0    0  501    0  0.00000000000E+00  0.00000000000E+00 -0.26518497533E+04  0.26518497533E+04  0.50400001928E-02 0.  1.
    10030    2    1    2    0    0  0.00000000000E+00  0.00000000000E+00 -0.15677816974E+04  0.37359178092E+04  0.33910385469E+04 0.  0.
        3    1    3    3  502    0 -0.15925219069E+04 -0.14565827749E+03 -0.16316814986E+03  0.16074719945E+04  0.10100000352E+00 0. -1.
       -3    1    3    3    0  502  0.15925219069E+04  0.14565827749E+03 -0.14046135475E+04  0.21284458147E+04  0.10100000352E+00 0.  1.
</event>
<event>
 5   0  0.3026332E-07  0.2970779E+04  0.7818609E-02  0.8252125E-01
        1   -1    0    0  501    0  0.00000000000E+00  0.00000000000E+00  0.23770827973E+04  0.23770827973E+04  0.50400001928E-02 0. -1.
       -1   -1    0    0    0  501  0.00000000000E+00  0.00000000000E+00 -0.92818867565E+03  0.92818867566E+03  0.50400001928E-02 0.  1.
    10030    2    1    2    0    0  0.00000000000E+00  0.00000000000E+00  0.14488941217E+04  0.33052714730E+04  0.29707785738E+04 0.  0.
        1    1    3    3  502    0  0.14146867127E+04 -0.36288564538E+03  0.42310678596E+03  0.15205406404E+04  0.50400001928E-02 0.  1.
       -1    1    3    3    0  502 -0.14146867127E+04  0.36288564538E+03  0.10257873357E+04  0.17847308326E+04  0.50400001928E-02 0. -1.
</event>
<event>
 5   0  0.9311672E-07  0.3533943E+04  0.7818609E-02  0.8105793E-01
        2   -1    0    0  501    0  0.00000000000E+00  0.00000000000E+00  0.14809661228E+04  0.14809661228E+04  0.25500000920E-02 0.  1.
       -2   -1    0    0    0  501  0.00000000000E+00  0.00000000000E+00 -0.21082105706E+04  0.21082105706E+04  0.25500000920E-02 0. -1.
    10030    2    1    2    0    0  0.00000000000E+00  0.00000000000E+00 -0.62724444784E+03  0.35891766934E+04  0.35339430865E+04 0.  0.
        4    1    3    3  502    0 -0.17013561747E+04  0.47583665277E+03 -0.34811579360E+03  0.18006164422E+04  0.12699999809E+01 0. -1.
       -4    1    3    3    0  502  0.17013561747E+04 -0.47583665277E+03 -0.27912865424E+03  0.17885602511E+04  0.12699999809E+01 0.  1.
</event>
<event>
 5   0  0.9128871E-07  0.3573083E+04  0.7818609E-02  0.8096685E-01
        2   -1    0    0  501    0  0.00000000000E+00  0.00000000000E+00  0.17865508647E+04  0.17865508647E+04  0.25500000920E-02 0.  1.
       -2   -1    0    0    0  501  0.00000000000E+00  0.00000000000E+00 -0.17865318480E+04  0.17865318480E+04  0.25500000920E-02 0. -1.
    10030    2    1    2    0    0  0.00000000000E+00  0.00000000000E+00  0.19016697416E-01  0.35730827128E+04  0.35730827127E+04 0.  0.
        1    1    3    3  502    0  0.61787916682E+03  0.10171149218E+04  0.13324631057E+04  0.17865484480E+04  0.50400001928E-02 0.  1.
       -1    1    3    3    0  502 -0.61787916682E+03 -0.10171149218E+04 -0.13324440890E+04  0.17865342648E+04  0.50400001928E-02 0. -1.
</event>
<event>
 5   0  0.8950809E-07  0.3327550E+04  0.7818609E-02  0.8155920E-01
       -2   -1    0    0    0  501  0.00000000000E+00  0.00000000000E+00  0.14394061933E+04  0.14394061933E+04  0.25500000920E-02 0. -1.
        2   -1    0    0  501    0  0.00000000000E+00  0.00000000000E+00 -0.19231174802E+04  0.19231174802E+04  0.25500000920E-02 0.  1.
    10030    2    1    2    0    0  0.00000000000E+00  0.00000000000E+00 -0.48371128695E+03  0.33625236735E+04  0.33275499764E+04 0.  0.
        2    1    3    3  502    0  0.11744688217E+04  0.10532249528E+03  0.94422584048E+03  0.15106396920E+04  0.25500000920E-02 0. -1.
       -2    1    3    3    0  502 -0.11744688217E+04 -0.10532249528E+03 -0.14279371274E+04  0.18518839815E+04  0.25500000920E-02 0.  1.
</event>
<event>
 5   0  0.3026332E-07  0.3489026E+04  0.7818609E-02  0.8116395E-01
       -1   -1    0    0    0  501  0.00000000000E+00  0.00000000000E+00  0.12637725780E+04  0.12637725780E+04  0.50400001928E-02 0.  1.
        1   -1    0    0  501    0  0.00000000000E+00  0.00000000000E+00 -0.24081282724E+04  0.24081282724E+04  0.50400001928E-02 0. -1.
    10030    2    1    2    0    0  0.00000000000E+00  0.00000000000E+00 -0.11443556944E+04  0.36719008504E+04  0.34890264975E+04 0.  0.
        1    1    3    3  502    0 -0.26624875509E+03  0.95340667318E+03  0.93958633634E+03  0.13648059084E+04  0.50400001928E-02 0.  1.
       -1    1    3    3    0  502  0.26624875509E+03 -0.95340667318E+03 -0.20839420308E+04  0.23070949421E+04  0.50400001928E-02 0. -1.
</event>
<event>
 5   0  0.6188930E-07  0.3539265E+04  0.7818609E-02  0.8104547E-01
       -2   -1    0    0    0  501  0.00000000000E+00  0.00000000000E+00  0.18674124226E+04  0.18674124226E+04  0.25500000920E-02 0. -1.
        2   -1    0    0  501    0  0.00000000000E+00  0.00000000000E+00 -0.16769722148E+04  0.16769722148E+04  0.25500000920E-02 0.  1.
    10030    2    1    2    0    0  0.00000000000E+00  0.00000000000E+00  0.19044020779E+03  0.35443846374E+04  0.35392647521E+04 0.  0.
        3    1    3    3  502    0  0.37505575940E+03 -0.11786110924E+03  0.18231263661E+04  0.18650329275E+04  0.10100000352E+00 0. -1.
       -3    1    3    3    0  502 -0.37505575940E+03  0.11786110924E+03 -0.16326861583E+04  0.16793517099E+04  0.10100000352E+00 0.  1.
</event>
<event>
 5   0  0.8845195E-07  0.3514580E+04  0.7818609E-02  0.8110343E-01
       -2   -1    0    0    0  501  0.00000000000E+00  0.00000000000E+00  0.21396432485E+04  0.21396432485E+04  0.25500000920E-02 0. -1.
        2   -1    0    0  501    0  0.00000000000E+00  0.00000000000E+00 -0.14432628666E+04  0.14432628666E+04  0.25500000920E-02 0.  1.
    10030    2    1    2    0    0  0.00000000000E+00  0.00000000000E+00  0.69638038189E+03  0.35829061151E+04  0.35145797179E+04 0.  0.
        5    1    3    3  502    0  0.12288111783E+04  0.61434406470E+03 -0.76885371964E+03  0.15743422989E+04  0.46999998093E+01 0.  1.
       -5    1    3    3    0  502 -0.12288111783E+04 -0.61434406470E+03  0.14652341015E+04  0.20085638163E+04  0.46999998093E+01 0. -1.
</event>
<event>
 5   0  0.9128871E-07  0.3461310E+04  0.7818609E-02  0.8123021E-01
       -2   -1    0    0    0  501  0.00000000000E+00  0.00000000000E+00  0.12193142867E+04  0.12193142867E+04  0.25500000920E-02 0.  1.
        2   -1    0    0  501    0  0.00000000000E+00  0.00000000000E+00 -0.24564359599E+04  0.24564359599E+04  0.25500000920E-02 0. -1.
    10030    2    1    2    0    0  0.00000000000E+00  0.00000000000E+00 -0.12371216731E+04  0.36757502466E+04  0.34613104226E+04 0.  0.
        1    1    3    3  502    0 -0.39467517722E+03  0.11816183332E+04  0.65718822147E+03  0.14085051435E+04  0.50400001928E-02 0.  1.
       -1    1    3    3    0  502  0.39467517722E+03 -0.11816183332E+04 -0.18943098946E+04  0.22672451031E+04  0.50400001928E-02 0. -1.
</event>
<event>
 5   0  0.3026332E-07  0.3674912E+04  0.7818609E-02  0.8073545E-01
       -1   -1    0    0    0  501  0.00000000000E+00  0.00000000000E+00  0.13021086855E+04  0.13021086855E+04  0.50400001928E-02 0.  1.
        1   -1    0    0  501    0  0.00000000000E+00  0.00000000000E+00 -0.25929047112E+04  0.25929047112E+04  0.50400001928E-02 0. -1.
    10030    2    1    2    0    0  0.00000000000E+00  0.00000000000E+00 -0.12907960257E+04  0.38950133966E+04  0.36749115608E+04 0.  0.
        1    1    3    3  502    0  0.29962716560E+03 -0.14017752241E+04  0.57301515515E+03  0.15437281449E+04  0.50400001928E-02 0.  1.
       -1    1    3    3    0  502 -0.29962716560E+03  0.14017752241E+04 -0.18638111809E+04  0.23512852518E+04  0.50400001928E-02 0. -1.
</event>
<event>
 5   0  0.2933506E-07  0.3485778E+04  0.7818609E-02  0.8117169E-01
       -1   -1    0    0    0  501  0.00000000000E+00  0.00000000000E+00  0.31000864900E+04  0.31000864900E+04  0.50400001928E-02 0. -1.
        1   -1    0    0  501    0  0.00000000000E+00  0.00000000000E+00 -0.97986391340E+03  0.97986391341E+03  0.50400001928E-02 0.  1.
    10030    2    1    2    0    0  0.00000000000E+00  0.00000000000E+00  0.21202225766E+04  0.40799504034E+04  0.34857784669E+04 0.  0.
        4    1    3    3  502    0  0.10300694419E+04 -0.55653100264E+03 -0.45104283730E+03  0.12546756816E+04  0.12699999809E+01 0.  1.
       -4    1    3    3    0  502 -0.10300694419E+04  0.55653100264E+03  0.25712654139E+04  0.28252747218E+04  0.12699999809E+01 0. -1.
</event>
<event>
 5   0  0.2972541E-07  0.3472795E+04  0.7818609E-02  0.8120268E-01
       -1   -1    0    0    0  501  0.00000000000E+00  0.00000000000E+00  0.10216934201E+04  0.10216934201E+04  0.50400001928E-02 0.  1.
        1   -1    0    0  501    0  0.00000000000E+00  0.00000000000E+00 -0.29510579972E+04  0.29510579972E+04  0.50400001928E-02 0. -1.
    10030    2    1    2    0    0  0.00000000000E+00  0.00000000000E+00 -0.19293645771E+04  0.39727514173E+04  0.34727951498E+04 0.  0.
        3    1    3    3  502    0 -0.51830641207E+03  0.39750418472E+03 -0.28051578395E+04  0.28802016645E+04  0.10100000352E+00 0. -1.
       -3    1    3    3    0  502  0.51830641207E+03 -0.39750418472E+03  0.87579326241E+03  0.10925497528E+04  0.10100000352E+00 0.  1.
</event>
<event>
 5   0  0.9311672E-07  0.3492506E+04  0.7818609E-02  0.8115568E-01
        2   -1    0    0  501    0  0.00000000000E+00  0.00000000000E+00  0.26595373810E+04  0.26595373810E+04  0.25500000920E-02 0. -1.
       -2   -1    0    0    0  501  0.00000000000E+00  0.00000000000E+00 -0.11465904623E+04  0.11465904623E+04  0.25500000920E-02 0.  1.
    10030    2    1    2    0    0  0.00000000000E+00  0.00000000000E+00  0.15129469187E+04  0.38061278433E+04  0.34925063752E+04 0.  0.
        4    1    3    3  502    0 -0.42299706828E+03 -0.15841143549E+04  0.14113087975E+04  0.21633628785E+04  0.12699999809E+01 0. -1.
       -4    1    3    3    0  502  0.42299706828E+03  0.15841143549E+04  0.10163812119E+03  0.16427649648E+04  0.12699999809E+01 0.  1.
</event>
<event>
 5   0  0.8845195E-07  0.3445179E+04  0.7818609E-02  0.8126906E-01
       -2   -1    0    0    0  501  0.00000000000E+00  0.00000000000E+00  0.15157532142E+04  0.15157532142E+04  0.25500000920E-02 0. -1.
        2   -1    0    0  501    0  0.00000000000E+00  0.00000000000E+00 -0.19576503042E+04  0.19576503042E+04  0.25500000920E-02 0.  1.
    10030    2    1    2    0    0  0.00000000000E+00  0.00000000000E+00 -0.44189709001E+03  0.34734035185E+04  0.34451790903E+04 0.  0.
        5    1    3    3  502    0  0.93781925395E+03  0.34594747255E+02 -0.16772862439E+04  0.19219815253E+04  0.46999998093E+01 0.  1.
       -5    1    3    3    0  502 -0.93781925395E+03 -0.34594747255E+02  0.12353891538E+04  0.15514219932E+04  0.46999998093E+01 0. -1.
</event>
<event>
 5   0  0.8950809E-07  0.3475988E+04  0.7818609E-02  0.8119504E-01
        2   -1    0    0  501    0  0.00000000000E+00  0.00000000000E+00  0.13288376672E+04  0.13288376672E+04  0.25500000920E-02 0.  1.
       -2   -1    0    0    0  501  0.00000000000E+00  0.00000000000E+00 -0.22731317728E+04  0.22731317728E+04  0.25500000920E-02 0. -1.
    10030    2    1    2    0    0  0.00000000000E+00  0.00000000000E+00 -0.94429410560E+03  0.36019694401E+04  0.34759879875E+04 0.  0.
        2    1    3    3  502    0  0.15957491916E+04 -0.68799559646E+03 -0.50270655474E+03  0.18089962143E+04  0.25500000920E-02 0. -1.
       -2    1    3    3    0  502 -0.15957491916E+04  0.68799559646E+03 -0.44158755086E+03  0.17929732258E+04  0.25500000920E-02 0.  1.
</event>
<event>
 5   0  0.6188930E-07  0.3503098E+04  0.7818609E-02  0.8113056E-01
       -2   -1    0    0    0  501  0.00000000000E+00  0.00000000000E+00  0.12889968692E+04  0.12889968693E+04  0.25500000920E-02 0.  1.
        2   -1    0    0  501    0  0.00000000000E+00  0.00000000000E+00 -0.23800863881E+04  0.23800863881E+04  0.25500000920E-02 0. -1.
    10030    2    1    2    0    0  0.00000000000E+00  0.00000000000E+00 -0.10910895188E+04  0.36690832573E+04  0.35030980019E+04 0.  0.
        3    1    3    3  502    0 -0.73152917616E+03  0.13668644397E+04  0.30822968581E+03  0.15806514105E+04  0.10100000352E+00 0.  1.
       -3    1    3    3    0  502  0.73152917616E+03 -0.13668644397E+04 -0.13993192047E+04  0.20884318468E+04  0.10100000352E+00 0. -1.
</event>
<event>
 5   0  0.8950809E-07  0.3473017E+04  0.7818609E-02  0.8120214E-01
        2   -1    0    0  501    0  0.00000000000E+00  0.00000000000E+00  0.17536762843E+04  0.17536762843E+04  0.25500000920E-02 0. -1.
       -2   -1    0    0    0  501  0.00000000000E+00  0.00000000000E+00 -0.17195089797E+04  0.17195089797E+04  0.25500000920E-02 0.  1.
    10030    2    1    2    0    0  0.00000000000E+00  0.00000000000E+00  0.34167304611E+02  0.34731852640E+04  0.34730172003E+04 0.  0.
        2    1    3    3  502    0  0.83009883951E+03  0.24561170558E+03 -0.14883373010E+04  0.17217831207E+04  0.25500000920E-02 0.  1.
       -2    1    3    3    0  502 -0.83009883951E+03 -0.24561170558E+03  0.15225046056E+04  0.17514021433E+04  0.25500000920E-02 0. -1.
</event>
<event>
 5   0  0.6188930E-07  0.3139039E+04  0.7818609E-02  0.8205105E-01
       -2   -1    0    0    0  501  0.00000000000E+00  0.00000000000E+00  0.14146532265E+04  0.14146532265E+04  0.25500000920E-02 0. -1.
        2   -1    0    0  501    0  0.00000000000E+00  0.00000000000E+00 -0.17413393116E+04  0.17413393116E+04  0.25500000920E-02 0.  1.
    10030    2    1    2    0    0  0.00000000000E+00  0.00000000000E+00 -0.32668608516E+03  0.31559925381E+04  0.31390388819E+04 0.  0.
        3    1    3    3  502    0 -0.12672910659E+04  0.84219181383E+03  0.22354375498E+03  0.15379484769E+04  0.10100000352E+00 0. -1.
       -3    1    3    3    0  502  0.12672910659E+04 -0.84219181383E+03 -0.55022984015E+03  0.16180440612E+04  0.10100000352E+00 0.  1.
</event>
<event>
 5   0  0.6188930E-07  0.3555202E+04  0.7818609E-02  0.8100831E-01
        2   -1    0    0  501    0  0.00000000000E+00  0.00000000000E+00  0.18180123492E+04  0.18180123492E+04  0.25500000920E-02 0.  1.
       -2   -1    0    0    0  501  0.00000000000E+00  0.00000000000E+00 -0.17380878063E+04  0.17380878063E+04  0.25500000920E-02 0. -1.
    10030    2    1    2    0    0  0.00000000000E+00  0.00000000000E+00  0.79924542884E+02  0.35561001554E+04  0.35552018765E+04 0.  0.
        3    1    3    3  502    0  0.12101643607E+04  0.11789256403E+04  0.59282395350E+03  0.17904758293E+04  0.10100000352E+00 0. -1.
       -3    1    3    3    0  502 -0.12101643607E+04 -0.11789256403E+04 -0.51289941062E+03  0.17656243261E+04  0.10100000352E+00 0.  1.
</event>
<event>
 5   0  0.9311672E-07  0.3457470E+04  0.7818609E-02  0.8123944E-01
        2   -1    0    0  501    0  0.00000000000E+00  0.00000000000E+00  0.19967395654E+04  0.19967395654E+04  0.25500000920E-02 0. -1.
       -2   -1    0    0    0  501  0.00000000000E+00  0.00000000000E+00 -0.14967022821E+04  0.14967022821E+04  0.25500000920E-02 0.  1.
    10030    2    1    2    0    0  0.00000000000E+00  0.00000000000E+00  0.50003728331E+03  0.34934418476E+04  0.34574699793E+04 0.  0.
        4    1    3    3  502    0 -0.10987559725E+04  0.84425511060E+01  0.15985152843E+04  0.19397393358E+04  0.12699999809E+01 0. -1.
       -4    1    3    3    0  502  0.10987559725E+04 -0.84425511060E+01 -0.10984780010E+04  0.15537025118E+04  0.12699999809E+01 0.  1.
</event>
<event>
 5   0  0.2972541E-07  0.3107361E+04  0.7818609E-02  0.8213721E-01
        1   -1    0    0  501    0  0.00000000000E+00  0.00000000000E+00  0.24303081952E+04  0.24303081952E+04  0.50400001928E-02 0. -1.
       -1   -1    0    0    0  501  0.00000000000E+00  0.00000000000E+00 -0.99325829655E+03  0.99325829657E+03  0.50400001928E-02 0.  1.
    10030    2    1    2    0    0  0.00000000000E+00  0.00000000000E+00  0.14370498987E+04  0.34235664918E+04  0.31073614390E+04 0.  0.
        3    1    3    3  502    0  0.73991530937E+03  0.80307452365E+03  0.19362166874E+04  0.22229121499E+04  0.10100000352E+00 0. -1.
       -3    1    3    3    0  502 -0.73991530937E+03 -0.80307452365E+03 -0.49916678869E+03  0.12006543419E+04  0.10100000352E+00 0.  1.
</event>
<event>
 5   0  0.2936607E-07  0.3478492E+04  0.7818609E-02  0.8118906E-01
        1   -1    0    0  501    0  0.00000000000E+00  0.00000000000E+00  0.14625333792E+04  0.14625333792E+04  0.50400001928E-02 0.  1.
       -1   -1    0    0    0  501  0.00000000000E+00  0.00000000000E+00 -0.20683127012E+04  0.20683127012E+04  0.50400001928E-02 0. -1.
    10030    2    1    2    0    0  0.00000000000E+00  0.00000000000E+00 -0.60577932198E+03  0.35308460804E+04  0.34784918365E+04 0.  0.
        2    1    3    3  502    0 -0.59771424065E+03  0.58859139290E+03 -0.18493935688E+04  0.20307532380E+04  0.25500000920E-02 0. -1.
       -2    1    3    3    0  502  0.59771424065E+03 -0.58859139290E+03  0.12436142468E+04  0.15000928425E+04  0.25500000920E-02 0.  1.
</event>
<event>
 5   0  0.2936607E-07  0.3477569E+04  0.7818609E-02  0.8119127E-01
       -1   -1    0    0    0  501  0.00000000000E+00  0.00000000000E+00  0.12408595433E+04  0.12408595433E+04  0.50400001928E-02 0. -1.
        1   -1    0    0  501    0  0.00000000000E+00  0.00000000000E+00 -0.24365134688E+04  0.24365134689E+04  0.50400001928E-02 0.  1.
    10030    2    1    2    0    0  0.00000000000E+00  0.00000000000E+00 -0.11956539255E+04  0.36773730122E+04  0.34775686853E+04 0.  0.
        2    1    3    3  502    0 -0.66165651704E+03 -0.97491827981E+03 -0.19500123896E+04  0.22783334520E+04  0.25500000920E-02 0.  1.
       -2    1    3    3    0  502  0.66165651704E+03  0.97491827981E+03  0.75435846403E+03  0.13990395602E+04  0.25500000920E-02 0. -1.
</event>
<event>
 5   0  0.2972541E-07  0.3326436E+04  0.7818609E-02  0.8156201E-01
       -1   -1    0    0    0  501  0.00000000000E+00  0.00000000000E+00  0.13090305824E+04  0.13090305824E+04  0.50400001928E-02 0.  1.
        1   -1    0    0  501    0  0.00000000000E+00  0.00000000000E+00 -0.21132381869E+04  0.21132381869E+04  0.50400001928E-02 0. -1.
    10030    2    1    2    0    0  0.00000000000E+00  0.00000000000E+00 -0.80420760448E+03  0.34222687693E+04  0.33264355785E+04 0.  0.
        3    1    3    3  502    0 -0.85562904477E+03  0.13546925249E+04  0.56842723078E+02  0.16032853784E+04  0.10100000352E+00 0.  1.
       -3    1    3    3    0  502  0.85562904477E+03 -0.13546925249E+04 -0.86105032756E+03  0.18189833908E+04  0.10100000352E+00 0. -1.
</event>
<event>
 5   0  0.9128871E-07  0.3453753E+04  0.7818609E-02  0.8124838E-01
        2   -1    0    0  501    0  0.00000000000E+00  0.00000000000E+00  0.16696873686E+04  0.16696873686E+04  0.25500000920E-02 0.  1.
       -2   -1    0    0    0  501  0.00000000000E+00  0.00000000000E+00 -0.17860248623E+04  0.17860248623E+04  0.25500000920E-02 0. -1.
    10030    2    1    2    0    0  0.00000000000E+00  0.00000000000E+00 -0.11633749373E+03  0.34557122309E+04  0.34537534090E+04 0.  0.
        1    1    3    3  502    0  0.17182579413E+03  0.36321368067E+03 -0.17386018128E+04  0.17844283524E+04  0.50400001928E-02 0. -1.
       -1    1    3    3    0  502 -0.17182579413E+03 -0.36321368067E+03  0.16222643191E+04  0.16712838784E+04  0.50400001928E-02 0.  1.
</event>
<event>
 5   0  0.2972541E-07  0.3562144E+04  0.7818609E-02  0.8099219E-01
       -1   -1    0    0    0  501  0.00000000000E+00  0.00000000000E+00  0.20866260393E+04  0.20866260393E+04  0.50400001928E-02 0.  1.
        1   -1    0    0  501    0  0.00000000000E+00  0.00000000000E+00 -0.15202613790E+04  0.15202613790E+04  0.50400001928E-02 0. -1.
    10030    2    1    2    0    0  0.00000000000E+00  0.00000000000E+00  0.56636466026E+03  0.36068874183E+04  0.35621437253E+04 0.  0.
        3    1    3    3  502    0  0.42079034536E+03 -0.28221501229E+03 -0.14457508275E+04  0.15319612572E+04  0.10100000352E+00 0. -1.
       -3    1    3    3    0  502 -0.42079034536E+03  0.28221501229E+03  0.20121154878E+04  0.20749261612E+04  0.10100000352E+00 0.  1.
</event>
<event>
 5   0  0.6188930E-07  0.3477666E+04  0.7818609E-02  0.8119103E-01
       -2   -1    0    0    0  501  0.00000000000E+00  0.00000000000E+00  0.22905320539E+04  0.22905320539E+04  0.25500000920E-02 0.  1.
        2   -1    0    0  501    0  0.00000000000E+00  0.00000000000E+00 -0.13200166049E+04  0.13200166049E+04  0.25500000920E-02 0. -1.
    10030    2    1    2    0    0  0.00000000000E+00  0.00000000000E+00  0.97051544905E+03  0.36105486588E+04  0.34776660824E+04 0.  0.
        3    1    3    3  502    0 -0.24539792257E+03 -0.40828971789E+03 -0.12509513786E+04  0.13385813371E+04  0.10100000352E+00 0. -1.
       -3    1    3    3    0  502  0.24539792257E+03  0.40828971789E+03  0.22214668277E+04  0.22719673217E+04  0.10100000352E+00 0.  1.
</event>
<event>
 5   0  0.3026332E-07  0.3552138E+04  0.7818609E-02  0.8101544E-01
        1   -1    0    0  501    0  0.00000000000E+00  0.00000000000E+00  0.21735274888E+04  0.21735274889E+04  0.50400001928E-02 0.  1.
       -1   -1    0    0    0  501  0.00000000000E+00  0.00000000000E+00 -0.14512907022E+04  0.14512907022E+04  0.50400001928E-02 0. -1.
    10030    2    1    2    0    0  0.00000000000E+00  0.00000000000E+00  0.72223678661E+03  0.36248181911E+04  0.35521375174E+04 0.  0.
        1    1    3    3  502    0  0.12148771096E+03  0.28586447964E+03 -0.14233592585E+04  0.14568559789E+04  0.50400001928E-02 0. -1.
       -1    1    3    3    0  502 -0.12148771096E+03 -0.28586447964E+03  0.21455960451E+04  0.21679622122E+04  0.50400001928E-02 0.  1.
</event>
<event>
 5   0  0.9311672E-07  0.3497925E+04  0.7818609E-02  0.8114282E-01
        2   -1    0    0  501    0  0.00000000000E+00  0.00000000000E+00  0.23328163062E+04  0.23328163062E+04  0.25500000920E-02 0. -1.
       -2   -1    0    0    0  501  0.00000000000E+00  0.00000000000E+00 -0.13112348226E+04  0.13112348226E+04  0.25500000920E-02 0.  1.
    10030    2    1    2    0    0  0.00000000000E+00  0.00000000000E+00  0.10215814836E+04  0.36440511289E+04  0.34979250853E+04 0.  0.
        4    1    3    3  502    0  0.16926648160E+04  0.91138997563E+02  0.95941719517E+03  0.19477945127E+04  0.12699999809E+01 0. -1.
       -4    1    3    3    0  502 -0.16926648160E+04 -0.91138997563E+02  0.62164288444E+02  0.16962566162E+04  0.12699999809E+01 0.  1.
</event>
<event>
 5   0  0.9311672E-07  0.3511584E+04  0.7818609E-02  0.8111050E-01
       -2   -1    0    0    0  501  0.00000000000E+00  0.00000000000E+00  0.18526678288E+04  0.18526678288E+04  0.25500000920E-02 0.  1.
        2   -1    0    0  501    0  0.00000000000E+00  0.00000000000E+00 -0.16639822420E+04  0.16639822420E+04  0.25500000920E-02 0. -1.
    10030    2    1    2    0    0  0.00000000000E+00  0.00000000000E+00  0.18868558687E+03  0.35166500708E+04  0.35115844671E+04 0.  0.
        4    1    3    3  502    0 -0.76561119894E+03 -0.80317150653E+03  0.14570260037E+04  0.18314396974E+04  0.12699999809E+01 0.  1.
       -4    1    3    3    0  502  0.76561119894E+03  0.80317150653E+03 -0.12683404168E+04  0.16852103734E+04  0.12699999809E+01 0. -1.
</event>
<event>
 5   0  0.2972541E-07  0.3510497E+04  0.7818609E-02  0.8111307E-01
        1   -1    0    0  501    0  0.00000000000E+00  0.00000000000E+00  0.18290094253E+04  0.18290094253E+04  0.50400001928E-02 0. -1.
       -1   -1    0    0    0  501  0.00000000000E+00  0.00000000000E+00 -0.16844626666E+04  0.16844626666E+04  0.50400001928E-02 0.  1.
    10030    2    1    2    0    0  0.00000000000E+00  0.00000000000E+00  0.14454675871E+03  0.35134720920E+04  0.35104974541E+04 0.  0.
        3    1    3    3  502    0  0.10573621371E+04 -0.28837046667E+02 -0.13296461395E+04  0.16990600727E+04  0.10100000352E+00 0.  1.
       -3    1    3    3    0  502 -0.10573621371E+04  0.28837046667E+02  0.14741928982E+04  0.18144120192E+04  0.10100000352E+00 0. -1.
</event>
<event>
 5   0  0.3026332E-07  0.3423566E+04  0.7818609E-02  0.8132147E-01
        1   -1    0    0  501    0  0.00000000000E+00  0.00000000000E+00  0.19105252517E+04  0.19105252517E+04  0.50400001928E-02 0. -1.
       -1   -1    0    0    0  501  0.00000000000E+00  0.00000000000E+00 -0.15337145215E+04  0.15337145216E+04  0.50400001928E-02 0.  1.
    10030    2    1    2    0    0  0.00000000000E+00  0.00000000000E+00  0.37681073017E+03  0.34442397733E+04  0.34235655813E+04 0.  0.
        1    1    3    3  502    0 -0.17020692578E+04 -0.27047808345E+02  0.72374150332E+01  0.17022995396E+04  0.50400001928E-02 0. -1.
       -1    1    3    3    0  502  0.17020692578E+04  0.27047808345E+02  0.36957331514E+03  0.17419402337E+04  0.50400001928E-02 0.  1.
</event>
<event>
 5   0  0.2936607E-07  0.3285573E+04  0.7818609E-02  0.8166576E-01
        1   -1    0    0  501    0  0.00000000000E+00  0.00000000000E+00  0.16944484486E+04  0.16944484486E+04  0.50400001928E-02 0. -1.
       -1   -1    0    0    0  501  0.00000000000E+00  0.00000000000E+00 -0.15926995411E+04  0.15926995411E+04  0.50400001928E-02 0.  1.
    10030    2    1    2    0    0  0.00000000000E+00  0.00000000000E+00  0.10174890746E+03  0.32871479897E+04  0.32855728672E+04 0.  0.
        2    1    3    3  502    0  0.26007653461E+03  0.45227280633E+03  0.16093621628E+04  0.16918147258E+04  0.25500000920E-02 0. -1.
       -2    1    3    3    0  502 -0.26007653461E+03 -0.45227280633E+03 -0.15076132554E+04  0.15953332639E+04  0.25500000920E-02 0.  1.
</event>
<event>
 5   0  0.9311672E-07  0.3509028E+04  0.7818609E-02  0.8111654E-01
       -2   -1    0    0    0  501  0.00000000000E+00  0.00000000000E+00  0.23398006278E+04  0.23398006278E+04  0.25500000920E-02 0. -1.
        2   -1    0    0  501    0  0.00000000000E+00  0.00000000000E+00 -0.13156332209E+04  0.13156332209E+04  0.25500000920E-02 0.  1.
    10030    2    1    2    0    0  0.00000000000E+00  0.00000000000E+00  0.10241674069E+04  0.36554338488E+04  0.35090280343E+04 0.  0.
        4    1    3    3  502    0  0.14471686592E+03 -0.12293416691E+04  0.18073826917E+04  0.21906295254E+04  0.12699999809E+01 0. -1.
       -4    1    3    3    0  502 -0.14471686592E+03  0.12293416691E+04 -0.78321528477E+03  0.14648043234E+04  0.12699999809E+01 0.  1.
</event>
<event>
 5   0  0.2972541E-07  0.3459555E+04  0.7818609E-02  0.8123442E-01
        1   -1    0    0  501    0  0.00000000000E+00  0.00000000000E+00  0.19587551809E+04  0.19587551809E+04  0.50400001928E-02 0. -1.
       -1   -1    0    0    0  501  0.00000000000E+00  0.00000000000E+00 -0.15275675538E+04  0.15275675538E+04  0.50400001928E-02 0.  1.
    10030    2    1    2    0    0  0.00000000000E+00  0.00000000000E+00  0.43118762718E+03  0.34863227347E+04  0.34595553820E+04 0.  0.
        3    1    3    3  502    0  0.90947719566E+03  0.13788510242E+04 -0.30194762270E+03  0.16791519566E+04  0.10100000352E+00 0. -1.
       -3    1    3    3    0  502 -0.90947719566E+03 -0.13788510242E+04  0.73313524987E+03  0.18071707781E+04  0.10100000352E+00 0.  1.
</event>
<event>
 5   0  0.8950809E-07  0.3478460E+04  0.7818609E-02  0.8118914E-01
        2   -1    0    0  501    0  0.00000000000E+00  0.00000000000E+00  0.14639557611E+04  0.14639557611E+04  0.25500000920E-02 0. -1.
       -2   -1    0    0    0  501  0.00000000000E+00  0.00000000000E+00 -0.20662657815E+04  0.20662657815E+04  0.25500000920E-02 0.  1.
    10030    2    1    2    0    0  0.00000000000E+00  0.00000000000E+00 -0.60231002036E+03  0.35302215426E+04  0.34784604036E+04 0.  0.
        2    1    3    3  502    0  0.85661515846E+03  0.53033122876E+03  0.11376437804E+04  0.15196295973E+04  0.25500000920E-02 0. -1.
       -2    1    3    3    0  502 -0.85661515846E+03 -0.53033122876E+03 -0.17399538007E+04  0.20105919453E+04  0.25500000920E-02 0.  1.
</event>
<event>
 5   0  0.9311672E-07  0.3480896E+04  0.7818609E-02  0.8118332E-01
        2   -1    0    0  501    0  0.00000000000E+00  0.00000000000E+00  0.25472783734E+04  0.25472783734E+04  0.25500000920E-02 0.  1.
       -2   -1    0    0    0  501  0.00000000000E+00  0.00000000000E+00 -0.11891750200E+04  0.11891750200E+04  0.25500000920E-02 0. -1.
    10030    2    1    2    0    0  0.00000000000E+00  0.00000000000E+00  0.13581033534E+04  0.37364533934E+04  0.34808963274E+04 0.  0.
        4    1    3    3  502    0  0.81113001184E+03  0.11975416825E+03  0.23269776511E+04  0.24672048068E+04  0.12699999809E+01 0.  1.
       -4    1    3    3    0  502 -0.81113001184E+03 -0.11975416825E+03 -0.96887429767E+03  0.12692485866E+04  0.12699999809E+01 0. -1.
</event>
<event>
 5   0  0.3061330E-07  0.3421431E+04  0.7818609E-02  0.8132666E-01
        1   -1    0    0  501    0  0.00000000000E+00  0.00000000000E+00  0.10031067059E+04  0.10031067059E+04  0.50400001928E-02 0. -1.
       -1   -1    0    0    0  501  0.00000000000E+00  0.00000000000E+00 -0.29174831665E+04  0.29174831665E+04  0.50400001928E-02 0.  1.
    10030    2    1    2    0    0  0.00000000000E+00  0.00000000000E+00 -0.19143764606E+04  0.39205898724E+04  0.34214306532E+04 0.  0.
        5    1    3    3  502    0 -0.24746108801E+03  0.33939230070E+03 -0.28574698654E+04  0.28881793998E+04  0.46999998093E+01 0.  1.
       -5    1    3    3    0  502  0.24746108801E+03 -0.33939230070E+03  0.94309340479E+03  0.10324104726E+04  0.46999998093E+01 0. -1.
</event>
<event>
 5   0  0.8845195E-07  0.3485903E+04  0.7818609E-02  0.8117139E-01
        2   -1    0    0  501    0  0.00000000000E+00  0.00000000000E+00  0.14275299638E+04  0.14275299638E+04  0.25500000920E-02 0.  1.
       -2   -1    0    0    0  501  0.00000000000E+00  0.00000000000E+00 -0.21280675983E+04  0.21280675983E+04  0.25500000920E-02 0. -1.
    10030    2    1    2    0    0  0.00000000000E+00  0.00000000000E+00 -0.70053763445E+03  0.35555975621E+04  0.34859031895E+04 0.  0.
        5    1    3    3  502    0 -0.42380040119E+03 -0.32016330598E+03 -0.20435026508E+04  0.21114062840E+04  0.46999998093E+01 0. -1.
       -5    1    3    3    0  502  0.42380040119E+03  0.32016330598E+03  0.13429650163E+04  0.14441912781E+04  0.46999998093E+01 0.  1.
</event>
<event>
 5   0  0.8950809E-07  0.3553266E+04  0.7818609E-02  0.8101281E-01
       -2   -1    0    0    0  501  0.00000000000E+00  0.00000000000E+00  0.16581183380E+04  0.16581183380E+04  0.25500000920E-02 0. -1.
        2   -1    0    0  501    0  0.00000000000E+00  0.00000000000E+00 -0.19036185984E+04  0.19036185984E+04  0.25500000920E-02 0.  1.
    10030    2    1    2    0    0  0.00000000000E+00  0.00000000000E+00 -0.24550026045E+03  0.35617369364E+04  0.35532660506E+04 0.  0.
        2    1    3    3  502    0 -0.15482400693E+04  0.70875531356E+03 -0.63095336689E+03  0.18158974524E+04  0.25500000920E-02 0.  1.
       -2    1    3    3    0  502  0.15482400693E+04 -0.70875531356E+03  0.38545310644E+03  0.17458394840E+04  0.25500000920E-02 0. -1.
</event>
<event>
 5   0  0.6188930E-07  0.3597315E+04  0.7818609E-02  0.8091107E-01
       -2   -1    0    0    0  501  0.00000000000E+00  0.00000000000E+00  0.20343672023E+04  0.20343672023E+04  0.25500000920E-02 0. -1.
        2   -1    0    0  501    0  0.00000000000E+00  0.00000000000E+00 -0.15902583869E+04  0.15902583869E+04  0.25500000920E-02 0.  1.
    10030    2    1    2    0    0  0.00000000000E+00  0.00000000000E+00  0.44410881542E+03  0.36246255892E+04  0.35973153910E+04 0.  0.
        3    1    3    3  502    0 -0.93622394585E+03  0.55337805268E+03  0.16655600661E+04  0.19891789487E+04  0.10100000352E+00 0. -1.
       -3    1    3    3    0  502  0.93622394585E+03 -0.55337805268E+03 -0.12214512507E+04  0.16354466405E+04  0.10100000352E+00 0.  1.
</event>
<event>
 5   0  0.6188930E-07  0.3508884E+04  0.7818609E-02  0.8111688E-01
        2   -1    0    0  501    0  0.00000000000E+00  0.00000000000E+00  0.20895160307E+04  0.20895160307E+04  0.25500000920E-02 0.  1.
       -2   -1    0    0    0  501  0.00000000000E+00  0.00000000000E+00 -0.14731000640E+04  0.14731000640E+04  0.25500000920E-02 0. -1.
    10030    2    1    2    0    0  0.00000000000E+00  0.00000000000E+00  0.61641596663E+03  0.35626160947E+04  0.35088836963E+04 0.  0.
        3    1    3    3  502    0  0.10323932553E+04  0.88700974797E+03  0.14321574817E+04  0.19757776164E+04  0.10100000352E+00 0.  1.
       -3    1    3    3    0  502 -0.10323932553E+04 -0.88700974797E+03 -0.81574151511E+03  0.15868384783E+04  0.10100000352E+00 0. -1.
</event>
<event>
 5   0  0.2936607E-07  0.3509097E+04  0.7818609E-02  0.8111638E-01
       -1   -1    0    0    0  501  0.00000000000E+00  0.00000000000E+00  0.13890533026E+04  0.13890533026E+04  0.50400001928E-02 0. -1.
        1   -1    0    0  501    0  0.00000000000E+00  0.00000000000E+00 -0.22162141901E+04  0.22162141901E+04  0.50400001928E-02 0.  1.
    10030    2    1    2    0    0  0.00000000000E+00  0.00000000000E+00 -0.82716088753E+03  0.36052674927E+04  0.35090965447E+04 0.  0.
        2    1    3    3  502    0  0.66727707973E+03 -0.14970649106E+04 -0.10568200778E+04  0.19502129947E+04  0.25500000920E-02 0.  1.
       -2    1    3    3    0  502 -0.66727707973E+03  0.14970649106E+04  0.22965919029E+03  0.16550544980E+04  0.25500000920E-02 0. -1.
</event>
<event>
 5   0  0.8950809E-07  0.3507429E+04  0.7818609E-02  0.8112032E-01
        2   -1    0    0  501    0  0.00000000000E+00  0.00000000000E+00  0.21803189570E+04  0.21803189570E+04  0.25500000920E-02 0. -1.
       -2   -1    0    0    0  501  0.00000000000E+00  0.00000000000E+00 -0.14105803876E+04  0.14105803876E+04  0.25500000920E-02 0.  1.
    10030    2    1    2    0    0  0.00000000000E+00  0.00000000000E+00  0.76973856935E+03  0.35908993446E+04  0.35074293490E+04 0.  0.
        2    1    3    3  502    0 -0.12500654529E+04 -0.12294456962E+04  0.42199242049E+03  0.18034073193E+04  0.25500000920E-02 0. -1.
       -2    1    3    3    0  502  0.12500654529E+04  0.12294456962E+04  0.34774614886E+03  0.17874920253E+04  0.25500000920E-02 0.  1.
</event>
<event>
 5   0  0.8845195E-07  0.3609431E+04  0.7818609E-02  0.8088335E-01
       -2   -1    0    0    0  501  0.00000000000E+00  0.00000000000E+00  0.13595545059E+04  0.13595545059E+04  0.25500000920E-02 0.  1.
        2   -1    0    0  501    0  0.00000000000E+00  0.00000000000E+00 -0.23956356714E+04  0.23956356714E+04  0.25500000920E-02 0. -1.
    10030    2    1    2    0    0  0.00000000000E+00  0.00000000000E+00 -0.10360811655E+04  0.37551901772E+04  0.36094305764E+04 0.  0.
        5    1    3    3  502    0 -0.70927082758E+03  0.65650970173E+03  0.10676154188E+04  0.14401023810E+04  0.46999998093E+01 0.  1.
       -5    1    3    3    0  502  0.70927082758E+03 -0.65650970173E+03 -0.21036965843E+04  0.23150877962E+04  0.46999998093E+01 0. -1.
</event>
<event>
 5   0  0.6188930E-07  0.3544716E+04  0.7818609E-02  0.8103274E-01
        2   -1    0    0  501    0  0.00000000000E+00  0.00000000000E+00  0.11027255710E+04  0.11027255710E+04  0.25500000920E-02 0.  1.
       -2   -1    0    0    0  501  0.00000000000E+00  0.00000000000E+00 -0.28486266697E+04  0.28486266697E+04  0.25500000920E-02 0. -1.
    10030    2    1    2    0    0  0.00000000000E+00  0.00000000000E+00 -0.17459010987E+04  0.39513522407E+04  0.35447163333E+04 0.  0.
        3    1    3    3  502    0  0.83414621277E+03 -0.15396770511E+04 -0.56798221258E+03  0.18409261609E+04  0.10100000352E+00 0.  1.
       -3    1    3    3    0  502 -0.83414621277E+03  0.15396770511E+04 -0.11779188861E+04  0.21104260798E+04  0.10100000352E+00 0. -1.
</event>
<event>
 5   0  0.2933506E-07  0.2806801E+04  0.7818609E-02  0.8301160E-01
       -1   -1    0    0    0  501  0.00000000000E+00  0.00000000000E+00  0.10516665123E+04  0.10516665123E+04  0.50400001928E-02 0.  1.
        1   -1    0    0  501    0  0.00000000000E+00  0.00000000000E+00 -0.18727730034E+04  0.18727730034E+04  0.50400001928E-02 0. -1.
    10030    2    1    2    0    0  0.00000000000E+00  0.00000000000E+00 -0.82110649112E+03  0.29244395157E+04  0.28068007787E+04 0.  0.
        4    1    3    3  502    0  0.38231407442E+03  0.21084152241E+03  0.97910622096E+03  0.10720395533E+04  0.12699999809E+01 0.  1.
       -4    1    3    3    0  502 -0.38231407442E+03 -0.21084152241E+03 -0.18002127121E+04  0.18523999624E+04  0.12699999809E+01 0. -1.
</event>
<event>
 5   0  0.2936607E-07  0.3399091E+04  0.7818609E-02  0.8138130E-01
        1   -1    0    0  501    0  0.00000000000E+00  0.00000000000E+00  0.13394048290E+04  0.13394048290E+04  0.50400001928E-02 0.  1.
       -1   -1    0    0    0  501  0.00000000000E+00  0.00000000000E+00 -0.21565206832E+04  0.21565206832E+04  0.50400001928E-02 0. -1.
    10030    2    1    2    0    0  0.00000000000E+00  0.00000000000E+00 -0.81711585419E+03  0.34959255122E+04  0.33990905943E+04 0.  0.
        2    1    3    3  502    0  0.47324964791E+03  0.14653212646E+03  0.12634927484E+04  0.13571480459E+04  0.25500000920E-02 0.  1.
       -2    1    3    3    0  502 -0.47324964791E+03 -0.14653212646E+03 -0.20806086026E+04  0.21387774663E+04  0.25500000920E-02 0. -1.
</event>
<event>
 5   0  0.3026332E-07  0.3544105E+04  0.7818609E-02  0.8103416E-01
        1   -1    0    0  501    0  0.00000000000E+00  0.00000000000E+00  0.21243615585E+04  0.21243615585E+04  0.50400001928E-02 0.  1.
       -1   -1    0    0    0  501  0.00000000000E+00  0.00000000000E+00 -0.14781713000E+04  0.14781713000E+04  0.50400001928E-02 0. -1.
    10030    2    1    2    0    0  0.00000000000E+00  0.00000000000E+00  0.64619025843E+03  0.36025328585E+04  0.35441051263E+04 0.  0.
        1    1    3    3  502    0  0.15263391009E+04  0.40150652965E+03  0.11421404188E+04  0.19481794785E+04  0.50400001928E-02 0.  1.
       -1    1    3    3    0  502 -0.15263391009E+04 -0.40150652965E+03 -0.49595016039E+03  0.16543533800E+04  0.50400001928E-02 0. -1.
</event>
<event>
 5   0  0.8845195E-07  0.3488268E+04  0.7818609E-02  0.8116576E-01
        2   -1    0    0  501    0  0.00000000000E+00  0.00000000000E+00  0.20888401632E+04  0.20888401632E+04  0.25500000920E-02 0.  1.
       -2   -1    0    0    0  501  0.00000000000E+00  0.00000000000E+00 -0.14563123217E+04  0.14563123217E+04  0.25500000920E-02 0. -1.
    10030    2    1    2    0    0  0.00000000000E+00  0.00000000000E+00  0.63252784147E+03  0.35451524850E+04  0.34882681479E+04 0.  0.
        5    1    3    3  502    0  0.28030726322E+02  0.97909039253E+03 -0.11503833589E+04  0.15108963170E+04  0.46999998093E+01 0. -1.
       -5    1    3    3    0  502 -0.28030726322E+02 -0.97909039253E+03  0.17829112004E+04  0.20342561679E+04  0.46999998093E+01 0.  1.
</event>
<event>
 5   0  0.3061330E-07  0.3518131E+04  0.7818609E-02  0.8109506E-01
       -1   -1    0    0    0  501  0.00000000000E+00  0.00000000000E+00  0.16703485020E+04  0.16703485020E+04  0.50400001928E-02 0. -1.
        1   -1    0    0  501    0  0.00000000000E+00  0.00000000000E+00 -0.18524947179E+04  0.18524947179E+04  0.50400001928E-02 0.  1.
    10030    2    1    2    0    0  0.00000000000E+00  0.00000000000E+00 -0.18214621591E+03  0.35228432198E+04  0.35181311953E+04 0.  0.
        5    1    3    3  502    0 -0.39942477588E+03  0.16729728170E+04 -0.46022863088E+03  0.17805085455E+04  0.46999998093E+01 0.  1.
       -5    1    3    3    0  502  0.39942477588E+03 -0.16729728170E+04  0.27808241497E+03  0.17423346743E+04  0.46999998093E+01 0. -1.
</event>
<event>
 5   0  0.3026332E-07  0.3524435E+04  0.7818609E-02  0.8108023E-01
       -1   -1    0    0    0  501  0.00000000000E+00  0.00000000000E+00  0.18363662621E+04  0.18363662621E+04  0.50400001928E-02 0.  1.
        1   -1    0    0  501    0  0.00000000000E+00  0.00000000000E+00 -0.16910630638E+04  0.16910630638E+04  0.50400001928E-02 0. -1.
    10030    2    1    2    0    0  0.00000000000E+00  0.00000000000E+00  0.14530319835E+03  0.35274293259E+04  0.35244353632E+04 0.  0.
        1    1    3    3  502    0  0.92358364376E+03 -0.97025536214E+01 -0.14293931783E+04  0.17018418683E+04  0.50400001928E-02 0. -1.
       -1    1    3    3    0  502 -0.92358364376E+03  0.97025536214E+01  0.15746963766E+04  0.18255874576E+04  0.50400001928E-02 0.  1.
</event>
<event>
 5   0  0.9128871E-07  0.3496661E+04  0.7818609E-02  0.8114582E-01
        2   -1    0    0  501    0  0.00000000000E+00  0.00000000000E+00  0.15598051150E+04  0.15598051150E+04  0.25500000920E-02 0. -1.
       -2   -1    0    0    0  501  0.00000000000E+00  0.00000000000E+00 -0.19596420123E+04  0.19596420123E+04  0.25500000920E-02 0.  1.
    10030    2    1    2    0    0  0.00000000000E+00  0.00000000000E+00 -0.39983689734E+03  0.35194471273E+04  0.34966610556E+04 0.  0.
        1    1    3    3  502    0 -0.28420052230E+03  0.15619743654E+04  0.53705909356E+03  0.16759971137E+04  0.50400001928E-02 0. -1.
       -1    1    3    3    0  502  0.28420052230E+03 -0.15619743654E+04 -0.93689599091E+03  0.18434500137E+04  0.50400001928E-02 0.  1.
</event>
<event>
 5   0  0.3026332E-07  0.3138560E+04  0.7818609E-02  0.8205234E-01
        1   -1    0    0  501    0  0.00000000000E+00  0.00000000000E+00  0.23473316833E+04  0.23473316833E+04  0.50400001928E-02 0. -1.
       -1   -1    0    0    0  501  0.00000000000E+00  0.00000000000E+00 -0.10491229225E+04  0.10491229225E+04  0.50400001928E-02 0.  1.
    10030    2    1    2    0    0  0.00000000000E+00  0.00000000000E+00  0.12982087608E+04  0.33964546058E+04  0.31385598453E+04 0.  0.
        1    1    3    3  502    0  0.13009538473E+04 -0.59781444332E+03  0.13443733686E+04  0.19639762666E+04  0.50400001928E-02 0. -1.
       -1    1    3    3    0  502 -0.13009538473E+04  0.59781444332E+03 -0.46164607837E+02  0.14324783392E+04  0.50400001928E-02 0.  1.
</event>
<event>
 5   0  0.6188930E-07  0.3565188E+04  0.7818609E-02  0.8098513E-01
       -2   -1    0    0    0  501  0.00000000000E+00  0.00000000000E+00  0.21677848231E+04  0.21677848231E+04  0.25500000920E-02 0.  1.
        2   -1    0    0  501    0  0.00000000000E+00  0.00000000000E+00 -0.14658468385E+04  0.14658468385E+04  0.25500000920E-02 0. -1.
    10030    2    1    2    0    0  0.00000000000E+00  0.00000000000E+00  0.70193798459E+03  0.36336316616E+04  0.35651875292E+04 0.  0.
        3    1    3    3  502    0 -0.21783725475E+03 -0.13189669203E+04 -0.85086964133E+03  0.15846469522E+04  0.10100000352E+00 0. -1.
       -3    1    3    3    0  502  0.21783725475E+03  0.13189669203E+04  0.15528076259E+04  0.20489847095E+04  0.10100000352E+00 0.  1.
</event>
<event>
 5   0  0.3026332E-07  0.3535466E+04  0.7818609E-02  0.8105436E-01
        1   -1    0    0  501    0  0.00000000000E+00  0.00000000000E+00  0.30864386648E+04  0.30864386648E+04  0.50400001928E-02 0. -1.
       -1   -1    0    0    0  501  0.00000000000E+00  0.00000000000E+00 -0.10124548271E+04  0.10124548271E+04  0.50400001928E-02 0.  1.
    10030    2    1    2    0    0  0.00000000000E+00  0.00000000000E+00  0.20739838377E+04  0.40988934919E+04  0.35354658673E+04 0.  0.
        1    1    3    3  502    0  0.15200428736E+04  0.55572569267E+03  0.18612978858E+04  0.24665342492E+04  0.50400001928E-02 0. -1.
       -1    1    3    3    0  502 -0.15200428736E+04 -0.55572569267E+03  0.21268595190E+03  0.16323592427E+04  0.50400001928E-02 0.  1.
</event>
<event>
 5   0  0.2933506E-07  0.3472106E+04  0.7818609E-02  0.8120432E-01
        1   -1    0    0  501    0  0.00000000000E+00  0.00000000000E+00  0.12538253862E+04  0.12538253862E+04  0.50400001928E-02 0. -1.
       -1   -1    0    0    0  501  0.00000000000E+00  0.00000000000E+00 -0.24037483579E+04  0.24037483579E+04  0.50400001928E-02 0.  1.
    10030    2    1    2    0    0  0.00000000000E+00  0.00000000000E+00 -0.11499229717E+04  0.36575737441E+04  0.34721064000E+04 0.  0.
        4    1    3    3  502    0 -0.79210775621E+03  0.46447906308E+03 -0.21269922637E+04  0.23167376201E+04  0.12699999809E+01 0.  1.
       -4    1    3    3    0  502  0.79210775621E+03 -0.46447906308E+03  0.97706929194E+03  0.13408361241E+04  0.12699999809E+01 0. -1.
</event>
<event>
 5   0  0.9128871E-07  0.3388186E+04  0.7818609E-02  0.8140812E-01
        2   -1    0    0  501    0  0.00000000000E+00  0.00000000000E+00  0.15339546390E+04  0.15339546390E+04  0.25500000920E-02 0.  1.
       -2   -1    0    0    0  501  0.00000000000E+00  0.00000000000E+00 -0.18709488591E+04  0.18709488591E+04  0.25500000920E-02 0. -1.
    10030    2    1    2    0    0  0.00000000000E+00  0.00000000000E+00 -0.33699422006E+03  0.34049034981E+04  0.33881857575E+04 0.  0.
        1    1    3    3  502    0  0.13965138168E+04 -0.79615908836E+03  0.36877205409E+03  0.16492764966E+04  0.50400001928E-02 0. -1.
       -1    1    3    3    0  502 -0.13965138168E+04  0.79615908836E+03 -0.70576627415E+03  0.17556270015E+04  0.50400001928E-02 0.  1.
</event>
<event>
 5   0  0.3026332E-07  0.3520376E+04  0.7818609E-02  0.8108978E-01
       -1   -1    0    0    0  501  0.00000000000E+00  0.00000000000E+00  0.20801266213E+04  0.20801266213E+04  0.50400001928E-02 0. -1.
        1   -1    0    0  501    0  0.00000000000E+00  0.00000000000E+00 -0.14894579524E+04  0.14894579524E+04  0.50400001928E-02 0.  1.
    10030    2    1    2    0    0  0.00000000000E+00  0.00000000000E+00  0.59066866890E+03  0.35695845737E+04  0.35203756266E+04 0.  0.
        1    1    3    3  502    0  0.84833079491E+03  0.32000522372E+03 -0.12344604630E+04  0.15316530663E+04  0.50400001928E-02 0.  1.
       -1    1    3    3    0  502 -0.84833079491E+03 -0.32000522372E+03  0.18251291319E+04  0.20379315074E+04  0.50400001928E-02 0. -1.
</event>
<event>
 5   0  0.3026332E-07  0.3398984E+04  0.7818609E-02  0.8138156E-01
        1   -1    0    0  501    0  0.00000000000E+00  0.00000000000E+00  0.16329136944E+04  0.16329136944E+04  0.50400001928E-02 0. -1.
       -1   -1    0    0    0  501  0.00000000000E+00  0.00000000000E+00 -0.17687843667E+04  0.17687843667E+04  0.50400001928E-02 0.  1.
    10030    2    1    2    0    0  0.00000000000E+00  0.00000000000E+00 -0.13587067233E+03  0.34016980611E+04  0.33989835038E+04 0.  0.
        1    1    3    3  502    0 -0.12024017985E+04 -0.11778502682E+04  0.16713706511E+03  0.16914597653E+04  0.50400001928E-02 0. -1.
       -1    1    3    3    0  502  0.12024017985E+04  0.11778502682E+04 -0.30300773744E+03  0.17102382957E+04  0.50400001928E-02 0.  1.
</event>
<event>
 5   0  0.6188930E-07  0.3522321E+04  0.7818609E-02  0.8108521E-01
       -2   -1    0    0    0  501  0.00000000000E+00  0.00000000000E+00  0.10855538283E+04  0.10855538283E+04  0.25500000920E-02 0. -1.
        2   -1    0    0  501    0  0.00000000000E+00  0.00000000000E+00 -0.28572378041E+04  0.28572378041E+04  0.25500000920E-02 0.  1.
    10030    2    1    2    0    0  0.00000000000E+00  0.00000000000E+00 -0.17716839758E+04  0.39427916325E+04  0.35223205060E+04 0.  0.
        3    1    3    3  502    0 -0.61504679451E+03  0.77008439050E+02  0.95941789235E+03  0.11422327090E+04  0.10100000352E+00 0. -1.
       -3    1    3    3    0  502  0.61504679451E+03 -0.77008439050E+02 -0.27311018682E+04  0.28005589235E+04  0.10100000352E+00 0.  1.
</event>
<event>
 5   0  0.6188930E-07  0.3424378E+04  0.7818609E-02  0.8131949E-01
        2   -1    0    0  501    0  0.00000000000E+00  0.00000000000E+00  0.18075271123E+04  0.18075271123E+04  0.25500000920E-02 0. -1.
       -2   -1    0    0    0  501  0.00000000000E+00  0.00000000000E+00 -0.16218796132E+04  0.16218796132E+04  0.25500000920E-02 0.  1.
    10030    2    1    2    0    0  0.00000000000E+00  0.00000000000E+00  0.18564749909E+03  0.34294067256E+04  0.34243781181E+04 0.  0.
        3    1    3    3  502    0  0.51065537726E+03  0.41332781018E+03 -0.14906314208E+04  0.16289846027E+04  0.10100000352E+00 0.  1.
       -3    1    3    3    0  502 -0.51065537726E+03 -0.41332781018E+03  0.16762789199E+04  0.18004221229E+04  0.10100000352E+00 0. -1.
</event>
<event>
 5   0  0.8950809E-07  0.3498987E+04  0.7818609E-02  0.8114030E-01
        2   -1    0    0  501    0  0.00000000000E+00  0.00000000000E+00  0.19561063853E+04  0.19561063853E+04  0.25500000920E-02 0.  1.
       -2   -1    0    0    0  501  0.00000000000E+00  0.00000000000E+00 -0.15647039030E+04  0.15647039030E+04  0.25500000920E-02 0. -1.
    10030    2    1    2    0    0  0.00000000000E+00  0.00000000000E+00  0.39140248229E+03  0.35208102884E+04  0.34989868796E+04 0.  0.
        2    1    3    3  502    0  0.13584766761E+02  0.69174225158E+03  0.18125947122E+04  0.19401524371E+04  0.25500000920E-02 0.  1.
       -2    1    3    3    0  502 -0.13584766761E+02 -0.69174225158E+03 -0.14211922299E+04  0.15806578513E+04  0.25500000920E-02 0. -1.
</event>
<event>
 5   0  0.8950809E-07  0.3495963E+04  0.7818609E-02  0.8114747E-01
        2   -1    0    0  501    0  0.00000000000E+00  0.00000000000E+00  0.26789255381E+04  0.26789255381E+04  0.25500000920E-02 0.  1.
       -2   -1    0    0    0  501  0.00000000000E+00  0.00000000000E+00 -0.11405468679E+04  0.11405468679E+04  0.25500000920E-02 0. -1.
    10030    2    1    2    0    0  0.00000000000E+00  0.00000000000E+00  0.15383786701E+04  0.38194724060E+04  0.34959634620E+04 0.  0.
        2    1    3    3  502    0 -0.85228576461E+03  0.15092352794E+04  0.10165423623E+04  0.20093632144E+04  0.25500000920E-02 0. -1.
       -2    1    3    3    0  502  0.85228576461E+03 -0.15092352794E+04  0.52183630787E+03  0.18101091916E+04  0.25500000920E-02 0.  1.
</event>
<event>
 5   0  0.6188930E-07  0.3445394E+04  0.7818609E-02  0.8126854E-01
       -2   -1    0    0    0  501  0.00000000000E+00  0.00000000000E+00  0.30914895088E+04  0.30914895088E+04  0.25500000920E-02 0.  1.
        2   -1    0    0  501    0  0.00000000000E+00  0.00000000000E+00 -0.95995309754E+03  0.95995309755E+03  0.25500000920E-02 0. -1.
    10030    2    1    2    0    0  0.00000000000E+00  0.00000000000E+00  0.21315364113E+04  0.40514426064E+04  0.34453939862E+04 0.  0.
        3    1    3    3  502    0 -0.78589491610E+03 -0.14326143929E+04  0.17073298734E+04  0.23632583703E+04  0.10100000352E+00 0.  1.
       -3    1    3    3    0  502  0.78589491610E+03  0.14326143929E+04  0.42420653782E+03  0.16881842360E+04  0.10100000352E+00 0. -1.
</event>
<event>
 5   0  0.2907000E-07  0.3407537E+04  0.7818609E-02  0.8136059E-01
        4   -1    0    0  501    0  0.00000000000E+00  0.00000000000E+00  0.18588937088E+04  0.18588941427E+04  0.12699999809E+01 0. -1.
       -4   -1    0    0    0  501  0.00000000000E+00  0.00000000000E+00 -0.15615872282E+04  0.15615877446E+04  0.12699999809E+01 0.  1.
    10030    2    1    2    0    0  0.00000000000E+00  0.00000000000E+00  0.29730648068E+03  0.34204818873E+04  0.34075365292E+04 0.  0.
        2    1    3    3  502    0  0.16851290484E+04 -0.14622203796E+03  0.35384485250E+03  0.17280760903E+04  0.25500000920E-02 0.  1.
       -2    1    3    3    0  502 -0.16851290484E+04  0.14622203796E+03 -0.56538371822E+02  0.16924057970E+04  0.25500000920E-02 0. -1.
</event>
<event>
 5   0  0.9128871E-07  0.3507170E+04  0.7818609E-02  0.8112093E-01
       -2   -1    0    0    0  501  0.00000000000E+00  0.00000000000E+00  0.24400995548E+04  0.24400995548E+04  0.25500000920E-02 0. -1.
        2   -1    0    0  501    0  0.00000000000E+00  0.00000000000E+00 -0.12602190502E+04  0.12602190502E+04  0.25500000920E-02 0.  1.
    10030    2    1    2    0    0  0.00000000000E+00  0.00000000000E+00  0.11798805045E+04  0.37003186050E+04  0.35071697669E+04 0.  0.
        1    1    3    3  502    0  0.14043843356E+04 -0.10489791231E+04  0.53817304865E+03  0.18336528551E+04  0.50400001928E-02 0.  1.
       -1    1    3    3    0  502 -0.14043843356E+04  0.10489791231E+04  0.64170745588E+03  0.18666657499E+04  0.50400001928E-02 0. -1.
</event>
<event>
 5   0  0.3026332E-07  0.3489715E+04  0.7818609E-02  0.8116232E-01
        1   -1    0    0  501    0  0.00000000000E+00  0.00000000000E+00  0.15244732352E+04  0.15244732352E+04  0.50400001928E-02 0. -1.
       -1   -1    0    0    0  501  0.00000000000E+00  0.00000000000E+00 -0.19971018118E+04  0.19971018118E+04  0.50400001928E-02 0.  1.
    10030    2    1    2    0    0  0.00000000000E+00  0.00000000000E+00 -0.47262857663E+03  0.35215750470E+04  0.34897153236E+04 0.  0.
        1    1    3    3  502    0 -0.15109931928E+02 -0.10148196599E+04  0.11959534986E+04  0.15685636815E+04  0.50400001928E-02 0. -1.
       -1    1    3    3    0  502  0.15109931928E+02  0.10148196599E+04 -0.16685820752E+04  0.19530113655E+04  0.50400001928E-02 0.  1.
</event>
<event>
 5   0  0.2972541E-07  0.3531883E+04  0.7818609E-02  0.8106275E-01
        1   -1    0    0  501    0  0.00000000000E+00  0.00000000000E+00  0.10449003108E+04  0.10449003108E+04  0.50400001928E-02 0.  1.
       -1   -1    0    0    0  501  0.00000000000E+00  0.00000000000E+00 -0.29845423614E+04  0.29845423614E+04  0.50400001928E-02 0. -1.
    10030    2    1    2    0    0  0.00000000000E+00  0.00000000000E+00 -0.19396420506E+04  0.40294426722E+04  0.35318829205E+04 0.  0.
        3    1    3    3  502    0  0.13913936975E+03 -0.93414591735E+03  0.73255686071E+03  0.11952522426E+04  0.10100000352E+00 0.  1.
       -3    1    3    3    0  502 -0.13913936975E+03  0.93414591735E+03 -0.26721989113E+04  0.28341904296E+04  0.10100000352E+00 0. -1.
</event>
<event>
 5   0  0.2936607E-07  0.3481716E+04  0.7818609E-02  0.8118137E-01
        1   -1    0    0  501    0  0.00000000000E+00  0.00000000000E+00  0.25533648941E+04  0.25533648941E+04  0.50400001928E-02 0. -1.
       -1   -1    0    0    0  501  0.00000000000E+00  0.00000000000E+00 -0.11868989191E+04  0.11868989191E+04  0.50400001928E-02 0.  1.
    10030    2    1    2    0    0  0.00000000000E+00  0.00000000000E+00  0.13664659750E+04  0.37402638132E+04  0.34817156879E+04 0.  0.
        2    1    3    3  502    0  0.13623405366E+04  0.91377886317E+03  0.57185685109E+02  0.16414121210E+04  0.25500000920E-02 0.  1.
       -2    1    3    3    0  502 -0.13623405366E+04 -0.91377886317E+03  0.13092802899E+04  0.20988516922E+04  0.25500000920E-02 0. -1.
</event>
<event>
 5   0  0.9311672E-07  0.3555895E+04  0.7818609E-02  0.8100670E-01
       -2   -1    0    0    0  501  0.00000000000E+00  0.00000000000E+00  0.12040838293E+04  0.12040838293E+04  0.25500000920E-02 0. -1.
        2   -1    0    0  501    0  0.00000000000E+00  0.00000000000E+00 -0.26253135510E+04  0.26253135510E+04  0.25500000920E-02 0.  1.
    10030    2    1    2    0    0  0.00000000000E+00  0.00000000000E+00 -0.14212297217E+04  0.38293973803E+04  0.35558951580E+04 0.  0.
        4    1    3    3  502    0  0.85881851638E+03  0.13668247426E+04  0.91897845811E+02  0.16168568113E+04  0.12699999809E+01 0. -1.
       -4    1    3    3    0  502 -0.85881851638E+03 -0.13668247426E+04 -0.15131275675E+04  0.22125405690E+04  0.12699999809E+01 0.  1.
</event>
<event>
 5   0  0.2972541E-07  0.3470770E+04  0.7818609E-02  0.8120752E-01
       -1   -1    0    0    0  501  0.00000000000E+00  0.00000000000E+00  0.19243408529E+04  0.19243408529E+04  0.50400001928E-02 0. -1.
        1   -1    0    0  501    0  0.00000000000E+00  0.00000000000E+00 -0.15649830035E+04  0.15649830035E+04  0.50400001928E-02 0.  1.
    10030    2    1    2    0    0  0.00000000000E+00  0.00000000000E+00  0.35935784939E+03  0.34893238565E+04  0.34707697866E+04 0.  0.
        3    1    3    3  502    0  0.12273420119E+04  0.59672354643E+02 -0.10522826393E+04  0.16177848952E+04  0.10100000352E+00 0.  1.
       -3    1    3    3    0  502 -0.12273420119E+04 -0.59672354643E+02  0.14116404887E+04  0.18715389613E+04  0.10100000352E+00 0. -1.
</event>
<event>
 5   0  0.6188930E-07  0.3506394E+04  0.7818609E-02  0.8112276E-01
        2   -1    0    0  501    0  0.00000000000E+00  0.00000000000E+00  0.20545921886E+04  0.20545921886E+04  0.25500000920E-02 0. -1.
       -2   -1    0    0    0  501  0.00000000000E+00  0.00000000000E+00 -0.14960146201E+04  0.14960146201E+04  0.25500000920E-02 0.  1.
    10030    2    1    2    0    0  0.00000000000E+00  0.00000000000E+00  0.55857756847E+03  0.35506068087E+04  0.35063941322E+04 0.  0.
        3    1    3    3  502    0  0.49632717909E+03 -0.12515653904E+04 -0.85778759517E+03  0.15964197956E+04  0.10100000352E+00 0.  1.
       -3    1    3    3    0  502 -0.49632717909E+03  0.12515653904E+04  0.14163651636E+04  0.19541870131E+04  0.10100000352E+00 0. -1.
</event>
<event>
 5   0  0.2972541E-07  0.3580184E+04  0.7818609E-02  0.8095046E-01
        1   -1    0    0  501    0  0.00000000000E+00  0.00000000000E+00  0.99693716510E+03  0.99693716511E+03  0.50400001928E-02 0.  1.
       -1   -1    0    0    0  501  0.00000000000E+00  0.00000000000E+00 -0.32142748144E+04  0.32142748144E+04  0.50400001928E-02 0. -1.
    10030    2    1    2    0    0  0.00000000000E+00  0.00000000000E+00 -0.22173376493E+04  0.42112119795E+04  0.35801843647E+04 0.  0.
        3    1    3    3  502    0 -0.90836932169E+02  0.27983596413E+03  0.96830368149E+03  0.10120136090E+04  0.10100000352E+00 0.  1.
       -3    1    3    3    0  502  0.90836932169E+02 -0.27983596413E+03 -0.31856413308E+04  0.31991983705E+04  0.10100000352E+00 0. -1.
</event>
<event>
 5   0  0.9128871E-07  0.3426781E+04  0.7818609E-02  0.8131365E-01
       -2   -1    0    0    0  501  0.00000000000E+00  0.00000000000E+00  0.13695637892E+04  0.13695637892E+04  0.25500000920E-02 0.  1.
        2   -1    0    0  501    0  0.00000000000E+00  0.00000000000E+00 -0.21435337548E+04  0.21435337548E+04  0.25500000920E-02 0. -1.
    10030    2    1    2    0    0  0.00000000000E+00  0.00000000000E+00 -0.77396996562E+03  0.35130975440E+04  0.34267805366E+04 0.  0.
        1    1    3    3  502    0 -0.86570681446E+03 -0.14329475687E+04 -0.13220734672E+02  0.16742048295E+04  0.50400001928E-02 0.  1.
       -1    1    3    3    0  502  0.86570681446E+03  0.14329475687E+04 -0.76074923094E+03  0.18388927145E+04  0.50400001928E-02 0. -1.
</event>
<event>
 5   0  0.2972541E-07  0.3512975E+04  0.7818609E-02  0.8110722E-01
       -1   -1    0    0    0  501  0.00000000000E+00  0.00000000000E+00  0.91939325546E+03  0.91939325547E+03  0.50400001928E-02 0. -1.
        1   -1    0    0  501    0  0.00000000000E+00  0.00000000000E+00 -0.33557432787E+04  0.33557432787E+04  0.50400001928E-02 0.  1.
    10030    2    1    2    0    0  0.00000000000E+00  0.00000000000E+00 -0.24363500233E+04  0.42751365342E+04  0.35129746584E+04 0.  0.
        3    1    3    3  502    0  0.15231079878E+04 -0.14905702997E+03 -0.22672815153E+04  0.27354417231E+04  0.10100000352E+00 0. -1.
       -3    1    3    3    0  502 -0.15231079878E+04  0.14905702997E+03 -0.16906850800E+03  0.15396948111E+04  0.10100000352E+00 0.  1.
</event>
<event>
 5   0  0.8845195E-07  0.3527545E+04  0.7818609E-02  0.8107293E-01
       -2   -1    0    0    0  501  0.00000000000E+00  0.00000000000E+00  0.16455474804E+04  0.16455474804E+04  0.25500000920E-02 0. -1.
        2   -1    0    0  501    0  0.00000000000E+00  0.00000000000E+00 -0.18904909347E+04  0.18904909347E+04  0.25500000920E-02 0.  1.
    10030    2    1    2    0    0  0.00000000000E+00  0.00000000000E+00 -0.24494345433E+03  0.35360384151E+04  0.35275445252E+04 0.  0.
        5    1    3    3  502    0 -0.14434349265E+04 -0.93259451410E+03  0.27551524215E+03  0.17404504168E+04  0.46999998093E+01 0.  1.
       -5    1    3    3    0  502  0.14434349265E+04  0.93259451410E+03 -0.52045869648E+03  0.17955879983E+04  0.46999998093E+01 0. -1.
</event>
<event>
 5   0  0.6188930E-07  0.3557345E+04  0.7818609E-02  0.8100333E-01
        2   -1    0    0  501    0  0.00000000000E+00  0.00000000000E+00  0.12550686493E+04  0.12550686493E+04  0.25500000920E-02 0.  1.
       -2   -1    0    0    0  501  0.00000000000E+00  0.00000000000E+00 -0.25207191199E+04  0.25207191199E+04  0.25500000920E-02 0. -1.
    10030    2    1    2    0    0  0.00000000000E+00  0.00000000000E+00 -0.12656504706E+04  0.37757877692E+04  0.35573448194E+04 0.  0.
        3    1    3    3  502    0 -0.14173661950E+04 -0.71993473606E+03  0.21393649880E+03  0.16040579137E+04  0.10100000352E+00 0.  1.
       -3    1    3    3    0  502  0.14173661950E+04  0.71993473606E+03 -0.14795869694E+04  0.21717298555E+04  0.10100000352E+00 0. -1.
</event>
<event>
 5   0  0.2907000E-07  0.3334094E+04  0.7818609E-02  0.8154274E-01
       -3   -1    0    0    0  501  0.00000000000E+00  0.00000000000E+00  0.22100787693E+04  0.22100787716E+04  0.10100000352E+00 0.  1.
        3   -1    0    0  501    0  0.00000000000E+00  0.00000000000E+00 -0.12574418191E+04  0.12574418232E+04  0.10100000352E+00 0. -1.
    10030    2    1    2    0    0  0.00000000000E+00  0.00000000000E+00  0.95263695020E+03  0.34675205948E+04  0.33340938674E+04 0.  0.
        3    1    3    3  502    0  0.10334143198E+03  0.73649107795E+02  0.22050481895E+04  0.22086967132E+04  0.10100000352E+00 0.  1.
       -3    1    3    3    0  502 -0.10334143198E+03 -0.73649107795E+02 -0.12524112393E+04  0.12588238817E+04  0.10100000352E+00 0. -1.
</event>
<event>
 5   0  0.6188930E-07  0.3492069E+04  0.7818609E-02  0.8115672E-01
        2   -1    0    0  501    0  0.00000000000E+00  0.00000000000E+00  0.26451755066E+04  0.26451755066E+04  0.25500000920E-02 0. -1.
       -2   -1    0    0    0  501  0.00000000000E+00  0.00000000000E+00 -0.11525270717E+04  0.11525270717E+04  0.25500000920E-02 0.  1.
    10030    2    1    2    0    0  0.00000000000E+00  0.00000000000E+00  0.14926484348E+04  0.37977025783E+04  0.34920689460E+04 0.  0.
        3    1    3    3  502    0  0.11372185591E+04 -0.78935155668E+03 -0.41090083524E+03  0.14440157332E+04  0.10100000352E+00 0. -1.
       -3    1    3    3    0  502 -0.11372185591E+04  0.78935155668E+03  0.19035492701E+04  0.23536868451E+04  0.10100000352E+00 0.  1.
</event>
<event>
 5   0  0.2933506E-07  0.3547076E+04  0.7818609E-02  0.8102723E-01
       -1   -1    0    0    0  501  0.00000000000E+00  0.00000000000E+00  0.14399982949E+04  0.14399982949E+04  0.50400001928E-02 0.  1.
        1   -1    0    0  501    0  0.00000000000E+00  0.00000000000E+00 -0.21843338882E+04  0.21843338882E+04  0.50400001928E-02 0. -1.
    10030    2    1    2    0    0  0.00000000000E+00  0.00000000000E+00 -0.74433559323E+03  0.36243321831E+04  0.35470760209E+04 0.  0.
        4    1    3    3  502    0  0.43899159082E+03 -0.16358488064E+04 -0.90966744865E+03  0.19225533580E+04  0.12699999809E+01 0. -1.
       -4    1    3    3    0  502 -0.43899159082E+03  0.16358488064E+04  0.16533185542E+03  0.17017788251E+04  0.12699999809E+01 0.  1.
</event>
<event>
 5   0  0.2933506E-07  0.3548422E+04  0.7818609E-02  0.8102409E-01
        1   -1    0    0  501    0  0.00000000000E+00  0.00000000000E+00  0.20335322218E+04  0.20335322218E+04  0.50400001928E-02 0. -1.
       -1   -1    0    0    0  501  0.00000000000E+00  0.00000000000E+00 -0.15479590359E+04  0.15479590360E+04  0.50400001928E-02 0.  1.
    10030    2    1    2    0    0  0.00000000000E+00  0.00000000000E+00  0.48557318583E+03  0.35814912577E+04  0.35484219465E+04 0.  0.
        4    1    3    3  502    0 -0.56304264436E+03 -0.55576647938E+03 -0.13600716513E+04  0.15734325243E+04  0.12699999809E+01 0.  1.
       -4    1    3    3    0  502  0.56304264436E+03  0.55576647938E+03  0.18456448372E+04  0.20080587334E+04  0.12699999809E+01 0. -1.
</event>
<event>
 5   0  0.3026332E-07  0.3479694E+04  0.7818609E-02  0.8118619E-01
       -1   -1    0    0    0  501  0.00000000000E+00  0.00000000000E+00  0.19151270661E+04  0.19151270661E+04  0.50400001928E-02 0.  1.
        1   -1    0    0  501    0  0.00000000000E+00  0.00000000000E+00 -0.15806089712E+04  0.15806089712E+04  0.50400001928E-02 0. -1.
    10030    2    1    2    0    0  0.00000000000E+00  0.00000000000E+00  0.33451809487E+03  0.34957360373E+04  0.34796936771E+04 0.  0.
        1    1    3    3  502    0 -0.13653728793E+03 -0.71167265565E+03  0.17563056629E+04  0.18999289411E+04  0.50400001928E-02 0.  1.
       -1    1    3    3    0  502  0.13653728793E+03  0.71167265565E+03 -0.14217875680E+04  0.15958070962E+04  0.50400001928E-02 0. -1.
</event>
<event>
 5   0  0.3061330E-07  0.3500472E+04  0.7818609E-02  0.8113678E-01
        1   -1    0    0  501    0  0.00000000000E+00  0.00000000000E+00  0.11076438241E+04  0.11076438241E+04  0.50400001928E-02 0. -1.
       -1   -1    0    0    0  501  0.00000000000E+00  0.00000000000E+00 -0.27656245188E+04  0.27656245188E+04  0.50400001928E-02 0.  1.
    10030    2    1    2    0    0  0.00000000000E+00  0.00000000000E+00 -0.16579806947E+04  0.38732683429E+04  0.35004724926E+04 0.  0.
        5    1    3    3  502    0  0.11833806024E+04 -0.11574096656E+04 -0.19982341591E+03  0.16673146888E+04  0.46999998093E+01 0. -1.
       -5    1    3    3    0  502 -0.11833806024E+04  0.11574096656E+04 -0.14581572788E+04  0.22059536540E+04  0.46999998093E+01 0.  1.
</event>
<event>
 5   0  0.2972541E-07  0.3440605E+04  0.7818609E-02  0.8128012E-01
        1   -1    0    0  501    0  0.00000000000E+00  0.00000000000E+00  0.20212452821E+04  0.20212452821E+04  0.50400001928E-02 0. -1.
       -1   -1    0    0    0  501  0.00000000000E+00  0.00000000000E+00 -0.14641669256E+04  0.14641669256E+04  0.50400001928E-02 0.  1.
    10030    2    1    2    0    0  0.00000000000E+00  0.00000000000E+00  0.55707835657E+03  0.34854122077E+04  0.34406048832E+04 0.  0.
        3    1    3    3  502    0 -0.63634110727E+03  0.60768276994E+03 -0.12189653178E+04  0.15033578449E+04  0.10100000352E+00 0.  1.
       -3    1    3    3    0  502  0.63634110727E+03 -0.60768276994E+03  0.17760436743E+04  0.19820543628E+04  0.10100000352E+00 0. -1.
</event>
<event>
 5   0  0.2936607E-07  0.3475902E+04  0.7818609E-02  0.8119525E-01
       -1   -1    0    0    0  501  0.00000000000E+00  0.00000000000E+00  0.14962564839E+04  0.14962564839E+04  0.50400001928E-02 0. -1.
        1   -1    0    0  501    0  0.00000000000E+00  0.00000000000E+00 -0.20186875824E+04  0.20186875824E+04  0.50400001928E-02 0.  1.
    10030    2    1    2    0    0  0.00000000000E+00  0.00000000000E+00 -0.52243109847E+03  0.35149440663E+04  0.34759024061E+04 0.  0.
        2    1    3    3  502    0  0.11998800102E+04  0.12323669109E+04 -0.93514689145E+01  0.17200371193E+04  0.25500000920E-02 0.  1.
       -2    1    3    3    0  502 -0.11998800102E+04 -0.12323669109E+04 -0.51307962956E+03  0.17949069470E+04  0.25500000920E-02 0. -1.
</event>
<event>
 5   0  0.8845195E-07  0.3347876E+04  0.7818609E-02  0.8150819E-01
       -2   -1    0    0    0  501  0.00000000000E+00  0.00000000000E+00  0.12942833687E+04  0.12942833687E+04  0.25500000920E-02 0.  1.
        2   -1    0    0  501    0  0.00000000000E+00  0.00000000000E+00 -0.21649568493E+04  0.21649568493E+04  0.25500000920E-02 0. -1.
    10030    2    1    2    0    0  0.00000000000E+00  0.00000000000E+00 -0.87067348061E+03  0.34592402180E+04  0.33478755317E+04 0.  0.
        5    1    3    3  502    0 -0.96598948234E+03  0.49810554660E+03 -0.17507924525E+04  0.20607137398E+04  0.46999998093E+01 0. -1.
       -5    1    3    3    0  502  0.96598948234E+03 -0.49810554660E+03  0.88011897189E+03  0.13985264782E+04  0.46999998093E+01 0.  1.
</event>
<event>
 5   0  0.8950809E-07  0.3500139E+04  0.7818609E-02  0.8113757E-01
       -2   -1    0    0    0  501  0.00000000000E+00  0.00000000000E+00  0.99326183069E+03  0.99326183069E+03  0.25500000920E-02 0.  1.
        2   -1    0    0  501    0  0.00000000000E+00  0.00000000000E+00 -0.30835197350E+04  0.30835197350E+04  0.25500000920E-02 0. -1.
    10030    2    1    2    0    0  0.00000000000E+00  0.00000000000E+00 -0.20902579044E+04  0.40767815657E+04  0.35001385441E+04 0.  0.
        2    1    3    3  502    0  0.17106293428E+03  0.96335350306E+03  0.64493292892E+03  0.11718579189E+04  0.25500000920E-02 0.  1.
       -2    1    3    3    0  502 -0.17106293428E+03 -0.96335350306E+03 -0.27351908333E+04  0.29049236468E+04  0.25500000920E-02 0. -1.
</event>
<event>
 5   0  0.2972541E-07  0.3493729E+04  0.7818609E-02  0.8115278E-01
        1   -1    0    0  501    0  0.00000000000E+00  0.00000000000E+00  0.25351798704E+04  0.25351798704E+04  0.50400001928E-02 0.  1.
       -1   -1    0    0    0  501  0.00000000000E+00  0.00000000000E+00 -0.12036760352E+04  0.12036760353E+04  0.50400001928E-02 0. -1.
    10030    2    1    2    0    0  0.00000000000E+00  0.00000000000E+00  0.13315038352E+04  0.37388559057E+04  0.34937288132E+04 0.  0.
        3    1    3    3  502    0  0.11770666430E+04  0.12813297997E+04  0.49912488131E+03  0.18100877313E+04  0.10100000352E+00 0.  1.
       -3    1    3    3    0  502 -0.11770666430E+04 -0.12813297997E+04  0.83237895385E+03  0.19287681744E+04  0.10100000352E+00 0. -1.
</event>
<event>
 5   0  0.3026332E-07  0.3521245E+04  0.7818609E-02  0.8108774E-01
       -1   -1    0    0    0  501  0.00000000000E+00  0.00000000000E+00  0.16405660255E+04  0.16405660255E+04  0.50400001928E-02 0. -1.
        1   -1    0    0  501    0  0.00000000000E+00  0.00000000000E+00 -0.18894644664E+04  0.18894644664E+04  0.50400001928E-02 0.  1.
    10030    2    1    2    0    0  0.00000000000E+00  0.00000000000E+00 -0.24889844084E+03  0.35300304919E+04  0.35212447856E+04 0.  0.
        1    1    3    3  502    0  0.18262534768E+03 -0.91315318379E+03  0.13734644068E+04  0.16593990573E+04  0.50400001928E-02 0. -1.
       -1    1    3    3    0  502 -0.18262534768E+03  0.91315318379E+03 -0.16223628476E+04  0.18706314346E+04  0.50400001928E-02 0.  1.
</event>
<event>
 5   0  0.8950809E-07  0.3621626E+04  0.7818609E-02  0.8085556E-01
        2   -1    0    0  501    0  0.00000000000E+00  0.00000000000E+00  0.21607939264E+04  0.21607939264E+04  0.25500000920E-02 0. -1.
       -2   -1    0    0    0  501  0.00000000000E+00  0.00000000000E+00 -0.15175179883E+04  0.15175179883E+04  0.25500000920E-02 0.  1.
    10030    2    1    2    0    0  0.00000000000E+00  0.00000000000E+00  0.64327593806E+03  0.36783119147E+04  0.36216259621E+04 0.  0.
        2    1    3    3  502    0  0.69045735751E+03  0.94914088904E+03 -0.10788736401E+04  0.15942296325E+04  0.25500000920E-02 0.  1.
       -2    1    3    3    0  502 -0.69045735751E+03 -0.94914088904E+03  0.17221495781E+04  0.20840822823E+04  0.25500000920E-02 0. -1.
</event>
<event>
 5   0  0.2936607E-07  0.3526371E+04  0.7818609E-02  0.8107569E-01
        1   -1    0    0  501    0  0.00000000000E+00  0.00000000000E+00  0.18086282816E+04  0.18086282816E+04  0.50400001928E-02 0.  1.
       -1   -1    0    0    0  501  0.00000000000E+00  0.00000000000E+00 -0.17188842292E+04  0.17188842292E+04  0.50400001928E-02 0. -1.
    10030    2    1    2    0    0  0.00000000000E+00  0.00000000000E+00  0.89744052491E+02  0.35275125108E+04  0.35263707291E+04 0.  0.
        2    1    3    3  502    0  0.47363174575E+03 -0.23303960946E+03 -0.16379889824E+04  0.17209422990E+04  0.25500000920E-02 0. -1.
       -2    1    3    3    0  502 -0.47363174575E+03  0.23303960946E+03  0.17277330349E+04  0.18065702118E+04  0.25500000920E-02 0.  1.
</event>
<event>
 5   0  0.2972541E-07  0.3521210E+04  0.7818609E-02  0.8108782E-01
        1   -1    0    0  501    0  0.00000000000E+00  0.00000000000E+00  0.19361787800E+04  0.19361787800E+04  0.50400001928E-02 0.  1.
       -1   -1    0    0    0  501  0.00000000000E+00  0.00000000000E+00 -0.16009525217E+04  0.16009525217E+04  0.50400001928E-02 0. -1.
    10030    2    1    2    0    0  0.00000000000E+00  0.00000000000E+00  0.33522625835E+03  0.35371313018E+04  0.35212101899E+04 0.  0.
        3    1    3    3  502    0 -0.86183025260E+03 -0.14754048194E+04 -0.25875805467E+03  0.17281569681E+04  0.10100000352E+00 0.  1.
       -3    1    3    3    0  502  0.86183025260E+03  0.14754048194E+04  0.59398431302E+03  0.18089743336E+04  0.10100000352E+00 0. -1.
</event>
<event>
 5   0  0.9128871E-07  0.3519579E+04  0.7818609E-02  0.8109166E-01
       -2   -1    0    0    0  501  0.00000000000E+00  0.00000000000E+00  0.11876455886E+04  0.11876455886E+04  0.25500000920E-02 0. -1.
        2   -1    0    0  501    0  0.00000000000E+00  0.00000000000E+00 -0.26075616173E+04  0.26075616173E+04  0.25500000920E-02 0.  1.
    10030    2    1    2    0    0  0.00000000000E+00  0.00000000000E+00 -0.14199160288E+04  0.37952072059E+04  0.35195789815E+04 0.  0.
        1    1    3    3  502    0 -0.17200283458E+03  0.55855984734E+03  0.10799389781E+04  0.12279422929E+04  0.50400001928E-02 0. -1.
       -1    1    3    3    0  502  0.17200283458E+03 -0.55855984734E+03 -0.24998550069E+04  0.25672649130E+04  0.50400001928E-02 0.  1.
</event>
<event>
 5   0  0.8950809E-07  0.3413060E+04  0.7818609E-02  0.8134708E-01
       -2   -1    0    0    0  501  0.00000000000E+00  0.00000000000E+00  0.18041271244E+04  0.18041271244E+04  0.25500000920E-02 0. -1.
        2   -1    0    0  501    0  0.00000000000E+00  0.00000000000E+00 -0.16142127658E+04  0.16142127658E+04  0.25500000920E-02 0.  1.
    10030    2    1    2    0    0  0.00000000000E+00  0.00000000000E+00  0.18991435856E+03  0.34183398902E+04  0.34130602311E+04 0.  0.
        2    1    3    3  502    0  0.76502388460E+03  0.14639328069E+04  0.52443775948E+03  0.17330308049E+04  0.25500000920E-02 0.  1.
       -2    1    3    3    0  502 -0.76502388460E+03 -0.14639328069E+04 -0.33452340092E+03  0.16853090853E+04  0.25500000920E-02 0. -1.
</event>
<event>
 5   0  0.9311672E-07  0.3593152E+04  0.7818609E-02  0.8092062E-01
        2   -1    0    0  501    0  0.00000000000E+00  0.00000000000E+00  0.18962101440E+04  0.18962101440E+04  0.25500000920E-02 0. -1.
       -2   -1    0    0    0  501  0.00000000000E+00  0.00000000000E+00 -0.17021772805E+04  0.17021772805E+04  0.25500000920E-02 0.  1.
    10030    2    1    2    0    0  0.00000000000E+00  0.00000000000E+00  0.19403286356E+03  0.35983874245E+04  0.35931522797E+04 0.  0.
        4    1    3    3  502    0 -0.16800006021E+04 -0.19107223845E+03 -0.51113565690E+03  0.17664008311E+04  0.12699999809E+01 0.  1.
       -4    1    3    3    0  502  0.16800006021E+04  0.19107223845E+03  0.70516852046E+03  0.18319865934E+04  0.12699999809E+01 0. -1.
</event>
<event>
 5   0  0.6188930E-07  0.3496703E+04  0.7818609E-02  0.8114572E-01
        2   -1    0    0  501    0  0.00000000000E+00  0.00000000000E+00  0.27673773548E+04  0.27673773548E+04  0.25500000920E-02 0. -1.
       -2   -1    0    0    0  501  0.00000000000E+00  0.00000000000E+00 -0.11045596569E+04  0.11045596569E+04  0.25500000920E-02 0.  1.
    10030    2    1    2    0    0  0.00000000000E+00  0.00000000000E+00  0.16628176979E+04  0.38719370116E+04  0.34967032367E+04 0.  0.
        3    1    3    3  502    0  0.11050939038E+03 -0.91182911916E+03  0.24786945125E+04  0.26434014384E+04  0.10100000352E+00 0. -1.
       -3    1    3    3    0  502 -0.11050939038E+03  0.91182911916E+03 -0.81587681464E+03  0.12285355733E+04  0.10100000352E+00 0.  1.
</event>
<event>
 5   0  0.9311672E-07  0.3544002E+04  0.7818609E-02  0.8103440E-01
        2   -1    0    0  501    0  0.00000000000E+00  0.00000000000E+00  0.94680653186E+03  0.94680653187E+03  0.25500000920E-02 0. -1.
       -2   -1    0    0    0  501  0.00000000000E+00  0.00000000000E+00 -0.33163988442E+04  0.33163988442E+04  0.25500000920E-02 0.  1.
    10030    2    1    2    0    0  0.00000000000E+00  0.00000000000E+00 -0.23695923124E+04  0.42632053761E+04  0.35440023070E+04 0.  0.
        4    1    3    3  502    0  0.16057709888E+04  0.27118216098E+03 -0.34450798913E+03  0.16645502697E+04  0.12699999809E+01 0.  1.
       -4    1    3    3    0  502 -0.16057709888E+04 -0.27118216098E+03 -0.20250843232E+04  0.25986551064E+04  0.12699999809E+01 0. -1.
</event>
<event>
 5   0  0.9128871E-07  0.3452739E+04  0.7818609E-02  0.8125082E-01
       -2   -1    0    0    0  501  0.00000000000E+00  0.00000000000E+00  0.13274547746E+04  0.13274547746E+04  0.25500000920E-02 0. -1.
        2   -1    0    0  501    0  0.00000000000E+00  0.00000000000E+00 -0.22451625742E+04  0.22451625742E+04  0.25500000920E-02 0.  1.
    10030    2    1    2    0    0  0.00000000000E+00  0.00000000000E+00 -0.91770779967E+03  0.35726173488E+04  0.34527390743E+04 0.  0.
        1    1    3    3  502    0 -0.57752963925E+00 -0.99587532845E+03 -0.19179862595E+04  0.21611199168E+04  0.50400001928E-02 0.  1.
       -1    1    3    3    0  502  0.57752963925E+00  0.99587532845E+03  0.10002784598E+04  0.14114974320E+04  0.50400001928E-02 0. -1.
</event>
<event>
 5   0  0.2936607E-07  0.3597697E+04  0.7818609E-02  0.8091019E-01
       -1   -1    0    0    0  501  0.00000000000E+00  0.00000000000E+00  0.26284673693E+04  0.26284673693E+04  0.50400001928E-02 0.  1.
        1   -1    0    0  501    0  0.00000000000E+00  0.00000000000E+00 -0.12310811008E+04  0.12310811008E+04  0.50400001928E-02 0. -1.
    10030    2    1    2    0    0  0.00000000000E+00  0.00000000000E+00  0.13973862685E+04  0.38595484700E+04  0.35976973204E+04 0.  0.
        2    1    3    3  502    0  0.49806431876E+03 -0.36462274579E+03 -0.11139097370E+04  0.12735041086E+04  0.25500000920E-02 0. -1.
       -2    1    3    3    0  502 -0.49806431876E+03  0.36462274579E+03  0.25112960055E+04  0.25860443615E+04  0.25500000920E-02 0.  1.
</event>
<event>
 5   0  0.8950809E-07  0.3491859E+04  0.7818609E-02  0.8115722E-01
        2   -1    0    0  501    0  0.00000000000E+00  0.00000000000E+00  0.17465654999E+04  0.17465654999E+04  0.25500000920E-02 0.  1.
       -2   -1    0    0    0  501  0.00000000000E+00  0.00000000000E+00 -0.17452936738E+04  0.17452936738E+04  0.25500000920E-02 0. -1.
    10030    2    1    2    0    0  0.00000000000E+00  0.00000000000E+00  0.12718261072E+01  0.34918591738E+04  0.34918589421E+04 0.  0.
        2    1    3    3  502    0 -0.17258374215E+04 -0.25165391279E+03  0.80793391690E+02  0.17459587823E+04  0.25500000920E-02 0.  1.
       -2    1    3    3    0  502  0.17258374215E+04  0.25165391279E+03 -0.79521565583E+02  0.17459003914E+04  0.25500000920E-02 0. -1.
</event>
<event>
 5   0  0.6188930E-07  0.3531080E+04  0.7818609E-02  0.8106464E-01
       -2   -1    0    0    0  501  0.00000000000E+00  0.00000000000E+00  0.25818239017E+04  0.25818239017E+04  0.25500000920E-02 0. -1.
        2   -1    0    0  501    0  0.00000000000E+00  0.00000000000E+00 -0.12073371852E+04  0.12073371852E+04  0.25500000920E-02 0.  1.
    10030    2    1    2    0    0  0.00000000000E+00  0.00000000000E+00  0.13744867165E+04  0.37891610869E+04  0.35310802892E+04 0.  0.
        3    1    3    3  502    0 -0.62372078458E+03 -0.15302756387E+04  0.20233843042E+02  0.16526283811E+04  0.10100000352E+00 0.  1.
       -3    1    3    3    0  502  0.62372078458E+03  0.15302756387E+04  0.13542528734E+04  0.21365327058E+04  0.10100000352E+00 0. -1.
</event>
<event>
 5   0  0.8845195E-07  0.3479565E+04  0.7818609E-02  0.8118650E-01
       -2   -1    0    0    0  501  0.00000000000E+00  0.00000000000E+00  0.12682265179E+04  0.12682265179E+04  0.25500000920E-02 0.  1.
        2   -1    0    0  501    0  0.00000000000E+00  0.00000000000E+00 -0.23866734787E+04  0.23866734787E+04  0.25500000920E-02 0. -1.
    10030    2    1    2    0    0  0.00000000000E+00  0.00000000000E+00 -0.11184469608E+04  0.36548999966E+04  0.34795646827E+04 0.  0.
        5    1    3    3  502    0 -0.28253129058E+03 -0.73751212532E+03 -0.21875219539E+04  0.23257305205E+04  0.46999998093E+01 0. -1.
       -5    1    3    3    0  502  0.28253129058E+03  0.73751212532E+03  0.10690749931E+04  0.13291694761E+04  0.46999998093E+01 0.  1.
</event>
<event>
 5   0  0.9128871E-07  0.3871886E+04  0.7818609E-02  0.8030902E-01
       -2   -1    0    0    0  501  0.00000000000E+00  0.00000000000E+00  0.13523851201E+04  0.13523851201E+04  0.25500000920E-02 0.  1.
        2   -1    0    0  501    0  0.00000000000E+00  0.00000000000E+00 -0.27713071432E+04  0.27713071432E+04  0.25500000920E-02 0. -1.
    10030    2    1    2    0    0  0.00000000000E+00  0.00000000000E+00 -0.14189220231E+04  0.41236922633E+04  0.38718856098E+04 0.  0.
        1    1    3    3  502    0 -0.19786088186E+03 -0.10952250012E+02  0.13415550362E+04  0.13561116457E+04  0.50400001928E-02 0.  1.
       -1    1    3    3    0  502  0.19786088186E+03  0.10952250012E+02 -0.27604770593E+04  0.27675806177E+04  0.50400001928E-02 0. -1.
</event>
<event>
 5   0  0.2933506E-07  0.3466257E+04  0.7818609E-02  0.8121834E-01
       -1   -1    0    0    0  501  0.00000000000E+00  0.00000000000E+00  0.14984256421E+04  0.14984256421E+04  0.50400001928E-02 0. -1.
        1   -1    0    0  501    0  0.00000000000E+00  0.00000000000E+00 -0.20045932858E+04  0.20045932859E+04  0.50400001928E-02 0.  1.
    10030    2    1    2    0    0  0.00000000000E+00  0.00000000000E+00 -0.50616764374E+03  0.35030189280E+04  0.34662567600E+04 0.  0.
        4    1    3    3  502    0 -0.73543107890E+03  0.26979447697E+01 -0.18390801053E+04  0.19806775097E+04  0.12699999809E+01 0.  1.
       -4    1    3    3    0  502  0.73543107890E+03 -0.26979447697E+01  0.13329124616E+04  0.15223414183E+04  0.12699999809E+01 0. -1.
</event>
<event>
 5   0  0.8950809E-07  0.3280563E+04  0.7818609E-02  0.8167859E-01
       -2   -1    0    0    0  501  0.00000000000E+00  0.00000000000E+00  0.16574861289E+04  0.16574861289E+04  0.25500000920E-02 0.  1.
        2   -1    0    0  501    0  0.00000000000E+00  0.00000000000E+00 -0.16232557003E+04  0.16232557003E+04  0.25500000920E-02 0. -1.
    10030    2    1    2    0    0  0.00000000000E+00  0.00000000000E+00  0.34230428649E+02  0.32807418292E+04  0.32805632485E+04 0.  0.
        2    1    3    3  502    0  0.90981687461E+03 -0.10322599752E+04 -0.87579194769E+03  0.16310545476E+04  0.25500000920E-02 0. -1.
       -2    1    3    3    0  502 -0.90981687461E+03  0.10322599752E+04  0.91002237633E+03  0.16496872816E+04  0.25500000920E-02 0.  1.
</event>
<event>
 5   0  0.2972541E-07  0.3460587E+04  0.7818609E-02  0.8123194E-01
       -1   -1    0    0    0  501  0.00000000000E+00  0.00000000000E+00  0.13938547770E+04  0.13938547770E+04  0.50400001928E-02 0.  1.
        1   -1    0    0  501    0  0.00000000000E+00  0.00000000000E+00 -0.21479392729E+04  0.21479392729E+04  0.50400001928E-02 0. -1.
    10030    2    1    2    0    0  0.00000000000E+00  0.00000000000E+00 -0.75408449594E+03  0.35417940499E+04  0.34605868960E+04 0.  0.
        3    1    3    3  502    0 -0.16804253874E+04  0.81406179322E+02  0.36745766550E+02  0.16827972874E+04  0.10100000352E+00 0.  1.
       -3    1    3    3    0  502  0.16804253874E+04 -0.81406179322E+02 -0.79083026249E+03  0.18589967625E+04  0.10100000352E+00 0. -1.
</event>
<event>
 5   0  0.6188930E-07  0.3497868E+04  0.7818609E-02  0.8114295E-01
        2   -1    0    0  501    0  0.00000000000E+00  0.00000000000E+00  0.17075529302E+04  0.17075529302E+04  0.25500000920E-02 0.  1.
       -2   -1    0    0    0  501  0.00000000000E+00  0.00000000000E+00 -0.17913180953E+04  0.17913180953E+04  0.25500000920E-02 0. -1.
    10030    2    1    2    0    0  0.00000000000E+00  0.00000000000E+00 -0.83765165091E+02  0.34988710255E+04  0.34978681865E+04 0.  0.
        3    1    3    3  502    0  0.25283726015E+03  0.76941532149E+03 -0.15924379101E+04  0.17865567790E+04  0.10100000352E+00 0. -1.
       -3    1    3    3    0  502 -0.25283726015E+03 -0.76941532149E+03  0.15086727450E+04  0.17123142465E+04  0.10100000352E+00 0.  1.
</event>
<event>
 5   0  0.2936607E-07  0.3573155E+04  0.7818609E-02  0.8096669E-01
        1   -1    0    0  501    0  0.00000000000E+00  0.00000000000E+00  0.22807143420E+04  0.22807143420E+04  0.50400001928E-02 0. -1.
       -1   -1    0    0    0  501  0.00000000000E+00  0.00000000000E+00 -0.13995000686E+04  0.13995000686E+04  0.50400001928E-02 0.  1.
    10030    2    1    2    0    0  0.00000000000E+00  0.00000000000E+00  0.88121427346E+03  0.36802144106E+04  0.35731553999E+04 0.  0.
        2    1    3    3  502    0 -0.98417545145E+03  0.12367598782E+04  0.12984384968E+04  0.20455118786E+04  0.25500000920E-02 0.  1.
       -2    1    3    3    0  502  0.98417545145E+03 -0.12367598782E+04 -0.41722422338E+03  0.16347025320E+04  0.25500000920E-02 0. -1.
</event>
<event>
 5   0  0.9311672E-07  0.3499929E+04  0.7818609E-02  0.8113807E-01
       -2   -1    0    0    0  501  0.00000000000E+00  0.00000000000E+00  0.20325963811E+04  0.20325963811E+04  0.25500000920E-02 0.  1.
        2   -1    0    0  501    0  0.00000000000E+00  0.00000000000E+00 -0.15066324699E+04  0.15066324699E+04  0.25500000920E-02 0. -1.
    10030    2    1    2    0    0  0.00000000000E+00  0.00000000000E+00  0.52596391121E+03  0.35392288510E+04  0.34999289741E+04 0.  0.
        4    1    3    3  502    0 -0.69822761399E+03 -0.11719257456E+04 -0.84542918121E+03  0.16048937246E+04  0.12699999809E+01 0. -1.
       -4    1    3    3    0  502  0.69822761399E+03  0.11719257456E+04  0.13713930924E+04  0.19343351263E+04  0.12699999809E+01 0.  1.
</event>
<event>
 5   0  0.3026332E-07  0.3353272E+04  0.7818609E-02  0.8149471E-01
        1   -1    0    0  501    0  0.00000000000E+00  0.00000000000E+00  0.12979940140E+04  0.12979940140E+04  0.50400001928E-02 0.  1.
       -1   -1    0    0    0  501  0.00000000000E+00  0.00000000000E+00 -0.21657330856E+04  0.21657330856E+04  0.50400001928E-02 0. -1.
    10030    2    1    2    0    0  0.00000000000E+00  0.00000000000E+00 -0.86773907158E+03  0.34637270996E+04  0.33532721816E+04 0.  0.
        1    1    3    3  502    0  0.71296114064E+02  0.81500293460E+02 -0.21621174175E+04  0.21648272820E+04  0.50400001928E-02 0. -1.
       -1    1    3    3    0  502 -0.71296114064E+02 -0.81500293460E+02  0.12943783459E+04  0.12988998176E+04  0.50400001928E-02 0.  1.
</event>
<event>
 5   0  0.9128871E-07  0.3526129E+04  0.7818609E-02  0.8107625E-01
        2   -1    0    0  501    0  0.00000000000E+00  0.00000000000E+00  0.25847034462E+04  0.25847034462E+04  0.25500000920E-02 0.  1.
       -2   -1    0    0    0  501  0.00000000000E+00  0.00000000000E+00 -0.12026126420E+04  0.12026126420E+04  0.25500000920E-02 0. -1.
    10030    2    1    2    0    0  0.00000000000E+00  0.00000000000E+00  0.13820908042E+04  0.37873160883E+04  0.35261293455E+04 0.  0.
        1    1    3    3  502    0  0.13790607981E+04 -0.29844324108E+03  0.18264769669E+04  0.23080067512E+04  0.50400001928E-02 0.  1.
       -1    1    3    3    0  502 -0.13790607981E+04  0.29844324108E+03 -0.44438616269E+03  0.14793093371E+04  0.50400001928E-02 0. -1.
</event>
<event>
 5   0  0.2936607E-07  0.3403486E+04  0.7818609E-02  0.8137051E-01
       -1   -1    0    0    0  501  0.00000000000E+00  0.00000000000E+00  0.96700975014E+03  0.96700975016E+03  0.50400001928E-02 0.  1.
        1   -1    0    0  501    0  0.00000000000E+00  0.00000000000E+00 -0.29947267391E+04  0.29947267391E+04  0.50400001928E-02 0. -1.
    10030    2    1    2    0    0  0.00000000000E+00  0.00000000000E+00 -0.20277169889E+04  0.39617364892E+04  0.34034864217E+04 0.  0.
        2    1    3    3  502    0  0.15131842312E+03  0.37494041894E+03  0.91028680265E+03  0.99604199009E+03  0.25500000920E-02 0.  1.
       -2    1    3    3    0  502 -0.15131842312E+03 -0.37494041894E+03 -0.29380037916E+04  0.29656944992E+04  0.25500000920E-02 0. -1.
</event>
<event>
 5   0  0.3061330E-07  0.3559816E+04  0.7818609E-02  0.8099759E-01
       -1   -1    0    0    0  501  0.00000000000E+00  0.00000000000E+00  0.31378946271E+04  0.31378946271E+04  0.50400001928E-02 0. -1.
        1   -1    0    0  501    0  0.00000000000E+00  0.00000000000E+00 -0.10096174370E+04  0.10096174370E+04  0.50400001928E-02 0.  1.
    10030    2    1    2    0    0  0.00000000000E+00  0.00000000000E+00  0.21282771901E+04  0.41475120641E+04  0.35598163610E+04 0.  0.
        5    1    3    3  502    0  0.26842727121E+03  0.67558367340E+03  0.29570393800E+04  0.30450895692E+04  0.46999998093E+01 0. -1.
       -5    1    3    3    0  502 -0.26842727121E+03 -0.67558367340E+03 -0.82876218992E+03  0.11024224948E+04  0.46999998093E+01 0.  1.
</event>
<event>
 5   0  0.6188930E-07  0.3528760E+04  0.7818609E-02  0.8107008E-01
       -2   -1    0    0    0  501  0.00000000000E+00  0.00000000000E+00  0.15295445941E+04  0.15295445941E+04  0.25500000920E-02 0.  1.
        2   -1    0    0  501    0  0.00000000000E+00  0.00000000000E+00 -0.20352707503E+04  0.20352707503E+04  0.25500000920E-02 0. -1.
    10030    2    1    2    0    0  0.00000000000E+00  0.00000000000E+00 -0.50572615616E+03  0.35648153444E+04  0.35287603339E+04 0.  0.
        3    1    3    3  502    0 -0.94540733694E+03 -0.44349451139E+03  0.11838334434E+04  0.15785892583E+04  0.10100000352E+00 0.  1.
       -3    1    3    3    0  502  0.94540733694E+03  0.44349451139E+03 -0.16895595996E+04  0.19862260861E+04  0.10100000352E+00 0. -1.
</event>
<event>
 5   0  0.2972541E-07  0.3492131E+04  0.7818609E-02  0.8115657E-01
       -1   -1    0    0    0  501  0.00000000000E+00  0.00000000000E+00  0.22620386988E+04  0.22620386988E+04  0.50400001928E-02 0.  1.
        1   -1    0    0  501    0  0.00000000000E+00  0.00000000000E+00 -0.13477863726E+04  0.13477863726E+04  0.50400001928E-02 0. -1.
    10030    2    1    2    0    0  0.00000000000E+00  0.00000000000E+00  0.91425232628E+03  0.36098250714E+04  0.34921311158E+04 0.  0.
        3    1    3    3  502    0 -0.53237566293E+03 -0.16380783710E+04  0.16108209629E+03  0.17299341167E+04  0.10100000352E+00 0. -1.
       -3    1    3    3    0  502  0.53237566293E+03  0.16380783710E+04  0.75317022999E+03  0.18798909547E+04  0.10100000352E+00 0.  1.
</event>
<event>
 5   0  0.9128871E-07  0.3503563E+04  0.7818609E-02  0.8112946E-01
       -2   -1    0    0    0  501  0.00000000000E+00  0.00000000000E+00  0.91634844808E+03  0.91634844808E+03  0.25500000920E-02 0. -1.
        2   -1    0    0  501    0  0.00000000000E+00  0.00000000000E+00 -0.33488777700E+04  0.33488777700E+04  0.25500000920E-02 0.  1.
    10030    2    1    2    0    0  0.00000000000E+00  0.00000000000E+00 -0.24325293219E+04  0.42652262180E+04  0.35035632989E+04 0.  0.
        1    1    3    3  502    0  0.17151495528E+03 -0.35322488008E+03  0.86208270995E+03  0.94729709944E+03  0.50400001928E-02 0. -1.
       -1    1    3    3    0  502 -0.17151495528E+03  0.35322488008E+03 -0.32946120318E+04  0.33179291186E+04  0.50400001928E-02 0.  1.
</event>
<event>
 5   0  0.2936607E-07  0.3524203E+04  0.7818609E-02  0.8108078E-01
       -1   -1    0    0    0  501  0.00000000000E+00  0.00000000000E+00  0.14767428290E+04  0.14767428291E+04  0.50400001928E-02 0. -1.
        1   -1    0    0  501    0  0.00000000000E+00  0.00000000000E+00 -0.21026010573E+04  0.21026010573E+04  0.50400001928E-02 0.  1.
    10030    2    1    2    0    0  0.00000000000E+00  0.00000000000E+00 -0.62585822826E+03  0.35793438864E+04  0.35242026240E+04 0.  0.
        2    1    3    3  502    0 -0.13788110053E+04 -0.71595762472E+03 -0.11573741992E+04  0.19373255137E+04  0.25500000920E-02 0.  1.
       -2    1    3    3    0  502  0.13788110053E+04  0.71595762472E+03  0.53151597098E+03  0.16420183727E+04  0.25500000920E-02 0. -1.
</event>
<event>
 5   0  0.6188930E-07  0.3508408E+04  0.7818609E-02  0.8111800E-01
       -2   -1    0    0    0  501  0.00000000000E+00  0.00000000000E+00  0.14605496474E+04  0.14605496474E+04  0.25500000920E-02 0. -1.
        2   -1    0    0  501    0  0.00000000000E+00  0.00000000000E+00 -0.21068995233E+04  0.21068995233E+04  0.25500000920E-02 0.  1.
    10030    2    1    2    0    0  0.00000000000E+00  0.00000000000E+00 -0.64634987584E+03  0.35674491707E+04  0.35084078189E+04 0.  0.
        3    1    3    3  502    0  0.91322104189E+03 -0.13602018496E+04  0.31436082252E+03  0.16682159572E+04  0.10100000352E+00 0. -1.
       -3    1    3    3    0  502 -0.91322104189E+03  0.13602018496E+04 -0.96071069836E+03  0.18992332135E+04  0.10100000352E+00 0.  1.
</event>
<event>
 5   0  0.2933506E-07  0.3501409E+04  0.7818609E-02  0.8113456E-01
        1   -1    0    0  501    0  0.00000000000E+00  0.00000000000E+00  0.26027622566E+04  0.26027622566E+04  0.50400001928E-02 0. -1.
       -1   -1    0    0    0  501  0.00000000000E+00  0.00000000000E+00 -0.11775822373E+04  0.11775822373E+04  0.50400001928E-02 0.  1.
    10030    2    1    2    0    0  0.00000000000E+00  0.00000000000E+00  0.14251800193E+04  0.37803444939E+04  0.35014092027E+04 0.  0.
        4    1    3    3  502    0 -0.15841314027E+04  0.63487769624E+03  0.11341057130E+04  0.20490825683E+04  0.12699999809E+01 0. -1.
       -4    1    3    3    0  502  0.15841314027E+04 -0.63487769624E+03  0.29107430625E+03  0.17312619256E+04  0.12699999809E+01 0.  1.
</event>
<event>
 5   0  0.3061330E-07  0.3503912E+04  0.7818609E-02  0.8112863E-01
        1   -1    0    0  501    0  0.00000000000E+00  0.00000000000E+00  0.22119598352E+04  0.22119598352E+04  0.50400001928E-02 0. -1.
       -1   -1    0    0    0  501  0.00000000000E+00  0.00000000000E+00 -0.13876158229E+04  0.13876158229E+04  0.50400001928E-02 0.  1.
    10030    2    1    2    0    0  0.00000000000E+00  0.00000000000E+00  0.82434401231E+03  0.35995756581E+04  0.35039123659E+04 0.  0.
        5    1    3    3  502    0  0.80367691406E+03  0.52212646523E+03 -0.10944339306E+04  0.14547578308E+04  0.46999998093E+01 0.  1.
       -5    1    3    3    0  502 -0.80367691406E+03 -0.52212646523E+03  0.19187779429E+04  0.21448178273E+04  0.46999998093E+01 0. -1.
</event>
<event>
 5   0  0.2936607E-07  0.3485440E+04  0.7818609E-02  0.8117249E-01
        1   -1    0    0  501    0  0.00000000000E+00  0.00000000000E+00  0.15463288262E+04  0.15463288262E+04  0.50400001928E-02 0.  1.
       -1   -1    0    0    0  501  0.00000000000E+00  0.00000000000E+00 -0.19640542284E+04  0.19640542284E+04  0.50400001928E-02 0. -1.
    10030    2    1    2    0    0  0.00000000000E+00  0.00000000000E+00 -0.41772540225E+03  0.35103830546E+04  0.34854403851E+04 0.  0.
        2    1    3    3  502    0 -0.92539127274E+03  0.12251270345E+04  0.62153039308E+03  0.16563771575E+04  0.25500000920E-02 0. -1.
       -2    1    3    3    0  502  0.92539127274E+03 -0.12251270345E+04 -0.10392557953E+04  0.18540058971E+04  0.25500000920E-02 0.  1.
</event>
<event>
 5   0  0.2972541E-07  0.3516746E+04  0.7818609E-02  0.8109833E-01
        1   -1    0    0  501    0  0.00000000000E+00  0.00000000000E+00  0.31599272434E+04  0.31599272434E+04  0.50400001928E-02 0.  1.
       -1   -1    0    0    0  501  0.00000000000E+00  0.00000000000E+00 -0.97846431793E+03  0.97846431795E+03  0.50400001928E-02 0. -1.
    10030    2    1    2    0    0  0.00000000000E+00  0.00000000000E+00  0.21814629255E+04  0.41383915614E+04  0.35167462547E+04 0.  0.
        3    1    3    3  502    0  0.96286095165E+03 -0.78966526087E+03  0.25516316838E+04  0.28392774955E+04  0.10100000352E+00 0.  1.
       -3    1    3    3    0  502 -0.96286095165E+03  0.78966526087E+03 -0.37016875828E+03  0.12991140659E+04  0.10100000352E+00 0. -1.
</event>
<event>
 5   0  0.8950809E-07  0.3491355E+04  0.7818609E-02  0.8115842E-01
        2   -1    0    0  501    0  0.00000000000E+00  0.00000000000E+00  0.22332682183E+04  0.22332682183E+04  0.25500000920E-02 0. -1.
       -2   -1    0    0    0  501  0.00000000000E+00  0.00000000000E+00 -0.13645426171E+04  0.13645426171E+04  0.25500000920E-02 0.  1.
    10030    2    1    2    0    0  0.00000000000E+00  0.00000000000E+00  0.86872560123E+03  0.35978108354E+04  0.34913548427E+04 0.  0.
        2    1    3    3  502    0  0.14511451457E+03 -0.46121084539E+03 -0.12941665048E+04  0.13815355979E+04  0.25500000920E-02 0.  1.
       -2    1    3    3    0  502 -0.14511451457E+03  0.46121084539E+03  0.21628921060E+04  0.22162752375E+04  0.25500000920E-02 0. -1.
</event>
<event>
 5   0  0.9311672E-07  0.3449108E+04  0.7818609E-02  0.8125958E-01
        2   -1    0    0  501    0  0.00000000000E+00  0.00000000000E+00  0.12101190382E+04  0.12101190382E+04  0.25500000920E-02 0. -1.
       -2   -1    0    0    0  501  0.00000000000E+00  0.00000000000E+00 -0.24576814845E+04  0.24576814845E+04  0.25500000920E-02 0.  1.
    10030    2    1    2    0    0  0.00000000000E+00  0.00000000000E+00 -0.12475624462E+04  0.36678005227E+04  0.34491083800E+04 0.  0.
        4    1    3    3  502    0  0.13555867728E+04  0.39951517486E+03  0.42724732305E+03  0.14764043354E+04  0.12699999809E+01 0. -1.
       -4    1    3    3    0  502 -0.13555867728E+04 -0.39951517486E+03 -0.16748097693E+04  0.21913961873E+04  0.12699999809E+01 0.  1.
</event>
<event>
 5   0  0.6188930E-07  0.3008551E+04  0.7818609E-02  0.8241293E-01
       -2   -1    0    0    0  501  0.00000000000E+00  0.00000000000E+00  0.95623502556E+03  0.95623502557E+03  0.25500000920E-02 0. -1.
        2   -1    0    0  501    0  0.00000000000E+00  0.00000000000E+00 -0.23664114540E+04  0.23664114540E+04  0.25500000920E-02 0.  1.
    10030    2    1    2    0    0  0.00000000000E+00  0.00000000000E+00 -0.14101764284E+04  0.33226464795E+04  0.30085514901E+04 0.  0.
        3    1    3    3  502    0  0.29021562960E+03 -0.11328655065E+04 -0.17500381658E+04  0.21048142340E+04  0.10100000352E+00 0.  1.
       -3    1    3    3    0  502 -0.29021562960E+03  0.11328655065E+04  0.33986173740E+03  0.12178322456E+04  0.10100000352E+00 0. -1.
</event>
<event>
 5   0  0.8845195E-07  0.3458581E+04  0.7818609E-02  0.8123676E-01
        2   -1    0    0  501    0  0.00000000000E+00  0.00000000000E+00  0.19506931751E+04  0.19506931752E+04  0.25500000920E-02 0.  1.
       -2   -1    0    0    0  501  0.00000000000E+00  0.00000000000E+00 -0.15330168022E+04  0.15330168022E+04  0.25500000920E-02 0. -1.
    10030    2    1    2    0    0  0.00000000000E+00  0.00000000000E+00  0.41767637300E+03  0.34837099773E+04  0.34585808728E+04 0.  0.
        5    1    3    3  502    0  0.47462937030E+03 -0.18449137973E+03  0.18734535892E+04  0.19414326023E+04  0.46999998093E+01 0.  1.
       -5    1    3    3    0  502 -0.47462937030E+03  0.18449137973E+03 -0.14557772162E+04  0.15422773750E+04  0.46999998093E+01 0. -1.
</event>
<event>
 5   0  0.2936607E-07  0.3593086E+04  0.7818609E-02  0.8092077E-01
       -1   -1    0    0    0  501  0.00000000000E+00  0.00000000000E+00  0.20030618037E+04  0.20030618037E+04  0.50400001928E-02 0.  1.
        1   -1    0    0  501    0  0.00000000000E+00  0.00000000000E+00 -0.16113161714E+04  0.16113161714E+04  0.50400001928E-02 0. -1.
    10030    2    1    2    0    0  0.00000000000E+00  0.00000000000E+00  0.39174563234E+03  0.36143779751E+04  0.35930855133E+04 0.  0.
        2    1    3    3  502    0 -0.45112995614E+03 -0.12931796159E+04  0.13654035850E+04  0.19339489926E+04  0.25500000920E-02 0.  1.
       -2    1    3    3    0  502  0.45112995614E+03  0.12931796159E+04 -0.97365795264E+03  0.16804289824E+04  0.25500000920E-02 0. -1.
</event>
<event>
 5   0  0.2933506E-07  0.3518156E+04  0.7818609E-02  0.8109501E-01
       -1   -1    0    0    0  501  0.00000000000E+00  0.00000000000E+00  0.22958341244E+04  0.22958341244E+04  0.50400001928E-02 0. -1.
        1   -1    0    0  501    0  0.00000000000E+00  0.00000000000E+00 -0.13478134041E+04  0.13478134041E+04  0.50400001928E-02 0.  1.
    10030    2    1    2    0    0  0.00000000000E+00  0.00000000000E+00  0.94802072033E+03  0.36436475284E+04  0.35181563390E+04 0.  0.
        4    1    3    3  502    0 -0.43475310013E+03 -0.13523000263E+04  0.15486286185E+04  0.21014228109E+04  0.12699999809E+01 0. -1.
       -4    1    3    3    0  502  0.43475310013E+03  0.13523000263E+04 -0.60060789814E+03  0.15422247176E+04  0.12699999809E+01 0.  1.
</event>
<event>
 5   0  0.6188930E-07  0.3445730E+04  0.7818609E-02  0.8126773E-01
       -2   -1    0    0    0  501  0.00000000000E+00  0.00000000000E+00  0.10634766679E+04  0.10634766679E+04  0.25500000920E-02 0. -1.
        2   -1    0    0  501    0  0.00000000000E+00  0.00000000000E+00 -0.27910939633E+04  0.27910939633E+04  0.25500000920E-02 0.  1.
    10030    2    1    2    0    0  0.00000000000E+00  0.00000000000E+00 -0.17276172955E+04  0.38545706312E+04  0.34457297096E+04 0.  0.
        3    1    3    3  502    0  0.39719754846E+03  0.15117263533E+04 -0.16744882328E+04  0.22906316403E+04  0.10100000352E+00 0.  1.
       -3    1    3    3    0  502 -0.39719754846E+03 -0.15117263533E+04 -0.53129062668E+02  0.15639389909E+04  0.10100000352E+00 0. -1.
</event>
<event>
 5   0  0.9128871E-07  0.3498290E+04  0.7818609E-02  0.8114195E-01
        2   -1    0    0  501    0  0.00000000000E+00  0.00000000000E+00  0.22315853243E+04  0.22315853243E+04  0.25500000920E-02 0. -1.
       -2   -1    0    0    0  501  0.00000000000E+00  0.00000000000E+00 -0.13710017484E+04  0.13710017484E+04  0.25500000920E-02 0.  1.
    10030    2    1    2    0    0  0.00000000000E+00  0.00000000000E+00  0.86058357596E+03  0.36025870727E+04  0.34982895142E+04 0.  0.
        1    1    3    3  502    0 -0.12386413388E+04  0.91430911877E+03 -0.42471042821E+03  0.15970511822E+04  0.50400001928E-02 0.  1.
       -1    1    3    3    0  502  0.12386413388E+04 -0.91430911877E+03  0.12852940042E+04  0.20055358905E+04  0.50400001928E-02 0. -1.
</event>
<event>
 5   0  0.3061330E-07  0.3436742E+04  0.7818609E-02  0.8128947E-01
       -1   -1    0    0    0  501  0.00000000000E+00  0.00000000000E+00  0.18732828805E+04  0.18732828805E+04  0.50400001928E-02 0. -1.
        1   -1    0    0  501    0  0.00000000000E+00  0.00000000000E+00 -0.15762696927E+04  0.15762696927E+04  0.50400001928E-02 0.  1.
    10030    2    1    2    0    0  0.00000000000E+00  0.00000000000E+00  0.29701318777E+03  0.34495525732E+04  0.34367420796E+04 0.  0.
        5    1    3    3  502    0 -0.63312508850E+03 -0.45953097436E+03 -0.13871508526E+04  0.15925531928E+04  0.46999998093E+01 0.  1.
       -5    1    3    3    0  502  0.63312508850E+03  0.45953097436E+03  0.16841640403E+04  0.18569993804E+04  0.46999998093E+01 0. -1.
</event>
<event>
 5   0  0.6188930E-07  0.3569593E+04  0.7818609E-02  0.8097493E-01
       -2   -1    0    0    0  501  0.00000000000E+00  0.00000000000E+00  0.11449108924E+04  0.11449108924E+04  0.25500000920E-02 0. -1.
        2   -1    0    0  501    0  0.00000000000E+00  0.00000000000E+00 -0.27823108890E+04  0.27823108890E+04  0.25500000920E-02 0.  1.
    10030    2    1    2    0    0  0.00000000000E+00  0.00000000000E+00 -0.16373999966E+04  0.39272217814E+04  0.35695927179E+04 0.  0.
        3    1    3    3  502    0  0.83394424855E+03 -0.14258503847E+04 -0.74965258908E+02  0.16535211307E+04  0.10100000352E+00 0.  1.
       -3    1    3    3    0  502 -0.83394424855E+03  0.14258503847E+04 -0.15624347377E+04  0.22737006507E+04  0.10100000352E+00 0. -1.
</event>
<event>
 5   0  0.2972541E-07  0.3461440E+04  0.7818609E-02  0.8122990E-01
        1   -1    0    0  501    0  0.00000000000E+00  0.00000000000E+00  0.21848106027E+04  0.21848106027E+04  0.50400001928E-02 0.  1.
       -1   -1    0    0    0  501  0.00000000000E+00  0.00000000000E+00 -0.13710072468E+04  0.13710072468E+04  0.50400001928E-02 0. -1.
    10030    2    1    2    0    0  0.00000000000E+00  0.00000000000E+00  0.81380335587E+03  0.35558178494E+04  0.34614396826E+04 0.  0.
        3    1    3    3  502    0 -0.17216230099E+04  0.17641856590E+03  0.42414812921E+03  0.17818560391E+04  0.10100000352E+00 0. -1.
       -3    1    3    3    0  502  0.17216230099E+04 -0.17641856590E+03  0.38965522666E+03  0.17739618103E+04  0.10100000352E+00 0.  1.
</event>
<event>
 5   0  0.3061330E-07  0.3520763E+04  0.7818609E-02  0.8108887E-01
       -1   -1    0    0    0  501  0.00000000000E+00  0.00000000000E+00  0.16093797331E+04  0.16093797331E+04  0.50400001928E-02 0.  1.
        1   -1    0    0  501    0  0.00000000000E+00  0.00000000000E+00 -0.19255506590E+04  0.19255506590E+04  0.50400001928E-02 0. -1.
    10030    2    1    2    0    0  0.00000000000E+00  0.00000000000E+00 -0.31617092593E+03  0.35349303921E+04  0.35207625343E+04 0.  0.
        5    1    3    3  502    0 -0.61005204197E+03 -0.10527137481E+04 -0.14354276152E+04  0.18817131179E+04  0.46999998093E+01 0. -1.
       -5    1    3    3    0  502  0.61005204197E+03  0.10527137481E+04  0.11192566893E+04  0.16532172743E+04  0.46999998093E+01 0.  1.
</event>
<event>
 5   0  0.8950809E-07  0.2931383E+04  0.7818609E-02  0.8263601E-01
       -2   -1    0    0    0  501  0.00000000000E+00  0.00000000000E+00  0.11285893423E+04  0.11285893423E+04  0.25500000920E-02 0.  1.
        2   -1    0    0  501    0  0.00000000000E+00  0.00000000000E+00 -0.19034837017E+04  0.19034837017E+04  0.25500000920E-02 0. -1.
    10030    2    1    2    0    0  0.00000000000E+00  0.00000000000E+00 -0.77489435941E+03  0.30320730440E+04  0.29313828948E+04 0.  0.
        2    1    3    3  502    0 -0.10216854119E+04 -0.79673271349E+03  0.32138559082E+03  0.13348830644E+04  0.25500000920E-02 0.  1.
       -2    1    3    3    0  502  0.10216854119E+04  0.79673271349E+03 -0.10962799502E+04  0.16971899796E+04  0.25500000920E-02 0. -1.
</event>
<event>
 5   0  0.3026332E-07  0.3434443E+04  0.7818609E-02  0.8129504E-01
        1   -1    0    0  501    0  0.00000000000E+00  0.00000000000E+00  0.10835866351E+04  0.10835866351E+04  0.50400001928E-02 0. -1.
       -1   -1    0    0    0  501  0.00000000000E+00  0.00000000000E+00 -0.27213784173E+04  0.27213784173E+04  0.50400001928E-02 0.  1.
    10030    2    1    2    0    0  0.00000000000E+00  0.00000000000E+00 -0.16377917822E+04  0.38049650525E+04  0.34344427683E+04 0.  0.
        1    1    3    3  502    0 -0.16275058365E+04 -0.25027386659E+03 -0.27905147862E+03  0.16701143625E+04  0.50400001928E-02 0.  1.
       -1    1    3    3    0  502  0.16275058365E+04  0.25027386659E+03 -0.13587403036E+04  0.21348506900E+04  0.50400001928E-02 0. -1.
</event>
<event>
 5   0  0.6188930E-07  0.3442354E+04  0.7818609E-02  0.8127589E-01
       -2   -1    0    0    0  501  0.00000000000E+00  0.00000000000E+00  0.14842827709E+04  0.14842827709E+04  0.25500000920E-02 0.  1.
        2   -1    0    0  501    0  0.00000000000E+00  0.00000000000E+00 -0.19958800120E+04  0.19958800120E+04  0.25500000920E-02 0. -1.
    10030    2    1    2    0    0  0.00000000000E+00  0.00000000000E+00 -0.51159724105E+03  0.34801627829E+04  0.34423540286E+04 0.  0.
        3    1    3    3  502    0 -0.18746715924E+03 -0.15050365726E+04 -0.10784753189E+04  0.18610180129E+04  0.10100000352E+00 0. -1.
       -3    1    3    3    0  502  0.18746715924E+03  0.15050365726E+04  0.56687807788E+03  0.16191447700E+04  0.10100000352E+00 0.  1.
</event>
<event>
 5   0  0.8950809E-07  0.3511438E+04  0.7818609E-02  0.8111085E-01
        2   -1    0    0  501    0  0.00000000000E+00  0.00000000000E+00  0.18800961539E+04  0.18800961539E+04  0.25500000920E-02 0. -1.
       -2   -1    0    0    0  501  0.00000000000E+00  0.00000000000E+00 -0.16395695418E+04  0.16395695418E+04  0.25500000920E-02 0.  1.
    10030    2    1    2    0    0  0.00000000000E+00  0.00000000000E+00  0.24052661214E+03  0.35196656957E+04  0.35114375344E+04 0.  0.
        2    1    3    3  502    0  0.14493541721E+04 -0.82575912985E+03 -0.42878179962E+03  0.17223122505E+04  0.25500000920E-02 0. -1.
       -2    1    3    3    0  502 -0.14493541721E+04  0.82575912985E+03  0.66930841176E+03  0.17973534451E+04  0.25500000920E-02 0.  1.
</event>
<event>
 5   0  0.3026332E-07  0.3477271E+04  0.7818609E-02  0.8119198E-01
       -1   -1    0    0    0  501  0.00000000000E+00  0.00000000000E+00  0.15628350989E+04  0.15628350989E+04  0.50400001928E-02 0. -1.
        1   -1    0    0  501    0  0.00000000000E+00  0.00000000000E+00 -0.19342116207E+04  0.19342116207E+04  0.50400001928E-02 0.  1.
    10030    2    1    2    0    0  0.00000000000E+00  0.00000000000E+00 -0.37137652180E+03  0.34970467197E+04  0.34772712345E+04 0.  0.
        1    1    3    3  502    0 -0.11903937033E+04 -0.86903300826E+03  0.74183565041E+03  0.16500229303E+04  0.50400001928E-02 0. -1.
       -1    1    3    3    0  502  0.11903937033E+04  0.86903300826E+03 -0.11132121722E+04  0.18470237894E+04  0.50400001928E-02 0.  1.
</event>
<event>
 5   0  0.6188930E-07  0.3517830E+04  0.7818609E-02  0.8109577E-01
       -2   -1    0    0    0  501  0.00000000000E+00  0.00000000000E+00  0.22162705441E+04  0.22162705441E+04  0.25500000920E-02 0. -1.
        2   -1    0    0  501    0  0.00000000000E+00  0.00000000000E+00 -0.13959409429E+04  0.13959409429E+04  0.25500000920E-02 0.  1.
    10030    2    1    2    0    0  0.00000000000E+00  0.00000000000E+00  0.82032960123E+03  0.36122114869E+04  0.35178304638E+04 0.  0.
        3    1    3    3  502    0 -0.36012064046E+03  0.15492201770E+04 -0.36099205667E+03  0.16309767956E+04  0.10100000352E+00 0.  1.
       -3    1    3    3    0  502  0.36012064046E+03 -0.15492201770E+04  0.11813216579E+04  0.19812346914E+04  0.10100000352E+00 0. -1.
</event>
<event>
 5   0  0.8950809E-07  0.3545075E+04  0.7818609E-02  0.8103190E-01
       -2   -1    0    0    0  501  0.00000000000E+00  0.00000000000E+00  0.14116068603E+04  0.14116068603E+04  0.25500000920E-02 0.  1.
        2   -1    0    0  501    0  0.00000000000E+00  0.00000000000E+00 -0.22257537122E+04  0.22257537122E+04  0.25500000920E-02 0. -1.
    10030    2    1    2    0    0  0.00000000000E+00  0.00000000000E+00 -0.81414685191E+03  0.36373605724E+04  0.35450750115E+04 0.  0.
        2    1    3    3  502    0  0.57451247710E+03  0.14327602092E+04  0.48682534140E+03  0.16185998012E+04  0.25500000920E-02 0.  1.
       -2    1    3    3    0  502 -0.57451247710E+03 -0.14327602092E+04 -0.13009721933E+04  0.20187607712E+04  0.25500000920E-02 0. -1.
</event>
<event>
 5   0  0.8845195E-07  0.3556258E+04  0.7818609E-02  0.8100585E-01
        2   -1    0    0  501    0  0.00000000000E+00  0.00000000000E+00  0.15368168934E+04  0.15368168934E+04  0.25500000920E-02 0.  1.
       -2   -1    0    0    0  501  0.00000000000E+00  0.00000000000E+00 -0.20573320832E+04  0.20573320832E+04  0.25500000920E-02 0. -1.
    10030    2    1    2    0    0  0.00000000000E+00  0.00000000000E+00 -0.52051518982E+03  0.35941489766E+04  0.35562579776E+04 0.  0.
        5    1    3    3  502    0 -0.49243489257E+03  0.17493403769E+03 -0.19779623479E+04  0.20458375255E+04  0.46999998093E+01 0. -1.
       -5    1    3    3    0  502  0.49243489257E+03 -0.17493403769E+03  0.14574471581E+04  0.15483114511E+04  0.46999998093E+01 0.  1.
</event>
<event>
 5   0  0.2933506E-07  0.3510945E+04  0.7818609E-02  0.8111201E-01
        1   -1    0    0  501    0  0.00000000000E+00  0.00000000000E+00  0.20644556431E+04  0.20644556431E+04  0.50400001928E-02 0.  1.
       -1   -1    0    0    0  501  0.00000000000E+00  0.00000000000E+00 -0.14927341302E+04  0.14927341302E+04  0.50400001928E-02 0. -1.
    10030    2    1    2    0    0  0.00000000000E+00  0.00000000000E+00  0.57172151291E+03  0.35571897733E+04  0.35109448294E+04 0.  0.
        4    1    3    3  502    0 -0.42978164008E+03 -0.94881927969E+03 -0.11458018767E+04  0.15484940546E+04  0.12699999809E+01 0. -1.
       -4    1    3    3    0  502  0.42978164008E+03  0.94881927969E+03  0.17175233896E+04  0.20086957187E+04  0.12699999809E+01 0.  1.
</event>
<event>
 5   0  0.9311672E-07  0.3517123E+04  0.7818609E-02  0.8109744E-01
        2   -1    0    0  501    0  0.00000000000E+00  0.00000000000E+00  0.20436607848E+04  0.20436607848E+04  0.25500000920E-02 0.  1.
       -2   -1    0    0    0  501  0.00000000000E+00  0.00000000000E+00 -0.15132349771E+04  0.15132349771E+04  0.25500000920E-02 0. -1.
    10030    2    1    2    0    0  0.00000000000E+00  0.00000000000E+00  0.53042580767E+03  0.35568957619E+04  0.35171232454E+04 0.  0.
        4    1    3    3  502    0  0.40158646313E+03  0.11183912962E+03  0.19929695494E+04  0.20361014012E+04  0.12699999809E+01 0.  1.
       -4    1    3    3    0  502 -0.40158646313E+03 -0.11183912962E+03 -0.14625437417E+04  0.15207943607E+04  0.12699999809E+01 0. -1.
</event>
<event>
 5   0  0.6188930E-07  0.3507872E+04  0.7818609E-02  0.8111927E-01
       -2   -1    0    0    0  501  0.00000000000E+00  0.00000000000E+00  0.13073312908E+04  0.13073312908E+04  0.25500000920E-02 0. -1.
        2   -1    0    0  501    0  0.00000000000E+00  0.00000000000E+00 -0.23531075504E+04  0.23531075504E+04  0.25500000920E-02 0.  1.
    10030    2    1    2    0    0  0.00000000000E+00  0.00000000000E+00 -0.10457762596E+04  0.36604388412E+04  0.35078717943E+04 0.  0.
        3    1    3    3  502    0  0.11202274141E+04 -0.12579964215E+04 -0.10328419507E+04  0.19759116784E+04  0.10100000352E+00 0.  1.
       -3    1    3    3    0  502 -0.11202274141E+04  0.12579964215E+04 -0.12934308952E+02  0.16845271628E+04  0.10100000352E+00 0. -1.
</event>
<event>
 5   0  0.8845195E-07  0.3490193E+04  0.7818609E-02  0.8116118E-01
        2   -1    0    0  501    0  0.00000000000E+00  0.00000000000E+00  0.17755360258E+04  0.17755360258E+04  0.25500000920E-02 0.  1.
       -2   -1    0    0    0  501  0.00000000000E+00  0.00000000000E+00 -0.17151789638E+04  0.17151789638E+04  0.25500000920E-02 0. -1.
    10030    2    1    2    0    0  0.00000000000E+00  0.00000000000E+00  0.60357062026E+02  0.34907149897E+04  0.34901931414E+04 0.  0.
        5    1    3    3  502    0 -0.10579877192E+04  0.76084852526E+02 -0.13557461746E+04  0.17213938244E+04  0.46999998093E+01 0. -1.
       -5    1    3    3    0  502  0.10579877192E+04 -0.76084852526E+02  0.14161032366E+04  0.17693211652E+04  0.46999998093E+01 0.  1.
</event>
<event>
 5   0  0.6188930E-07  0.3485522E+04  0.7818609E-02  0.8117230E-01
        2   -1    0    0  501    0  0.00000000000E+00  0.00000000000E+00  0.15515113475E+04  0.15515113475E+04  0.25500000920E-02 0.  1.
       -2   -1    0    0    0  501  0.00000000000E+00  0.00000000000E+00 -0.19575856952E+04  0.19575856952E+04  0.25500000920E-02 0. -1.
    10030    2    1    2    0    0  0.00000000000E+00  0.00000000000E+00 -0.40607434766E+03  0.35090970428E+04  0.34855222965E+04 0.  0.
        3    1    3    3  502    0 -0.52740141064E+03  0.17533972256E+03  0.14598974589E+04  0.15621129495E+04  0.10100000352E+00 0.  1.
       -3    1    3    3    0  502  0.52740141064E+03 -0.17533972256E+03 -0.18659718066E+04  0.19469840933E+04  0.10100000352E+00 0. -1.
</event>
<event>
 5   0  0.3026332E-07  0.3520909E+04  0.7818609E-02  0.8108853E-01
       -1   -1    0    0    0  501  0.00000000000E+00  0.00000000000E+00  0.13639899535E+04  0.13639899535E+04  0.50400001928E-02 0.  1.
        1   -1    0    0  501    0  0.00000000000E+00  0.00000000000E+00 -0.22721574823E+04  0.22721574823E+04  0.50400001928E-02 0. -1.
    10030    2    1    2    0    0  0.00000000000E+00  0.00000000000E+00 -0.90816752884E+03  0.36361474358E+04  0.35209089614E+04 0.  0.
        1    1    3    3  502    0  0.16843064163E+04  0.31003865498E+03 -0.87508793457E+03  0.19232241068E+04  0.50400001928E-02 0. -1.
       -1    1    3    3    0  502 -0.16843064163E+04 -0.31003865498E+03 -0.33079594270E+02  0.17129233290E+04  0.50400001928E-02 0.  1.
</event>
<event>
 5   0  0.2972541E-07  0.3503801E+04  0.7818609E-02  0.8112890E-01
        1   -1    0    0  501    0  0.00000000000E+00  0.00000000000E+00  0.11657068286E+04  0.11657068286E+04  0.50400001928E-02 0. -1.
       -1   -1    0    0    0  501  0.00000000000E+00  0.00000000000E+00 -0.26328709194E+04  0.26328709194E+04  0.50400001928E-02 0.  1.
    10030    2    1    2    0    0  0.00000000000E+00  0.00000000000E+00 -0.14671640907E+04  0.37985777480E+04  0.35038011414E+04 0.  0.
        3    1    3    3  502    0  0.11952145540E+04 -0.98435406952E+02  0.65093719823E+03  0.13645316433E+04  0.10100000352E+00 0. -1.
       -3    1    3    3    0  502 -0.11952145540E+04  0.98435406952E+02 -0.21181012890E+04  0.24340461047E+04  0.10100000352E+00 0.  1.
</event>
<event>
 5   0  0.9311672E-07  0.3484682E+04  0.7818609E-02  0.8117430E-01
       -2   -1    0    0    0  501  0.00000000000E+00  0.00000000000E+00  0.11389951439E+04  0.11389951439E+04  0.25500000920E-02 0.  1.
        2   -1    0    0  501    0  0.00000000000E+00  0.00000000000E+00 -0.26652895657E+04  0.26652895657E+04  0.25500000920E-02 0. -1.
    10030    2    1    2    0    0  0.00000000000E+00  0.00000000000E+00 -0.15262944218E+04  0.38042847096E+04  0.34846818348E+04 0.  0.
        4    1    3    3  502    0 -0.66332374354E+03  0.78051263370E+03 -0.23018680591E+04  0.25194833865E+04  0.12699999809E+01 0. -1.
       -4    1    3    3    0  502  0.66332374354E+03 -0.78051263370E+03  0.77557363734E+03  0.12848013231E+04  0.12699999809E+01 0.  1.
</event>
<event>
 5   0  0.3061330E-07  0.3419419E+04  0.7818609E-02  0.8133157E-01
       -1   -1    0    0    0  501  0.00000000000E+00  0.00000000000E+00  0.14221654616E+04  0.14221654616E+04  0.50400001928E-02 0.  1.
        1   -1    0    0  501    0  0.00000000000E+00  0.00000000000E+00 -0.20553912038E+04  0.20553912038E+04  0.50400001928E-02 0. -1.
    10030    2    1    2    0    0  0.00000000000E+00  0.00000000000E+00 -0.63322574219E+03  0.34775566654E+04  0.34194188863E+04 0.  0.
        5    1    3    3  502    0  0.17055930779E+04 -0.82261327421E+02 -0.40332456397E+03  0.17545676012E+04  0.46999998093E+01 0.  1.
       -5    1    3    3    0  502 -0.17055930779E+04  0.82261327421E+02 -0.22990117823E+03  0.17229890641E+04  0.46999998093E+01 0. -1.
</event>
<event>
 5   0  0.3061330E-07  0.3499017E+04  0.7818609E-02  0.8114023E-01
       -1   -1    0    0    0  501  0.00000000000E+00  0.00000000000E+00  0.15424725878E+04  0.15424725878E+04  0.50400001928E-02 0.  1.
        1   -1    0    0  501    0  0.00000000000E+00  0.00000000000E+00 -0.19843338943E+04  0.19843338943E+04  0.50400001928E-02 0. -1.
    10030    2    1    2    0    0  0.00000000000E+00  0.00000000000E+00 -0.44186130644E+03  0.35268064821E+04  0.34990173689E+04 0.  0.
        5    1    3    3  502    0  0.57790092725E+03 -0.13916567119E+04 -0.11168548129E+04  0.18756504601E+04  0.46999998093E+01 0. -1.
       -5    1    3    3    0  502 -0.57790092725E+03  0.13916567119E+04  0.67499350641E+03  0.16511560220E+04  0.46999998093E+01 0.  1.
</event>
<event>
 5   0  0.2972541E-07  0.3515698E+04  0.7818609E-02  0.8110080E-01
        1   -1    0    0  501    0  0.00000000000E+00  0.00000000000E+00  0.21061104161E+04  0.21061104161E+04  0.50400001928E-02 0. -1.
       -1   -1    0    0    0  501  0.00000000000E+00  0.00000000000E+00 -0.14671749776E+04  0.14671749776E+04  0.50400001928E-02 0.  1.
    10030    2    1    2    0    0  0.00000000000E+00  0.00000000000E+00  0.63893543851E+03  0.35732853937E+04  0.35156976562E+04 0.  0.
        3    1    3    3  502    0 -0.46122701273E+02  0.40080805518E+03  0.20584161070E+04  0.20975822464E+04  0.10100000352E+00 0. -1.
       -3    1    3    3    0  502  0.46122701273E+02 -0.40080805518E+03 -0.14194806685E+04  0.14757031473E+04  0.10100000352E+00 0.  1.
</event>
<event>
 5   0  0.3061330E-07  0.3502161E+04  0.7818609E-02  0.8113278E-01
       -1   -1    0    0    0  501  0.00000000000E+00  0.00000000000E+00  0.16041720846E+04  0.16041720846E+04  0.50400001928E-02 0. -1.
        1   -1    0    0  501    0  0.00000000000E+00  0.00000000000E+00 -0.19114421271E+04  0.19114421271E+04  0.50400001928E-02 0.  1.
    10030    2    1    2    0    0  0.00000000000E+00  0.00000000000E+00 -0.30727004247E+03  0.35156142117E+04  0.35021605341E+04 0.  0.
        5    1    3    3  502    0  0.17243884940E+04  0.30450497357E+03 -0.15824117530E+03  0.17582096907E+04  0.46999998093E+01 0. -1.
       -5    1    3    3    0  502 -0.17243884940E+04 -0.30450497357E+03 -0.14902886717E+03  0.17574045210E+04  0.46999998093E+01 0.  1.
</event>
<event>
 5   0  0.3026332E-07  0.3437345E+04  0.7818609E-02  0.8128801E-01
       -1   -1    0    0    0  501  0.00000000000E+00  0.00000000000E+00  0.12067818721E+04  0.12067818721E+04  0.50400001928E-02 0.  1.
        1   -1    0    0  501    0  0.00000000000E+00  0.00000000000E+00 -0.24476959300E+04  0.24476959300E+04  0.50400001928E-02 0. -1.
    10030    2    1    2    0    0  0.00000000000E+00  0.00000000000E+00 -0.12409140579E+04  0.36544778021E+04  0.34373449502E+04 0.  0.
        1    1    3    3  502    0 -0.14215993417E+04  0.33671441527E+03  0.34199777385E+03  0.15004278600E+04  0.50400001928E-02 0.  1.
       -1    1    3    3    0  502  0.14215993417E+04 -0.33671441527E+03 -0.15829118318E+04  0.21540499421E+04  0.50400001928E-02 0. -1.
</event>
<event>
 5   0  0.9128871E-07  0.3541419E+04  0.7818609E-02  0.8104044E-01
        2   -1    0    0  501    0  0.00000000000E+00  0.00000000000E+00  0.14548861862E+04  0.14548861862E+04  0.25500000920E-02 0. -1.
       -2   -1    0    0    0  501  0.00000000000E+00  0.00000000000E+00 -0.21550912214E+04  0.21550912214E+04  0.25500000920E-02 0.  1.
    10030    2    1    2    0    0  0.00000000000E+00  0.00000000000E+00 -0.70020503526E+03  0.36099774076E+04  0.35414191777E+04 0.  0.
        1    1    3    3  502    0  0.11927431620E+04 -0.10345212803E+03  0.97978940881E+03  0.15470377756E+04  0.50400001928E-02 0. -1.
       -1    1    3    3    0  502 -0.11927431620E+04  0.10345212803E+03 -0.16799944441E+04  0.20629396321E+04  0.50400001928E-02 0.  1.
</event>
<event>
 5   0  0.2936607E-07  0.3429702E+04  0.7818609E-02  0.8130655E-01
        1   -1    0    0  501    0  0.00000000000E+00  0.00000000000E+00  0.16902692225E+04  0.16902692225E+04  0.50400001928E-02 0. -1.
       -1   -1    0    0    0  501  0.00000000000E+00  0.00000000000E+00 -0.17397900181E+04  0.17397900181E+04  0.50400001928E-02 0.  1.
    10030    2    1    2    0    0  0.00000000000E+00  0.00000000000E+00 -0.49520795654E+02  0.34300592406E+04  0.34297017487E+04 0.  0.
        2    1    3    3  502    0 -0.21868309755E+03 -0.33475639407E+03 -0.16925161130E+04  0.17391075106E+04  0.25500000920E-02 0.  1.
       -2    1    3    3    0  502  0.21868309755E+03  0.33475639407E+03  0.16429953173E+04  0.16909517300E+04  0.25500000920E-02 0. -1.
</event>
<event>
 5   0  0.2972541E-07  0.3324990E+04  0.7818609E-02  0.8156566E-01
       -1   -1    0    0    0  501  0.00000000000E+00  0.00000000000E+00  0.25966364278E+04  0.25966364278E+04  0.50400001928E-02 0.  1.
        1   -1    0    0  501    0  0.00000000000E+00  0.00000000000E+00 -0.10644114991E+04  0.10644114991E+04  0.50400001928E-02 0. -1.
    10030    2    1    2    0    0  0.00000000000E+00  0.00000000000E+00  0.15322249288E+04  0.36610479269E+04  0.33249900287E+04 0.  0.
        3    1    3    3  502    0  0.40569203390E+03 -0.15684993876E+04  0.11767885417E+04  0.20024004687E+04  0.10100000352E+00 0.  1.
       -3    1    3    3    0  502 -0.40569203390E+03  0.15684993876E+04  0.35543638707E+03  0.16586474582E+04  0.10100000352E+00 0. -1.
</event>
<event>
 5   0  0.2907000E-07  0.3483502E+04  0.7818609E-02  0.8117711E-01
       -4   -1    0    0    0  501  0.00000000000E+00  0.00000000000E+00  0.15917198820E+04  0.15917203886E+04  0.12699999809E+01 0. -1.
        4   -1    0    0  501    0  0.00000000000E+00  0.00000000000E+00 -0.19059223678E+04  0.19059227910E+04  0.12699999809E+01 0.  1.
    10030    2    1    2    0    0  0.00000000000E+00  0.00000000000E+00 -0.31420248587E+03  0.34976431796E+04  0.34835017740E+04 0.  0.
        3    1    3    3  502    0  0.49089269248E+03 -0.12518063009E+04 -0.12687096511E+04  0.18486802967E+04  0.10100000352E+00 0.  1.
       -3    1    3    3    0  502 -0.49089269248E+03  0.12518063009E+04  0.95450716521E+03  0.16489628829E+04  0.10100000352E+00 0. -1.
</event>
<event>
 5   0  0.2972541E-07  0.3494160E+04  0.7818609E-02  0.8115175E-01
       -1   -1    0    0    0  501  0.00000000000E+00  0.00000000000E+00  0.14759112236E+04  0.14759112236E+04  0.50400001928E-02 0.  1.
        1   -1    0    0  501    0  0.00000000000E+00  0.00000000000E+00 -0.20680700922E+04  0.20680700922E+04  0.50400001928E-02 0. -1.
    10030    2    1    2    0    0  0.00000000000E+00  0.00000000000E+00 -0.59215886862E+03  0.35439813158E+04  0.34941596187E+04 0.  0.
        3    1    3    3  502    0 -0.35771385718E+03 -0.13921678659E+04 -0.13033139121E+04  0.19402880544E+04  0.10100000352E+00 0. -1.
       -3    1    3    3    0  502  0.35771385718E+03  0.13921678659E+04  0.71115504345E+03  0.16036932614E+04  0.10100000352E+00 0.  1.
</event>
<event>
 5   0  0.8845195E-07  0.3490449E+04  0.7818609E-02  0.8116057E-01
       -2   -1    0    0    0  501  0.00000000000E+00  0.00000000000E+00  0.13451792162E+04  0.13451792162E+04  0.25500000920E-02 0.  1.
        2   -1    0    0  501    0  0.00000000000E+00  0.00000000000E+00 -0.22642399607E+04  0.22642399607E+04  0.25500000920E-02 0. -1.
    10030    2    1    2    0    0  0.00000000000E+00  0.00000000000E+00 -0.91906074450E+03  0.36094191770E+04  0.34904489887E+04 0.  0.
        5    1    3    3  502    0  0.13789064801E+04 -0.10690825321E+04 -0.49912250262E+03  0.18147908705E+04  0.46999998093E+01 0.  1.
       -5    1    3    3    0  502 -0.13789064801E+04  0.10690825321E+04 -0.41993824188E+03  0.17946283064E+04  0.46999998093E+01 0. -1.
</event>
<event>
 5   0  0.9128871E-07  0.3470781E+04  0.7818609E-02  0.8120749E-01
        2   -1    0    0  501    0  0.00000000000E+00  0.00000000000E+00  0.21976521098E+04  0.21976521098E+04  0.25500000920E-02 0. -1.
       -2   -1    0    0    0  501  0.00000000000E+00  0.00000000000E+00 -0.13703629012E+04  0.13703629012E+04  0.25500000920E-02 0.  1.
    10030    2    1    2    0    0  0.00000000000E+00  0.00000000000E+00  0.82728920859E+03  0.35680150111E+04  0.34707814228E+04 0.  0.
        1    1    3    3  502    0  0.35392647563E+03  0.16742783950E+04  0.11728228490E+03  0.17152921700E+04  0.50400001928E-02 0.  1.
       -1    1    3    3    0  502 -0.35392647563E+03 -0.16742783950E+04  0.71000692369E+03  0.18527228411E+04  0.50400001928E-02 0. -1.
</event>
<event>
 5   0  0.3026332E-07  0.3480253E+04  0.7818609E-02  0.8118486E-01
        1   -1    0    0  501    0  0.00000000000E+00  0.00000000000E+00  0.24158694567E+04  0.24158694567E+04  0.50400001928E-02 0.  1.
       -1   -1    0    0    0  501  0.00000000000E+00  0.00000000000E+00 -0.12533958511E+04  0.12533958511E+04  0.50400001928E-02 0. -1.
    10030    2    1    2    0    0  0.00000000000E+00  0.00000000000E+00  0.11624736055E+04  0.36692653078E+04  0.34802532976E+04 0.  0.
        1    1    3    3  502    0 -0.17057907134E+03  0.16669595452E+04  0.86508821982E+02  0.16778960401E+04  0.50400001928E-02 0. -1.
       -1    1    3    3    0  502  0.17057907134E+03 -0.16669595452E+04  0.10759647836E+04  0.19913692677E+04  0.50400001928E-02 0.  1.
</event>
<event>
 5   0  0.8950809E-07  0.3489946E+04  0.7818609E-02  0.8116177E-01
       -2   -1    0    0    0  501  0.00000000000E+00  0.00000000000E+00  0.14138012854E+04  0.14138012854E+04  0.25500000920E-02 0.  1.
        2   -1    0    0  501    0  0.00000000000E+00  0.00000000000E+00 -0.21537195669E+04  0.21537195669E+04  0.25500000920E-02 0. -1.
    10030    2    1    2    0    0  0.00000000000E+00  0.00000000000E+00 -0.73991828148E+03  0.35675208523E+04  0.34899464134E+04 0.  0.
        2    1    3    3  502    0  0.15427983596E+04  0.67282302673E+03  0.10072538128E+03  0.16861385489E+04  0.25500000920E-02 0. -1.
       -2    1    3    3    0  502 -0.15427983596E+04 -0.67282302673E+03 -0.84064366276E+03  0.18813823034E+04  0.25500000920E-02 0.  1.
</event>
<event>
 5   0  0.8845195E-07  0.3502057E+04  0.7818609E-02  0.8113303E-01
       -2   -1    0    0    0  501  0.00000000000E+00  0.00000000000E+00  0.11681900623E+04  0.11681900623E+04  0.25500000920E-02 0. -1.
        2   -1    0    0  501    0  0.00000000000E+00  0.00000000000E+00 -0.26246588749E+04  0.26246588749E+04  0.25500000920E-02 0.  1.
    10030    2    1    2    0    0  0.00000000000E+00  0.00000000000E+00 -0.14564688127E+04  0.37928489372E+04  0.35020567754E+04 0.  0.
        5    1    3    3  502    0 -0.50522763017E+03  0.13375058542E+04 -0.18230648678E+04  0.23168436439E+04  0.46999998093E+01 0.  1.
       -5    1    3    3    0  502  0.50522763017E+03 -0.13375058542E+04  0.36659605512E+03  0.14760052933E+04  0.46999998093E+01 0. -1.
</event>
<event>
 5   0  0.8845195E-07  0.3792304E+04  0.7818609E-02  0.8047809E-01
       -2   -1    0    0    0  501  0.00000000000E+00  0.00000000000E+00  0.18445460506E+04  0.18445460506E+04  0.25500000920E-02 0.  1.
        2   -1    0    0  501    0  0.00000000000E+00  0.00000000000E+00 -0.19492014304E+04  0.19492014304E+04  0.25500000920E-02 0. -1.
    10030    2    1    2    0    0  0.00000000000E+00  0.00000000000E+00 -0.10465537980E+03  0.37937474809E+04  0.37923036799E+04 0.  0.
        5    1    3    3  502    0 -0.43576809811E+03  0.79563276840E+03 -0.17180274880E+04  0.19428242013E+04  0.46999998093E+01 0. -1.
       -5    1    3    3    0  502  0.43576809811E+03 -0.79563276840E+03  0.16133721082E+04  0.18509232796E+04  0.46999998093E+01 0.  1.
</event>
<event>
 5   0  0.8950809E-07  0.3522554E+04  0.7818609E-02  0.8108466E-01
       -2   -1    0    0    0  501  0.00000000000E+00  0.00000000000E+00  0.18133713034E+04  0.18133713034E+04  0.25500000920E-02 0.  1.
        2   -1    0    0  501    0  0.00000000000E+00  0.00000000000E+00 -0.17106792047E+04  0.17106792047E+04  0.25500000920E-02 0. -1.
    10030    2    1    2    0    0  0.00000000000E+00  0.00000000000E+00  0.10269209864E+03  0.35240505081E+04  0.35225539480E+04 0.  0.
        2    1    3    3  502    0 -0.23238593297E+03 -0.13067403222E+04 -0.11069554548E+04  0.17282719318E+04  0.25500000920E-02 0. -1.
       -2    1    3    3    0  502  0.23238593297E+03  0.13067403222E+04  0.12096475535E+04  0.17957785763E+04  0.25500000920E-02 0.  1.
</event>
<event>
 5   0  0.6188930E-07  0.3500309E+04  0.7818609E-02  0.8113717E-01
        2   -1    0    0  501    0  0.00000000000E+00  0.00000000000E+00  0.23657924142E+04  0.23657924142E+04  0.25500000920E-02 0.  1.
       -2   -1    0    0    0  501  0.00000000000E+00  0.00000000000E+00 -0.12947211772E+04  0.12947211772E+04  0.25500000920E-02 0. -1.
    10030    2    1    2    0    0  0.00000000000E+00  0.00000000000E+00  0.10710712369E+04  0.36605135914E+04  0.35003094375E+04 0.  0.
        3    1    3    3  502    0 -0.12053330953E+03 -0.90121224690E+03 -0.10283446642E+04  0.13726633059E+04  0.10100000352E+00 0. -1.
       -3    1    3    3    0  502  0.12053330953E+03  0.90121224690E+03  0.20994159012E+04  0.22878502855E+04  0.10100000352E+00 0.  1.
</event>
<event>
 5   0  0.3061330E-07  0.3505192E+04  0.7818609E-02  0.8112561E-01
        1   -1    0    0  501    0  0.00000000000E+00  0.00000000000E+00  0.13084877051E+04  0.13084877051E+04  0.50400001928E-02 0. -1.
       -1   -1    0    0    0  501  0.00000000000E+00  0.00000000000E+00 -0.23474376966E+04  0.23474376966E+04  0.50400001928E-02 0.  1.
    10030    2    1    2    0    0  0.00000000000E+00  0.00000000000E+00 -0.10389499915E+04  0.36559254017E+04  0.35051923567E+04 0.  0.
        5    1    3    3  502    0 -0.24096409923E+03  0.15974441833E+04  0.18921424518E+03  0.16265656262E+04  0.46999998093E+01 0. -1.
       -5    1    3    3    0  502  0.24096409923E+03 -0.15974441833E+04 -0.12281642367E+04  0.20293597754E+04  0.46999998093E+01 0.  1.
</event>
<event>
 5   0  0.2972541E-07  0.3486680E+04  0.7818609E-02  0.8116954E-01
       -1   -1    0    0    0  501  0.00000000000E+00  0.00000000000E+00  0.16691589464E+04  0.16691589464E+04  0.50400001928E-02 0. -1.
        1   -1    0    0  501    0  0.00000000000E+00  0.00000000000E+00 -0.18208176966E+04  0.18208176966E+04  0.50400001928E-02 0.  1.
    10030    2    1    2    0    0  0.00000000000E+00  0.00000000000E+00 -0.15165875017E+03  0.34899766430E+04  0.34866798809E+04 0.  0.
        3    1    3    3  502    0 -0.12098595832E+04  0.11844000073E+04 -0.49175873725E+03  0.17630627483E+04  0.10100000352E+00 0.  1.
       -3    1    3    3    0  502  0.12098595832E+04 -0.11844000073E+04  0.34009998708E+03  0.17269138947E+04  0.10100000352E+00 0. -1.
</event>
<event>
 5   0  0.9128871E-07  0.3557867E+04  0.7818609E-02  0.8100211E-01
        2   -1    0    0  501    0  0.00000000000E+00  0.00000000000E+00  0.27414183446E+04  0.27414183446E+04  0.25500000920E-02 0.  1.
       -2   -1    0    0    0  501  0.00000000000E+00  0.00000000000E+00 -0.11543677125E+04  0.11543677125E+04  0.25500000920E-02 0. -1.
    10030    2    1    2    0    0  0.00000000000E+00  0.00000000000E+00  0.15870506321E+04  0.38957860572E+04  0.35578672395E+04 0.  0.
        1    1    3    3  502    0 -0.16636382276E+04 -0.34294432985E+03  0.21484025301E+03  0.17121504899E+04  0.50400001928E-02 0. -1.
       -1    1    3    3    0  502  0.16636382276E+04  0.34294432985E+03  0.13722103791E+04  0.21836355672E+04  0.50400001928E-02 0.  1.
</event>
<event>
 5   0  0.2936607E-07  0.3501484E+04  0.7818609E-02  0.8113438E-01
       -1   -1    0    0    0  501  0.00000000000E+00  0.00000000000E+00  0.16299441368E+04  0.16299441368E+04  0.50400001928E-02 0. -1.
        1   -1    0    0  501    0  0.00000000000E+00  0.00000000000E+00 -0.18804918758E+04  0.18804918758E+04  0.50400001928E-02 0.  1.
    10030    2    1    2    0    0  0.00000000000E+00  0.00000000000E+00 -0.25054773897E+03  0.35104360126E+04  0.35014835183E+04 0.  0.
        2    1    3    3  502    0 -0.11632359796E+04 -0.10773324052E+04  0.61914303285E+03  0.17020872923E+04  0.25500000920E-02 0. -1.
       -2    1    3    3    0  502  0.11632359796E+04  0.10773324052E+04 -0.86969077182E+03  0.18083487203E+04  0.25500000920E-02 0.  1.
</event>
<event>
 5   0  0.2936607E-07  0.3494176E+04  0.7818609E-02  0.8115172E-01
        1   -1    0    0  501    0  0.00000000000E+00  0.00000000000E+00  0.22039707925E+04  0.22039707925E+04  0.50400001928E-02 0. -1.
       -1   -1    0    0    0  501  0.00000000000E+00  0.00000000000E+00 -0.13849165781E+04  0.13849165782E+04  0.50400001928E-02 0.  1.
    10030    2    1    2    0    0  0.00000000000E+00  0.00000000000E+00  0.81905421433E+03  0.35888873706E+04  0.34941755470E+04 0.  0.
        2    1    3    3  502    0  0.10544710786E+04  0.10146228249E+04  0.13898330908E+04  0.20181686631E+04  0.25500000920E-02 0. -1.
       -2    1    3    3    0  502 -0.10544710786E+04 -0.10146228249E+04 -0.57077887649E+03  0.15707187075E+04  0.25500000920E-02 0.  1.
</event>
<event>
 5   0  0.9311672E-07  0.3496524E+04  0.7818609E-02  0.8114614E-01
       -2   -1    0    0    0  501  0.00000000000E+00  0.00000000000E+00  0.10236070275E+04  0.10236070275E+04  0.25500000920E-02 0. -1.
        2   -1    0    0  501    0  0.00000000000E+00  0.00000000000E+00 -0.29859308314E+04  0.29859308314E+04  0.25500000920E-02 0.  1.
    10030    2    1    2    0    0  0.00000000000E+00  0.00000000000E+00 -0.19623238040E+04  0.40095378589E+04  0.34965238638E+04 0.  0.
        4    1    3    3  502    0  0.12217978205E+04 -0.45021804343E+03  0.35659139465E+03  0.13500537902E+04  0.12699999809E+01 0. -1.
       -4    1    3    3    0  502 -0.12217978205E+04  0.45021804343E+03 -0.23189151986E+04  0.26594840687E+04  0.12699999809E+01 0.  1.
</event>
<event>
 5   0  0.8950809E-07  0.3509846E+04  0.7818609E-02  0.8111461E-01
        2   -1    0    0  501    0  0.00000000000E+00  0.00000000000E+00  0.30512208225E+04  0.30512208225E+04  0.25500000920E-02 0. -1.
       -2   -1    0    0    0  501  0.00000000000E+00  0.00000000000E+00 -0.10093515379E+04  0.10093515379E+04  0.25500000920E-02 0.  1.
    10030    2    1    2    0    0  0.00000000000E+00  0.00000000000E+00  0.20418692846E+04  0.40605723604E+04  0.35098458255E+04 0.  0.
        2    1    3    3  502    0 -0.49254790061E+03  0.15513238162E+04  0.26181767717E+03  0.16485622563E+04  0.25500000920E-02 0.  1.
       -2    1    3    3    0  502  0.49254790061E+03 -0.15513238162E+04  0.17800516075E+04  0.24120101041E+04  0.25500000920E-02 0. -1.
</event>
<event>
 5   0  0.6188930E-07  0.3515770E+04  0.7818609E-02  0.8110063E-01
       -2   -1    0    0    0  501  0.00000000000E+00  0.00000000000E+00  0.10795400224E+04  0.10795400224E+04  0.25500000920E-02 0. -1.
        2   -1    0    0  501    0  0.00000000000E+00  0.00000000000E+00 -0.28624783180E+04  0.28624783180E+04  0.25500000920E-02 0.  1.
    10030    2    1    2    0    0  0.00000000000E+00  0.00000000000E+00 -0.17829382956E+04  0.39420183405E+04  0.35157701334E+04 0.  0.
        3    1    3    3  502    0  0.13111480689E+04 -0.10144738356E+04 -0.15470761368E+04  0.22675341244E+04  0.10100000352E+00 0.  1.
       -3    1    3    3    0  502 -0.13111480689E+04  0.10144738356E+04 -0.23586215878E+03  0.16744842161E+04  0.10100000352E+00 0. -1.
</event>
<event>
 5   0  0.8845195E-07  0.3484790E+04  0.7818609E-02  0.8117404E-01
       -2   -1    0    0    0  501  0.00000000000E+00  0.00000000000E+00  0.15644489729E+04  0.15644489729E+04  0.25500000920E-02 0. -1.
        2   -1    0    0  501    0  0.00000000000E+00  0.00000000000E+00 -0.19405812457E+04  0.19405812457E+04  0.25500000920E-02 0.  1.
    10030    2    1    2    0    0  0.00000000000E+00  0.00000000000E+00 -0.37613227286E+03  0.35050302186E+04  0.34847900004E+04 0.  0.
        5    1    3    3  502    0 -0.13178689154E+04 -0.64507028098E+03  0.75708537551E+03  0.16510888835E+04  0.46999998093E+01 0. -1.
       -5    1    3    3    0  502  0.13178689154E+04  0.64507028098E+03 -0.11332176484E+04  0.18539413351E+04  0.46999998093E+01 0.  1.
</event>
<event>
 5   0  0.9311672E-07  0.3533248E+04  0.7818609E-02  0.8105955E-01
        2   -1    0    0  501    0  0.00000000000E+00  0.00000000000E+00  0.24551162112E+04  0.24551162112E+04  0.25500000920E-02 0.  1.
       -2   -1    0    0    0  501  0.00000000000E+00  0.00000000000E+00 -0.12712069253E+04  0.12712069253E+04  0.25500000920E-02 0. -1.
    10030    2    1    2    0    0  0.00000000000E+00  0.00000000000E+00  0.11839092859E+04  0.37263231364E+04  0.35332482109E+04 0.  0.
        4    1    3    3  502    0  0.65542245914E+03  0.99153547962E+03 -0.78646211105E+03  0.14252176929E+04  0.12699999809E+01 0. -1.
       -4    1    3    3    0  502 -0.65542245914E+03 -0.99153547962E+03  0.19703713969E+04  0.23011054435E+04  0.12699999809E+01 0.  1.
</event>
<event>
 5   0  0.6188930E-07  0.3566320E+04  0.7818609E-02  0.8098250E-01
       -2   -1    0    0    0  501  0.00000000000E+00  0.00000000000E+00  0.16236164546E+04  0.16236164546E+04  0.25500000920E-02 0.  1.
        2   -1    0    0  501    0  0.00000000000E+00  0.00000000000E+00 -0.19583814479E+04  0.19583814479E+04  0.25500000920E-02 0. -1.
    10030    2    1    2    0    0  0.00000000000E+00  0.00000000000E+00 -0.33476499331E+03  0.35819979026E+04  0.35663204249E+04 0.  0.
        3    1    3    3  502    0 -0.10946654321E+04 -0.57012463619E+03 -0.14600232768E+04  0.19118060801E+04  0.10100000352E+00 0. -1.
       -3    1    3    3    0  502  0.10946654321E+04  0.57012463619E+03  0.11252582834E+04  0.16701918224E+04  0.10100000352E+00 0.  1.
</event>
<event>
 5   0  0.2972541E-07  0.3508404E+04  0.7818609E-02  0.8111801E-01
       -1   -1    0    0    0  501  0.00000000000E+00  0.00000000000E+00  0.12445149040E+04  0.12445149040E+04  0.50400001928E-02 0. -1.
        1   -1    0    0  501    0  0.00000000000E+00  0.00000000000E+00 -0.24726304589E+04  0.24726304589E+04  0.50400001928E-02 0.  1.
    10030    2    1    2    0    0  0.00000000000E+00  0.00000000000E+00 -0.12281155549E+04  0.37171453629E+04  0.35084044569E+04 0.  0.
        3    1    3    3  502    0  0.10410407591E+04  0.58042319433E+03  0.74959747802E+03  0.14080317240E+04  0.10100000352E+00 0. -1.
       -3    1    3    3    0  502 -0.10410407591E+04 -0.58042319433E+03 -0.19777130329E+04  0.23091136389E+04  0.10100000352E+00 0.  1.
</event>
<event>
 5   0  0.6188930E-07  0.3465534E+04  0.7818609E-02  0.8122007E-01
       -2   -1    0    0    0  501  0.00000000000E+00  0.00000000000E+00  0.16578032225E+04  0.16578032225E+04  0.25500000920E-02 0. -1.
        2   -1    0    0  501    0  0.00000000000E+00  0.00000000000E+00 -0.18111207900E+04  0.18111207900E+04  0.25500000920E-02 0.  1.
    10030    2    1    2    0    0  0.00000000000E+00  0.00000000000E+00 -0.15331756757E+03  0.34689240125E+04  0.34655342341E+04 0.  0.
        3    1    3    3  502    0  0.13592851977E+04  0.73256992196E+03  0.71034619204E+03  0.16996783995E+04  0.10100000352E+00 0. -1.
       -3    1    3    3    0  502 -0.13592851977E+04 -0.73256992196E+03 -0.86366375960E+03  0.17692456130E+04  0.10100000352E+00 0.  1.
</event>
<event>
 5   0  0.2936607E-07  0.3485355E+04  0.7818609E-02  0.8117269E-01
       -1   -1    0    0    0  501  0.00000000000E+00  0.00000000000E+00  0.14902285006E+04  0.14902285006E+04  0.50400001928E-02 0. -1.
        1   -1    0    0  501    0  0.00000000000E+00  0.00000000000E+00 -0.20378918807E+04  0.20378918807E+04  0.50400001928E-02 0.  1.
    10030    2    1    2    0    0  0.00000000000E+00  0.00000000000E+00 -0.54766338015E+03  0.35281203813E+04  0.34853548237E+04 0.  0.
        2    1    3    3  502    0  0.67226921198E+03 -0.96655919276E+03 -0.15744084742E+04  0.19659462378E+04  0.25500000920E-02 0.  1.
       -2    1    3    3    0  502 -0.67226921198E+03  0.96655919276E+03  0.10267450940E+04  0.15621741435E+04  0.25500000920E-02 0. -1.
</event>
<event>
 5   0  0.3026332E-07  0.3641570E+04  0.7818609E-02  0.8081035E-01
       -1   -1    0    0    0  501  0.00000000000E+00  0.00000000000E+00  0.10913778209E+04  0.10913778209E+04  0.50400001928E-02 0. -1.
        1   -1    0    0  501    0  0.00000000000E+00  0.00000000000E+00 -0.30376815361E+04  0.30376815361E+04  0.50400001928E-02 0.  1.
    10030    2    1    2    0    0  0.00000000000E+00  0.00000000000E+00 -0.19463037152E+04  0.41290593569E+04  0.36415701313E+04 0.  0.
        1    1    3    3  502    0 -0.54774433371E+03  0.17331827940E+04 -0.10937465965E+04  0.21213740995E+04  0.50400001928E-02 0.  1.
       -1    1    3    3    0  502  0.54774433371E+03 -0.17331827940E+04 -0.85255711870E+03  0.20076852575E+04  0.50400001928E-02 0. -1.
</event>
<event>
 5   0  0.9311672E-07  0.3523521E+04  0.7818609E-02  0.8108238E-01
       -2   -1    0    0    0  501  0.00000000000E+00  0.00000000000E+00  0.15398063273E+04  0.15398063273E+04  0.25500000920E-02 0.  1.
        2   -1    0    0  501    0  0.00000000000E+00  0.00000000000E+00 -0.20157082837E+04  0.20157082837E+04  0.25500000920E-02 0. -1.
    10030    2    1    2    0    0  0.00000000000E+00  0.00000000000E+00 -0.47590195640E+03  0.35555146111E+04  0.35235211760E+04 0.  0.
        4    1    3    3  502    0 -0.27519476466E+03  0.54390910134E+03 -0.19059053609E+04  0.20010112760E+04  0.12699999809E+01 0. -1.
       -4    1    3    3    0  502  0.27519476466E+03 -0.54390910134E+03  0.14300034045E+04  0.15545033351E+04  0.12699999809E+01 0.  1.
</event>
<event>
 5   0  0.9311672E-07  0.3485517E+04  0.7818609E-02  0.8117231E-01
        2   -1    0    0  501    0  0.00000000000E+00  0.00000000000E+00  0.18203221404E+04  0.18203221404E+04  0.25500000920E-02 0.  1.
       -2   -1    0    0    0  501  0.00000000000E+00  0.00000000000E+00 -0.16684995768E+04  0.16684995768E+04  0.25500000920E-02 0. -1.
    10030    2    1    2    0    0  0.00000000000E+00  0.00000000000E+00  0.15182256358E+03  0.34888217173E+04  0.34855167313E+04 0.  0.
        4    1    3    3  502    0 -0.75039992183E+02 -0.16863716170E+04 -0.35777183895E+03  0.17255383313E+04  0.12699999809E+01 0. -1.
       -4    1    3    3    0  502  0.75039992183E+02  0.16863716170E+04  0.50959440253E+03  0.17632833859E+04  0.12699999809E+01 0.  1.
</event>
<event>
 5   0  0.9311672E-07  0.3533609E+04  0.7818609E-02  0.8105871E-01
       -2   -1    0    0    0  501  0.00000000000E+00  0.00000000000E+00  0.16870689612E+04  0.16870689612E+04  0.25500000920E-02 0.  1.
        2   -1    0    0  501    0  0.00000000000E+00  0.00000000000E+00 -0.18503087813E+04  0.18503087813E+04  0.25500000920E-02 0. -1.
    10030    2    1    2    0    0  0.00000000000E+00  0.00000000000E+00 -0.16323982011E+03  0.35373777424E+04  0.35336092107E+04 0.  0.
        4    1    3    3  502    0  0.99976034718E+02  0.12712456641E+04 -0.13058452902E+04  0.18251833554E+04  0.12699999809E+01 0. -1.
       -4    1    3    3    0  502 -0.99976034718E+02 -0.12712456641E+04  0.11426054701E+04  0.17121943871E+04  0.12699999809E+01 0.  1.
</event>
<event>
 5   0  0.3061330E-07  0.3457693E+04  0.7818609E-02  0.8123890E-01
       -1   -1    0    0    0  501  0.00000000000E+00  0.00000000000E+00  0.18934101628E+04  0.18934101628E+04  0.50400001928E-02 0. -1.
        1   -1    0    0  501    0  0.00000000000E+00  0.00000000000E+00 -0.15785859185E+04  0.15785859185E+04  0.50400001928E-02 0.  1.
    10030    2    1    2    0    0  0.00000000000E+00  0.00000000000E+00  0.31482424430E+03  0.34719960814E+04  0.34576932316E+04 0.  0.
        5    1    3    3  502    0 -0.31038528868E+03 -0.44402519949E+03 -0.14911437233E+04  0.15865147648E+04  0.46999998093E+01 0. -1.
       -5    1    3    3    0  502  0.31038528868E+03  0.44402519949E+03  0.18059679676E+04  0.18854813166E+04  0.46999998093E+01 0.  1.
</event>
<event>
 5   0  0.3026332E-07  0.3479237E+04  0.7818609E-02  0.8118728E-01
        1   -1    0    0  501    0  0.00000000000E+00  0.00000000000E+00  0.18967949710E+04  0.18967949710E+04  0.50400001928E-02 0. -1.
       -1   -1    0    0    0  501  0.00000000000E+00  0.00000000000E+00 -0.15954661962E+04  0.15954661962E+04  0.50400001928E-02 0.  1.
    10030    2    1    2    0    0  0.00000000000E+00  0.00000000000E+00  0.30132877475E+03  0.34922611672E+04  0.34792368459E+04 0.  0.
        1    1    3    3  502    0 -0.61745518673E+03 -0.50787026600E+03 -0.14001400662E+04  0.16123198566E+04  0.50400001928E-02 0.  1.
       -1    1    3    3    0  502  0.61745518673E+03  0.50787026600E+03  0.17014688410E+04  0.18799413107E+04  0.50400001928E-02 0. -1.
</event>
<event>
 5   0  0.3061330E-07  0.3528850E+04  0.7818609E-02  0.8106987E-01
        1   -1    0    0  501    0  0.00000000000E+00  0.00000000000E+00  0.19592186405E+04  0.19592186405E+04  0.50400001928E-02 0. -1.
       -1   -1    0    0    0  501  0.00000000000E+00  0.00000000000E+00 -0.15889987133E+04  0.15889987133E+04  0.50400001928E-02 0.  1.
    10030    2    1    2    0    0  0.00000000000E+00  0.00000000000E+00  0.37021992718E+03  0.35482173539E+04  0.35288501804E+04 0.  0.
        5    1    3    3  502    0 -0.11141605771E+04 -0.47246826456E+02  0.15599428834E+04  0.19175583286E+04  0.46999998093E+01 0. -1.
       -5    1    3    3    0  502  0.11141605771E+04  0.47246826456E+02 -0.11897229562E+04  0.16306590253E+04  0.46999998093E+01 0.  1.
</event>
<event>
 5   0  0.6188930E-07  0.3267214E+04  0.7818609E-02  0.8171288E-01
       -2   -1    0    0    0  501  0.00000000000E+00  0.00000000000E+00  0.13218421995E+04  0.13218421995E+04  0.25500000920E-02 0. -1.
        2   -1    0    0  501    0  0.00000000000E+00  0.00000000000E+00 -0.20189036107E+04  0.20189036107E+04  0.25500000920E-02 0.  1.
    10030    2    1    2    0    0  0.00000000000E+00  0.00000000000E+00 -0.69706141119E+03  0.33407458102E+04  0.32672140973E+04 0.  0.
        3    1    3    3  502    0 -0.83268795574E+03  0.94192182941E+03 -0.14151205699E+04  0.18929216048E+04  0.10100000352E+00 0.  1.
       -3    1    3    3    0  502  0.83268795574E+03 -0.94192182941E+03  0.71805915868E+03  0.14478242055E+04  0.10100000352E+00 0. -1.
</event>
<event>
 5   0  0.2907000E-07  0.3454465E+04  0.7818609E-02  0.8124667E-01
       -3   -1    0    0    0  501  0.00000000000E+00  0.00000000000E+00  0.22284503278E+04  0.22284503301E+04  0.10100000352E+00 0.  1.
        3   -1    0    0  501    0  0.00000000000E+00  0.00000000000E+00 -0.13387472402E+04  0.13387472441E+04  0.10100000352E+00 0. -1.
    10030    2    1    2    0    0  0.00000000000E+00  0.00000000000E+00  0.88970308752E+03  0.35671975741E+04  0.34544647847E+04 0.  0.
        4    1    3    3  502    0 -0.94895205646E+03  0.42564621454E+03 -0.97915231115E+03  0.14284346561E+04  0.12699999809E+01 0. -1.
       -4    1    3    3    0  502  0.94895205646E+03 -0.42564621454E+03  0.18688553987E+04  0.21387629180E+04  0.12699999809E+01 0.  1.
</event>
<event>
 5   0  0.9128871E-07  0.3505211E+04  0.7818609E-02  0.8112556E-01
        2   -1    0    0  501    0  0.00000000000E+00  0.00000000000E+00  0.13793588906E+04  0.13793588906E+04  0.25500000920E-02 0. -1.
       -2   -1    0    0    0  501  0.00000000000E+00  0.00000000000E+00 -0.22268510483E+04  0.22268510483E+04  0.25500000920E-02 0.  1.
    10030    2    1    2    0    0  0.00000000000E+00  0.00000000000E+00 -0.84749215771E+03  0.36062099390E+04  0.35052114297E+04 0.  0.
        1    1    3    3  502    0 -0.76094900570E+03 -0.10040276607E+04 -0.16772584443E+04  0.20976917843E+04  0.50400001928E-02 0.  1.
       -1    1    3    3    0  502  0.76094900570E+03  0.10040276607E+04  0.82976628661E+03  0.15085181547E+04  0.50400001928E-02 0. -1.
</event>
<event>
 5   0  0.8845195E-07  0.3436207E+04  0.7818609E-02  0.8129077E-01
        2   -1    0    0  501    0  0.00000000000E+00  0.00000000000E+00  0.14069526443E+04  0.14069526443E+04  0.25500000920E-02 0. -1.
       -2   -1    0    0    0  501  0.00000000000E+00  0.00000000000E+00 -0.20980657433E+04  0.20980657433E+04  0.25500000920E-02 0.  1.
    10030    2    1    2    0    0  0.00000000000E+00  0.00000000000E+00 -0.69111309893E+03  0.35050183876E+04  0.34362067141E+04 0.  0.
        5    1    3    3  502    0 -0.83188755149E+03  0.14957121231E+04 -0.19199137744E+03  0.17222294947E+04  0.46999998093E+01 0. -1.
       -5    1    3    3    0  502  0.83188755149E+03 -0.14957121231E+04 -0.49912172149E+03  0.17827888928E+04  0.46999998093E+01 0.  1.
</event>
<event>
 5   0  0.3026332E-07  0.3497717E+04  0.7818609E-02  0.8114331E-01
        1   -1    0    0  501    0  0.00000000000E+00  0.00000000000E+00  0.15423260667E+04  0.15423260667E+04  0.50400001928E-02 0. -1.
       -1   -1    0    0    0  501  0.00000000000E+00  0.00000000000E+00 -0.19830478805E+04  0.19830478805E+04  0.50400001928E-02 0.  1.
    10030    2    1    2    0    0  0.00000000000E+00  0.00000000000E+00 -0.44072181381E+03  0.35253739472E+04  0.34977172199E+04 0.  0.
        1    1    3    3  502    0 -0.15124145823E+04 -0.72819781451E+03 -0.71499228071E+03  0.18245229205E+04  0.50400001928E-02 0.  1.
       -1    1    3    3    0  502  0.15124145823E+04  0.72819781451E+03  0.27427046690E+03  0.17008510267E+04  0.50400001928E-02 0. -1.
</event>
<event>
 5   0  0.8845195E-07  0.3514783E+04  0.7818609E-02  0.8110296E-01
        2   -1    0    0  501    0  0.00000000000E+00  0.00000000000E+00  0.23715059343E+04  0.23715059343E+04  0.25500000920E-02 0.  1.
       -2   -1    0    0    0  501  0.00000000000E+00  0.00000000000E+00 -0.13023052443E+04  0.13023052443E+04  0.25500000920E-02 0. -1.
    10030    2    1    2    0    0  0.00000000000E+00  0.00000000000E+00  0.10692006900E+04  0.36738111786E+04  0.35147828468E+04 0.  0.
        5    1    3    3  502    0  0.86001092576E+03  0.57398548285E+03  0.20199249635E+04  0.22691842312E+04  0.46999998093E+01 0.  1.
       -5    1    3    3    0  502 -0.86001092576E+03 -0.57398548285E+03 -0.95072427354E+03  0.14046269474E+04  0.46999998093E+01 0. -1.
</event>
<event>
 5   0  0.6188930E-07  0.3432188E+04  0.7818609E-02  0.8130051E-01
       -2   -1    0    0    0  501  0.00000000000E+00  0.00000000000E+00  0.95528406998E+03  0.95528406998E+03  0.25500000920E-02 0.  1.
        2   -1    0    0  501    0  0.00000000000E+00  0.00000000000E+00 -0.30828303978E+04  0.30828303978E+04  0.25500000920E-02 0. -1.
    10030    2    1    2    0    0  0.00000000000E+00  0.00000000000E+00 -0.21275463278E+04  0.40381144678E+04  0.34321880889E+04 0.  0.
        3    1    3    3  502    0  0.93319847516E+03 -0.30395968066E+03  0.59249080932E+03  0.11464276038E+04  0.10100000352E+00 0.  1.
       -3    1    3    3    0  502 -0.93319847516E+03  0.30395968066E+03 -0.27200371371E+04  0.28916868639E+04  0.10100000352E+00 0. -1.
</event>
<event>
 5   0  0.8845195E-07  0.3461198E+04  0.7818609E-02  0.8123047E-01
        2   -1    0    0  501    0  0.00000000000E+00  0.00000000000E+00  0.21914251743E+04  0.21914251743E+04  0.25500000920E-02 0.  1.
       -2   -1    0    0    0  501  0.00000000000E+00  0.00000000000E+00 -0.13666784735E+04  0.13666784735E+04  0.25500000920E-02 0. -1.
    10030    2    1    2    0    0  0.00000000000E+00  0.00000000000E+00  0.82474670078E+03  0.35581036479E+04  0.34611984122E+04 0.  0.
        5    1    3    3  502    0  0.13130783336E+04  0.10378768516E+04  0.86467880330E+03  0.18838934663E+04  0.46999998093E+01 0. -1.
       -5    1    3    3    0  502 -0.13130783336E+04 -0.10378768516E+04 -0.39932102522E+02  0.16742101816E+04  0.46999998093E+01 0.  1.
</event>
<event>
 5   0  0.8950809E-07  0.3446309E+04  0.7818609E-02  0.8126633E-01
        2   -1    0    0  501    0  0.00000000000E+00  0.00000000000E+00  0.19527994531E+04  0.19527994531E+04  0.25500000920E-02 0.  1.
       -2   -1    0    0    0  501  0.00000000000E+00  0.00000000000E+00 -0.15205149811E+04  0.15205149812E+04  0.25500000920E-02 0. -1.
    10030    2    1    2    0    0  0.00000000000E+00  0.00000000000E+00  0.43228447200E+03  0.34733144343E+04  0.34463086476E+04 0.  0.
        2    1    3    3  502    0 -0.48301307593E+03  0.14567048963E+04  0.10058447490E+04  0.18349426273E+04  0.25500000920E-02 0.  1.
       -2    1    3    3    0  502  0.48301307593E+03 -0.14567048963E+04 -0.57356027698E+03  0.16383718070E+04  0.25500000920E-02 0. -1.
</event>
<event>
 5   0  0.2972541E-07  0.3503088E+04  0.7818609E-02  0.8113058E-01
       -1   -1    0    0    0  501  0.00000000000E+00  0.00000000000E+00  0.13751287470E+04  0.13751287470E+04  0.50400001928E-02 0. -1.
        1   -1    0    0  501    0  0.00000000000E+00  0.00000000000E+00 -0.22309963260E+04  0.22309963260E+04  0.50400001928E-02 0.  1.
    10030    2    1    2    0    0  0.00000000000E+00  0.00000000000E+00 -0.85586757900E+03  0.36061250730E+04  0.35030884558E+04 0.  0.
        3    1    3    3  502    0  0.11797164991E+04  0.32227054490E+03 -0.17187364567E+04  0.21094180099E+04  0.10100000352E+00 0. -1.
       -3    1    3    3    0  502 -0.11797164991E+04 -0.32227054490E+03  0.86286887774E+03  0.14967070631E+04  0.10100000352E+00 0.  1.
</event>
<event>
 5   0  0.2933506E-07  0.3451356E+04  0.7818609E-02  0.8125416E-01
        1   -1    0    0  501    0  0.00000000000E+00  0.00000000000E+00  0.17514648591E+04  0.17514648591E+04  0.50400001928E-02 0.  1.
       -1   -1    0    0    0  501  0.00000000000E+00  0.00000000000E+00 -0.17002706011E+04  0.17002706011E+04  0.50400001928E-02 0. -1.
    10030    2    1    2    0    0  0.00000000000E+00  0.00000000000E+00  0.51194258077E+02  0.34517354602E+04  0.34513557967E+04 0.  0.
        4    1    3    3  502    0  0.73367165162E+02 -0.25807249260E+03  0.17304777167E+04  0.17511535893E+04  0.12699999809E+01 0.  1.
       -4    1    3    3    0  502 -0.73367165162E+02  0.25807249260E+03 -0.16792834586E+04  0.17005818709E+04  0.12699999809E+01 0. -1.
</event>
<event>
 5   0  0.9311672E-07  0.3654016E+04  0.7818609E-02  0.8078230E-01
       -2   -1    0    0    0  501  0.00000000000E+00  0.00000000000E+00  0.17297999140E+04  0.17297999141E+04  0.25500000920E-02 0.  1.
        2   -1    0    0  501    0  0.00000000000E+00  0.00000000000E+00 -0.19296787540E+04  0.19296787540E+04  0.25500000920E-02 0. -1.
    10030    2    1    2    0    0  0.00000000000E+00  0.00000000000E+00 -0.19987883995E+03  0.36594786681E+04  0.36540159512E+04 0.  0.
        4    1    3    3  502    0 -0.94594940976E+03  0.13236552468E+04 -0.93249024169E+03  0.18752128311E+04  0.12699999809E+01 0. -1.
       -4    1    3    3    0  502  0.94594940976E+03 -0.13236552468E+04  0.73261140174E+03  0.17842658370E+04  0.12699999809E+01 0.  1.
</event>
<event>
 5   0  0.6188930E-07  0.3498100E+04  0.7818609E-02  0.8114240E-01
       -2   -1    0    0    0  501  0.00000000000E+00  0.00000000000E+00  0.22212288676E+04  0.22212288676E+04  0.25500000920E-02 0.  1.
        2   -1    0    0  501    0  0.00000000000E+00  0.00000000000E+00 -0.13772445185E+04  0.13772445185E+04  0.25500000920E-02 0. -1.
    10030    2    1    2    0    0  0.00000000000E+00  0.00000000000E+00  0.84398434913E+03  0.35984733861E+04  0.34980996454E+04 0.  0.
        3    1    3    3  502    0  0.46861655432E+03  0.14372320040E+04 -0.48298826804E+03  0.15869829822E+04  0.10100000352E+00 0. -1.
       -3    1    3    3    0  502 -0.46861655432E+03 -0.14372320040E+04  0.13269726172E+04  0.20114904040E+04  0.10100000352E+00 0.  1.
</event>
<event>
 5   0  0.8845195E-07  0.3529991E+04  0.7818609E-02  0.8106719E-01
       -2   -1    0    0    0  501  0.00000000000E+00  0.00000000000E+00  0.17080185781E+04  0.17080185781E+04  0.25500000920E-02 0.  1.
        2   -1    0    0  501    0  0.00000000000E+00  0.00000000000E+00 -0.18238727895E+04  0.18238727895E+04  0.25500000920E-02 0. -1.
    10030    2    1    2    0    0  0.00000000000E+00  0.00000000000E+00 -0.11585421135E+03  0.35318913676E+04  0.35299907131E+04 0.  0.
        5    1    3    3  502    0 -0.29731702902E+03 -0.16749907355E+04 -0.52849420977E+03  0.17813813739E+04  0.46999998093E+01 0.  1.
       -5    1    3    3    0  502  0.29731702902E+03  0.16749907355E+04  0.41263999842E+03  0.17505099937E+04  0.46999998093E+01 0. -1.
</event>
<event>
 5   0  0.2936607E-07  0.3468577E+04  0.7818609E-02  0.8121278E-01
       -1   -1    0    0    0  501  0.00000000000E+00  0.00000000000E+00  0.14889531738E+04  0.14889531738E+04  0.50400001928E-02 0.  1.
        1   -1    0    0  501    0  0.00000000000E+00  0.00000000000E+00 -0.20200472970E+04  0.20200472970E+04  0.50400001928E-02 0. -1.
    10030    2    1    2    0    0  0.00000000000E+00  0.00000000000E+00 -0.53109412324E+03  0.35090004708E+04  0.34685765577E+04 0.  0.
        2    1    3    3  502    0  0.12520899424E+04 -0.86698281646E+03  0.57380138532E+03  0.16274631970E+04  0.25500000920E-02 0.  1.
       -2    1    3    3    0  502 -0.12520899424E+04  0.86698281646E+03 -0.11048955086E+04  0.18815372738E+04  0.25500000920E-02 0. -1.
</event>
<event>
 5   0  0.2933506E-07  0.3436433E+04  0.7818609E-02  0.8129022E-01
        1   -1    0    0  501    0  0.00000000000E+00  0.00000000000E+00  0.13879041262E+04  0.13879041262E+04  0.50400001928E-02 0. -1.
       -1   -1    0    0    0  501  0.00000000000E+00  0.00000000000E+00 -0.21271408863E+04  0.21271408863E+04  0.50400001928E-02 0.  1.
    10030    2    1    2    0    0  0.00000000000E+00  0.00000000000E+00 -0.73923676015E+03  0.35150450125E+04  0.34364328093E+04 0.  0.
        4    1    3    3  502    0 -0.94205587126E+03 -0.14240042188E+04 -0.17284104709E+03  0.17161389571E+04  0.12699999809E+01 0. -1.
       -4    1    3    3    0  502  0.94205587126E+03  0.14240042188E+04 -0.56639571306E+03  0.17989060554E+04  0.12699999809E+01 0.  1.
</event>
<event>
 5   0  0.3061330E-07  0.3505464E+04  0.7818609E-02  0.8112496E-01
        1   -1    0    0  501    0  0.00000000000E+00  0.00000000000E+00  0.18188705517E+04  0.18188705517E+04  0.50400001928E-02 0.  1.
       -1   -1    0    0    0  501  0.00000000000E+00  0.00000000000E+00 -0.16889984918E+04  0.16889984918E+04  0.50400001928E-02 0. -1.
    10030    2    1    2    0    0  0.00000000000E+00  0.00000000000E+00  0.12987205989E+03  0.35078690435E+04  0.35054640883E+04 0.  0.
        5    1    3    3  502    0  0.14095113405E+04  0.10268633552E+04  0.24077499242E+03  0.17604446189E+04  0.46999998093E+01 0.  1.
       -5    1    3    3    0  502 -0.14095113405E+04 -0.10268633552E+04 -0.11090293254E+03  0.17474244246E+04  0.46999998093E+01 0. -1.
</event>
<event>
 5   0  0.2972541E-07  0.3535371E+04  0.7818609E-02  0.8105458E-01
        1   -1    0    0  501    0  0.00000000000E+00  0.00000000000E+00  0.25823031008E+04  0.25823031008E+04  0.50400001928E-02 0.  1.
       -1   -1    0    0    0  501  0.00000000000E+00  0.00000000000E+00 -0.12100481813E+04  0.12100481814E+04  0.50400001928E-02 0. -1.
    10030    2    1    2    0    0  0.00000000000E+00  0.00000000000E+00  0.13722549195E+04  0.37923512822E+04  0.35353705157E+04 0.  0.
        3    1    3    3  502    0 -0.16847278876E+04  0.27286669529E+02  0.11280727583E+03  0.16887208500E+04  0.10100000352E+00 0. -1.
       -3    1    3    3    0  502  0.16847278876E+04 -0.27286669529E+02  0.12594476436E+04  0.21036304321E+04  0.10100000352E+00 0.  1.
</event>
<event>
 5   0  0.9128871E-07  0.3480011E+04  0.7818609E-02  0.8118543E-01
        2   -1    0    0  501    0  0.00000000000E+00  0.00000000000E+00  0.10582487343E+04  0.10582487343E+04  0.25500000920E-02 0. -1.
       -2   -1    0    0    0  501  0.00000000000E+00  0.00000000000E+00 -0.28609711748E+04  0.28609711748E+04  0.25500000920E-02 0.  1.
    10030    2    1    2    0    0  0.00000000000E+00  0.00000000000E+00 -0.18027224406E+04  0.39192199091E+04  0.34800109911E+04 0.  0.
        1    1    3    3  502    0 -0.70048534849E+03 -0.11061565206E+04 -0.21920170247E+04  0.25532725292E+04  0.50400001928E-02 0.  1.
       -1    1    3    3    0  502  0.70048534849E+03  0.11061565206E+04  0.38929458413E+03  0.13659473800E+04  0.50400001928E-02 0. -1.
</event>
<event>
 5   0  0.2972541E-07  0.3490738E+04  0.7818609E-02  0.8115989E-01
       -1   -1    0    0    0  501  0.00000000000E+00  0.00000000000E+00  0.21273442239E+04  0.21273442239E+04  0.50400001928E-02 0. -1.
        1   -1    0    0  501    0  0.00000000000E+00  0.00000000000E+00 -0.14319789728E+04  0.14319789728E+04  0.50400001928E-02 0.  1.
    10030    2    1    2    0    0  0.00000000000E+00  0.00000000000E+00  0.69536525109E+03  0.35593231968E+04  0.34907375706E+04 0.  0.
        3    1    3    3  502    0  0.41948252088E+03  0.15165179075E+03 -0.13728801591E+04  0.14435247806E+04  0.10100000352E+00 0.  1.
       -3    1    3    3    0  502 -0.41948252088E+03 -0.15165179075E+03  0.20682454102E+04  0.21157984161E+04  0.10100000352E+00 0. -1.
</event>
<event>
 5   0  0.3026332E-07  0.3510421E+04  0.7818609E-02  0.8111325E-01
        1   -1    0    0  501    0  0.00000000000E+00  0.00000000000E+00  0.23310835825E+04  0.23310835825E+04  0.50400001928E-02 0. -1.
       -1   -1    0    0    0  501  0.00000000000E+00  0.00000000000E+00 -0.13216019510E+04  0.13216019510E+04  0.50400001928E-02 0.  1.
    10030    2    1    2    0    0  0.00000000000E+00  0.00000000000E+00  0.10094816315E+04  0.36526855336E+04  0.35104214053E+04 0.  0.
        1    1    3    3  502    0 -0.32715705187E+03 -0.15628203009E+04  0.12632020588E+04  0.20359564020E+04  0.50400001928E-02 0. -1.
       -1    1    3    3    0  502  0.32715705187E+03  0.15628203009E+04 -0.25372042732E+03  0.16167291316E+04  0.50400001928E-02 0.  1.
</event>
<event>
 5   0  0.3026332E-07  0.3716870E+04  0.7818609E-02  0.8064233E-01
       -1   -1    0    0    0  501  0.00000000000E+00  0.00000000000E+00  0.16716795516E+04  0.16716795516E+04  0.50400001928E-02 0.  1.
        1   -1    0    0  501    0  0.00000000000E+00  0.00000000000E+00 -0.20660541969E+04  0.20660541969E+04  0.50400001928E-02 0. -1.
    10030    2    1    2    0    0  0.00000000000E+00  0.00000000000E+00 -0.39437464532E+03  0.37377337485E+04  0.37168699484E+04 0.  0.
        1    1    3    3  502    0  0.15569020326E+04  0.73660559458E+02 -0.12150004712E+04  0.19762580707E+04  0.50400001928E-02 0. -1.
       -1    1    3    3    0  502 -0.15569020326E+04 -0.73660559458E+02  0.82062582586E+03  0.17614756777E+04  0.50400001928E-02 0.  1.
</event>
<event>
 5   0  0.2936607E-07  0.3420559E+04  0.7818609E-02  0.8132879E-01
       -1   -1    0    0    0  501  0.00000000000E+00  0.00000000000E+00  0.14629313998E+04  0.14629313998E+04  0.50400001928E-02 0. -1.
        1   -1    0    0  501    0  0.00000000000E+00  0.00000000000E+00 -0.19994484299E+04  0.19994484299E+04  0.50400001928E-02 0.  1.
    10030    2    1    2    0    0  0.00000000000E+00  0.00000000000E+00 -0.53651703007E+03  0.34623798298E+04  0.34205589546E+04 0.  0.
        2    1    3    3  502    0  0.15885399442E+04  0.86391101321E+02 -0.90373458558E+03  0.18296608368E+04  0.25500000920E-02 0.  1.
       -2    1    3    3    0  502 -0.15885399442E+04 -0.86391101321E+02  0.36721755551E+03  0.16327189929E+04  0.25500000920E-02 0. -1.
</event>
<event>
 5   0  0.2972541E-07  0.3491105E+04  0.7818609E-02  0.8115901E-01
        1   -1    0    0  501    0  0.00000000000E+00  0.00000000000E+00  0.20290592374E+04  0.20290592374E+04  0.50400001928E-02 0.  1.
       -1   -1    0    0    0  501  0.00000000000E+00  0.00000000000E+00 -0.15016585015E+04  0.15016585015E+04  0.50400001928E-02 0. -1.
    10030    2    1    2    0    0  0.00000000000E+00  0.00000000000E+00  0.52740073592E+03  0.35307177389E+04  0.34911052999E+04 0.  0.
        3    1    3    3  502    0  0.96946807057E+03 -0.80220867271E+03  0.14871986970E+04  0.19481188539E+04  0.10100000352E+00 0.  1.
       -3    1    3    3    0  502 -0.96946807057E+03  0.80220867271E+03 -0.95979796105E+03  0.15825988850E+04  0.10100000352E+00 0. -1.
</event>
<event>
 5   0  0.9128871E-07  0.3510534E+04  0.7818609E-02  0.8111298E-01
        2   -1    0    0  501    0  0.00000000000E+00  0.00000000000E+00  0.24795850410E+04  0.24795850410E+04  0.25500000920E-02 0. -1.
       -2   -1    0    0    0  501  0.00000000000E+00  0.00000000000E+00 -0.12425311586E+04  0.12425311586E+04  0.25500000920E-02 0.  1.
    10030    2    1    2    0    0  0.00000000000E+00  0.00000000000E+00  0.12370538824E+04  0.37221161996E+04  0.35105336767E+04 0.  0.
        1    1    3    3  502    0 -0.59679105688E+03 -0.81276337980E+03 -0.90480497917E+03  0.13547752313E+04  0.50400001928E-02 0.  1.
       -1    1    3    3    0  502  0.59679105688E+03  0.81276337980E+03  0.21418588615E+04  0.23673409682E+04  0.50400001928E-02 0. -1.
</event>
<event>
 5   0  0.6188930E-07  0.3539629E+04  0.7818609E-02  0.8104462E-01
       -2   -1    0    0    0  501  0.00000000000E+00  0.00000000000E+00  0.12096075898E+04  0.12096075898E+04  0.25500000920E-02 0. -1.
        2   -1    0    0  501    0  0.00000000000E+00  0.00000000000E+00 -0.25894709656E+04  0.25894709656E+04  0.25500000920E-02 0.  1.
    10030    2    1    2    0    0  0.00000000000E+00  0.00000000000E+00 -0.13798633758E+04  0.37990785554E+04  0.35396292086E+04 0.  0.
        3    1    3    3  502    0  0.13241627938E+04 -0.60673812945E+03  0.38909654876E+03  0.15076254166E+04  0.10100000352E+00 0. -1.
       -3    1    3    3    0  502 -0.13241627938E+04  0.60673812945E+03 -0.17689599246E+04  0.22914531388E+04  0.10100000352E+00 0.  1.
</event>
<event>
 5   0  0.2972541E-07  0.3522786E+04  0.7818609E-02  0.8108411E-01
       -1   -1    0    0    0  501  0.00000000000E+00  0.00000000000E+00  0.21694183101E+04  0.21694183101E+04  0.50400001928E-02 0.  1.
        1   -1    0    0  501    0  0.00000000000E+00  0.00000000000E+00 -0.14301090271E+04  0.14301090271E+04  0.50400001928E-02 0. -1.
    10030    2    1    2    0    0  0.00000000000E+00  0.00000000000E+00  0.73930928304E+03  0.35995273372E+04  0.35227856641E+04 0.  0.
        3    1    3    3  502    0 -0.46649593311E+03 -0.16792971919E+04  0.62985315901E+03  0.18532060129E+04  0.10100000352E+00 0.  1.
       -3    1    3    3    0  502  0.46649593311E+03  0.16792971919E+04  0.10945612403E+03  0.17463213243E+04  0.10100000352E+00 0. -1.
</event>
<event>
 5   0  0.8845195E-07  0.3595855E+04  0.7818609E-02  0.8091442E-01
       -2   -1    0    0    0  501  0.00000000000E+00  0.00000000000E+00  0.23244213123E+04  0.23244213123E+04  0.25500000920E-02 0. -1.
        2   -1    0    0  501    0  0.00000000000E+00  0.00000000000E+00 -0.13906874063E+04  0.13906874063E+04  0.25500000920E-02 0.  1.
    10030    2    1    2    0    0  0.00000000000E+00  0.00000000000E+00  0.93373390603E+03  0.37151087186E+04  0.35958550839E+04 0.  0.
        5    1    3    3  502    0  0.13927944619E+04  0.51734819072E+03  0.15128638298E+04  0.21204491555E+04  0.46999998093E+01 0. -1.
       -5    1    3    3    0  502 -0.13927944619E+04 -0.51734819072E+03 -0.57912992377E+03  0.15946595631E+04  0.46999998093E+01 0.  1.
</event>
<event>
 5   0  0.2936607E-07  0.3505346E+04  0.7818609E-02  0.8112524E-01
       -1   -1    0    0    0  501  0.00000000000E+00  0.00000000000E+00  0.12598553575E+04  0.12598553576E+04  0.50400001928E-02 0.  1.
        1   -1    0    0  501    0  0.00000000000E+00  0.00000000000E+00 -0.24382662968E+04  0.24382662968E+04  0.50400001928E-02 0. -1.
    10030    2    1    2    0    0  0.00000000000E+00  0.00000000000E+00 -0.11784109393E+04  0.36981216544E+04  0.35053461211E+04 0.  0.
        2    1    3    3  502    0 -0.33411169076E+03 -0.14717451083E+04  0.35098281964E+03  0.15494686913E+04  0.25500000920E-02 0.  1.
       -2    1    3    3    0  502  0.33411169076E+03  0.14717451083E+04 -0.15293937589E+04  0.21486529630E+04  0.25500000920E-02 0. -1.
</event>
<event>
 5   0  0.2936607E-07  0.3515961E+04  0.7818609E-02  0.8110018E-01
        1   -1    0    0  501    0  0.00000000000E+00  0.00000000000E+00  0.17932386637E+04  0.17932386637E+04  0.50400001928E-02 0.  1.
       -1   -1    0    0    0  501  0.00000000000E+00  0.00000000000E+00 -0.17234160428E+04  0.17234160428E+04  0.50400001928E-02 0. -1.
    10030    2    1    2    0    0  0.00000000000E+00  0.00000000000E+00  0.69822620895E+02  0.35166547065E+04  0.35159614797E+04 0.  0.
        2    1    3    3  502    0  0.54743272896E+03 -0.13311597742E+04  0.10444800994E+04  0.17783721813E+04  0.25500000920E-02 0.  1.
       -2    1    3    3    0  502 -0.54743272896E+03  0.13311597742E+04 -0.97465747847E+03  0.17382825252E+04  0.25500000920E-02 0. -1.
</event>
<event>
 5   0  0.3026332E-07  0.3502763E+04  0.7818609E-02  0.8113135E-01
        1   -1    0    0  501    0  0.00000000000E+00  0.00000000000E+00  0.21525523346E+04  0.21525523346E+04  0.50400001928E-02 0. -1.
       -1   -1    0    0    0  501  0.00000000000E+00  0.00000000000E+00 -0.14249771753E+04  0.14249771753E+04  0.50400001928E-02 0.  1.
    10030    2    1    2    0    0  0.00000000000E+00  0.00000000000E+00  0.72757515926E+03  0.35775295099E+04  0.35027634493E+04 0.  0.
        1    1    3    3  502    0  0.67068420180E+03 -0.13029829572E+04  0.13432972873E+04  0.19879711988E+04  0.50400001928E-02 0. -1.
       -1    1    3    3    0  502 -0.67068420180E+03  0.13029829572E+04 -0.61572212807E+03  0.15895583110E+04  0.50400001928E-02 0.  1.
</event>
<event>
 5   0  0.2972541E-07  0.3205795E+04  0.7818609E-02  0.8187289E-01
        1   -1    0    0  501    0  0.00000000000E+00  0.00000000000E+00  0.10079752602E+04  0.10079752602E+04  0.50400001928E-02 0.  1.
       -1   -1    0    0    0  501  0.00000000000E+00  0.00000000000E+00 -0.25489512223E+04  0.25489512223E+04  0.50400001928E-02 0. -1.
    10030    2    1    2    0    0  0.00000000000E+00  0.00000000000E+00 -0.15409759621E+04  0.35569264826E+04  0.32057946108E+04 0.  0.
        3    1    3    3  502    0  0.14316434679E+04  0.29712659179E+03 -0.41743120138E+02  0.14627473223E+04  0.10100000352E+00 0.  1.
       -3    1    3    3    0  502 -0.14316434679E+04 -0.29712659179E+03 -0.14992328420E+04  0.20941791603E+04  0.10100000352E+00 0. -1.
</event>
<event>
 5   0  0.8845195E-07  0.3480157E+04  0.7818609E-02  0.8118509E-01
       -2   -1    0    0    0  501  0.00000000000E+00  0.00000000000E+00  0.20268977044E+04  0.20268977044E+04  0.25500000920E-02 0. -1.
        2   -1    0    0  501    0  0.00000000000E+00  0.00000000000E+00 -0.14938457817E+04  0.14938457817E+04  0.25500000920E-02 0.  1.
    10030    2    1    2    0    0  0.00000000000E+00  0.00000000000E+00  0.53305192266E+03  0.35207434861E+04  0.34801566549E+04 0.  0.
        5    1    3    3  502    0  0.14744652365E+04 -0.45752894646E+03  0.10786772770E+04  0.18833340725E+04  0.46999998093E+01 0. -1.
       -5    1    3    3    0  502 -0.14744652365E+04  0.45752894646E+03 -0.54562535435E+03  0.16374094136E+04  0.46999998093E+01 0.  1.
</event>
<event>
 5   0  0.9311672E-07  0.3519947E+04  0.7818609E-02  0.8109079E-01
       -2   -1    0    0    0  501  0.00000000000E+00  0.00000000000E+00  0.14610631084E+04  0.14610631084E+04  0.25500000920E-02 0.  1.
        2   -1    0    0  501    0  0.00000000000E+00  0.00000000000E+00 -0.21200361743E+04  0.21200361743E+04  0.25500000920E-02 0. -1.
    10030    2    1    2    0    0  0.00000000000E+00  0.00000000000E+00 -0.65897306596E+03  0.35810992827E+04  0.35199469557E+04 0.  0.
        4    1    3    3  502    0  0.14427922448E+04 -0.49966721094E+03  0.56104230023E+03  0.16266797039E+04  0.12699999809E+01 0.  1.
       -4    1    3    3    0  502 -0.14427922448E+04  0.49966721094E+03 -0.12200153662E+04  0.19544195788E+04  0.12699999809E+01 0. -1.
</event>
<event>
 5   0  0.3061330E-07  0.2952456E+04  0.7818609E-02  0.8257439E-01
       -1   -1    0    0    0  501  0.00000000000E+00  0.00000000000E+00  0.16147755848E+04  0.16147755848E+04  0.50400001928E-02 0.  1.
        1   -1    0    0  501    0  0.00000000000E+00  0.00000000000E+00 -0.13495678501E+04  0.13495678501E+04  0.50400001928E-02 0. -1.
    10030    2    1    2    0    0  0.00000000000E+00  0.00000000000E+00  0.26520773476E+03  0.29643434349E+04  0.29524560721E+04 0.  0.
        5    1    3    3  502    0 -0.29560016144E+03  0.91895517344E+03 -0.98874966707E+03  0.13818487835E+04  0.46999998093E+01 0. -1.
       -5    1    3    3    0  502  0.29560016144E+03 -0.91895517344E+03  0.12539574018E+04  0.15824946514E+04  0.46999998093E+01 0.  1.
</event>
<event>
 5   0  0.3061330E-07  0.3541809E+04  0.7818609E-02  0.8103953E-01
        1   -1    0    0  501    0  0.00000000000E+00  0.00000000000E+00  0.16587431556E+04  0.16587431556E+04  0.50400001928E-02 0. -1.
       -1   -1    0    0    0  501  0.00000000000E+00  0.00000000000E+00 -0.18906497831E+04  0.18906497831E+04  0.50400001928E-02 0.  1.
    10030    2    1    2    0    0  0.00000000000E+00  0.00000000000E+00 -0.23190662749E+03  0.35493929387E+04  0.35418087963E+04 0.  0.
        5    1    3    3  502    0  0.64908825247E+03  0.21006456381E+03  0.15217546079E+04  0.16676935741E+04  0.46999998093E+01 0. -1.
       -5    1    3    3    0  502 -0.64908825247E+03 -0.21006456381E+03 -0.17536612353E+04  0.18816993646E+04  0.46999998093E+01 0.  1.
</event>
<event>
 5   0  0.9128871E-07  0.3525041E+04  0.7818609E-02  0.8107881E-01
       -2   -1    0    0    0  501  0.00000000000E+00  0.00000000000E+00  0.11279353971E+04  0.11279353971E+04  0.25500000920E-02 0.  1.
        2   -1    0    0  501    0  0.00000000000E+00  0.00000000000E+00 -0.27541285178E+04  0.27541285178E+04  0.25500000920E-02 0. -1.
    10030    2    1    2    0    0  0.00000000000E+00  0.00000000000E+00 -0.16261931206E+04  0.38820639149E+04  0.35250413010E+04 0.  0.
        1    1    3    3  502    0  0.48598601226E+03 -0.18077209992E+03  0.10420381166E+04  0.11639176915E+04  0.50400001928E-02 0.  1.
       -1    1    3    3    0  502 -0.48598601226E+03  0.18077209992E+03 -0.26682312372E+04  0.27181462234E+04  0.50400001928E-02 0. -1.
</event>
<event>
 5   0  0.9311672E-07  0.3615897E+04  0.7818609E-02  0.8086860E-01
        2   -1    0    0  501    0  0.00000000000E+00  0.00000000000E+00  0.24635898032E+04  0.24635898032E+04  0.25500000920E-02 0.  1.
       -2   -1    0    0    0  501  0.00000000000E+00  0.00000000000E+00 -0.13267944556E+04  0.13267944556E+04  0.25500000920E-02 0. -1.
    10030    2    1    2    0    0  0.00000000000E+00  0.00000000000E+00  0.11367953476E+04  0.37903842587E+04  0.36158967306E+04 0.  0.
        4    1    3    3  502    0  0.56635624672E+03 -0.15983823744E+04  0.12256214333E+04  0.20923037838E+04  0.12699999809E+01 0.  1.
       -4    1    3    3    0  502 -0.56635624672E+03  0.15983823744E+04 -0.88826085718E+02  0.16980804750E+04  0.12699999809E+01 0. -1.
</event>
<event>
 5   0  0.9311672E-07  0.3507902E+04  0.7818609E-02  0.8111920E-01
       -2   -1    0    0    0  501  0.00000000000E+00  0.00000000000E+00  0.94007818496E+03  0.94007818496E+03  0.25500000920E-02 0. -1.
        2   -1    0    0  501    0  0.00000000000E+00  0.00000000000E+00 -0.32724344109E+04  0.32724344109E+04  0.25500000920E-02 0.  1.
    10030    2    1    2    0    0  0.00000000000E+00  0.00000000000E+00 -0.23323562260E+04  0.42125125959E+04  0.35079020519E+04 0.  0.
        4    1    3    3  502    0  0.76614079523E+03 -0.13630245306E+04 -0.21204946860E+04  0.26346360119E+04  0.12699999809E+01 0.  1.
       -4    1    3    3    0  502 -0.76614079523E+03  0.13630245306E+04 -0.21186154002E+03  0.15778765840E+04  0.12699999809E+01 0. -1.
</event>
<event>
 5   0  0.2933506E-07  0.3165759E+04  0.7818609E-02  0.8197919E-01
       -1   -1    0    0    0  501  0.00000000000E+00  0.00000000000E+00  0.15119043122E+04  0.15119043122E+04  0.50400001928E-02 0.  1.
        1   -1    0    0  501    0  0.00000000000E+00  0.00000000000E+00 -0.16571870678E+04  0.16571870679E+04  0.50400001928E-02 0. -1.
    10030    2    1    2    0    0  0.00000000000E+00  0.00000000000E+00 -0.14528275568E+03  0.31690913800E+04  0.31657594817E+04 0.  0.
        4    1    3    3  502    0 -0.14019774766E+04 -0.69395959952E+03 -0.31452741526E+03  0.15956346319E+04  0.12699999809E+01 0. -1.
       -4    1    3    3    0  502  0.14019774766E+04  0.69395959952E+03  0.16924465958E+03  0.15734567482E+04  0.12699999809E+01 0.  1.
</event>
<event>
 5   0  0.2972541E-07  0.3468529E+04  0.7818609E-02  0.8121289E-01
        1   -1    0    0  501    0  0.00000000000E+00  0.00000000000E+00  0.15228405869E+04  0.15228405869E+04  0.50400001928E-02 0. -1.
       -1   -1    0    0    0  501  0.00000000000E+00  0.00000000000E+00 -0.19750420430E+04  0.19750420431E+04  0.50400001928E-02 0.  1.
    10030    2    1    2    0    0  0.00000000000E+00  0.00000000000E+00 -0.45220145611E+03  0.34978826300E+04  0.34685294775E+04 0.  0.
        3    1    3    3  502    0  0.33441850696E+03  0.16994259796E+04 -0.13709410394E+03  0.17374346610E+04  0.10100000352E+00 0.  1.
       -3    1    3    3    0  502 -0.33441850696E+03 -0.16994259796E+04 -0.31510735217E+03  0.17604479690E+04  0.10100000352E+00 0. -1.
</event>
<event>
 5   0  0.3026332E-07  0.3569530E+04  0.7818609E-02  0.8097507E-01
       -1   -1    0    0    0  501  0.00000000000E+00  0.00000000000E+00  0.34484496655E+04  0.34484496655E+04  0.50400001928E-02 0. -1.
        1   -1    0    0  501    0  0.00000000000E+00  0.00000000000E+00 -0.92371564501E+03  0.92371564502E+03  0.50400001928E-02 0.  1.
    10030    2    1    2    0    0  0.00000000000E+00  0.00000000000E+00  0.25247340205E+04  0.43721653106E+04  0.35695304493E+04 0.  0.
        1    1    3    3  502    0 -0.65609027607E+03 -0.70676316312E+02 -0.76880582770E+03  0.10131692814E+04  0.50400001928E-02 0.  1.
       -1    1    3    3    0  502  0.65609027607E+03  0.70676316312E+02  0.32935398482E+04  0.33589960292E+04  0.50400001928E-02 0. -1.
</event>
<event>
 5   0  0.9311672E-07  0.3516889E+04  0.7818609E-02  0.8109799E-01
        2   -1    0    0  501    0  0.00000000000E+00  0.00000000000E+00  0.21863164515E+04  0.21863164515E+04  0.25500000920E-02 0.  1.
       -2   -1    0    0    0  501  0.00000000000E+00  0.00000000000E+00 -0.14143088012E+04  0.14143088012E+04  0.25500000920E-02 0. -1.
    10030    2    1    2    0    0  0.00000000000E+00  0.00000000000E+00  0.77200765032E+03  0.36006252526E+04  0.35168887383E+04 0.  0.
        4    1    3    3  502    0 -0.14609098637E+03  0.16527715359E+04 -0.21020931211E+03  0.16724789666E+04  0.12699999809E+01 0.  1.
       -4    1    3    3    0  502  0.14609098637E+03 -0.16527715359E+04  0.98221696242E+03  0.19281462860E+04  0.12699999809E+01 0. -1.
</event>
<event>
 5   0  0.2933506E-07  0.3455316E+04  0.7818609E-02  0.8124462E-01
       -1   -1    0    0    0  501  0.00000000000E+00  0.00000000000E+00  0.20615842369E+04  0.20615842369E+04  0.50400001928E-02 0. -1.
        1   -1    0    0  501    0  0.00000000000E+00  0.00000000000E+00 -0.14478192811E+04  0.14478192811E+04  0.50400001928E-02 0.  1.
    10030    2    1    2    0    0  0.00000000000E+00  0.00000000000E+00  0.61376495584E+03  0.35094035180E+04  0.34553155617E+04 0.  0.
        4    1    3    3  502    0  0.13804321633E+04  0.43222847082E+03  0.12663313041E+04  0.19225012336E+04  0.12699999809E+01 0. -1.
       -4    1    3    3    0  502 -0.13804321633E+04 -0.43222847082E+03 -0.65256634829E+03  0.15869022844E+04  0.12699999809E+01 0.  1.
</event>
<event>
 5   0  0.9128871E-07  0.3472849E+04  0.7818609E-02  0.8120255E-01
       -2   -1    0    0    0  501  0.00000000000E+00  0.00000000000E+00  0.13301744903E+04  0.13301744903E+04  0.25500000920E-02 0. -1.
        2   -1    0    0  501    0  0.00000000000E+00  0.00000000000E+00 -0.22667480977E+04  0.22667480977E+04  0.25500000920E-02 0.  1.
    10030    2    1    2    0    0  0.00000000000E+00  0.00000000000E+00 -0.93657360737E+03  0.35969225879E+04  0.34728492598E+04 0.  0.
        1    1    3    3  502    0  0.82398619565E+03  0.93593484184E+03  0.78329072439E+03  0.14725731349E+04  0.50400001928E-02 0. -1.
       -1    1    3    3    0  502 -0.82398619565E+03 -0.93593484184E+03 -0.17198643318E+04  0.21243494530E+04  0.50400001928E-02 0.  1.
</event>
<event>
 5   0  0.2972541E-07  0.3542101E+04  0.7818609E-02  0.8103884E-01
        1   -1    0    0  501    0  0.00000000000E+00  0.00000000000E+00  0.11291190040E+04  0.11291190040E+04  0.50400001928E-02 0. -1.
       -1   -1    0    0    0  501  0.00000000000E+00  0.00000000000E+00 -0.27779351140E+04  0.27779351140E+04  0.50400001928E-02 0.  1.
    10030    2    1    2    0    0  0.00000000000E+00  0.00000000000E+00 -0.16488161101E+04  0.39070541180E+04  0.35421006925E+04 0.  0.
        3    1    3    3  502    0 -0.13706756029E+04  0.21704463479E+03  0.38930895180E+03  0.14413262823E+04  0.10100000352E+00 0. -1.
       -3    1    3    3    0  502  0.13706756029E+04 -0.21704463479E+03 -0.20381250619E+04  0.24657278357E+04  0.10100000352E+00 0.  1.
</event>
<event>
 5   0  0.6188930E-07  0.3505522E+04  0.7818609E-02  0.8112483E-01
       -2   -1    0    0    0  501  0.00000000000E+00  0.00000000000E+00  0.14553428885E+04  0.14553428885E+04  0.25500000920E-02 0.  1.
        2   -1    0    0  501    0  0.00000000000E+00  0.00000000000E+00 -0.21109604168E+04  0.21109604168E+04  0.25500000920E-02 0. -1.
    10030    2    1    2    0    0  0.00000000000E+00  0.00000000000E+00 -0.65561752832E+03  0.35663033052E+04  0.35055220612E+04 0.  0.
        3    1    3    3  502    0  0.64266101266E+03 -0.10499531956E+04  0.94152517313E+03  0.15498014557E+04  0.10100000352E+00 0.  1.
       -3    1    3    3    0  502 -0.64266101266E+03  0.10499531956E+04 -0.15971427015E+04  0.20165018495E+04  0.10100000352E+00 0. -1.
</event>
<event>
 5   0  0.9128871E-07  0.3552686E+04  0.7818609E-02  0.8101416E-01
        2   -1    0    0  501    0  0.00000000000E+00  0.00000000000E+00  0.18389844446E+04  0.18389844446E+04  0.25500000920E-02 0.  1.
       -2   -1    0    0    0  501  0.00000000000E+00  0.00000000000E+00 -0.17158348455E+04  0.17158348455E+04  0.25500000920E-02 0. -1.
    10030    2    1    2    0    0  0.00000000000E+00  0.00000000000E+00  0.12314959916E+03  0.35548192901E+04  0.35526855140E+04 0.  0.
        1    1    3    3  502    0  0.70368850495E+03 -0.43811524034E+03  0.16335916374E+04  0.18318690219E+04  0.50400001928E-02 0.  1.
       -1    1    3    3    0  502 -0.70368850495E+03  0.43811524034E+03 -0.15104420382E+04  0.17229502682E+04  0.50400001928E-02 0. -1.
</event>
<event>
 5   0  0.2972541E-07  0.3499077E+04  0.7818609E-02  0.8114009E-01
       -1   -1    0    0    0  501  0.00000000000E+00  0.00000000000E+00  0.15580838505E+04  0.15580838505E+04  0.50400001928E-02 0. -1.
        1   -1    0    0  501    0  0.00000000000E+00  0.00000000000E+00 -0.19645189645E+04  0.19645189645E+04  0.50400001928E-02 0.  1.
    10030    2    1    2    0    0  0.00000000000E+00  0.00000000000E+00 -0.40643511407E+03  0.35226028150E+04  0.34990771769E+04 0.  0.
        3    1    3    3  502    0 -0.74901998186E+03  0.16370263033E+03 -0.17863859546E+04  0.19439661194E+04  0.10100000352E+00 0.  1.
       -3    1    3    3    0  502  0.74901998186E+03 -0.16370263033E+03  0.13799508405E+04  0.15786366956E+04  0.10100000352E+00 0. -1.
</event>
<event>
 5   0  0.2936607E-07  0.3433300E+04  0.7818609E-02  0.8129781E-01
       -1   -1    0    0    0  501  0.00000000000E+00  0.00000000000E+00  0.15958788601E+04  0.15958788601E+04  0.50400001928E-02 0.  1.
        1   -1    0    0  501    0  0.00000000000E+00  0.00000000000E+00 -0.18465608562E+04  0.18465608562E+04  0.50400001928E-02 0. -1.
    10030    2    1    2    0    0  0.00000000000E+00  0.00000000000E+00 -0.25068199607E+03  0.34424397163E+04  0.34333001234E+04 0.  0.
        2    1    3    3  502    0  0.13740031642E+03 -0.75548559428E+03  0.14140800008E+04  0.16091176398E+04  0.25500000920E-02 0.  1.
       -2    1    3    3    0  502 -0.13740031642E+03  0.75548559428E+03 -0.16647619968E+04  0.18333220765E+04  0.25500000920E-02 0. -1.
</event>
<event>
 5   0  0.8950809E-07  0.3223027E+04  0.7818609E-02  0.8182762E-01
       -2   -1    0    0    0  501  0.00000000000E+00  0.00000000000E+00  0.16086434571E+04  0.16086434571E+04  0.25500000920E-02 0. -1.
        2   -1    0    0  501    0  0.00000000000E+00  0.00000000000E+00 -0.16143889556E+04  0.16143889556E+04  0.25500000920E-02 0.  1.
    10030    2    1    2    0    0  0.00000000000E+00  0.00000000000E+00 -0.57454985147E+01  0.32230324127E+04  0.32230272916E+04 0.  0.
        2    1    3    3  502    0  0.59823693074E+03  0.42782117136E+03 -0.14367710666E+04  0.16140723273E+04  0.25500000920E-02 0.  1.
       -2    1    3    3    0  502 -0.59823693074E+03 -0.42782117136E+03  0.14310255681E+04  0.16089600854E+04  0.25500000920E-02 0. -1.
</event>
<event>
 5   0  0.8950809E-07  0.3476368E+04  0.7818609E-02  0.8119413E-01
        2   -1    0    0  501    0  0.00000000000E+00  0.00000000000E+00  0.15507209629E+04  0.15507209629E+04  0.25500000920E-02 0. -1.
       -2   -1    0    0    0  501  0.00000000000E+00  0.00000000000E+00 -0.19483090041E+04  0.19483090041E+04  0.25500000920E-02 0.  1.
    10030    2    1    2    0    0  0.00000000000E+00  0.00000000000E+00 -0.39758804123E+03  0.34990299670E+04  0.34763679983E+04 0.  0.
        2    1    3    3  502    0  0.14763743931E+04 -0.55243641057E+03 -0.93597291539E+03  0.18332792026E+04  0.25500000920E-02 0.  1.
       -2    1    3    3    0  502 -0.14763743931E+04  0.55243641057E+03  0.53838487416E+03  0.16657507644E+04  0.25500000920E-02 0. -1.
</event>
<event>
 5   0  0.3026332E-07  0.3063123E+04  0.7818609E-02  0.8225932E-01
       -1   -1    0    0    0  501  0.00000000000E+00  0.00000000000E+00  0.12270519447E+04  0.12270519447E+04  0.50400001928E-02 0.  1.
        1   -1    0    0  501    0  0.00000000000E+00  0.00000000000E+00 -0.19116392799E+04  0.19116392799E+04  0.50400001928E-02 0. -1.
    10030    2    1    2    0    0  0.00000000000E+00  0.00000000000E+00 -0.68458733519E+03  0.31386912246E+04  0.30631230442E+04 0.  0.
        1    1    3    3  502    0 -0.62671436122E+03 -0.11660233395E+04  0.44696815648E+03  0.13971978570E+04  0.50400001928E-02 0.  1.
       -1    1    3    3    0  502  0.62671436122E+03  0.11660233395E+04 -0.11315554917E+04  0.17414933676E+04  0.50400001928E-02 0. -1.
</event>
<event>
 5   0  0.8845195E-07  0.3474762E+04  0.7818609E-02  0.8119797E-01
       -2   -1    0    0    0  501  0.00000000000E+00  0.00000000000E+00  0.15208842810E+04  0.15208842810E+04  0.25500000920E-02 0. -1.
        2   -1    0    0  501    0  0.00000000000E+00  0.00000000000E+00 -0.19846963706E+04  0.19846963706E+04  0.25500000920E-02 0.  1.
    10030    2    1    2    0    0  0.00000000000E+00  0.00000000000E+00 -0.46381208964E+03  0.35055806516E+04  0.34747624452E+04 0.  0.
        5    1    3    3  502    0 -0.14734031764E+04  0.37329896879E+03  0.61710538276E+03  0.16404603572E+04  0.46999998093E+01 0. -1.
       -5    1    3    3    0  502  0.14734031764E+04 -0.37329896879E+03 -0.10809174724E+04  0.18651202944E+04  0.46999998093E+01 0.  1.
</event>
<event>
 5   0  0.9128871E-07  0.3435078E+04  0.7818609E-02  0.8129350E-01
       -2   -1    0    0    0  501  0.00000000000E+00  0.00000000000E+00  0.20237474995E+04  0.20237474995E+04  0.25500000920E-02 0. -1.
        2   -1    0    0  501    0  0.00000000000E+00  0.00000000000E+00 -0.14576621005E+04  0.14576621005E+04  0.25500000920E-02 0.  1.
    10030    2    1    2    0    0  0.00000000000E+00  0.00000000000E+00  0.56608539906E+03  0.34814096000E+04  0.34350778920E+04 0.  0.
        1    1    3    3  502    0  0.16589858126E+04  0.29328797189E+03 -0.55662852286E+02  0.16856304797E+04  0.50400001928E-02 0. -1.
       -1    1    3    3    0  502 -0.16589858126E+04 -0.29328797189E+03  0.62174825134E+03  0.17957791203E+04  0.50400001928E-02 0.  1.
</event>
<event>
 5   0  0.2933506E-07  0.3533169E+04  0.7818609E-02  0.8105974E-01
        1   -1    0    0  501    0  0.00000000000E+00  0.00000000000E+00  0.15581387675E+04  0.15581387675E+04  0.50400001928E-02 0. -1.
       -1   -1    0    0    0  501  0.00000000000E+00  0.00000000000E+00 -0.20029162236E+04  0.20029162236E+04  0.50400001928E-02 0.  1.
    10030    2    1    2    0    0  0.00000000000E+00  0.00000000000E+00 -0.44477745611E+03  0.35610549910E+04  0.35331693511E+04 0.  0.
        4    1    3    3  502    0 -0.85465989891E+03  0.20553295986E+03 -0.17668446638E+04  0.19734307739E+04  0.12699999809E+01 0.  1.
       -4    1    3    3    0  502  0.85465989891E+03 -0.20553295986E+03  0.13220672077E+04  0.15876242172E+04  0.12699999809E+01 0. -1.
</event>
<event>
 5   0  0.9128871E-07  0.3513873E+04  0.7818609E-02  0.8110510E-01
       -2   -1    0    0    0  501  0.00000000000E+00  0.00000000000E+00  0.17041231939E+04  0.17041231939E+04  0.25500000920E-02 0.  1.
        2   -1    0    0  501    0  0.00000000000E+00  0.00000000000E+00 -0.18113861675E+04  0.18113861676E+04  0.25500000920E-02 0. -1.
    10030    2    1    2    0    0  0.00000000000E+00  0.00000000000E+00 -0.10726297362E+03  0.35155093615E+04  0.35138726108E+04 0.  0.
        1    1    3    3  502    0 -0.15048125182E+04  0.40419658333E+03 -0.86579134900E+03  0.17825347831E+04  0.50400001928E-02 0. -1.
       -1    1    3    3    0  502  0.15048125182E+04 -0.40419658333E+03  0.75852837538E+03  0.17329745784E+04  0.50400001928E-02 0.  1.
</event>
<event>
 5   0  0.3026332E-07  0.3540254E+04  0.7818609E-02  0.8104316E-01
        1   -1    0    0  501    0  0.00000000000E+00  0.00000000000E+00  0.17698407540E+04  0.17698407540E+04  0.50400001928E-02 0.  1.
       -1   -1    0    0    0  501  0.00000000000E+00  0.00000000000E+00 -0.17704129255E+04  0.17704129255E+04  0.50400001928E-02 0. -1.
    10030    2    1    2    0    0  0.00000000000E+00  0.00000000000E+00 -0.57217154865E+00  0.35402536795E+04  0.35402536333E+04 0.  0.
        1    1    3    3  502    0  0.34773911345E+03 -0.89048205260E+03 -0.14900740666E+04  0.17703676175E+04  0.50400001928E-02 0. -1.
       -1    1    3    3    0  502 -0.34773911345E+03  0.89048205260E+03  0.14895018951E+04  0.17698860620E+04  0.50400001928E-02 0.  1.
</event>
<event>
 5   0  0.9311672E-07  0.3543042E+04  0.7818609E-02  0.8103665E-01
       -2   -1    0    0    0  501  0.00000000000E+00  0.00000000000E+00  0.16928110873E+04  0.16928110873E+04  0.25500000920E-02 0.  1.
        2   -1    0    0  501    0  0.00000000000E+00  0.00000000000E+00 -0.18538906676E+04  0.18538906676E+04  0.25500000920E-02 0. -1.
    10030    2    1    2    0    0  0.00000000000E+00  0.00000000000E+00 -0.16107958030E+03  0.35467017548E+04  0.35430420131E+04 0.  0.
        4    1    3    3  502    0  0.72481116277E+03 -0.52976427040E+03  0.14482193000E+04  0.17039196453E+04  0.12699999809E+01 0.  1.
       -4    1    3    3    0  502 -0.72481116277E+03  0.52976427040E+03 -0.16092988803E+04  0.18427821095E+04  0.12699999809E+01 0. -1.
</event>
<event>
 5   0  0.3061330E-07  0.3456161E+04  0.7818609E-02  0.8124258E-01
       -1   -1    0    0    0  501  0.00000000000E+00  0.00000000000E+00  0.10561195285E+04  0.10561195285E+04  0.50400001928E-02 0.  1.
        1   -1    0    0  501    0  0.00000000000E+00  0.00000000000E+00 -0.28275805738E+04  0.28275805738E+04  0.50400001928E-02 0. -1.
    10030    2    1    2    0    0  0.00000000000E+00  0.00000000000E+00 -0.17714610453E+04  0.38837001023E+04  0.34561614907E+04 0.  0.
        5    1    3    3  502    0 -0.86296133554E+02  0.16515936063E+03 -0.28162503003E+04  0.28224125285E+04  0.46999998093E+01 0. -1.
       -5    1    3    3    0  502  0.86296133554E+02 -0.16515936063E+03  0.10447892550E+04  0.10612875738E+04  0.46999998093E+01 0.  1.
</event>
<event>
 5   0  0.6188930E-07  0.3513676E+04  0.7818609E-02  0.8110557E-01
       -2   -1    0    0    0  501  0.00000000000E+00  0.00000000000E+00  0.12388956667E+04  0.12388956667E+04  0.25500000920E-02 0. -1.
        2   -1    0    0  501    0  0.00000000000E+00  0.00000000000E+00 -0.24913150649E+04  0.24913150649E+04  0.25500000920E-02 0.  1.
    10030    2    1    2    0    0  0.00000000000E+00  0.00000000000E+00 -0.12524193982E+04  0.37302107316E+04  0.35136758179E+04 0.  0.
        3    1    3    3  502    0 -0.82389753419E+01 -0.64773499702E+03  0.11074787153E+04  0.12830189485E+04  0.10100000352E+00 0. -1.
       -3    1    3    3    0  502  0.82389753419E+01  0.64773499702E+03 -0.23598981135E+04  0.24471917831E+04  0.10100000352E+00 0.  1.
</event>
<event>
 5   0  0.8950809E-07  0.3350256E+04  0.7818609E-02  0.8150224E-01
        2   -1    0    0  501    0  0.00000000000E+00  0.00000000000E+00  0.22946021666E+04  0.22946021666E+04  0.25500000920E-02 0. -1.
       -2   -1    0    0    0  501  0.00000000000E+00  0.00000000000E+00 -0.12228935038E+04  0.12228935038E+04  0.25500000920E-02 0.  1.
    10030    2    1    2    0    0  0.00000000000E+00  0.00000000000E+00  0.10717086628E+04  0.35174956703E+04  0.33502561593E+04 0.  0.
        2    1    3    3  502    0 -0.11834410652E+04 -0.11413930684E+04  0.19931790105E+03  0.16562120991E+04  0.25500000920E-02 0.  1.
       -2    1    3    3    0  502  0.11834410652E+04  0.11413930684E+04  0.87239076175E+03  0.18612835713E+04  0.25500000920E-02 0. -1.
</event>
<event>
 5   0  0.9128871E-07  0.3285874E+04  0.7818609E-02  0.8166499E-01
       -2   -1    0    0    0  501  0.00000000000E+00  0.00000000000E+00  0.17213183050E+04  0.17213183050E+04  0.25500000920E-02 0.  1.
        2   -1    0    0  501    0  0.00000000000E+00  0.00000000000E+00 -0.15681249955E+04  0.15681249955E+04  0.25500000920E-02 0. -1.
    10030    2    1    2    0    0  0.00000000000E+00  0.00000000000E+00  0.15319330951E+03  0.32894433004E+04  0.32858741663E+04 0.  0.
        1    1    3    3  502    0  0.45439914810E+03  0.89433175791E+03  0.13791380654E+04  0.17053825619E+04  0.50400001928E-02 0.  1.
       -1    1    3    3    0  502 -0.45439914810E+03 -0.89433175791E+03 -0.12259447559E+04  0.15840607386E+04  0.50400001928E-02 0. -1.
</event>
<event>
 5   0  0.2936607E-07  0.3557140E+04  0.7818609E-02  0.8100380E-01
       -1   -1    0    0    0  501  0.00000000000E+00  0.00000000000E+00  0.15524029687E+04  0.15524029687E+04  0.50400001928E-02 0. -1.
        1   -1    0    0  501    0  0.00000000000E+00  0.00000000000E+00 -0.20376873337E+04  0.20376873337E+04  0.50400001928E-02 0.  1.
    10030    2    1    2    0    0  0.00000000000E+00  0.00000000000E+00 -0.48528436506E+03  0.35900903024E+04  0.35571403493E+04 0.  0.
        2    1    3    3  502    0  0.12164760624E+04  0.47172943351E+03  0.97725969994E+03  0.16301469841E+04  0.25500000920E-02 0. -1.
       -2    1    3    3    0  502 -0.12164760624E+04 -0.47172943351E+03 -0.14625440650E+04  0.19599433183E+04  0.25500000920E-02 0.  1.
</event>
<event>
 5   0  0.8950809E-07  0.3369202E+04  0.7818609E-02  0.8145507E-01
       -2   -1    0    0    0  501  0.00000000000E+00  0.00000000000E+00  0.23040405561E+04  0.23040405561E+04  0.25500000920E-02 0. -1.
        2   -1    0    0  501    0  0.00000000000E+00  0.00000000000E+00 -0.12316969820E+04  0.12316969820E+04  0.25500000920E-02 0.  1.
    10030    2    1    2    0    0  0.00000000000E+00  0.00000000000E+00  0.10723435740E+04  0.35357375381E+04  0.33692015668E+04 0.  0.
        2    1    3    3  502    0  0.12342124763E+03  0.15375199911E+04  0.12469065907E+04  0.19834254645E+04  0.25500000920E-02 0. -1.
       -2    1    3    3    0  502 -0.12342124763E+03 -0.15375199911E+04 -0.17456301662E+03  0.15523120737E+04  0.25500000920E-02 0.  1.
</event>
<event>
 5   0  0.2972541E-07  0.3306584E+04  0.7818609E-02  0.8161222E-01
       -1   -1    0    0    0  501  0.00000000000E+00  0.00000000000E+00  0.10943309010E+04  0.10943309011E+04  0.50400001928E-02 0.  1.
        1   -1    0    0  501    0  0.00000000000E+00  0.00000000000E+00 -0.24977579121E+04  0.24977579121E+04  0.50400001928E-02 0. -1.
    10030    2    1    2    0    0  0.00000000000E+00  0.00000000000E+00 -0.14034270111E+04  0.35920888132E+04  0.33065835339E+04 0.  0.
        3    1    3    3  502    0 -0.41684570001E+03  0.10035967880E+04  0.65182413080E+03  0.12672180389E+04  0.10100000352E+00 0.  1.
       -3    1    3    3    0  502  0.41684570001E+03 -0.10035967880E+04 -0.20552511419E+04  0.23248707742E+04  0.10100000352E+00 0. -1.
</event>
<event>
 5   0  0.2936607E-07  0.3447285E+04  0.7818609E-02  0.8126398E-01
        1   -1    0    0  501    0  0.00000000000E+00  0.00000000000E+00  0.22141208094E+04  0.22141208094E+04  0.50400001928E-02 0.  1.
       -1   -1    0    0    0  501  0.00000000000E+00  0.00000000000E+00 -0.13418164678E+04  0.13418164678E+04  0.50400001928E-02 0. -1.
    10030    2    1    2    0    0  0.00000000000E+00  0.00000000000E+00  0.87230434160E+03  0.35559372772E+04  0.34472851717E+04 0.  0.
        2    1    3    3  502    0  0.13866261167E+04  0.90702549723E+03  0.92600550074E+03  0.18981341964E+04  0.25500000920E-02 0.  1.
       -2    1    3    3    0  502 -0.13866261167E+04 -0.90702549723E+03 -0.53701159143E+02  0.16578030808E+04  0.25500000920E-02 0. -1.
</event>
<event>
 5   0  0.2936607E-07  0.3540208E+04  0.7818609E-02  0.8104327E-01
        1   -1    0    0  501    0  0.00000000000E+00  0.00000000000E+00  0.25301870455E+04  0.25301870455E+04  0.50400001928E-02 0. -1.
       -1   -1    0    0    0  501  0.00000000000E+00  0.00000000000E+00 -0.12383542663E+04  0.12383542663E+04  0.50400001928E-02 0.  1.
    10030    2    1    2    0    0  0.00000000000E+00  0.00000000000E+00  0.12918327792E+04  0.37685413118E+04  0.35402078597E+04 0.  0.
        2    1    3    3  502    0  0.11755928075E+04  0.41054286317E+03 -0.69328031755E+03  0.14252022629E+04  0.25500000920E-02 0.  1.
       -2    1    3    3    0  502 -0.11755928075E+04 -0.41054286317E+03  0.19851130968E+04  0.23433390490E+04  0.25500000920E-02 0. -1.
</event>
<event>
 5   0  0.3061330E-07  0.3510699E+04  0.7818609E-02  0.8111259E-01
        1   -1    0    0  501    0  0.00000000000E+00  0.00000000000E+00  0.27635964278E+04  0.27635964278E+04  0.50400001928E-02 0. -1.
       -1   -1    0    0    0  501  0.00000000000E+00  0.00000000000E+00 -0.11149425637E+04  0.11149425637E+04  0.50400001928E-02 0.  1.
    10030    2    1    2    0    0  0.00000000000E+00  0.00000000000E+00  0.16486538641E+04  0.38785389916E+04  0.35106986691E+04 0.  0.
        5    1    3    3  502    0  0.11815352318E+04 -0.12975545332E+04  0.86790510774E+03  0.19577933079E+04  0.46999998093E+01 0.  1.
       -5    1    3    3    0  502 -0.11815352318E+04  0.12975545332E+04  0.78074875635E+03  0.19207456836E+04  0.46999998093E+01 0. -1.
</event>
<event>
 5   0  0.6188930E-07  0.3499147E+04  0.7818609E-02  0.8113992E-01
       -2   -1    0    0    0  501  0.00000000000E+00  0.00000000000E+00  0.20385307105E+04  0.20385307105E+04  0.25500000920E-02 0.  1.
        2   -1    0    0  501    0  0.00000000000E+00  0.00000000000E+00 -0.15015752662E+04  0.15015752662E+04  0.25500000920E-02 0. -1.
    10030    2    1    2    0    0  0.00000000000E+00  0.00000000000E+00  0.53695544434E+03  0.35401059767E+04  0.34991469213E+04 0.  0.
        3    1    3    3  502    0 -0.70233643956E+03  0.17933217486E+03 -0.13425089763E+04  0.15257020892E+04  0.10100000352E+00 0. -1.
       -3    1    3    3    0  502  0.70233643956E+03 -0.17933217486E+03  0.18794644206E+04  0.20144038875E+04  0.10100000352E+00 0.  1.
</event>
<event>
 5   0  0.9311672E-07  0.3506971E+04  0.7818609E-02  0.8112140E-01
        2   -1    0    0  501    0  0.00000000000E+00  0.00000000000E+00  0.18357907800E+04  0.18357907801E+04  0.25500000920E-02 0. -1.
       -2   -1    0    0    0  501  0.00000000000E+00  0.00000000000E+00 -0.16748706382E+04  0.16748706382E+04  0.25500000920E-02 0.  1.
    10030    2    1    2    0    0  0.00000000000E+00  0.00000000000E+00  0.16092014186E+03  0.35106614182E+04  0.35069713859E+04 0.  0.
        4    1    3    3  502    0 -0.17542759110E+03 -0.11891486309E+04  0.13584635287E+04  0.18139112651E+04  0.12699999809E+01 0. -1.
       -4    1    3    3    0  502  0.17542759110E+03  0.11891486309E+04 -0.11975433868E+04  0.16967501532E+04  0.12699999809E+01 0.  1.
</event>
<event>
 5   0  0.6188930E-07  0.3490294E+04  0.7818609E-02  0.8116094E-01
        2   -1    0    0  501    0  0.00000000000E+00  0.00000000000E+00  0.11871546556E+04  0.11871546556E+04  0.25500000920E-02 0. -1.
       -2   -1    0    0    0  501  0.00000000000E+00  0.00000000000E+00 -0.25654096124E+04  0.25654096124E+04  0.25500000920E-02 0.  1.
    10030    2    1    2    0    0  0.00000000000E+00  0.00000000000E+00 -0.13782549568E+04  0.37525642681E+04  0.34902939504E+04 0.  0.
        3    1    3    3  502    0 -0.82946955906E+03  0.16682477124E+03 -0.23301516870E+04  0.24790032570E+04  0.10100000352E+00 0.  1.
       -3    1    3    3    0  502  0.82946955906E+03 -0.16682477124E+03  0.95189673020E+03  0.12735610111E+04  0.10100000352E+00 0. -1.
</event>
<event>
 5   0  0.8845195E-07  0.3413431E+04  0.7818609E-02  0.8134618E-01
       -2   -1    0    0    0  501  0.00000000000E+00  0.00000000000E+00  0.15317548390E+04  0.15317548390E+04  0.25500000920E-02 0.  1.
        2   -1    0    0  501    0  0.00000000000E+00  0.00000000000E+00 -0.19016606406E+04  0.19016606406E+04  0.25500000920E-02 0. -1.
    10030    2    1    2    0    0  0.00000000000E+00  0.00000000000E+00 -0.36990580164E+03  0.34334154796E+04  0.34134310530E+04 0.  0.
        5    1    3    3  502    0 -0.11900612700E+04 -0.44236299897E+03 -0.13322115674E+04  0.18403099194E+04  0.46999998093E+01 0. -1.
       -5    1    3    3    0  502  0.11900612700E+04  0.44236299897E+03  0.96230576576E+03  0.15931055602E+04  0.46999998093E+01 0.  1.
</event>
<event>
 5   0  0.8845195E-07  0.3419199E+04  0.7818609E-02  0.8133210E-01
        2   -1    0    0  501    0  0.00000000000E+00  0.00000000000E+00  0.11547221132E+04  0.11547221132E+04  0.25500000920E-02 0.  1.
       -2   -1    0    0    0  501  0.00000000000E+00  0.00000000000E+00 -0.25311118256E+04  0.25311118256E+04  0.25500000920E-02 0. -1.
    10030    2    1    2    0    0  0.00000000000E+00  0.00000000000E+00 -0.13763897124E+04  0.36858339388E+04  0.34191992022E+04 0.  0.
        5    1    3    3  502    0 -0.11204945523E+04  0.27391902183E+03 -0.20484048071E+04  0.23508560177E+04  0.46999998093E+01 0. -1.
       -5    1    3    3    0  502  0.11204945523E+04 -0.27391902183E+03  0.67201509473E+03  0.13349779211E+04  0.46999998093E+01 0.  1.
</event>
<event>
 5   0  0.3061330E-07  0.3500100E+04  0.7818609E-02  0.8113766E-01
       -1   -1    0    0    0  501  0.00000000000E+00  0.00000000000E+00  0.13724560348E+04  0.13724560348E+04  0.50400001928E-02 0. -1.
        1   -1    0    0  501    0  0.00000000000E+00  0.00000000000E+00 -0.22315282158E+04  0.22315282158E+04  0.50400001928E-02 0.  1.
    10030    2    1    2    0    0  0.00000000000E+00  0.00000000000E+00 -0.85907218101E+03  0.36039842507E+04  0.35000996367E+04 0.  0.
        5    1    3    3  502    0 -0.14510482567E+04  0.87305844791E+03  0.25018777456E+02  0.16936410853E+04  0.46999998093E+01 0.  1.
       -5    1    3    3    0  502  0.14510482567E+04 -0.87305844791E+03 -0.88409095846E+03  0.19103431654E+04  0.46999998093E+01 0. -1.
</event>
<event>
 5   0  0.3061330E-07  0.3519974E+04  0.7818609E-02  0.8109073E-01
        1   -1    0    0  501    0  0.00000000000E+00  0.00000000000E+00  0.22493711286E+04  0.22493711286E+04  0.50400001928E-02 0.  1.
       -1   -1    0    0    0  501  0.00000000000E+00  0.00000000000E+00 -0.13770758077E+04  0.13770758077E+04  0.50400001928E-02 0. -1.
    10030    2    1    2    0    0  0.00000000000E+00  0.00000000000E+00  0.87229532098E+03  0.36264469363E+04  0.35199741838E+04 0.  0.
        5    1    3    3  502    0  0.76956388662E+03 -0.15482353624E+04  0.97148794786E+02  0.17316816368E+04  0.46999998093E+01 0.  1.
       -5    1    3    3    0  502 -0.76956388662E+03  0.15482353624E+04  0.77514652620E+03  0.18947652995E+04  0.46999998093E+01 0. -1.
</event>
<event>
 5   0  0.2933506E-07  0.3460859E+04  0.7818609E-02  0.8123129E-01
       -1   -1    0    0    0  501  0.00000000000E+00  0.00000000000E+00  0.15487039760E+04  0.15487039760E+04  0.50400001928E-02 0. -1.
        1   -1    0    0  501    0  0.00000000000E+00  0.00000000000E+00 -0.19334787544E+04  0.19334787544E+04  0.50400001928E-02 0.  1.
    10030    2    1    2    0    0  0.00000000000E+00  0.00000000000E+00 -0.38477477843E+03  0.34821827304E+04  0.34608589884E+04 0.  0.
        4    1    3    3  502    0 -0.13638374256E+04  0.39302422232E+03 -0.11883672731E+04  0.18511453080E+04  0.12699999809E+01 0.  1.
       -4    1    3    3    0  502  0.13638374256E+04 -0.39302422232E+03  0.80359249465E+03  0.16310374224E+04  0.12699999809E+01 0. -1.
</event>
<event>
 5   0  0.3026332E-07  0.3485555E+04  0.7818609E-02  0.8117222E-01
       -1   -1    0    0    0  501  0.00000000000E+00  0.00000000000E+00  0.23159337356E+04  0.23159337356E+04  0.50400001928E-02 0.  1.
        1   -1    0    0  501    0  0.00000000000E+00  0.00000000000E+00 -0.13114683377E+04  0.13114683377E+04  0.50400001928E-02 0. -1.
    10030    2    1    2    0    0  0.00000000000E+00  0.00000000000E+00  0.10044653979E+04  0.36274020734E+04  0.34855552020E+04 0.  0.
        1    1    3    3  502    0 -0.17004112651E+04  0.17919446665E+03  0.15121632264E+03  0.17165009478E+04  0.50400001928E-02 0. -1.
       -1    1    3    3    0  502  0.17004112651E+04 -0.17919446665E+03  0.85324907528E+03  0.19109011256E+04  0.50400001928E-02 0.  1.
</event>
<event>
 5   0  0.9311672E-07  0.3524551E+04  0.7818609E-02  0.8107996E-01
        2   -1    0    0  501    0  0.00000000000E+00  0.00000000000E+00  0.24919819423E+04  0.24919819423E+04  0.25500000920E-02 0.  1.
       -2   -1    0    0    0  501  0.00000000000E+00  0.00000000000E+00 -0.12462432245E+04  0.12462432245E+04  0.25500000920E-02 0. -1.
    10030    2    1    2    0    0  0.00000000000E+00  0.00000000000E+00  0.12457387178E+04  0.37382251668E+04  0.35245513821E+04 0.  0.
        4    1    3    3  502    0  0.90931101148E+03  0.11200908953E+04 -0.45049293763E+03  0.15114217244E+04  0.12699999809E+01 0. -1.
       -4    1    3    3    0  502 -0.90931101148E+03 -0.11200908953E+04  0.16962316555E+04  0.22268034424E+04  0.12699999809E+01 0.  1.
</event>
<event>
 5   0  0.6188930E-07  0.3512606E+04  0.7818609E-02  0.8110809E-01
       -2   -1    0    0    0  501  0.00000000000E+00  0.00000000000E+00  0.12898129303E+04  0.12898129303E+04  0.25500000920E-02 0. -1.
        2   -1    0    0  501    0  0.00000000000E+00  0.00000000000E+00 -0.23915096437E+04  0.23915096437E+04  0.25500000920E-02 0.  1.
    10030    2    1    2    0    0  0.00000000000E+00  0.00000000000E+00 -0.11016967134E+04  0.36813225740E+04  0.35126059052E+04 0.  0.
        3    1    3    3  502    0 -0.27375520573E+03 -0.30605242407E+03  0.12387990105E+04  0.13050796901E+04  0.10100000352E+00 0. -1.
       -3    1    3    3    0  502  0.27375520573E+03  0.30605242407E+03 -0.23404957239E+04  0.23762428838E+04  0.10100000352E+00 0.  1.
</event>
<event>
 5   0  0.3061330E-07  0.3508331E+04  0.7818609E-02  0.8111818E-01
        1   -1    0    0  501    0  0.00000000000E+00  0.00000000000E+00  0.21878288468E+04  0.21878288468E+04  0.50400001928E-02 0. -1.
       -1   -1    0    0    0  501  0.00000000000E+00  0.00000000000E+00 -0.14064612556E+04  0.14064612556E+04  0.50400001928E-02 0.  1.
    10030    2    1    2    0    0  0.00000000000E+00  0.00000000000E+00  0.78136759128E+03  0.35942901024E+04  0.35083309461E+04 0.  0.
        5    1    3    3  502    0  0.74606519623E+03  0.97843036653E+03  0.16715708558E+04  0.20755988233E+04  0.46999998093E+01 0. -1.
       -5    1    3    3    0  502 -0.74606519623E+03 -0.97843036653E+03 -0.89020326454E+03  0.15186912791E+04  0.46999998093E+01 0.  1.
</event>
<event>
 5   0  0.9128871E-07  0.3534585E+04  0.7818609E-02  0.8105642E-01
       -2   -1    0    0    0  501  0.00000000000E+00  0.00000000000E+00  0.11973528384E+04  0.11973528384E+04  0.25500000920E-02 0.  1.
        2   -1    0    0  501    0  0.00000000000E+00  0.00000000000E+00 -0.26085236754E+04  0.26085236754E+04  0.25500000920E-02 0. -1.
    10030    2    1    2    0    0  0.00000000000E+00  0.00000000000E+00 -0.14111708370E+04  0.38058765138E+04  0.35345852525E+04 0.  0.
        1    1    3    3  502    0 -0.15308483530E+03 -0.12310504459E+04 -0.20609279535E+04  0.24054821131E+04  0.50400001928E-02 0. -1.
       -1    1    3    3    0  502  0.15308483530E+03  0.12310504459E+04  0.64975711649E+03  0.14003944007E+04  0.50400001928E-02 0.  1.
</event>
<event>
 5   0  0.8950809E-07  0.3497012E+04  0.7818609E-02  0.8114498E-01
        2   -1    0    0  501    0  0.00000000000E+00  0.00000000000E+00  0.26365900761E+04  0.26365900761E+04  0.25500000920E-02 0. -1.
       -2   -1    0    0    0  501  0.00000000000E+00  0.00000000000E+00 -0.11595557804E+04  0.11595557804E+04  0.25500000920E-02 0.  1.
    10030    2    1    2    0    0  0.00000000000E+00  0.00000000000E+00  0.14770342957E+04  0.37961458564E+04  0.34970120178E+04 0.  0.
        2    1    3    3  502    0 -0.15160890798E+04  0.79515055879E+03  0.11245830296E+04  0.20482864788E+04  0.25500000920E-02 0. -1.
       -2    1    3    3    0  502  0.15160890798E+04 -0.79515055879E+03  0.35245126613E+03  0.17478593776E+04  0.25500000920E-02 0.  1.
</event>
<event>
 5   0  0.8950809E-07  0.3545580E+04  0.7818609E-02  0.8103072E-01
       -2   -1    0    0    0  501  0.00000000000E+00  0.00000000000E+00  0.10774293263E+04  0.10774293263E+04  0.25500000920E-02 0.  1.
        2   -1    0    0  501    0  0.00000000000E+00  0.00000000000E+00 -0.29169280125E+04  0.29169280125E+04  0.25500000920E-02 0. -1.
    10030    2    1    2    0    0  0.00000000000E+00  0.00000000000E+00 -0.18394986862E+04  0.39943573388E+04  0.35455796611E+04 0.  0.
        2    1    3    3  502    0 -0.16951144839E+04  0.45342446266E+03 -0.12042553633E+04  0.21282006101E+04  0.25500000920E-02 0. -1.
       -2    1    3    3    0  502  0.16951144839E+04 -0.45342446266E+03 -0.63524332290E+03  0.18661567287E+04  0.25500000920E-02 0.  1.
</event>
<event>
 5   0  0.2933506E-07  0.3395572E+04  0.7818609E-02  0.8138994E-01
        1   -1    0    0  501    0  0.00000000000E+00  0.00000000000E+00  0.17764432198E+04  0.17764432198E+04  0.50400001928E-02 0. -1.
       -1   -1    0    0    0  501  0.00000000000E+00  0.00000000000E+00 -0.16226114291E+04  0.16226114291E+04  0.50400001928E-02 0.  1.
    10030    2    1    2    0    0  0.00000000000E+00  0.00000000000E+00  0.15383179071E+03  0.33990546489E+04  0.33955718645E+04 0.  0.
        4    1    3    3  502    0  0.13871577836E+04 -0.39390971554E+03 -0.82016391445E+03  0.16589279791E+04  0.12699999809E+01 0.  1.
       -4    1    3    3    0  502 -0.13871577836E+04  0.39390971554E+03  0.97399570515E+03  0.17401266698E+04  0.12699999809E+01 0. -1.
</event>
<event>
 5   0  0.3026332E-07  0.3504604E+04  0.7818609E-02  0.8112700E-01
        1   -1    0    0  501    0  0.00000000000E+00  0.00000000000E+00  0.13719321512E+04  0.13719321512E+04  0.50400001928E-02 0. -1.
       -1   -1    0    0    0  501  0.00000000000E+00  0.00000000000E+00 -0.22381295184E+04  0.22381295184E+04  0.50400001928E-02 0.  1.
    10030    2    1    2    0    0  0.00000000000E+00  0.00000000000E+00 -0.86619736722E+03  0.36100616695E+04  0.35046037406E+04 0.  0.
        1    1    3    3  502    0  0.22738499318E+02 -0.17169247049E+04 -0.72987320766E+02  0.17186257971E+04  0.50400001928E-02 0. -1.
       -1    1    3    3    0  502 -0.22738499318E+02  0.17169247049E+04 -0.79321004645E+03  0.18914358724E+04  0.50400001928E-02 0.  1.
</event>
<event>
 5   0  0.8845195E-07  0.3168766E+04  0.7818609E-02  0.8197115E-01
       -2   -1    0    0    0  501  0.00000000000E+00  0.00000000000E+00  0.14284804559E+04  0.14284804559E+04  0.25500000920E-02 0. -1.
        2   -1    0    0  501    0  0.00000000000E+00  0.00000000000E+00 -0.17573007795E+04  0.17573007795E+04  0.25500000920E-02 0.  1.
    10030    2    1    2    0    0  0.00000000000E+00  0.00000000000E+00 -0.32882032357E+03  0.31857812354E+04  0.31687662070E+04 0.  0.
        5    1    3    3  502    0  0.69736212879E+02  0.54565584401E+03 -0.16582027527E+04  0.17470723793E+04  0.46999998093E+01 0.  1.
       -5    1    3    3    0  502 -0.69736212879E+02 -0.54565584401E+03  0.13293824292E+04  0.14387088560E+04  0.46999998093E+01 0. -1.
</event>
<event>
 5   0  0.3061330E-07  0.3514741E+04  0.7818609E-02  0.8110305E-01
        1   -1    0    0  501    0  0.00000000000E+00  0.00000000000E+00  0.20866424643E+04  0.20866424643E+04  0.50400001928E-02 0. -1.
       -1   -1    0    0    0  501  0.00000000000E+00  0.00000000000E+00 -0.14800578292E+04  0.14800578292E+04  0.50400001928E-02 0.  1.
    10030    2    1    2    0    0  0.00000000000E+00  0.00000000000E+00  0.60658463504E+03  0.35667002935E+04  0.35147412514E+04 0.  0.
        5    1    3    3  502    0  0.63064314965E+03  0.10250034180E+04  0.16028435743E+04  0.20043633410E+04  0.46999998093E+01 0. -1.
       -5    1    3    3    0  502 -0.63064314965E+03 -0.10250034180E+04 -0.99625893924E+03  0.15623369525E+04  0.46999998093E+01 0.  1.
</event>
<event>
 5   0  0.8950809E-07  0.3515163E+04  0.7818609E-02  0.8110206E-01
       -2   -1    0    0    0  501  0.00000000000E+00  0.00000000000E+00  0.18487636165E+04  0.18487636165E+04  0.25500000920E-02 0.  1.
        2   -1    0    0  501    0  0.00000000000E+00  0.00000000000E+00 -0.16708967121E+04  0.16708967121E+04  0.25500000920E-02 0. -1.
    10030    2    1    2    0    0  0.00000000000E+00  0.00000000000E+00  0.17786690438E+03  0.35196603286E+04  0.35151631816E+04 0.  0.
        2    1    3    3  502    0 -0.99356758991E+03 -0.80403845156E+03 -0.11190256088E+04  0.16987856547E+04  0.25500000920E-02 0. -1.
       -2    1    3    3    0  502  0.99356758991E+03  0.80403845156E+03  0.12968925132E+04  0.18208746739E+04  0.25500000920E-02 0.  1.
</event>
<event>
 5   0  0.9311672E-07  0.3443249E+04  0.7818609E-02  0.8127372E-01
        2   -1    0    0  501    0  0.00000000000E+00  0.00000000000E+00  0.27695669814E+04  0.27695669814E+04  0.25500000920E-02 0. -1.
       -2   -1    0    0    0  501  0.00000000000E+00  0.00000000000E+00 -0.10702000638E+04  0.10702000638E+04  0.25500000920E-02 0.  1.
    10030    2    1    2    0    0  0.00000000000E+00  0.00000000000E+00  0.16993669176E+04  0.38397670452E+04  0.34432489078E+04 0.  0.
        4    1    3    3  502    0 -0.10064900743E+04  0.13872396321E+04  0.10313313242E+04  0.20002754760E+04  0.12699999809E+01 0. -1.
       -4    1    3    3    0  502  0.10064900743E+04 -0.13872396321E+04  0.66803559336E+03  0.18394915693E+04  0.12699999809E+01 0.  1.
</event>
<event>
 5   0  0.2933506E-07  0.3477504E+04  0.7818609E-02  0.8119142E-01
        1   -1    0    0  501    0  0.00000000000E+00  0.00000000000E+00  0.14337103409E+04  0.14337103409E+04  0.50400001928E-02 0. -1.
       -1   -1    0    0    0  501  0.00000000000E+00  0.00000000000E+00 -0.21086957452E+04  0.21086957452E+04  0.50400001928E-02 0.  1.
    10030    2    1    2    0    0  0.00000000000E+00  0.00000000000E+00 -0.67498540431E+03  0.35424060861E+04  0.34775042175E+04 0.  0.
        4    1    3    3  502    0 -0.53693269910E+03  0.56899490903E+03 -0.19192788921E+04  0.20726034373E+04  0.12699999809E+01 0.  1.
       -4    1    3    3    0  502  0.53693269910E+03 -0.56899490903E+03  0.12442934878E+04  0.14698026488E+04  0.12699999809E+01 0. -1.
</event>
<event>
 5   0  0.8845195E-07  0.3522445E+04  0.7818609E-02  0.8108491E-01
        2   -1    0    0  501    0  0.00000000000E+00  0.00000000000E+00  0.26385438328E+04  0.26385438328E+04  0.25500000920E-02 0. -1.
       -2   -1    0    0    0  501  0.00000000000E+00  0.00000000000E+00 -0.11756125040E+04  0.11756125040E+04  0.25500000920E-02 0.  1.
    10030    2    1    2    0    0  0.00000000000E+00  0.00000000000E+00  0.14629313288E+04  0.38141563368E+04  0.35224452428E+04 0.  0.
        5    1    3    3  502    0  0.27627817208E+03  0.15582754288E+04  0.15683429876E+04  0.22280650253E+04  0.46999998093E+01 0. -1.
       -5    1    3    3    0  502 -0.27627817208E+03 -0.15582754288E+04 -0.10541165873E+03  0.15860913115E+04  0.46999998093E+01 0.  1.
</event>
<event>
 5   0  0.6188930E-07  0.3535356E+04  0.7818609E-02  0.8105462E-01
       -2   -1    0    0    0  501  0.00000000000E+00  0.00000000000E+00  0.13569511367E+04  0.13569511367E+04  0.25500000920E-02 0. -1.
        2   -1    0    0  501    0  0.00000000000E+00  0.00000000000E+00 -0.23027255366E+04  0.23027255366E+04  0.25500000920E-02 0.  1.
    10030    2    1    2    0    0  0.00000000000E+00  0.00000000000E+00 -0.94577439996E+03  0.36596766733E+04  0.35353562957E+04 0.  0.
        3    1    3    3  502    0 -0.99524055167E+03 -0.12680923591E+04  0.27796351920E+03  0.16357951323E+04  0.10100000352E+00 0. -1.
       -3    1    3    3    0  502  0.99524055167E+03  0.12680923591E+04 -0.12237379192E+04  0.20238815409E+04  0.10100000352E+00 0.  1.
</event>
<event>
 5   0  0.9311672E-07  0.3516106E+04  0.7818609E-02  0.8109984E-01
        2   -1    0    0  501    0  0.00000000000E+00  0.00000000000E+00  0.25419718253E+04  0.25419718253E+04  0.25500000920E-02 0. -1.
       -2   -1    0    0    0  501  0.00000000000E+00  0.00000000000E+00 -0.12158869560E+04  0.12158869560E+04  0.25500000920E-02 0.  1.
    10030    2    1    2    0    0  0.00000000000E+00  0.00000000000E+00  0.13260848692E+04  0.37578587813E+04  0.35161060194E+04 0.  0.
        4    1    3    3  502    0 -0.12303480436E+04 -0.64520204361E+03 -0.48839343810E+03  0.14726071264E+04  0.12699999809E+01 0.  1.
       -4    1    3    3    0  502  0.12303480436E+04  0.64520204361E+03  0.18144783073E+04  0.22852516549E+04  0.12699999809E+01 0. -1.
</event>
<event>
 5   0  0.2936607E-07  0.3535542E+04  0.7818609E-02  0.8105418E-01
       -1   -1    0    0    0  501  0.00000000000E+00  0.00000000000E+00  0.12330596988E+04  0.12330596988E+04  0.50400001928E-02 0. -1.
        1   -1    0    0  501    0  0.00000000000E+00  0.00000000000E+00 -0.25343580879E+04  0.25343580879E+04  0.50400001928E-02 0.  1.
    10030    2    1    2    0    0  0.00000000000E+00  0.00000000000E+00 -0.13012983891E+04  0.37674177867E+04  0.35355422896E+04 0.  0.
        2    1    3    3  502    0  0.13812917266E+04 -0.92342740897E+03 -0.74653915198E+01  0.16615476959E+04  0.25500000920E-02 0. -1.
       -2    1    3    3    0  502 -0.13812917266E+04  0.92342740897E+03 -0.12938329976E+04  0.21058700908E+04  0.25500000920E-02 0.  1.
</event>
<event>
 5   0  0.6188930E-07  0.3452781E+04  0.7818609E-02  0.8125072E-01
       -2   -1    0    0    0  501  0.00000000000E+00  0.00000000000E+00  0.23821794256E+04  0.23821794256E+04  0.25500000920E-02 0.  1.
        2   -1    0    0  501    0  0.00000000000E+00  0.00000000000E+00 -0.12511334246E+04  0.12511334246E+04  0.25500000920E-02 0. -1.
    10030    2    1    2    0    0  0.00000000000E+00  0.00000000000E+00  0.11310460010E+04  0.36333128501E+04  0.34527810835E+04 0.  0.
        3    1    3    3  502    0 -0.14819990806E+03 -0.10604059608E+04  0.19905839840E+04  0.22602762269E+04  0.10100000352E+00 0.  1.
       -3    1    3    3    0  502  0.14819990806E+03  0.10604059608E+04 -0.85953798297E+03  0.13730366232E+04  0.10100000352E+00 0. -1.
</event>
<event>
 5   0  0.2972541E-07  0.3527827E+04  0.7818609E-02  0.8107227E-01
       -1   -1    0    0    0  501  0.00000000000E+00  0.00000000000E+00  0.27317582852E+04  0.27317582852E+04  0.50400001928E-02 0. -1.
        1   -1    0    0  501    0  0.00000000000E+00  0.00000000000E+00 -0.11389702250E+04  0.11389702250E+04  0.50400001928E-02 0.  1.
    10030    2    1    2    0    0  0.00000000000E+00  0.00000000000E+00  0.15927880602E+04  0.38707285102E+04  0.35278272910E+04 0.  0.
        3    1    3    3  502    0  0.14796766648E+04 -0.35038974887E+03  0.17772526890E+04  0.23389833559E+04  0.10100000352E+00 0. -1.
       -3    1    3    3    0  502 -0.14796766648E+04  0.35038974887E+03 -0.18446462878E+03  0.15317451543E+04  0.10100000352E+00 0.  1.
</event>
<event>
 5   0  0.9311672E-07  0.3476305E+04  0.7818609E-02  0.8119428E-01
        2   -1    0    0  501    0  0.00000000000E+00  0.00000000000E+00  0.21916058923E+04  0.21916058923E+04  0.25500000920E-02 0. -1.
       -2   -1    0    0    0  501  0.00000000000E+00  0.00000000000E+00 -0.13785205013E+04  0.13785205013E+04  0.25500000920E-02 0.  1.
    10030    2    1    2    0    0  0.00000000000E+00  0.00000000000E+00  0.81308539097E+03  0.35701263936E+04  0.34763047353E+04 0.  0.
        4    1    3    3  502    0 -0.12103167505E+04  0.92253061223E+03 -0.45590952226E+03  0.15886423362E+04  0.12699999809E+01 0.  1.
       -4    1    3    3    0  502  0.12103167505E+04 -0.92253061223E+03  0.12689949132E+04  0.19814840574E+04  0.12699999809E+01 0. -1.
</event>
<event>
 5   0  0.3026332E-07  0.3098286E+04  0.7818609E-02  0.8216209E-01
        1   -1    0    0  501    0  0.00000000000E+00  0.00000000000E+00  0.21380165994E+04  0.21380165994E+04  0.50400001928E-02 0. -1.
       -1   -1    0    0    0  501  0.00000000000E+00  0.00000000000E+00 -0.11224625291E+04  0.11224625291E+04  0.50400001928E-02 0.  1.
    10030    2    1    2    0    0  0.00000000000E+00  0.00000000000E+00  0.10155540703E+04  0.32604791285E+04  0.30982856675E+04 0.  0.
        1    1    3    3  502    0 -0.18941383148E+03  0.13899771450E+04  0.11993951786E+04  0.18456605478E+04  0.50400001928E-02 0. -1.
       -1    1    3    3    0  502  0.18941383148E+03 -0.13899771450E+04 -0.18384110825E+03  0.14148185807E+04  0.50400001928E-02 0.  1.
</event>
<event>
 5   0  0.8845195E-07  0.3497403E+04  0.7818609E-02  0.8114406E-01
       -2   -1    0    0    0  501  0.00000000000E+00  0.00000000000E+00  0.11777569229E+04  0.11777569229E+04  0.25500000920E-02 0.  1.
        2   -1    0    0  501    0  0.00000000000E+00  0.00000000000E+00 -0.25964240056E+04  0.25964240056E+04  0.25500000920E-02 0. -1.
    10030    2    1    2    0    0  0.00000000000E+00  0.00000000000E+00 -0.14186670827E+04  0.37741809286E+04  0.34974026634E+04 0.  0.
        5    1    3    3  502    0  0.10303809622E+04  0.14121585310E+04 -0.75828425010E+03  0.19054904193E+04  0.46999998093E+01 0. -1.
       -5    1    3    3    0  502 -0.10303809622E+04 -0.14121585310E+04 -0.66038283259E+03  0.18686905093E+04  0.46999998093E+01 0.  1.
</event>
<event>
 5   0  0.2972541E-07  0.3112758E+04  0.7818609E-02  0.8212245E-01
        1   -1    0    0  501    0  0.00000000000E+00  0.00000000000E+00  0.13568026106E+04  0.13568026106E+04  0.50400001928E-02 0. -1.
       -1   -1    0    0    0  501  0.00000000000E+00  0.00000000000E+00 -0.17853117788E+04  0.17853117788E+04  0.50400001928E-02 0.  1.
    10030    2    1    2    0    0  0.00000000000E+00  0.00000000000E+00 -0.42850916822E+03  0.31421143894E+04  0.31127580582E+04 0.  0.
        3    1    3    3  502    0 -0.14454025891E+04 -0.62722594294E+02  0.36490981442E+03  0.14920730382E+04  0.10100000352E+00 0. -1.
       -3    1    3    3    0  502  0.14454025891E+04  0.62722594294E+02 -0.79341898263E+03  0.16500413512E+04  0.10100000352E+00 0.  1.
</event>
<event>
 5   0  0.3061330E-07  0.3520257E+04  0.7818609E-02  0.8109006E-01
        1   -1    0    0  501    0  0.00000000000E+00  0.00000000000E+00  0.22994579054E+04  0.22994579055E+04  0.50400001928E-02 0.  1.
       -1   -1    0    0    0  501  0.00000000000E+00  0.00000000000E+00 -0.13472966777E+04  0.13472966777E+04  0.50400001928E-02 0. -1.
    10030    2    1    2    0    0  0.00000000000E+00  0.00000000000E+00  0.95216122776E+03  0.36467545832E+04  0.35202568068E+04 0.  0.
        5    1    3    3  502    0  0.78104476597E+03 -0.14576564007E+04  0.11004291669E+04  0.19863936041E+04  0.46999998093E+01 0.  1.
       -5    1    3    3    0  502 -0.78104476597E+03  0.14576564007E+04 -0.14826793912E+03  0.16603609791E+04  0.46999998093E+01 0. -1.
</event>
<event>
 5   0  0.8845195E-07  0.3490030E+04  0.7818609E-02  0.8116157E-01
        2   -1    0    0  501    0  0.00000000000E+00  0.00000000000E+00  0.22189612087E+04  0.22189612087E+04  0.25500000920E-02 0.  1.
       -2   -1    0    0    0  501  0.00000000000E+00  0.00000000000E+00 -0.13722988296E+04  0.13722988296E+04  0.25500000920E-02 0. -1.
    10030    2    1    2    0    0  0.00000000000E+00  0.00000000000E+00  0.84666237911E+03  0.35912600383E+04  0.34900302976E+04 0.  0.
        5    1    3    3  502    0 -0.12619680203E+04  0.79946581986E+03  0.13513474014E+04  0.20144157393E+04  0.46999998093E+01 0. -1.
       -5    1    3    3    0  502  0.12619680203E+04 -0.79946581986E+03 -0.50468502232E+03  0.15768442990E+04  0.46999998093E+01 0.  1.
</event>
<event>
 5   0  0.2933506E-07  0.3433146E+04  0.7818609E-02  0.8129819E-01
        1   -1    0    0  501    0  0.00000000000E+00  0.00000000000E+00  0.17407784068E+04  0.17407784068E+04  0.50400001928E-02 0.  1.
       -1   -1    0    0    0  501  0.00000000000E+00  0.00000000000E+00 -0.16927046503E+04  0.16927046504E+04  0.50400001928E-02 0. -1.
    10030    2    1    2    0    0  0.00000000000E+00  0.00000000000E+00  0.48073756452E+02  0.34334830572E+04  0.34331464894E+04 0.  0.
        4    1    3    3  502    0 -0.16263376144E+04  0.17960929534E+03 -0.49504055143E+03  0.17094736896E+04  0.12699999809E+01 0. -1.
       -4    1    3    3    0  502  0.16263376144E+04 -0.17960929534E+03  0.54311430788E+03  0.17240093675E+04  0.12699999809E+01 0.  1.
</event>
<event>
 5   0  0.2933506E-07  0.3531282E+04  0.7818609E-02  0.8106416E-01
        1   -1    0    0  501    0  0.00000000000E+00  0.00000000000E+00  0.17041308296E+04  0.17041308296E+04  0.50400001928E-02 0. -1.
       -1   -1    0    0    0  501  0.00000000000E+00  0.00000000000E+00 -0.18293711897E+04  0.18293711897E+04  0.50400001928E-02 0.  1.
    10030    2    1    2    0    0  0.00000000000E+00  0.00000000000E+00 -0.12524036010E+03  0.35335020193E+04  0.35312818314E+04 0.  0.
        4    1    3    3  502    0 -0.10007083995E+03 -0.11166031769E+04  0.13023009967E+04  0.17183731628E+04  0.12699999809E+01 0. -1.
       -4    1    3    3    0  502  0.10007083995E+03  0.11166031769E+04 -0.14275413568E+04  0.18151288566E+04  0.12699999809E+01 0.  1.
</event>
<event>
 5   0  0.2972541E-07  0.3544027E+04  0.7818609E-02  0.8103435E-01
       -1   -1    0    0    0  501  0.00000000000E+00  0.00000000000E+00  0.17042959918E+04  0.17042959918E+04  0.50400001928E-02 0.  1.
        1   -1    0    0  501    0  0.00000000000E+00  0.00000000000E+00 -0.18424221070E+04  0.18424221070E+04  0.50400001928E-02 0. -1.
    10030    2    1    2    0    0  0.00000000000E+00  0.00000000000E+00 -0.13812611522E+03  0.35467180988E+04  0.35440274334E+04 0.  0.
        3    1    3    3  502    0 -0.10559727671E+04 -0.12096791069E+04  0.68092607014E+03  0.17441508965E+04  0.10100000352E+00 0.  1.
       -3    1    3    3    0  502  0.10559727671E+04  0.12096791069E+04 -0.81905218536E+03  0.18025672024E+04  0.10100000352E+00 0. -1.
</event>
<event>
 5   0  0.2936607E-07  0.3075054E+04  0.7818609E-02  0.8222618E-01
       -1   -1    0    0    0  501  0.00000000000E+00  0.00000000000E+00  0.15353990002E+04  0.15353990002E+04  0.50400001928E-02 0. -1.
        1   -1    0    0  501    0  0.00000000000E+00  0.00000000000E+00 -0.15396581385E+04  0.15396581385E+04  0.50400001928E-02 0.  1.
    10030    2    1    2    0    0  0.00000000000E+00  0.00000000000E+00 -0.42591382877E+01  0.30750571387E+04  0.30750541892E+04 0.  0.
        2    1    3    3  502    0  0.52338052934E+03  0.10900725181E+04  0.94750510980E+03  0.15362132685E+04  0.25500000920E-02 0. -1.
       -2    1    3    3    0  502 -0.52338052934E+03 -0.10900725181E+04 -0.95176424808E+03  0.15388438703E+04  0.25500000920E-02 0.  1.
</event>
<event>
 5   0  0.2936607E-07  0.3475181E+04  0.7818609E-02  0.8119697E-01
       -1   -1    0    0    0  501  0.00000000000E+00  0.00000000000E+00  0.13765116229E+04  0.13765116229E+04  0.50400001928E-02 0. -1.
        1   -1    0    0  501    0  0.00000000000E+00  0.00000000000E+00 -0.21933859387E+04  0.21933859387E+04  0.50400001928E-02 0.  1.
    10030    2    1    2    0    0  0.00000000000E+00  0.00000000000E+00 -0.81687431579E+03  0.35698975616E+04  0.34751812834E+04 0.  0.
        2    1    3    3  502    0 -0.16916472354E+03  0.68027556715E+03  0.12248110661E+04  0.14112241844E+04  0.25500000920E-02 0. -1.
       -2    1    3    3    0  502  0.16916472354E+03 -0.68027556715E+03 -0.20416853819E+04  0.21586733772E+04  0.25500000920E-02 0.  1.
</event>
<event>
 5   0  0.2933506E-07  0.3478348E+04  0.7818609E-02  0.8118940E-01
        1   -1    0    0  501    0  0.00000000000E+00  0.00000000000E+00  0.30304480779E+04  0.30304480779E+04  0.50400001928E-02 0.  1.
       -1   -1    0    0    0  501  0.00000000000E+00  0.00000000000E+00 -0.99811178829E+03  0.99811178830E+03  0.50400001928E-02 0. -1.
    10030    2    1    2    0    0  0.00000000000E+00  0.00000000000E+00  0.20323362896E+04  0.40285598662E+04  0.34783478552E+04 0.  0.
        4    1    3    3  502    0 -0.40920888705E+03  0.98227748379E+03 -0.57708089819E+03  0.12105143305E+04  0.12699999809E+01 0. -1.
       -4    1    3    3    0  502  0.40920888705E+03 -0.98227748379E+03  0.26094171878E+04  0.28180455357E+04  0.12699999809E+01 0.  1.
</event>
<event>
 5   0  0.3026332E-07  0.3520056E+04  0.7818609E-02  0.8109053E-01
       -1   -1    0    0    0  501  0.00000000000E+00  0.00000000000E+00  0.10411517171E+04  0.10411517172E+04  0.50400001928E-02 0. -1.
        1   -1    0    0  501    0  0.00000000000E+00  0.00000000000E+00 -0.29752613542E+04  0.29752613543E+04  0.50400001928E-02 0.  1.
    10030    2    1    2    0    0  0.00000000000E+00  0.00000000000E+00 -0.19341096371E+04  0.40164130714E+04  0.35200559473E+04 0.  0.
        1    1    3    3  502    0  0.51682594881E+03  0.37023185461E+02  0.95215326817E+03  0.10840090515E+04  0.50400001928E-02 0. -1.
       -1    1    3    3    0  502 -0.51682594881E+03 -0.37023185461E+02 -0.28862629053E+04  0.29324040199E+04  0.50400001928E-02 0.  1.
</event>
<event>
 5   0  0.8950809E-07  0.3440182E+04  0.7818609E-02  0.8128114E-01
       -2   -1    0    0    0  501  0.00000000000E+00  0.00000000000E+00  0.25740482686E+04  0.25740482686E+04  0.25500000920E-02 0. -1.
        2   -1    0    0  501    0  0.00000000000E+00  0.00000000000E+00 -0.11494399412E+04  0.11494399412E+04  0.25500000920E-02 0.  1.
    10030    2    1    2    0    0  0.00000000000E+00  0.00000000000E+00  0.14246083274E+04  0.37234882098E+04  0.34401824896E+04 0.  0.
        2    1    3    3  502    0  0.15947695468E+04  0.62698189907E+03  0.87399784074E+03  0.19236081812E+04  0.25500000920E-02 0.  1.
       -2    1    3    3    0  502 -0.15947695468E+04 -0.62698189907E+03  0.55061048669E+03  0.17998800286E+04  0.25500000920E-02 0. -1.
</event>
<event>
 5   0  0.3026332E-07  0.3539412E+04  0.7818609E-02  0.8104513E-01
        1   -1    0    0  501    0  0.00000000000E+00  0.00000000000E+00  0.15806757355E+04  0.15806757355E+04  0.50400001928E-02 0. -1.
       -1   -1    0    0    0  501  0.00000000000E+00  0.00000000000E+00 -0.19813424576E+04  0.19813424576E+04  0.50400001928E-02 0.  1.
    10030    2    1    2    0    0  0.00000000000E+00  0.00000000000E+00 -0.40066672205E+03  0.35620181931E+04  0.35394123503E+04 0.  0.
        1    1    3    3  502    0  0.15881032914E+03 -0.17062701054E+04 -0.64506249592E+03  0.18310335925E+04  0.50400001928E-02 0.  1.
       -1    1    3    3    0  502 -0.15881032914E+03  0.17062701054E+04  0.24439577387E+03  0.17309846006E+04  0.50400001928E-02 0. -1.
</event>
<event>
 5   0  0.2933506E-07  0.3499462E+04  0.7818609E-02  0.8113917E-01
        1   -1    0    0  501    0  0.00000000000E+00  0.00000000000E+00  0.16305868014E+04  0.16305868014E+04  0.50400001928E-02 0. -1.
       -1   -1    0    0    0  501  0.00000000000E+00  0.00000000000E+00 -0.18775809497E+04  0.18775809497E+04  0.50400001928E-02 0.  1.
    10030    2    1    2    0    0  0.00000000000E+00  0.00000000000E+00 -0.24699414835E+03  0.35081677511E+04  0.34994620816E+04 0.  0.
        4    1    3    3  502    0 -0.80764412794E+03 -0.16236410083E+03  0.14240095331E+04  0.16451309681E+04  0.12699999809E+01 0. -1.
       -4    1    3    3    0  502  0.80764412794E+03  0.16236410083E+03 -0.16710036815E+04  0.18630367831E+04  0.12699999809E+01 0.  1.
</event>
<event>
 5   0  0.8845195E-07  0.3512560E+04  0.7818609E-02  0.8110820E-01
        2   -1    0    0  501    0  0.00000000000E+00  0.00000000000E+00  0.25904871799E+04  0.25904871799E+04  0.25500000920E-02 0.  1.
       -2   -1    0    0    0  501  0.00000000000E+00  0.00000000000E+00 -0.11907099651E+04  0.11907099651E+04  0.25500000920E-02 0. -1.
    10030    2    1    2    0    0  0.00000000000E+00  0.00000000000E+00  0.13997772148E+04  0.37811971450E+04  0.35125596932E+04 0.  0.
        5    1    3    3  502    0  0.26166214229E+03 -0.85299773550E+03  0.23283366681E+04  0.24934405835E+04  0.46999998093E+01 0.  1.
       -5    1    3    3    0  502 -0.26166214229E+03  0.85299773550E+03 -0.92855945328E+03  0.12877565615E+04  0.46999998093E+01 0. -1.
</event>
<event>
 5   0  0.8845195E-07  0.3536833E+04  0.7818609E-02  0.8105116E-01
        2   -1    0    0  501    0  0.00000000000E+00  0.00000000000E+00  0.23904867775E+04  0.23904867775E+04  0.25500000920E-02 0. -1.
       -2   -1    0    0    0  501  0.00000000000E+00  0.00000000000E+00 -0.13082257973E+04  0.13082257973E+04  0.25500000920E-02 0.  1.
    10030    2    1    2    0    0  0.00000000000E+00  0.00000000000E+00  0.10822609803E+04  0.36987125748E+04  0.35368327472E+04 0.  0.
        5    1    3    3  502    0  0.11287985504E+04 -0.11737276690E+04  0.12622200447E+04  0.20603505381E+04  0.46999998093E+01 0. -1.
       -5    1    3    3    0  502 -0.11287985504E+04  0.11737276690E+04 -0.17995906448E+03  0.16383620367E+04  0.46999998093E+01 0.  1.
</event>
<event>
 5   0  0.2972541E-07  0.3505117E+04  0.7818609E-02  0.8112578E-01
       -1   -1    0    0    0  501  0.00000000000E+00  0.00000000000E+00  0.14123506172E+04  0.14123506172E+04  0.50400001928E-02 0.  1.
        1   -1    0    0  501    0  0.00000000000E+00  0.00000000000E+00 -0.21747153001E+04  0.21747153001E+04  0.50400001928E-02 0. -1.
    10030    2    1    2    0    0  0.00000000000E+00  0.00000000000E+00 -0.76236468292E+03  0.35870659173E+04  0.35051165438E+04 0.  0.
        3    1    3    3  502    0  0.60939227421E+03  0.15726290405E+04 -0.86870172461E+03  0.18971462093E+04  0.10100000352E+00 0. -1.
       -3    1    3    3    0  502 -0.60939227421E+03 -0.15726290405E+04  0.10633704169E+03  0.16899197080E+04  0.10100000352E+00 0.  1.
</event>
<event>
 5   0  0.2933506E-07  0.3467638E+04  0.7818609E-02  0.8121502E-01
        1   -1    0    0  501    0  0.00000000000E+00  0.00000000000E+00  0.21113380000E+04  0.21113380000E+04  0.50400001928E-02 0.  1.
       -1   -1    0    0    0  501  0.00000000000E+00  0.00000000000E+00 -0.14238022770E+04  0.14238022770E+04  0.50400001928E-02 0. -1.
    10030    2    1    2    0    0  0.00000000000E+00  0.00000000000E+00  0.68753572299E+03  0.35351402771E+04  0.34676377274E+04 0.  0.
        4    1    3    3  502    0  0.26258788058E+03  0.28019069443E+03  0.20674402226E+04  0.21028004915E+04  0.12699999809E+01 0.  1.
       -4    1    3    3    0  502 -0.26258788058E+03 -0.28019069443E+03 -0.13799044996E+04  0.14323397855E+04  0.12699999809E+01 0. -1.
</event>
<event>
 5   0  0.2936607E-07  0.3565861E+04  0.7818609E-02  0.8098357E-01
        1   -1    0    0  501    0  0.00000000000E+00  0.00000000000E+00  0.10284796645E+04  0.10284796645E+04  0.50400001928E-02 0. -1.
       -1   -1    0    0    0  501  0.00000000000E+00  0.00000000000E+00 -0.30908162198E+04  0.30908162198E+04  0.50400001928E-02 0.  1.
    10030    2    1    2    0    0  0.00000000000E+00  0.00000000000E+00 -0.20623365553E+04  0.41192958844E+04  0.35658612586E+04 0.  0.
        2    1    3    3  502    0  0.10340609397E+04 -0.14189699595E+04 -0.67308523273E+03  0.18803727034E+04  0.25500000920E-02 0.  1.
       -2    1    3    3    0  502 -0.10340609397E+04  0.14189699595E+04 -0.13892513226E+04  0.22389231810E+04  0.25500000920E-02 0. -1.
</event>
<event>
 5   0  0.9311672E-07  0.3506324E+04  0.7818609E-02  0.8112293E-01
        2   -1    0    0  501    0  0.00000000000E+00  0.00000000000E+00  0.18261831815E+04  0.18261831815E+04  0.25500000920E-02 0. -1.
       -2   -1    0    0    0  501  0.00000000000E+00  0.00000000000E+00 -0.16830605245E+04  0.16830605245E+04  0.25500000920E-02 0.  1.
    10030    2    1    2    0    0  0.00000000000E+00  0.00000000000E+00  0.14312265691E+03  0.35092437060E+04  0.35063239002E+04 0.  0.
        4    1    3    3  502    0  0.63104451420E+03  0.11473827408E+04 -0.10951155562E+04  0.17070395505E+04  0.12699999809E+01 0.  1.
       -4    1    3    3    0  502 -0.63104451420E+03 -0.11473827408E+04  0.12382382131E+04  0.18022041555E+04  0.12699999809E+01 0. -1.
</event>
<event>
 5   0  0.3061330E-07  0.2997521E+04  0.7818609E-02  0.8244439E-01
        1   -1    0    0  501    0  0.00000000000E+00  0.00000000000E+00  0.19812069920E+04  0.19812069920E+04  0.50400001928E-02 0. -1.
       -1   -1    0    0    0  501  0.00000000000E+00  0.00000000000E+00 -0.11337953588E+04  0.11337953588E+04  0.50400001928E-02 0.  1.
    10030    2    1    2    0    0  0.00000000000E+00  0.00000000000E+00  0.84741163321E+03  0.31150023508E+04  0.29975211708E+04 0.  0.
        5    1    3    3  502    0 -0.28363989050E+03  0.86441948083E+03  0.16614313457E+04  0.18942145688E+04  0.46999998093E+01 0. -1.
       -5    1    3    3    0  502  0.28363989050E+03 -0.86441948083E+03 -0.81401971245E+03  0.12207877820E+04  0.46999998093E+01 0.  1.
</event>
<event>
 5   0  0.2972541E-07  0.3477152E+04  0.7818609E-02  0.8119226E-01
       -1   -1    0    0    0  501  0.00000000000E+00  0.00000000000E+00  0.22318203773E+04  0.22318203773E+04  0.50400001928E-02 0.  1.
        1   -1    0    0  501    0  0.00000000000E+00  0.00000000000E+00 -0.13543410634E+04  0.13543410634E+04  0.50400001928E-02 0. -1.
    10030    2    1    2    0    0  0.00000000000E+00  0.00000000000E+00  0.87747931390E+03  0.35861614407E+04  0.34771516982E+04 0.  0.
        3    1    3    3  502    0 -0.14874450749E+04 -0.84640840080E+03  0.12296124607E+03  0.17158145325E+04  0.10100000352E+00 0. -1.
       -3    1    3    3    0  502  0.14874450749E+04  0.84640840080E+03  0.75451806784E+03  0.18703469081E+04  0.10100000352E+00 0.  1.
</event>
<event>
 5   0  0.8950809E-07  0.3481309E+04  0.7818609E-02  0.8118234E-01
       -2   -1    0    0    0  501  0.00000000000E+00  0.00000000000E+00  0.24783094289E+04  0.24783094289E+04  0.25500000920E-02 0.  1.
        2   -1    0    0  501    0  0.00000000000E+00  0.00000000000E+00 -0.12225585306E+04  0.12225585306E+04  0.25500000920E-02 0. -1.
    10030    2    1    2    0    0  0.00000000000E+00  0.00000000000E+00  0.12557508983E+04  0.37008679595E+04  0.34813091410E+04 0.  0.
        2    1    3    3  502    0  0.10188643999E+04 -0.14021921225E+04  0.79813538736E+03  0.19082053114E+04  0.25500000920E-02 0. -1.
       -2    1    3    3    0  502 -0.10188643999E+04  0.14021921225E+04  0.45761551095E+03  0.17926626481E+04  0.25500000920E-02 0.  1.
</event>
<event>
 5   0  0.6188930E-07  0.3523141E+04  0.7818609E-02  0.8108328E-01
       -2   -1    0    0    0  501  0.00000000000E+00  0.00000000000E+00  0.18035914977E+04  0.18035914977E+04  0.25500000920E-02 0.  1.
        2   -1    0    0  501    0  0.00000000000E+00  0.00000000000E+00 -0.17205287637E+04  0.17205287637E+04  0.25500000920E-02 0. -1.
    10030    2    1    2    0    0  0.00000000000E+00  0.00000000000E+00  0.83062733951E+02  0.35241202614E+04  0.35231412403E+04 0.  0.
        3    1    3    3  502    0  0.11648244917E+04  0.10317580181E+04 -0.78440404444E+03  0.17425930160E+04  0.10100000352E+00 0. -1.
       -3    1    3    3    0  502 -0.11648244917E+04 -0.10317580181E+04  0.86746677839E+03  0.17815272454E+04  0.10100000352E+00 0.  1.
</event>
<event>
 5   0  0.6188930E-07  0.3482775E+04  0.7818609E-02  0.8117884E-01
       -2   -1    0    0    0  501  0.00000000000E+00  0.00000000000E+00  0.23032062424E+04  0.23032062424E+04  0.25500000920E-02 0. -1.
        2   -1    0    0  501    0  0.00000000000E+00  0.00000000000E+00 -0.13166124453E+04  0.13166124453E+04  0.25500000920E-02 0.  1.
    10030    2    1    2    0    0  0.00000000000E+00  0.00000000000E+00  0.98659379710E+03  0.36198186876E+04  0.34827747574E+04 0.  0.
        3    1    3    3  502    0 -0.14086711651E+04 -0.10030007303E+04  0.70646502533E+03  0.18680090360E+04  0.10100000352E+00 0. -1.
       -3    1    3    3    0  502  0.14086711651E+04  0.10030007303E+04  0.28012877176E+03  0.17518096516E+04  0.10100000352E+00 0.  1.
</event>
<event>
 5   0  0.8845195E-07  0.3628832E+04  0.7818609E-02  0.8083919E-01
       -2   -1    0    0    0  501  0.00000000000E+00  0.00000000000E+00  0.12577190677E+04  0.12577190677E+04  0.25500000920E-02 0. -1.
        2   -1    0    0  501    0  0.00000000000E+00  0.00000000000E+00 -0.26175204147E+04  0.26175204147E+04  0.25500000920E-02 0.  1.
    10030    2    1    2    0    0  0.00000000000E+00  0.00000000000E+00 -0.13598013469E+04  0.38752394824E+04  0.36288319530E+04 0.  0.
        5    1    3    3  502    0 -0.76570608618E+03  0.80780524501E+03 -0.22101080499E+04  0.24745615382E+04  0.46999998093E+01 0.  1.
       -5    1    3    3    0  502  0.76570608618E+03 -0.80780524501E+03  0.85030670295E+03  0.14006779442E+04  0.46999998093E+01 0. -1.
</event>
<event>
 5   0  0.6188930E-07  0.3507141E+04  0.7818609E-02  0.8112100E-01
       -2   -1    0    0    0  501  0.00000000000E+00  0.00000000000E+00  0.11681860328E+04  0.11681860328E+04  0.25500000920E-02 0. -1.
        2   -1    0    0  501    0  0.00000000000E+00  0.00000000000E+00 -0.26322944930E+04  0.26322944930E+04  0.25500000920E-02 0.  1.
    10030    2    1    2    0    0  0.00000000000E+00  0.00000000000E+00 -0.14641084602E+04  0.38004805259E+04  0.35071410927E+04 0.  0.
        3    1    3    3  502    0 -0.26242694885E+03 -0.11650910770E+04  0.65936079617E+03  0.13642073856E+04  0.10100000352E+00 0.  1.
       -3    1    3    3    0  502  0.26242694885E+03  0.11650910770E+04 -0.21234692564E+04  0.24362731403E+04  0.10100000352E+00 0. -1.
</event>
<event>
 5   0  0.2972541E-07  0.3509832E+04  0.7818609E-02  0.8111464E-01
       -1   -1    0    0    0  501  0.00000000000E+00  0.00000000000E+00  0.16092844894E+04  0.16092844894E+04  0.50400001928E-02 0. -1.
        1   -1    0    0  501    0  0.00000000000E+00  0.00000000000E+00 -0.19137268483E+04  0.19137268483E+04  0.50400001928E-02 0.  1.
    10030    2    1    2    0    0  0.00000000000E+00  0.00000000000E+00 -0.30444235895E+03  0.35230113377E+04  0.35098324370E+04 0.  0.
        3    1    3    3  502    0 -0.13205711893E+03 -0.90449105363E+03  0.13514651577E+04  0.16315640446E+04  0.10100000352E+00 0. -1.
       -3    1    3    3    0  502  0.13205711893E+03  0.90449105363E+03 -0.16559075167E+04  0.18914472931E+04  0.10100000352E+00 0.  1.
</event>
<event>
 5   0  0.2972541E-07  0.3471619E+04  0.7818609E-02  0.8120549E-01
       -1   -1    0    0    0  501  0.00000000000E+00  0.00000000000E+00  0.15675642756E+04  0.15675642756E+04  0.50400001928E-02 0.  1.
        1   -1    0    0  501    0  0.00000000000E+00  0.00000000000E+00 -0.19221122070E+04  0.19221122070E+04  0.50400001928E-02 0. -1.
    10030    2    1    2    0    0  0.00000000000E+00  0.00000000000E+00 -0.35454793141E+03  0.34896764826E+04  0.34716188900E+04 0.  0.
        3    1    3    3  502    0  0.10069421997E+04  0.14093828551E+04 -0.63807271282E+02  0.17333101292E+04  0.10100000352E+00 0.  1.
       -3    1    3    3    0  502 -0.10069421997E+04 -0.14093828551E+04 -0.29074066013E+03  0.17563663534E+04  0.10100000352E+00 0. -1.
</event>
<event>
 5   0  0.2907000E-07  0.3521267E+04  0.7818609E-02  0.8108768E-01
       -3   -1    0    0    0  501  0.00000000000E+00  0.00000000000E+00  0.11885563115E+04  0.11885563158E+04  0.10100000352E+00 0. -1.
        3   -1    0    0  501    0  0.00000000000E+00  0.00000000000E+00 -0.26080631320E+04  0.26080631339E+04  0.10100000352E+00 0.  1.
    10030    2    1    2    0    0  0.00000000000E+00  0.00000000000E+00 -0.14195068205E+04  0.37966194497E+04  0.35212667653E+04 0.  0.
        4    1    3    3  502    0  0.16993127764E+04  0.31468255426E+03 -0.10724177324E+04  0.20339052159E+04  0.12699999809E+01 0.  1.
       -4    1    3    3    0  502 -0.16993127764E+04 -0.31468255426E+03 -0.34708908813E+03  0.17627142338E+04  0.12699999809E+01 0. -1.
</event>
<event>
 5   0  0.2933506E-07  0.3529225E+04  0.7818609E-02  0.8106899E-01
       -1   -1    0    0    0  501  0.00000000000E+00  0.00000000000E+00  0.24473271618E+04  0.24473271618E+04  0.50400001928E-02 0.  1.
        1   -1    0    0  501    0  0.00000000000E+00  0.00000000000E+00 -0.12723499508E+04  0.12723499508E+04  0.50400001928E-02 0. -1.
    10030    2    1    2    0    0  0.00000000000E+00  0.00000000000E+00  0.11749772110E+04  0.37196771126E+04  0.35292246139E+04 0.  0.
        4    1    3    3  502    0  0.52542655890E+03 -0.68139884466E+02 -0.11865369600E+04  0.12994566876E+04  0.12699999809E+01 0. -1.
       -4    1    3    3    0  502 -0.52542655890E+03  0.68139884466E+02  0.23615141710E+04  0.24202204250E+04  0.12699999809E+01 0.  1.
</event>
<event>
 5   0  0.9311672E-07  0.3511536E+04  0.7818609E-02  0.8111062E-01
        2   -1    0    0  501    0  0.00000000000E+00  0.00000000000E+00  0.22453132442E+04  0.22453132442E+04  0.25500000920E-02 0. -1.
       -2   -1    0    0    0  501  0.00000000000E+00  0.00000000000E+00 -0.13729580319E+04  0.13729580319E+04  0.25500000920E-02 0.  1.
    10030    2    1    2    0    0  0.00000000000E+00  0.00000000000E+00  0.87235521225E+03  0.36182712761E+04  0.35115357625E+04 0.  0.
        4    1    3    3  502    0 -0.10297057866E+04  0.68604013546E+03 -0.84738863843E+03  0.14996713613E+04  0.12699999809E+01 0.  1.
       -4    1    3    3    0  502  0.10297057866E+04 -0.68604013546E+03  0.17197438507E+04  0.21185999149E+04  0.12699999809E+01 0. -1.
</event>
<event>
 5   0  0.2933506E-07  0.3493757E+04  0.7818609E-02  0.8115271E-01
        1   -1    0    0  501    0  0.00000000000E+00  0.00000000000E+00  0.18548155175E+04  0.18548155175E+04  0.50400001928E-02 0. -1.
       -1   -1    0    0    0  501  0.00000000000E+00  0.00000000000E+00 -0.16452224454E+04  0.16452224454E+04  0.50400001928E-02 0.  1.
    10030    2    1    2    0    0  0.00000000000E+00  0.00000000000E+00  0.20959307204E+03  0.35000379629E+04  0.34937567869E+04 0.  0.
        4    1    3    3  502    0  0.11908751345E+04 -0.10696605395E+04 -0.59590733896E+03  0.17080586715E+04  0.12699999809E+01 0.  1.
       -4    1    3    3    0  502 -0.11908751345E+04  0.10696605395E+04  0.80550041100E+03  0.17919792914E+04  0.12699999809E+01 0. -1.
</event>
<event>
 5   0  0.8845195E-07  0.3539920E+04  0.7818609E-02  0.8104394E-01
        2   -1    0    0  501    0  0.00000000000E+00  0.00000000000E+00  0.19845781302E+04  0.19845781302E+04  0.25500000920E-02 0. -1.
       -2   -1    0    0    0  501  0.00000000000E+00  0.00000000000E+00 -0.15785512753E+04  0.15785512753E+04  0.25500000920E-02 0.  1.
    10030    2    1    2    0    0  0.00000000000E+00  0.00000000000E+00  0.40602685487E+03  0.35631294055E+04  0.35399199643E+04 0.  0.
        5    1    3    3  502    0 -0.13674774865E+04  0.11105926097E+04  0.30643375896E+02  0.17619227358E+04  0.46999998093E+01 0. -1.
       -5    1    3    3    0  502  0.13674774865E+04 -0.11105926097E+04  0.37538347897E+03  0.18012066697E+04  0.46999998093E+01 0.  1.
</event>
<event>
 5   0  0.2972541E-07  0.3444620E+04  0.7818609E-02  0.8127041E-01
       -1   -1    0    0    0  501  0.00000000000E+00  0.00000000000E+00  0.14823088744E+04  0.14823088744E+04  0.50400001928E-02 0. -1.
        1   -1    0    0  501    0  0.00000000000E+00  0.00000000000E+00 -0.20011697939E+04  0.20011697939E+04  0.50400001928E-02 0.  1.
    10030    2    1    2    0    0  0.00000000000E+00  0.00000000000E+00 -0.51886091949E+03  0.34834786683E+04  0.34446200050E+04 0.  0.
        3    1    3    3  502    0 -0.58178069141E+03 -0.47555210363E+03  0.13078048687E+04  0.15083010843E+04  0.10100000352E+00 0. -1.
       -3    1    3    3    0  502  0.58178069141E+03  0.47555210363E+03 -0.18266657882E+04  0.19751775840E+04  0.10100000352E+00 0.  1.
</event>
<event>
 5   0  0.8950809E-07  0.3515395E+04  0.7818609E-02  0.8110151E-01
        2   -1    0    0  501    0  0.00000000000E+00  0.00000000000E+00  0.22663990755E+04  0.22663990755E+04  0.25500000920E-02 0. -1.
       -2   -1    0    0    0  501  0.00000000000E+00  0.00000000000E+00 -0.13631760447E+04  0.13631760447E+04  0.25500000920E-02 0.  1.
    10030    2    1    2    0    0  0.00000000000E+00  0.00000000000E+00  0.90322303084E+03  0.36295751202E+04  0.35153952423E+04 0.  0.
        2    1    3    3  502    0  0.26659861140E+03 -0.35971429184E+03  0.22065333803E+04  0.22515014435E+04  0.25500000920E-02 0. -1.
       -2    1    3    3    0  502 -0.26659861140E+03  0.35971429184E+03 -0.13033103495E+04  0.13780736767E+04  0.25500000920E-02 0.  1.
</event>
<event>
 5   0  0.9311672E-07  0.3518427E+04  0.7818609E-02  0.8109437E-01
       -2   -1    0    0    0  501  0.00000000000E+00  0.00000000000E+00  0.16820914771E+04  0.16820914771E+04  0.25500000920E-02 0. -1.
        2   -1    0    0  501    0  0.00000000000E+00  0.00000000000E+00 -0.18398710473E+04  0.18398710473E+04  0.25500000920E-02 0.  1.
    10030    2    1    2    0    0  0.00000000000E+00  0.00000000000E+00 -0.15777957015E+03  0.35219625244E+04  0.35184265845E+04 0.  0.
        4    1    3    3  502    0 -0.10916955577E+04  0.23944093613E+03  0.12810404623E+04  0.17000580671E+04  0.12699999809E+01 0. -1.
       -4    1    3    3    0  502  0.10916955577E+04 -0.23944093613E+03 -0.14388200325E+04  0.18219044573E+04  0.12699999809E+01 0.  1.
</event>
<event>
 5   0  0.8950809E-07  0.3474673E+04  0.7818609E-02  0.8119819E-01
       -2   -1    0    0    0  501  0.00000000000E+00  0.00000000000E+00  0.24410410162E+04  0.24410410162E+04  0.25500000920E-02 0.  1.
        2   -1    0    0  501    0  0.00000000000E+00  0.00000000000E+00 -0.12364960688E+04  0.12364960688E+04  0.25500000920E-02 0. -1.
    10030    2    1    2    0    0  0.00000000000E+00  0.00000000000E+00  0.12045449474E+04  0.36775370850E+04  0.34746727157E+04 0.  0.
        2    1    3    3  502    0  0.15397709248E+04 -0.73457339269E+03  0.94984325935E+03  0.19526122983E+04  0.25500000920E-02 0. -1.
       -2    1    3    3    0  502 -0.15397709248E+04  0.73457339269E+03  0.25470168810E+03  0.17249247867E+04  0.25500000920E-02 0.  1.
</event>
<event>
 5   0  0.2933506E-07  0.3499628E+04  0.7818609E-02  0.8113878E-01
       -1   -1    0    0    0  501  0.00000000000E+00  0.00000000000E+00  0.28598911397E+04  0.28598911398E+04  0.50400001928E-02 0.  1.
        1   -1    0    0  501    0  0.00000000000E+00  0.00000000000E+00 -0.10706170487E+04  0.10706170487E+04  0.50400001928E-02 0. -1.
    10030    2    1    2    0    0  0.00000000000E+00  0.00000000000E+00  0.17892740911E+04  0.39305081885E+04  0.34996275297E+04 0.  0.
        4    1    3    3  502    0 -0.10385739840E+04  0.11011076690E+04  0.18806667746E+04  0.24141216102E+04  0.12699999809E+01 0.  1.
       -4    1    3    3    0  502  0.10385739840E+04 -0.11011076690E+04 -0.91392683518E+02  0.15163865782E+04  0.12699999809E+01 0. -1.
</event>
<event>
 5   0  0.8845195E-07  0.3504476E+04  0.7818609E-02  0.8112730E-01
        2   -1    0    0  501    0  0.00000000000E+00  0.00000000000E+00  0.98551573957E+03  0.98551573957E+03  0.25500000920E-02 0. -1.
       -2   -1    0    0    0  501  0.00000000000E+00  0.00000000000E+00 -0.31154637465E+04  0.31154637465E+04  0.25500000920E-02 0.  1.
    10030    2    1    2    0    0  0.00000000000E+00  0.00000000000E+00 -0.21299480069E+04  0.41009794861E+04  0.35044763137E+04 0.  0.
        5    1    3    3  502    0  0.32611479620E+03 -0.13581505430E+04 -0.23030739508E+04  0.26935284425E+04  0.46999998093E+01 0.  1.
       -5    1    3    3    0  502 -0.32611479620E+03  0.13581505430E+04  0.17312594389E+03  0.14074510436E+04  0.46999998093E+01 0. -1.
</event>
<event>
 5   0  0.8845195E-07  0.3499002E+04  0.7818609E-02  0.8114027E-01
        2   -1    0    0  501    0  0.00000000000E+00  0.00000000000E+00  0.12181463930E+04  0.12181463930E+04  0.25500000920E-02 0.  1.
       -2   -1    0    0    0  501  0.00000000000E+00  0.00000000000E+00 -0.25126319464E+04  0.25126319464E+04  0.25500000920E-02 0. -1.
    10030    2    1    2    0    0  0.00000000000E+00  0.00000000000E+00 -0.12944855534E+04  0.37307783393E+04  0.34990018818E+04 0.  0.
        5    1    3    3  502    0 -0.12330957010E+04  0.75613446383E+03  0.40205248154E+03  0.15013103021E+04  0.46999998093E+01 0.  1.
       -5    1    3    3    0  502  0.12330957010E+04 -0.75613446383E+03 -0.16965380349E+04  0.22294680373E+04  0.46999998093E+01 0. -1.
</event>
<event>
 5   0  0.2933506E-07  0.3496763E+04  0.7818609E-02  0.8114558E-01
        1   -1    0    0  501    0  0.00000000000E+00  0.00000000000E+00  0.17262319811E+04  0.17262319811E+04  0.50400001928E-02 0. -1.
       -1   -1    0    0    0  501  0.00000000000E+00  0.00000000000E+00 -0.17708151201E+04  0.17708151201E+04  0.50400001928E-02 0.  1.
    10030    2    1    2    0    0  0.00000000000E+00  0.00000000000E+00 -0.44583138968E+02  0.34970471012E+04  0.34967628990E+04 0.  0.
        4    1    3    3  502    0 -0.86711554140E+03  0.50410227738E+03 -0.14544790539E+04  0.17667822162E+04  0.12699999809E+01 0.  1.
       -4    1    3    3    0  502  0.86711554140E+03 -0.50410227738E+03  0.14098959150E+04  0.17302648850E+04  0.12699999809E+01 0. -1.
</event>
<event>
 5   0  0.2972541E-07  0.3475050E+04  0.7818609E-02  0.8119728E-01
       -1   -1    0    0    0  501  0.00000000000E+00  0.00000000000E+00  0.16395163391E+04  0.16395163391E+04  0.50400001928E-02 0.  1.
        1   -1    0    0  501    0  0.00000000000E+00  0.00000000000E+00 -0.18413923748E+04  0.18413923748E+04  0.50400001928E-02 0. -1.
    10030    2    1    2    0    0  0.00000000000E+00  0.00000000000E+00 -0.20187603570E+03  0.34809087138E+04  0.34750498615E+04 0.  0.
        3    1    3    3  502    0  0.59085348178E+03 -0.15065480227E+03 -0.17306993154E+04  0.18349727074E+04  0.10100000352E+00 0. -1.
       -3    1    3    3    0  502 -0.59085348178E+03  0.15065480227E+03  0.15288232797E+04  0.16459360064E+04  0.10100000352E+00 0.  1.
</event>
<event>
 5   0  0.2936607E-07  0.3474090E+04  0.7818609E-02  0.8119958E-01
        1   -1    0    0  501    0  0.00000000000E+00  0.00000000000E+00  0.20427125020E+04  0.20427125020E+04  0.50400001928E-02 0.  1.
       -1   -1    0    0    0  501  0.00000000000E+00  0.00000000000E+00 -0.14771168338E+04  0.14771168338E+04  0.50400001928E-02 0. -1.
    10030    2    1    2    0    0  0.00000000000E+00  0.00000000000E+00  0.56559566825E+03  0.35198293358E+04  0.34740898223E+04 0.  0.
        2    1    3    3  502    0  0.55953523383E+03  0.47196517233E+03 -0.13132180077E+04  0.15034534704E+04  0.25500000920E-02 0. -1.
       -2    1    3    3    0  502 -0.55953523383E+03 -0.47196517233E+03  0.18788136760E+04  0.20163758655E+04  0.25500000920E-02 0.  1.
</event>
<event>
 5   0  0.9128871E-07  0.3384640E+04  0.7818609E-02  0.8141686E-01
       -2   -1    0    0    0  501  0.00000000000E+00  0.00000000000E+00  0.12049549699E+04  0.12049549699E+04  0.25500000920E-02 0. -1.
        2   -1    0    0  501    0  0.00000000000E+00  0.00000000000E+00 -0.23768085868E+04  0.23768085868E+04  0.25500000920E-02 0.  1.
    10030    2    1    2    0    0  0.00000000000E+00  0.00000000000E+00 -0.11718536169E+04  0.35817635567E+04  0.33846401990E+04 0.  0.
        1    1    3    3  502    0  0.20312891347E+03  0.25922272950E+02 -0.23636493818E+04  0.23725032602E+04  0.50400001928E-02 0.  1.
       -1    1    3    3    0  502 -0.20312891347E+03 -0.25922272950E+02  0.11917957648E+04  0.12092602965E+04  0.50400001928E-02 0. -1.
</event>
<event>
 5   0  0.2933506E-07  0.3477280E+04  0.7818609E-02  0.8119195E-01
       -1   -1    0    0    0  501  0.00000000000E+00  0.00000000000E+00  0.17336953739E+04  0.17336953739E+04  0.50400001928E-02 0. -1.
        1   -1    0    0  501    0  0.00000000000E+00  0.00000000000E+00 -0.17435987858E+04  0.17435987858E+04  0.50400001928E-02 0.  1.
    10030    2    1    2    0    0  0.00000000000E+00  0.00000000000E+00 -0.99034119374E+01  0.34772941597E+04  0.34772800571E+04 0.  0.
        4    1    3    3  502    0 -0.16800430023E+04 -0.49995568564E+02 -0.44972703576E+03  0.17399138100E+04  0.12699999809E+01 0.  1.
       -4    1    3    3    0  502  0.16800430023E+04  0.49995568564E+02  0.43982362382E+03  0.17373803497E+04  0.12699999809E+01 0. -1.
</event>
<event>
 5   0  0.6188930E-07  0.3480597E+04  0.7818609E-02  0.8118404E-01
        2   -1    0    0  501    0  0.00000000000E+00  0.00000000000E+00  0.23189346865E+04  0.23189346865E+04  0.25500000920E-02 0. -1.
       -2   -1    0    0    0  501  0.00000000000E+00  0.00000000000E+00 -0.13060472599E+04  0.13060472599E+04  0.25500000920E-02 0.  1.
    10030    2    1    2    0    0  0.00000000000E+00  0.00000000000E+00  0.10128874266E+04  0.36249819465E+04  0.34805966691E+04 0.  0.
        3    1    3    3  502    0 -0.16964519847E+04  0.93176567643E+02  0.11397310626E+03  0.17028273807E+04  0.10100000352E+00 0.  1.
       -3    1    3    3    0  502  0.16964519847E+04 -0.93176567643E+02  0.89891432033E+03  0.19221545658E+04  0.10100000352E+00 0. -1.
</event>
<event>
 5   0  0.9128871E-07  0.3389351E+04  0.7818609E-02  0.8140525E-01
       -2   -1    0    0    0  501  0.00000000000E+00  0.00000000000E+00  0.16288589871E+04  0.16288589871E+04  0.25500000920E-02 0.  1.
        2   -1    0    0  501    0  0.00000000000E+00  0.00000000000E+00 -0.17631510971E+04  0.17631510971E+04  0.25500000920E-02 0. -1.
    10030    2    1    2    0    0  0.00000000000E+00  0.00000000000E+00 -0.13429210998E+03  0.33920100842E+04  0.33893506812E+04 0.  0.
        1    1    3    3  502    0 -0.80535856937E+03 -0.21619819154E+03 -0.15436274836E+04  0.17544599999E+04  0.50400001928E-02 0. -1.
       -1    1    3    3    0  502  0.80535856937E+03  0.21619819154E+03  0.14093353736E+04  0.16375500843E+04  0.50400001928E-02 0.  1.
</event>
<event>
 5   0  0.9128871E-07  0.3381192E+04  0.7818609E-02  0.8142538E-01
       -2   -1    0    0    0  501  0.00000000000E+00  0.00000000000E+00  0.10960247303E+04  0.10960247303E+04  0.25500000920E-02 0. -1.
        2   -1    0    0  501    0  0.00000000000E+00  0.00000000000E+00 -0.26077102699E+04  0.26077102699E+04  0.25500000920E-02 0.  1.
    10030    2    1    2    0    0  0.00000000000E+00  0.00000000000E+00 -0.15116855396E+04  0.37037350002E+04  0.33811920651E+04 0.  0.
        1    1    3    3  502    0  0.16745737119E+04 -0.21991803356E+03 -0.67420923570E+03  0.18185486387E+04  0.50400001928E-02 0. -1.
       -1    1    3    3    0  502 -0.16745737119E+04  0.21991803356E+03 -0.83747630388E+03  0.18851863615E+04  0.50400001928E-02 0.  1.
</event>
<event>
 5   0  0.6188930E-07  0.3470239E+04  0.7818609E-02  0.8120879E-01
        2   -1    0    0  501    0  0.00000000000E+00  0.00000000000E+00  0.23513393769E+04  0.23513393769E+04  0.25500000920E-02 0. -1.
       -2   -1    0    0    0  501  0.00000000000E+00  0.00000000000E+00 -0.12803933862E+04  0.12803933862E+04  0.25500000920E-02 0.  1.
    10030    2    1    2    0    0  0.00000000000E+00  0.00000000000E+00  0.10709459906E+04  0.36317327631E+04  0.34702388315E+04 0.  0.
        3    1    3    3  502    0  0.45468708722E+03  0.16643816239E+04  0.34326078716E+03  0.17591857536E+04  0.10100000352E+00 0. -1.
       -3    1    3    3    0  502 -0.45468708722E+03 -0.16643816239E+04  0.72768520346E+03  0.18725470095E+04  0.10100000352E+00 0.  1.
</event>
<event>
 5   0  0.3061330E-07  0.3496610E+04  0.7818609E-02  0.8114594E-01
        1   -1    0    0  501    0  0.00000000000E+00  0.00000000000E+00  0.27181511327E+04  0.27181511327E+04  0.50400001928E-02 0. -1.
       -1   -1    0    0    0  501  0.00000000000E+00  0.00000000000E+00 -0.11245035567E+04  0.11245035567E+04  0.50400001928E-02 0.  1.
    10030    2    1    2    0    0  0.00000000000E+00  0.00000000000E+00  0.15936475760E+04  0.38426546894E+04  0.34966101392E+04 0.  0.
        5    1    3    3  502    0  0.17187415951E+03 -0.95355842963E+03  0.23960866930E+04  0.25845827392E+04  0.46999998093E+01 0. -1.
       -5    1    3    3    0  502 -0.17187415951E+03  0.95355842963E+03 -0.80243911697E+03  0.12580719502E+04  0.46999998093E+01 0.  1.
</event>
<event>
 5   0  0.6188930E-07  0.3504611E+04  0.7818609E-02  0.8112698E-01
        2   -1    0    0  501    0  0.00000000000E+00  0.00000000000E+00  0.17269304773E+04  0.17269304773E+04  0.25500000920E-02 0.  1.
       -2   -1    0    0    0  501  0.00000000000E+00  0.00000000000E+00 -0.17780537221E+04  0.17780537221E+04  0.25500000920E-02 0. -1.
    10030    2    1    2    0    0  0.00000000000E+00  0.00000000000E+00 -0.51123244802E+02  0.35049841993E+04  0.35046113410E+04 0.  0.
        3    1    3    3  502    0  0.16250440249E+04  0.51301550447E+03 -0.43379883039E+03  0.17584465946E+04  0.10100000352E+00 0. -1.
       -3    1    3    3    0  502 -0.16250440249E+04 -0.51301550447E+03  0.38267558558E+03  0.17465376047E+04  0.10100000352E+00 0.  1.
</event>
<event>
 5   0  0.2936607E-07  0.3512817E+04  0.7818609E-02  0.8110759E-01
       -1   -1    0    0    0  501  0.00000000000E+00  0.00000000000E+00  0.19458414413E+04  0.19458414413E+04  0.50400001928E-02 0. -1.
        1   -1    0    0  501    0  0.00000000000E+00  0.00000000000E+00 -0.15854173393E+04  0.15854173393E+04  0.50400001928E-02 0.  1.
    10030    2    1    2    0    0  0.00000000000E+00  0.00000000000E+00  0.36042410199E+03  0.35312587806E+04  0.35128169668E+04 0.  0.
        2    1    3    3  502    0  0.13689543679E+04  0.94116334618E+02  0.12823606011E+04  0.18781221092E+04  0.25500000920E-02 0. -1.
       -2    1    3    3    0  502 -0.13689543679E+04 -0.94116334618E+02 -0.92193649912E+03  0.16531366714E+04  0.25500000920E-02 0.  1.
</event>
<event>
 5   0  0.3026332E-07  0.3514353E+04  0.7818609E-02  0.8110397E-01
        1   -1    0    0  501    0  0.00000000000E+00  0.00000000000E+00  0.21989019218E+04  0.21989019218E+04  0.50400001928E-02 0. -1.
       -1   -1    0    0    0  501  0.00000000000E+00  0.00000000000E+00 -0.14041872289E+04  0.14041872289E+04  0.50400001928E-02 0.  1.
    10030    2    1    2    0    0  0.00000000000E+00  0.00000000000E+00  0.79471469297E+03  0.36030891507E+04  0.35143534234E+04 0.  0.
        1    1    3    3  502    0 -0.10439827677E+04  0.10599338824E+04  0.13560123239E+04  0.20129901334E+04  0.50400001928E-02 0. -1.
       -1    1    3    3    0  502  0.10439827677E+04 -0.10599338824E+04 -0.56129763097E+03  0.15900990173E+04  0.50400001928E-02 0.  1.
</event>
<event>
 5   0  0.3026332E-07  0.2896374E+04  0.7818609E-02  0.8273957E-01
        1   -1    0    0  501    0  0.00000000000E+00  0.00000000000E+00  0.16867456720E+04  0.16867456721E+04  0.50400001928E-02 0. -1.
       -1   -1    0    0    0  501  0.00000000000E+00  0.00000000000E+00 -0.12433677832E+04  0.12433677832E+04  0.50400001928E-02 0.  1.
    10030    2    1    2    0    0  0.00000000000E+00  0.00000000000E+00  0.44337788886E+03  0.29301134553E+04  0.28963737515E+04 0.  0.
        1    1    3    3  502    0  0.27909503414E+03 -0.41502036944E+02 -0.12152901989E+04  0.12476164173E+04  0.50400001928E-02 0.  1.
       -1    1    3    3    0  502 -0.27909503414E+03  0.41502036944E+02  0.16586680878E+04  0.16824970379E+04  0.50400001928E-02 0. -1.
</event>
<event>
 5   0  0.2972541E-07  0.3539614E+04  0.7818609E-02  0.8104466E-01
        1   -1    0    0  501    0  0.00000000000E+00  0.00000000000E+00  0.22974310944E+04  0.22974310944E+04  0.50400001928E-02 0. -1.
       -1   -1    0    0    0  501  0.00000000000E+00  0.00000000000E+00 -0.13633560397E+04  0.13633560397E+04  0.50400001928E-02 0.  1.
    10030    2    1    2    0    0  0.00000000000E+00  0.00000000000E+00  0.93407505463E+03  0.36607871341E+04  0.35396138538E+04 0.  0.
        3    1    3    3  502    0 -0.85450675691E+03 -0.11127302680E+04  0.15827957595E+04  0.21150869659E+04  0.10100000352E+00 0. -1.
       -3    1    3    3    0  502  0.85450675691E+03  0.11127302680E+04 -0.64872070483E+03  0.15457001682E+04  0.10100000352E+00 0.  1.
</event>
<event>
 5   0  0.8950809E-07  0.3391239E+04  0.7818609E-02  0.8140060E-01
        2   -1    0    0  501    0  0.00000000000E+00  0.00000000000E+00  0.18418806667E+04  0.18418806667E+04  0.25500000920E-02 0.  1.
       -2   -1    0    0    0  501  0.00000000000E+00  0.00000000000E+00 -0.15609726076E+04  0.15609726076E+04  0.25500000920E-02 0. -1.
    10030    2    1    2    0    0  0.00000000000E+00  0.00000000000E+00  0.28090805915E+03  0.34028532743E+04  0.33912388693E+04 0.  0.
        2    1    3    3  502    0 -0.31628227680E+03 -0.25788137620E+03 -0.15109613158E+04  0.15651010768E+04  0.25500000920E-02 0. -1.
       -2    1    3    3    0  502  0.31628227680E+03  0.25788137620E+03  0.17918693749E+04  0.18377521975E+04  0.25500000920E-02 0.  1.
</event>
<event>
 5   0  0.3061330E-07  0.3489725E+04  0.7818609E-02  0.8116229E-01
       -1   -1    0    0    0  501  0.00000000000E+00  0.00000000000E+00  0.17754379843E+04  0.17754379843E+04  0.50400001928E-02 0.  1.
        1   -1    0    0  501    0  0.00000000000E+00  0.00000000000E+00 -0.17148133629E+04  0.17148133629E+04  0.50400001928E-02 0. -1.
    10030    2    1    2    0    0  0.00000000000E+00  0.00000000000E+00  0.60624621345E+02  0.34902513472E+04  0.34897247917E+04 0.  0.
        5    1    3    3  502    0 -0.15677894482E+04  0.26615309655E+03  0.74855816636E+03  0.17576013892E+04  0.46999998093E+01 0.  1.
       -5    1    3    3    0  502  0.15677894482E+04 -0.26615309655E+03 -0.68793354502E+03  0.17326499581E+04  0.46999998093E+01 0. -1.
</event>
<event>
 5   0  0.8845195E-07  0.3539342E+04  0.7818609E-02  0.8104529E-01
        2   -1    0    0  501    0  0.00000000000E+00  0.00000000000E+00  0.26136048438E+04  0.26136048438E+04  0.25500000920E-02 0. -1.
       -2   -1    0    0    0  501  0.00000000000E+00  0.00000000000E+00 -0.11982433825E+04  0.11982433825E+04  0.25500000920E-02 0.  1.
    10030    2    1    2    0    0  0.00000000000E+00  0.00000000000E+00  0.14153614614E+04  0.38118482263E+04  0.35393415820E+04 0.  0.
        5    1    3    3  502    0 -0.12488873947E+04  0.82137144782E+03  0.17278966137E+04  0.22847362162E+04  0.46999998093E+01 0. -1.
       -5    1    3    3    0  502  0.12488873947E+04 -0.82137144782E+03 -0.31253515232E+03  0.15271120101E+04  0.46999998093E+01 0.  1.
</event>
<event>
 5   0  0.8845195E-07  0.3528504E+04  0.7818609E-02  0.8107068E-01
        2   -1    0    0  501    0  0.00000000000E+00  0.00000000000E+00  0.28315223148E+04  0.28315223148E+04  0.25500000920E-02 0.  1.
       -2   -1    0    0    0  501  0.00000000000E+00  0.00000000000E+00 -0.10992623777E+04  0.10992623777E+04  0.25500000920E-02 0. -1.
    10030    2    1    2    0    0  0.00000000000E+00  0.00000000000E+00  0.17322599371E+04  0.39307846926E+04  0.35285044721E+04 0.  0.
        5    1    3    3  502    0  0.11218703210E+04  0.78924815325E+03 -0.36989679963E+03  0.14206869454E+04  0.46999998093E+01 0. -1.
       -5    1    3    3    0  502 -0.11218703210E+04 -0.78924815325E+03  0.21021567367E+04  0.25100977471E+04  0.46999998093E+01 0.  1.
</event>
<event>
 5   0  0.8845195E-07  0.3504905E+04  0.7818609E-02  0.8112628E-01
       -2   -1    0    0    0  501  0.00000000000E+00  0.00000000000E+00  0.29922917193E+04  0.29922917193E+04  0.25500000920E-02 0.  1.
        2   -1    0    0  501    0  0.00000000000E+00  0.00000000000E+00 -0.10263338687E+04  0.10263338688E+04  0.25500000920E-02 0. -1.
    10030    2    1    2    0    0  0.00000000000E+00  0.00000000000E+00  0.19659578506E+04  0.40186255881E+04  0.35049053264E+04 0.  0.
        5    1    3    3  502    0 -0.12997224452E+04  0.63884677296E+02  0.23287770917E+04  0.26676927333E+04  0.46999998093E+01 0.  1.
       -5    1    3    3    0  502  0.12997224452E+04 -0.63884677296E+02 -0.36281924110E+03  0.13509328548E+04  0.46999998093E+01 0. -1.
</event>
<event>
 5   0  0.3026332E-07  0.3507654E+04  0.7818609E-02  0.8111978E-01
        1   -1    0    0  501    0  0.00000000000E+00  0.00000000000E+00  0.22135478397E+04  0.22135478397E+04  0.50400001928E-02 0. -1.
       -1   -1    0    0    0  501  0.00000000000E+00  0.00000000000E+00 -0.13895834209E+04  0.13895834209E+04  0.50400001928E-02 0.  1.
    10030    2    1    2    0    0  0.00000000000E+00  0.00000000000E+00  0.82396441877E+03  0.36031312606E+04  0.35076541331E+04 0.  0.
        1    1    3    3  502    0  0.13855652624E+04 -0.55174937774E+03 -0.53600903239E+03  0.15847788979E+04  0.50400001928E-02 0.  1.
       -1    1    3    3    0  502 -0.13855652624E+04  0.55174937774E+03  0.13599734512E+04  0.20183523627E+04  0.50400001928E-02 0. -1.
</event>
<event>
 5   0  0.2936607E-07  0.3481516E+04  0.7818609E-02  0.8118184E-01
        1   -1    0    0  501    0  0.00000000000E+00  0.00000000000E+00  0.17707682710E+04  0.17707682710E+04  0.50400001928E-02 0.  1.
       -1   -1    0    0    0  501  0.00000000000E+00  0.00000000000E+00 -0.17112568086E+04  0.17112568086E+04  0.50400001928E-02 0. -1.
    10030    2    1    2    0    0  0.00000000000E+00  0.00000000000E+00  0.59511462404E+02  0.34820250797E+04  0.34815164859E+04 0.  0.
        2    1    3    3  502    0  0.86126890994E+03 -0.43800858046E+03  0.14779325898E+04  0.17657634020E+04  0.25500000920E-02 0.  1.
       -2    1    3    3    0  502 -0.86126890994E+03  0.43800858046E+03 -0.14184211274E+04  0.17162616777E+04  0.25500000920E-02 0. -1.
</event>
<event>
 5   0  0.9128871E-07  0.3000702E+04  0.7818609E-02  0.8243530E-01
        2   -1    0    0  501    0  0.00000000000E+00  0.00000000000E+00  0.19239482117E+04  0.19239482117E+04  0.25500000920E-02 0. -1.
       -2   -1    0    0    0  501  0.00000000000E+00  0.00000000000E+00 -0.11700176471E+04  0.11700176471E+04  0.25500000920E-02 0.  1.
    10030    2    1    2    0    0  0.00000000000E+00  0.00000000000E+00  0.75393056454E+03  0.30939658588E+04  0.30007021577E+04 0.  0.
        1    1    3    3  502    0 -0.13608975091E+04  0.62210737947E+03  0.48988503077E+03  0.15744989569E+04  0.50400001928E-02 0.  1.
       -1    1    3    3    0  502  0.13608975091E+04 -0.62210737947E+03  0.26404553377E+03  0.15194669019E+04  0.50400001928E-02 0. -1.
</event>
<event>
 5   0  0.9128871E-07  0.3424788E+04  0.7818609E-02  0.8131849E-01
       -2   -1    0    0    0  501  0.00000000000E+00  0.00000000000E+00  0.13751108279E+04  0.13751108279E+04  0.25500000920E-02 0. -1.
        2   -1    0    0  501    0  0.00000000000E+00  0.00000000000E+00 -0.21324054771E+04  0.21324054771E+04  0.25500000920E-02 0.  1.
    10030    2    1    2    0    0  0.00000000000E+00  0.00000000000E+00 -0.75729464921E+03  0.35075163050E+04  0.34247883795E+04 0.  0.
        1    1    3    3  502    0  0.71539144916E+03  0.12430192033E+04 -0.13368828189E+04  0.19606471730E+04  0.50400001928E-02 0.  1.
       -1    1    3    3    0  502 -0.71539144916E+03 -0.12430192033E+04  0.57958816971E+03  0.15468691321E+04  0.50400001928E-02 0. -1.
</event>
<event>
 5   0  0.3061330E-07  0.3495438E+04  0.7818609E-02  0.8114872E-01
        1   -1    0    0  501    0  0.00000000000E+00  0.00000000000E+00  0.23491313733E+04  0.23491313733E+04  0.50400001928E-02 0.  1.
       -1   -1    0    0    0  501  0.00000000000E+00  0.00000000000E+00 -0.13002771324E+04  0.13002771324E+04  0.50400001928E-02 0. -1.
    10030    2    1    2    0    0  0.00000000000E+00  0.00000000000E+00  0.10488542409E+04  0.36494085057E+04  0.34954380587E+04 0.  0.
        5    1    3    3  502    0 -0.88462830328E+03 -0.14472028069E+04  0.96433801365E+03  0.19511363596E+04  0.46999998093E+01 0.  1.
       -5    1    3    3    0  502  0.88462830328E+03  0.14472028069E+04  0.84516227296E+02  0.16982721460E+04  0.46999998093E+01 0. -1.
</event>
<event>
 5   0  0.2936607E-07  0.3427264E+04  0.7818609E-02  0.8131247E-01
       -1   -1    0    0    0  501  0.00000000000E+00  0.00000000000E+00  0.27413008373E+04  0.27413008373E+04  0.50400001928E-02 0.  1.
        1   -1    0    0  501    0  0.00000000000E+00  0.00000000000E+00 -0.10712194153E+04  0.10712194154E+04  0.50400001928E-02 0. -1.
    10030    2    1    2    0    0  0.00000000000E+00  0.00000000000E+00  0.16700814219E+04  0.38125202527E+04  0.34272640285E+04 0.  0.
        2    1    3    3  502    0  0.77833632212E+03  0.80449553477E+03 -0.60831370929E+03  0.12739961007E+04  0.25500000920E-02 0. -1.
       -2    1    3    3    0  502 -0.77833632212E+03 -0.80449553477E+03  0.22783951312E+04  0.25385241519E+04  0.25500000920E-02 0.  1.
</event>
<event>
 5   0  0.6188930E-07  0.3517751E+04  0.7818609E-02  0.8109596E-01
        2   -1    0    0  501    0  0.00000000000E+00  0.00000000000E+00  0.13573572069E+04  0.13573572069E+04  0.25500000920E-02 0. -1.
       -2   -1    0    0    0  501  0.00000000000E+00  0.00000000000E+00 -0.22791663676E+04  0.22791663676E+04  0.25500000920E-02 0.  1.
    10030    2    1    2    0    0  0.00000000000E+00  0.00000000000E+00 -0.92180916070E+03  0.36365235745E+04  0.35177509262E+04 0.  0.
        3    1    3    3  502    0 -0.71599228199E+03  0.15906932745E+04 -0.69365723672E+03  0.18772614132E+04  0.10100000352E+00 0. -1.
       -3    1    3    3    0  502  0.71599228199E+03 -0.15906932745E+04 -0.22815192397E+03  0.17592621612E+04  0.10100000352E+00 0.  1.
</event>
<event>
 5   0  0.2972541E-07  0.3509751E+04  0.7818609E-02  0.8111483E-01
       -1   -1    0    0    0  501  0.00000000000E+00  0.00000000000E+00  0.10737915028E+04  0.10737915028E+04  0.50400001928E-02 0.  1.
        1   -1    0    0  501    0  0.00000000000E+00  0.00000000000E+00 -0.28679567013E+04  0.28679567013E+04  0.50400001928E-02 0. -1.
    10030    2    1    2    0    0  0.00000000000E+00  0.00000000000E+00 -0.17941651985E+04  0.39417482040E+04  0.35097507240E+04 0.  0.
        3    1    3    3  502    0  0.20056756047E+03 -0.13907978968E+04 -0.20776801520E+04  0.25082465908E+04  0.10100000352E+00 0. -1.
       -3    1    3    3    0  502 -0.20056756047E+03  0.13907978968E+04  0.28351495352E+03  0.14335016132E+04  0.10100000352E+00 0.  1.
</event>
<event>
 5   0  0.8845195E-07  0.3415235E+04  0.7818609E-02  0.8134177E-01
       -2   -1    0    0    0  501  0.00000000000E+00  0.00000000000E+00  0.17624220503E+04  0.17624220503E+04  0.25500000920E-02 0. -1.
        2   -1    0    0  501    0  0.00000000000E+00  0.00000000000E+00 -0.16545172184E+04  0.16545172184E+04  0.25500000920E-02 0.  1.
    10030    2    1    2    0    0  0.00000000000E+00  0.00000000000E+00  0.10790483186E+03  0.34169392687E+04  0.34152350598E+04 0.  0.
        5    1    3    3  502    0 -0.10762809566E+04  0.31076708336E+03  0.13433851352E+04  0.17491891233E+04  0.46999998093E+01 0. -1.
       -5    1    3    3    0  502  0.10762809566E+04 -0.31076708336E+03 -0.12354803033E+04  0.16677501454E+04  0.46999998093E+01 0.  1.
</event>
<event>
 5   0  0.8845195E-07  0.3523085E+04  0.7818609E-02  0.8108341E-01
        2   -1    0    0  501    0  0.00000000000E+00  0.00000000000E+00  0.19326710078E+04  0.19326710078E+04  0.25500000920E-02 0. -1.
       -2   -1    0    0    0  501  0.00000000000E+00  0.00000000000E+00 -0.16055664882E+04  0.16055664882E+04  0.25500000920E-02 0.  1.
    10030    2    1    2    0    0  0.00000000000E+00  0.00000000000E+00  0.32710451959E+03  0.35382374960E+04  0.35230848998E+04 0.  0.
        5    1    3    3  502    0  0.88940079448E+02  0.49002841904E+03  0.18604855199E+04  0.19259975724E+04  0.46999998093E+01 0. -1.
       -5    1    3    3    0  502 -0.88940079448E+02 -0.49002841904E+03 -0.15333810003E+04  0.16122399236E+04  0.46999998093E+01 0.  1.
</event>
<event>
 5   0  0.9128871E-07  0.3501847E+04  0.7818609E-02  0.8113352E-01
        2   -1    0    0  501    0  0.00000000000E+00  0.00000000000E+00  0.21091238821E+04  0.21091238821E+04  0.25500000920E-02 0.  1.
       -2   -1    0    0    0  501  0.00000000000E+00  0.00000000000E+00 -0.14535573203E+04  0.14535573203E+04  0.25500000920E-02 0. -1.
    10030    2    1    2    0    0  0.00000000000E+00  0.00000000000E+00  0.65556656173E+03  0.35626812024E+04  0.35018466319E+04 0.  0.
        1    1    3    3  502    0  0.11318541919E+04  0.80522664502E+03  0.14122507291E+04  0.19808927239E+04  0.50400001928E-02 0.  1.
       -1    1    3    3    0  502 -0.11318541919E+04 -0.80522664502E+03 -0.75668416741E+03  0.15817884785E+04  0.50400001928E-02 0. -1.
</event>
<event>
 5   0  0.2936607E-07  0.3428431E+04  0.7818609E-02  0.8130964E-01
        1   -1    0    0  501    0  0.00000000000E+00  0.00000000000E+00  0.15331529504E+04  0.15331529504E+04  0.50400001928E-02 0. -1.
       -1   -1    0    0    0  501  0.00000000000E+00  0.00000000000E+00 -0.19166606886E+04  0.19166606886E+04  0.50400001928E-02 0.  1.
    10030    2    1    2    0    0  0.00000000000E+00  0.00000000000E+00 -0.38350773821E+03  0.34498136391E+04  0.34284305388E+04 0.  0.
        2    1    3    3  502    0 -0.16802600591E+04  0.33088023944E+03 -0.11526403325E+03  0.17164036228E+04  0.25500000920E-02 0.  1.
       -2    1    3    3    0  502  0.16802600591E+04 -0.33088023944E+03 -0.26824370496E+03  0.17334100162E+04  0.25500000920E-02 0. -1.
</event>
<event>
 5   0  0.3061330E-07  0.3538501E+04  0.7818609E-02  0.8104726E-01
        1   -1    0    0  501    0  0.00000000000E+00  0.00000000000E+00  0.26946574219E+04  0.26946574219E+04  0.50400001928E-02 0.  1.
       -1   -1    0    0    0  501  0.00000000000E+00  0.00000000000E+00 -0.11616494347E+04  0.11616494347E+04  0.50400001928E-02 0. -1.
    10030    2    1    2    0    0  0.00000000000E+00  0.00000000000E+00  0.15330079872E+04  0.38563068567E+04  0.35385009656E+04 0.  0.
        5    1    3    3  502    0 -0.12587294137E+04 -0.11746331501E+03  0.21154221214E+04  0.24643924624E+04  0.46999998093E+01 0.  1.
       -5    1    3    3    0  502  0.12587294137E+04  0.11746331501E+03 -0.58241413415E+03  0.13919143942E+04  0.46999998093E+01 0. -1.
</event>
<event>
 5   0  0.2972541E-07  0.3526042E+04  0.7818609E-02  0.8107646E-01
       -1   -1    0    0    0  501  0.00000000000E+00  0.00000000000E+00  0.21100917086E+04  0.21100917086E+04  0.50400001928E-02 0. -1.
        1   -1    0    0  501    0  0.00000000000E+00  0.00000000000E+00 -0.14730368786E+04  0.14730368786E+04  0.50400001928E-02 0.  1.
    10030    2    1    2    0    0  0.00000000000E+00  0.00000000000E+00  0.63705483003E+03  0.35831285873E+04  0.35260419193E+04 0.  0.
        3    1    3    3  502    0 -0.28272412598E+03 -0.11689099198E+04 -0.99151437289E+03  0.15586481623E+04  0.10100000352E+00 0.  1.
       -3    1    3    3    0  502  0.28272412598E+03  0.11689099198E+04  0.16285692029E+04  0.20244804249E+04  0.10100000352E+00 0. -1.
</event>
<event>
 5   0  0.3026332E-07  0.3533836E+04  0.7818609E-02  0.8105818E-01
        1   -1    0    0  501    0  0.00000000000E+00  0.00000000000E+00  0.27505500741E+04  0.27505500741E+04  0.50400001928E-02 0.  1.
       -1   -1    0    0    0  501  0.00000000000E+00  0.00000000000E+00 -0.11350451371E+04  0.11350451371E+04  0.50400001928E-02 0. -1.
    10030    2    1    2    0    0  0.00000000000E+00  0.00000000000E+00  0.16155049369E+04  0.38855952112E+04  0.35338355853E+04 0.  0.
        1    1    3    3  502    0  0.16694015869E+04 -0.57631856426E+03  0.86751064817E+03  0.19676431258E+04  0.50400001928E-02 0.  1.
       -1    1    3    3    0  502 -0.16694015869E+04  0.57631856426E+03  0.74799428878E+03  0.19179520854E+04  0.50400001928E-02 0. -1.
</event>
<event>
 5   0  0.3061330E-07  0.3513972E+04  0.7818609E-02  0.8110487E-01
       -1   -1    0    0    0  501  0.00000000000E+00  0.00000000000E+00  0.13354291474E+04  0.13354291474E+04  0.50400001928E-02 0.  1.
        1   -1    0    0  501    0  0.00000000000E+00  0.00000000000E+00 -0.23116160691E+04  0.23116160691E+04  0.50400001928E-02 0. -1.
    10030    2    1    2    0    0  0.00000000000E+00  0.00000000000E+00 -0.97618692168E+03  0.36470452165E+04  0.35139718134E+04 0.  0.
        5    1    3    3  502    0  0.12507027663E+04 -0.11834813110E+04 -0.12544452066E+03  0.17264541236E+04  0.46999998093E+01 0.  1.
       -5    1    3    3    0  502 -0.12507027663E+04  0.11834813110E+04 -0.85074240101E+03  0.19205910929E+04  0.46999998093E+01 0. -1.
</event>
<event>
 5   0  0.2936607E-07  0.3513814E+04  0.7818609E-02  0.8110524E-01
        1   -1    0    0  501    0  0.00000000000E+00  0.00000000000E+00  0.29509103904E+04  0.29509103904E+04  0.50400001928E-02 0. -1.
       -1   -1    0    0    0  501  0.00000000000E+00  0.00000000000E+00 -0.10460234785E+04  0.10460234785E+04  0.50400001928E-02 0.  1.
    10030    2    1    2    0    0  0.00000000000E+00  0.00000000000E+00  0.19048869120E+04  0.39969338689E+04  0.35138136270E+04 0.  0.
        2    1    3    3  502    0  0.84201800579E+03 -0.14770079385E+04  0.14562569853E+04  0.22385779369E+04  0.25500000920E-02 0. -1.
       -2    1    3    3    0  502 -0.84201800579E+03  0.14770079385E+04  0.44862992666E+03  0.17583559320E+04  0.25500000920E-02 0.  1.
</event>
<event>
 5   0  0.2972541E-07  0.3729217E+04  0.7818609E-02  0.8061518E-01
       -1   -1    0    0    0  501  0.00000000000E+00  0.00000000000E+00  0.20045209246E+04  0.20045209246E+04  0.50400001928E-02 0. -1.
        1   -1    0    0  501    0  0.00000000000E+00  0.00000000000E+00 -0.17344616235E+04  0.17344616235E+04  0.50400001928E-02 0.  1.
    10030    2    1    2    0    0  0.00000000000E+00  0.00000000000E+00  0.27005930111E+03  0.37389825482E+04  0.37292168708E+04 0.  0.
        3    1    3    3  502    0  0.99633062054E+03 -0.63380731175E+03  0.15818533079E+04  0.19739924801E+04  0.10100000352E+00 0. -1.
       -3    1    3    3    0  502 -0.99633062054E+03  0.63380731175E+03 -0.13117940068E+04  0.17649900680E+04  0.10100000352E+00 0.  1.
</event>
<event>
 5   0  0.9311672E-07  0.3514388E+04  0.7818609E-02  0.8110389E-01
        2   -1    0    0  501    0  0.00000000000E+00  0.00000000000E+00  0.21299855736E+04  0.21299855736E+04  0.25500000920E-02 0. -1.
       -2   -1    0    0    0  501  0.00000000000E+00  0.00000000000E+00 -0.14496483999E+04  0.14496483999E+04  0.25500000920E-02 0.  1.
    10030    2    1    2    0    0  0.00000000000E+00  0.00000000000E+00  0.68033717368E+03  0.35796339736E+04  0.35143876728E+04 0.  0.
        4    1    3    3  502    0  0.83877029832E+03  0.16941740033E+03  0.19034229553E+04  0.20869255925E+04  0.12699999809E+01 0. -1.
       -4    1    3    3    0  502 -0.83877029832E+03 -0.16941740033E+03 -0.12230857816E+04  0.14927083811E+04  0.12699999809E+01 0.  1.
</event>
<event>
 5   0  0.2972541E-07  0.3486456E+04  0.7818609E-02  0.8117007E-01
        1   -1    0    0  501    0  0.00000000000E+00  0.00000000000E+00  0.25630345361E+04  0.25630345361E+04  0.50400001928E-02 0. -1.
       -1   -1    0    0    0  501  0.00000000000E+00  0.00000000000E+00 -0.11856433004E+04  0.11856433005E+04  0.50400001928E-02 0.  1.
    10030    2    1    2    0    0  0.00000000000E+00  0.00000000000E+00  0.13773912357E+04  0.37486778366E+04  0.34864564971E+04 0.  0.
        3    1    3    3  502    0 -0.12223090230E+04 -0.55611225612E+03 -0.50645617864E+03  0.14351996586E+04  0.10100000352E+00 0.  1.
       -3    1    3    3    0  502  0.12223090230E+04  0.55611225612E+03  0.18838474143E+04  0.23134781779E+04  0.10100000352E+00 0. -1.
</event>
<event>
 5   0  0.6188930E-07  0.3458804E+04  0.7818609E-02  0.8123623E-01
        2   -1    0    0  501    0  0.00000000000E+00  0.00000000000E+00  0.25065158671E+04  0.25065158671E+04  0.25500000920E-02 0. -1.
       -2   -1    0    0    0  501  0.00000000000E+00  0.00000000000E+00 -0.11932225634E+04  0.11932225634E+04  0.25500000920E-02 0.  1.
    10030    2    1    2    0    0  0.00000000000E+00  0.00000000000E+00  0.13132933037E+04  0.36997384305E+04  0.34588040061E+04 0.  0.
        3    1    3    3  502    0 -0.11585156958E+04 -0.98095231143E+03 -0.22956071784E+03  0.15352928672E+04  0.10100000352E+00 0.  1.
       -3    1    3    3    0  502  0.11585156958E+04  0.98095231143E+03  0.15428540215E+04  0.21644455633E+04  0.10100000352E+00 0. -1.
</event>
<event>
 5   0  0.6188930E-07  0.3345311E+04  0.7818609E-02  0.8151461E-01
       -2   -1    0    0    0  501  0.00000000000E+00  0.00000000000E+00  0.16119321958E+04  0.16119321958E+04  0.25500000920E-02 0.  1.
        2   -1    0    0  501    0  0.00000000000E+00  0.00000000000E+00 -0.17356668303E+04  0.17356668303E+04  0.25500000920E-02 0. -1.
    10030    2    1    2    0    0  0.00000000000E+00  0.00000000000E+00 -0.12373463444E+03  0.33475990261E+04  0.33453114922E+04 0.  0.
        3    1    3    3  502    0  0.40421703591E+03 -0.12414518591E+04  0.98440160564E+03  0.16351271088E+04  0.10100000352E+00 0.  1.
       -3    1    3    3    0  502 -0.40421703591E+03  0.12414518591E+04 -0.11081362401E+04  0.17124719173E+04  0.10100000352E+00 0. -1.
</event>
<event>
 5   0  0.8845195E-07  0.3495594E+04  0.7818609E-02  0.8114835E-01
        2   -1    0    0  501    0  0.00000000000E+00  0.00000000000E+00  0.26001322105E+04  0.26001322105E+04  0.25500000920E-02 0.  1.
       -2   -1    0    0    0  501  0.00000000000E+00  0.00000000000E+00 -0.11748608958E+04  0.11748608958E+04  0.25500000920E-02 0. -1.
    10030    2    1    2    0    0  0.00000000000E+00  0.00000000000E+00  0.14252713147E+04  0.37749931064E+04  0.34955936023E+04 0.  0.
        5    1    3    3  502    0 -0.51018863910E+03 -0.11544696499E+04 -0.59299765740E+03  0.13945468553E+04  0.46999998093E+01 0. -1.
       -5    1    3    3    0  502  0.51018863910E+03  0.11544696499E+04  0.20182689721E+04  0.23804462510E+04  0.46999998093E+01 0.  1.
</event>
<event>
 5   0  0.8845195E-07  0.3518314E+04  0.7818609E-02  0.8109463E-01
        2   -1    0    0  501    0  0.00000000000E+00  0.00000000000E+00  0.18068878283E+04  0.18068878283E+04  0.25500000920E-02 0.  1.
       -2   -1    0    0    0  501  0.00000000000E+00  0.00000000000E+00 -0.17126870383E+04  0.17126870383E+04  0.25500000920E-02 0. -1.
    10030    2    1    2    0    0  0.00000000000E+00  0.00000000000E+00  0.94200789944E+02  0.35195748666E+04  0.35183140072E+04 0.  0.
        5    1    3    3  502    0  0.94961304033E+03 -0.13311361260E+04 -0.60191786957E+03  0.17424165759E+04  0.46999998093E+01 0. -1.
       -5    1    3    3    0  502 -0.94961304033E+03  0.13311361260E+04  0.69611865952E+03  0.17771582907E+04  0.46999998093E+01 0.  1.
</event>
<event>
 5   0  0.3061330E-07  0.2907136E+04  0.7818609E-02  0.8270758E-01
        1   -1    0    0  501    0  0.00000000000E+00  0.00000000000E+00  0.20081267619E+04  0.20081267619E+04  0.50400001928E-02 0. -1.
       -1   -1    0    0    0  501  0.00000000000E+00  0.00000000000E+00 -0.10521543350E+04  0.10521543350E+04  0.50400001928E-02 0.  1.
    10030    2    1    2    0    0  0.00000000000E+00  0.00000000000E+00  0.95597242687E+03  0.30602810969E+04  0.29071355509E+04 0.  0.
        5    1    3    3  502    0 -0.92928608636E+03 -0.10045644167E+04  0.99381501082E+03  0.16912754546E+04  0.46999998093E+01 0. -1.
       -5    1    3    3    0  502  0.92928608636E+03  0.10045644167E+04 -0.37842583947E+02  0.13690056423E+04  0.46999998093E+01 0.  1.
</event>
<event>
 5   0  0.2936607E-07  0.3522199E+04  0.7818609E-02  0.8108549E-01
       -1   -1    0    0    0  501  0.00000000000E+00  0.00000000000E+00  0.16583846582E+04  0.16583846582E+04  0.50400001928E-02 0. -1.
        1   -1    0    0  501    0  0.00000000000E+00  0.00000000000E+00 -0.18701766307E+04  0.18701766307E+04  0.50400001928E-02 0.  1.
    10030    2    1    2    0    0  0.00000000000E+00  0.00000000000E+00 -0.21179197247E+03  0.35285612889E+04  0.35221994449E+04 0.  0.
        2    1    3    3  502    0  0.13260341274E+04  0.16782107377E+02 -0.12667918993E+04  0.18339601583E+04  0.25500000920E-02 0.  1.
       -2    1    3    3    0  502 -0.13260341274E+04 -0.16782107377E+02  0.10549999269E+04  0.16946011306E+04  0.25500000920E-02 0. -1.
</event>
<event>
 5   0  0.8845195E-07  0.3489848E+04  0.7818609E-02  0.8116200E-01
        2   -1    0    0  501    0  0.00000000000E+00  0.00000000000E+00  0.24794075573E+04  0.24794075573E+04  0.25500000920E-02 0. -1.
       -2   -1    0    0    0  501  0.00000000000E+00  0.00000000000E+00 -0.12280189977E+04  0.12280189977E+04  0.25500000920E-02 0.  1.
    10030    2    1    2    0    0  0.00000000000E+00  0.00000000000E+00  0.12513885596E+04  0.37074265550E+04  0.34898478955E+04 0.  0.
        5    1    3    3  502    0 -0.16358548130E+04  0.58594478769E+03  0.45643339436E+03  0.17965816978E+04  0.46999998093E+01 0.  1.
       -5    1    3    3    0  502  0.16358548130E+04 -0.58594478769E+03  0.79495516527E+03  0.19108448572E+04  0.46999998093E+01 0. -1.
</event>
<event>
 5   0  0.9128871E-07  0.3517264E+04  0.7818609E-02  0.8109711E-01
       -2   -1    0    0    0  501  0.00000000000E+00  0.00000000000E+00  0.15386490220E+04  0.15386490220E+04  0.25500000920E-02 0. -1.
        2   -1    0    0  501    0  0.00000000000E+00  0.00000000000E+00 -0.20100664641E+04  0.20100664641E+04  0.25500000920E-02 0.  1.
    10030    2    1    2    0    0  0.00000000000E+00  0.00000000000E+00 -0.47141744207E+03  0.35487154861E+04  0.35172641636E+04 0.  0.
        1    1    3    3  502    0  0.68806349061E+03  0.17810515587E+03 -0.18587053500E+04  0.19899593945E+04  0.50400001928E-02 0.  1.
       -1    1    3    3    0  502 -0.68806349061E+03 -0.17810515587E+03  0.13872879079E+04  0.15587560916E+04  0.50400001928E-02 0. -1.
</event>
<event>
 5   0  0.2936607E-07  0.3273415E+04  0.7818609E-02  0.8169693E-01
        1   -1    0    0  501    0  0.00000000000E+00  0.00000000000E+00  0.23206058875E+04  0.23206058875E+04  0.50400001928E-02 0.  1.
       -1   -1    0    0    0  501  0.00000000000E+00  0.00000000000E+00 -0.11543587505E+04  0.11543587505E+04  0.50400001928E-02 0. -1.
    10030    2    1    2    0    0  0.00000000000E+00  0.00000000000E+00  0.11662471370E+04  0.34749646380E+04  0.32734151663E+04 0.  0.
        2    1    3    3  502    0  0.24203698039E+03  0.15471259122E+04  0.10884932363E+04  0.19070915063E+04  0.25500000920E-02 0.  1.
       -2    1    3    3    0  502 -0.24203698039E+03 -0.15471259122E+04  0.77753900753E+02  0.15678731317E+04  0.25500000920E-02 0. -1.
</event>
<event>
 5   0  0.9128871E-07  0.3488427E+04  0.7818609E-02  0.8116538E-01
       -2   -1    0    0    0  501  0.00000000000E+00  0.00000000000E+00  0.12852095790E+04  0.12852095791E+04  0.25500000920E-02 0.  1.
        2   -1    0    0  501    0  0.00000000000E+00  0.00000000000E+00 -0.23671472232E+04  0.23671472232E+04  0.25500000920E-02 0. -1.
    10030    2    1    2    0    0  0.00000000000E+00  0.00000000000E+00 -0.10819376442E+04  0.36523568023E+04  0.34884267436E+04 0.  0.
        1    1    3    3  502    0  0.53823014900E+03 -0.10869417477E+04 -0.18533255261E+04  0.22149378235E+04  0.50400001928E-02 0. -1.
       -1    1    3    3    0  502 -0.53823014900E+03  0.10869417477E+04  0.77138788192E+03  0.14374189788E+04  0.50400001928E-02 0.  1.
</event>
<event>
 5   0  0.2933506E-07  0.3476238E+04  0.7818609E-02  0.8119444E-01
        1   -1    0    0  501    0  0.00000000000E+00  0.00000000000E+00  0.14251892077E+04  0.14251892077E+04  0.50400001928E-02 0.  1.
       -1   -1    0    0    0  501  0.00000000000E+00  0.00000000000E+00 -0.21197592481E+04  0.21197592481E+04  0.50400001928E-02 0. -1.
    10030    2    1    2    0    0  0.00000000000E+00  0.00000000000E+00 -0.69457004038E+03  0.35449484557E+04  0.34762381985E+04 0.  0.
        4    1    3    3  502    0  0.46387381894E+03 -0.34040844417E+03 -0.20198249776E+04  0.21001788928E+04  0.12699999809E+01 0. -1.
       -4    1    3    3    0  502 -0.46387381894E+03  0.34040844417E+03  0.13252549372E+04  0.14447695630E+04  0.12699999809E+01 0.  1.
</event>
<event>
 5   0  0.2907000E-07  0.3571401E+04  0.7818609E-02  0.8097074E-01
       -3   -1    0    0    0  501  0.00000000000E+00  0.00000000000E+00  0.12787527526E+04  0.12787527566E+04  0.10100000352E+00 0.  1.
        3   -1    0    0  501    0  0.00000000000E+00  0.00000000000E+00 -0.24936226400E+04  0.24936226420E+04  0.10100000352E+00 0. -1.
    10030    2    1    2    0    0  0.00000000000E+00  0.00000000000E+00 -0.12148698874E+04  0.37723753986E+04  0.35714013083E+04 0.  0.
        4    1    3    3  502    0 -0.14370027427E+02  0.17144082561E+04 -0.11348559992E+04  0.20560403493E+04  0.12699999809E+01 0. -1.
       -4    1    3    3    0  502  0.14370027427E+02 -0.17144082561E+04 -0.80013888229E+02  0.17163350493E+04  0.12699999809E+01 0.  1.
</event>
<event>
 5   0  0.6188930E-07  0.3530054E+04  0.7818609E-02  0.8106704E-01
        2   -1    0    0  501    0  0.00000000000E+00  0.00000000000E+00  0.25481167019E+04  0.25481167019E+04  0.25500000920E-02 0. -1.
       -2   -1    0    0    0  501  0.00000000000E+00  0.00000000000E+00 -0.12225973281E+04  0.12225973281E+04  0.25500000920E-02 0.  1.
    10030    2    1    2    0    0  0.00000000000E+00  0.00000000000E+00  0.13255193738E+04  0.37707140300E+04  0.35300542043E+04 0.  0.
        3    1    3    3  502    0  0.73102995098E+03  0.11555209213E+04  0.18549531504E+04  0.23044488689E+04  0.10100000352E+00 0. -1.
       -3    1    3    3    0  502 -0.73102995098E+03 -0.11555209213E+04 -0.52943377661E+03  0.14662651611E+04  0.10100000352E+00 0.  1.
</event>
<event>
 5   0  0.2933506E-07  0.3201788E+04  0.7818609E-02  0.8188345E-01
       -1   -1    0    0    0  501  0.00000000000E+00  0.00000000000E+00  0.99218352945E+03  0.99218352946E+03  0.50400001928E-02 0.  1.
        1   -1    0    0  501    0  0.00000000000E+00  0.00000000000E+00 -0.25830513106E+04  0.25830513106E+04  0.50400001928E-02 0. -1.
    10030    2    1    2    0    0  0.00000000000E+00  0.00000000000E+00 -0.15908677811E+04  0.35752348401E+04  0.32017876045E+04 0.  0.
        4    1    3    3  502    0 -0.41063368762E+03  0.14786579454E+04 -0.13044661247E+04  0.20141208575E+04  0.12699999809E+01 0.  1.
       -4    1    3    3    0  502  0.41063368762E+03 -0.14786579454E+04 -0.28640165640E+03  0.15611139826E+04  0.12699999809E+01 0. -1.
</event>
<event>
 5   0  0.6188930E-07  0.3486766E+04  0.7818609E-02  0.8116933E-01
        2   -1    0    0  501    0  0.00000000000E+00  0.00000000000E+00  0.22349227854E+04  0.22349227854E+04  0.25500000920E-02 0.  1.
       -2   -1    0    0    0  501  0.00000000000E+00  0.00000000000E+00 -0.13599506475E+04  0.13599506475E+04  0.25500000920E-02 0. -1.
    10030    2    1    2    0    0  0.00000000000E+00  0.00000000000E+00  0.87497213791E+03  0.35948734329E+04  0.34867662320E+04 0.  0.
        3    1    3    3  502    0 -0.86729351701E+03 -0.71724580908E+03  0.18102122538E+04  0.21315506114E+04  0.10100000352E+00 0.  1.
       -3    1    3    3    0  502  0.86729351701E+03  0.71724580908E+03 -0.93524011584E+03  0.14633228215E+04  0.10100000352E+00 0. -1.
</event>
<event>
 5   0  0.9311672E-07  0.3450696E+04  0.7818609E-02  0.8125575E-01
        2   -1    0    0  501    0  0.00000000000E+00  0.00000000000E+00  0.30123026425E+04  0.30123026425E+04  0.25500000920E-02 0.  1.
       -2   -1    0    0    0  501  0.00000000000E+00  0.00000000000E+00 -0.98822291645E+03  0.98822291646E+03  0.25500000920E-02 0. -1.
    10030    2    1    2    0    0  0.00000000000E+00  0.00000000000E+00  0.20240797261E+04  0.40005255590E+04  0.34506964530E+04 0.  0.
        4    1    3    3  502    0  0.60818091247E+03  0.32847412136E+03 -0.82068547440E+03  0.10729890640E+04  0.12699999809E+01 0. -1.
       -4    1    3    3    0  502 -0.60818091247E+03 -0.32847412136E+03  0.28447652005E+04  0.29275364950E+04  0.12699999809E+01 0.  1.
</event>
<event>
 5   0  0.8950809E-07  0.3515973E+04  0.7818609E-02  0.8110015E-01
        2   -1    0    0  501    0  0.00000000000E+00  0.00000000000E+00  0.18400023529E+04  0.18400023529E+04  0.25500000920E-02 0. -1.
       -2   -1    0    0    0  501  0.00000000000E+00  0.00000000000E+00 -0.16796265459E+04  0.16796265459E+04  0.25500000920E-02 0.  1.
    10030    2    1    2    0    0  0.00000000000E+00  0.00000000000E+00  0.16037580697E+03  0.35196288988E+04  0.35159731492E+04 0.  0.
        2    1    3    3  502    0  0.56002029037E+03  0.72020592523E+03  0.15844803885E+04  0.18283592103E+04  0.25500000920E-02 0. -1.
       -2    1    3    3    0  502 -0.56002029037E+03 -0.72020592523E+03 -0.14241045815E+04  0.16912696886E+04  0.25500000920E-02 0.  1.
</event>
<event>
 5   0  0.8950809E-07  0.3466119E+04  0.7818609E-02  0.8121867E-01
       -2   -1    0    0    0  501  0.00000000000E+00  0.00000000000E+00  0.17016030959E+04  0.17016030959E+04  0.25500000920E-02 0.  1.
        2   -1    0    0  501    0  0.00000000000E+00  0.00000000000E+00 -0.17650974594E+04  0.17650974594E+04  0.25500000920E-02 0. -1.
    10030    2    1    2    0    0  0.00000000000E+00  0.00000000000E+00 -0.63494363550E+02  0.34667005553E+04  0.34661190410E+04 0.  0.
        2    1    3    3  502    0 -0.88180767119E+02  0.11755875754E+04  0.12387861002E+04  0.17100798219E+04  0.25500000920E-02 0.  1.
       -2    1    3    3    0  502  0.88180767119E+02 -0.11755875754E+04 -0.13022804638E+04  0.17566207335E+04  0.25500000920E-02 0. -1.
</event>
<event>
 5   0  0.2936607E-07  0.3498907E+04  0.7818609E-02  0.8114049E-01
        1   -1    0    0  501    0  0.00000000000E+00  0.00000000000E+00  0.21445046755E+04  0.21445046755E+04  0.50400001928E-02 0. -1.
       -1   -1    0    0    0  501  0.00000000000E+00  0.00000000000E+00 -0.14271765853E+04  0.14271765853E+04  0.50400001928E-02 0.  1.
    10030    2    1    2    0    0  0.00000000000E+00  0.00000000000E+00  0.71732809022E+03  0.35716812608E+04  0.34989066063E+04 0.  0.
        2    1    3    3  502    0  0.24135704021E+03  0.10544121450E+04  0.17622346873E+04  0.20677304673E+04  0.25500000920E-02 0. -1.
       -2    1    3    3    0  502 -0.24135704021E+03 -0.10544121450E+04 -0.10449065971E+04  0.15039507934E+04  0.25500000920E-02 0.  1.
</event>
<event>
 5   0  0.8950809E-07  0.3472011E+04  0.7818609E-02  0.8120455E-01
        2   -1    0    0  501    0  0.00000000000E+00  0.00000000000E+00  0.15130271802E+04  0.15130271802E+04  0.25500000920E-02 0.  1.
       -2   -1    0    0    0  501  0.00000000000E+00  0.00000000000E+00 -0.19918451696E+04  0.19918451696E+04  0.25500000920E-02 0. -1.
    10030    2    1    2    0    0  0.00000000000E+00  0.00000000000E+00 -0.47881798943E+03  0.35048723498E+04  0.34720114518E+04 0.  0.
        2    1    3    3  502    0  0.33466022794E+03  0.46956892472E+02 -0.19583209060E+04  0.19872652537E+04  0.25500000920E-02 0. -1.
       -2    1    3    3    0  502 -0.33466022794E+03 -0.46956892472E+02  0.14795029165E+04  0.15176070960E+04  0.25500000920E-02 0.  1.
</event>
<event>
 5   0  0.8845195E-07  0.3476591E+04  0.7818609E-02  0.8119360E-01
        2   -1    0    0  501    0  0.00000000000E+00  0.00000000000E+00  0.32017127067E+04  0.32017127067E+04  0.25500000920E-02 0.  1.
       -2   -1    0    0    0  501  0.00000000000E+00  0.00000000000E+00 -0.94376709855E+03  0.94376709855E+03  0.25500000920E-02 0. -1.
    10030    2    1    2    0    0  0.00000000000E+00  0.00000000000E+00  0.22579456081E+04  0.41454798052E+04  0.34765909231E+04 0.  0.
        5    1    3    3  502    0 -0.93708148294E+03 -0.78879288146E+03 -0.34175861379E+03  0.12716669987E+04  0.46999998093E+01 0. -1.
       -5    1    3    3    0  502  0.93708148294E+03  0.78879288146E+03  0.25997042219E+04  0.28738128065E+04  0.46999998093E+01 0.  1.
</event>
<event>
 5   0  0.6188930E-07  0.3501483E+04  0.7818609E-02  0.8113439E-01
        2   -1    0    0  501    0  0.00000000000E+00  0.00000000000E+00  0.18673923580E+04  0.18673923580E+04  0.25500000920E-02 0.  1.
       -2   -1    0    0    0  501  0.00000000000E+00  0.00000000000E+00 -0.16413771501E+04  0.16413771501E+04  0.25500000920E-02 0. -1.
    10030    2    1    2    0    0  0.00000000000E+00  0.00000000000E+00  0.22601520784E+03  0.35087695081E+04  0.35014826269E+04 0.  0.
        3    1    3    3  502    0  0.89517887560E+03 -0.13171998591E+04  0.84166213138E+03  0.18013205827E+04  0.10100000352E+00 0.  1.
       -3    1    3    3    0  502 -0.89517887560E+03  0.13171998591E+04 -0.61564692353E+03  0.17074489254E+04  0.10100000352E+00 0. -1.
</event>
<event>
 5   0  0.6188930E-07  0.3513761E+04  0.7818609E-02  0.8110537E-01
       -2   -1    0    0    0  501  0.00000000000E+00  0.00000000000E+00  0.28787664273E+04  0.28787664273E+04  0.25500000920E-02 0.  1.
        2   -1    0    0  501    0  0.00000000000E+00  0.00000000000E+00 -0.10722054109E+04  0.10722054109E+04  0.25500000920E-02 0. -1.
    10030    2    1    2    0    0  0.00000000000E+00  0.00000000000E+00  0.18065610164E+04  0.39509718382E+04  0.35137609139E+04 0.  0.
        3    1    3    3  502    0 -0.45914015900E+03 -0.13107553673E+04  0.21131462314E+04  0.25286906343E+04  0.10100000352E+00 0.  1.
       -3    1    3    3    0  502  0.45914015900E+03  0.13107553673E+04 -0.30658521495E+03  0.14222812039E+04  0.10100000352E+00 0. -1.
</event>
<event>
 5   0  0.2972541E-07  0.3223775E+04  0.7818609E-02  0.8182566E-01
       -1   -1    0    0    0  501  0.00000000000E+00  0.00000000000E+00  0.12599142728E+04  0.12599142728E+04  0.50400001928E-02 0. -1.
        1   -1    0    0  501    0  0.00000000000E+00  0.00000000000E+00 -0.20621888220E+04  0.20621888220E+04  0.50400001928E-02 0.  1.
    10030    2    1    2    0    0  0.00000000000E+00  0.00000000000E+00 -0.80227454924E+03  0.33221030949E+04  0.32237748868E+04 0.  0.
        3    1    3    3  502    0 -0.13078310915E+04 -0.65884930803E+03 -0.10952365029E+04  0.18286737222E+04  0.10100000352E+00 0.  1.
       -3    1    3    3    0  502  0.13078310915E+04  0.65884930803E+03  0.29296195365E+03  0.14934293727E+04  0.10100000352E+00 0. -1.
</event>
<event>
 5   0  0.2933506E-07  0.3202129E+04  0.7818609E-02  0.8188255E-01
       -1   -1    0    0    0  501  0.00000000000E+00  0.00000000000E+00  0.11788740892E+04  0.11788740892E+04  0.50400001928E-02 0.  1.
        1   -1    0    0  501    0  0.00000000000E+00  0.00000000000E+00 -0.21744546075E+04  0.21744546075E+04  0.50400001928E-02 0. -1.
    10030    2    1    2    0    0  0.00000000000E+00  0.00000000000E+00 -0.99558051830E+03  0.33533286967E+04  0.32021294134E+04 0.  0.
        4    1    3    3  502    0 -0.11295916625E+04 -0.31912591445E+03  0.64247036250E+03  0.13381287131E+04  0.12699999809E+01 0.  1.
       -4    1    3    3    0  502  0.11295916625E+04  0.31912591445E+03 -0.16380508808E+04  0.20151999837E+04  0.12699999809E+01 0. -1.
</event>
<event>
 5   0  0.6188930E-07  0.3477950E+04  0.7818609E-02  0.8119035E-01
        2   -1    0    0  501    0  0.00000000000E+00  0.00000000000E+00  0.18892005373E+04  0.18892005373E+04  0.25500000920E-02 0. -1.
       -2   -1    0    0    0  501  0.00000000000E+00  0.00000000000E+00 -0.16006951607E+04  0.16006951607E+04  0.25500000920E-02 0.  1.
    10030    2    1    2    0    0  0.00000000000E+00  0.00000000000E+00  0.28850537664E+03  0.34898956980E+04  0.34779500615E+04 0.  0.
        3    1    3    3  502    0 -0.15850874783E+04  0.54852310402E+03  0.60479995170E+03  0.17830207237E+04  0.10100000352E+00 0. -1.
       -3    1    3    3    0  502  0.15850874783E+04 -0.54852310402E+03 -0.31629457505E+03  0.17068749743E+04  0.10100000352E+00 0.  1.
</event>
<event>
 5   0  0.8845195E-07  0.3511915E+04  0.7818609E-02  0.8110972E-01
       -2   -1    0    0    0  501  0.00000000000E+00  0.00000000000E+00  0.17255011696E+04  0.17255011696E+04  0.25500000920E-02 0.  1.
        2   -1    0    0  501    0  0.00000000000E+00  0.00000000000E+00 -0.17869509508E+04  0.17869509508E+04  0.25500000920E-02 0. -1.
    10030    2    1    2    0    0  0.00000000000E+00  0.00000000000E+00 -0.61449781229E+02  0.35124521204E+04  0.35119145523E+04 0.  0.
        5    1    3    3  502    0 -0.70462724943E+03  0.46144294968E+03  0.15102687889E+04  0.17292666252E+04  0.46999998093E+01 0.  1.
       -5    1    3    3    0  502  0.70462724943E+03 -0.46144294968E+03 -0.15717185701E+04  0.17831854952E+04  0.46999998093E+01 0. -1.
</event>
<event>
 5   0  0.9311672E-07  0.3117170E+04  0.7818609E-02  0.8211041E-01
       -2   -1    0    0    0  501  0.00000000000E+00  0.00000000000E+00  0.11144288729E+04  0.11144288729E+04  0.25500000920E-02 0. -1.
        2   -1    0    0  501    0  0.00000000000E+00  0.00000000000E+00 -0.21797600038E+04  0.21797600038E+04  0.25500000920E-02 0.  1.
    10030    2    1    2    0    0  0.00000000000E+00  0.00000000000E+00 -0.10653311309E+04  0.32941888767E+04  0.31171701809E+04 0.  0.
        4    1    3    3  502    0 -0.65491526936E+03 -0.95490924891E+03 -0.16351850604E+04  0.20036460462E+04  0.12699999809E+01 0.  1.
       -4    1    3    3    0  502  0.65491526936E+03  0.95490924891E+03  0.56985392946E+03  0.12905428306E+04  0.12699999809E+01 0. -1.
</event>
<event>
 5   0  0.3061330E-07  0.3571143E+04  0.7818609E-02  0.8097134E-01
       -1   -1    0    0    0  501  0.00000000000E+00  0.00000000000E+00  0.12072825528E+04  0.12072825528E+04  0.50400001928E-02 0. -1.
        1   -1    0    0  501    0  0.00000000000E+00  0.00000000000E+00 -0.26408607040E+04  0.26408607040E+04  0.50400001928E-02 0.  1.
    10030    2    1    2    0    0  0.00000000000E+00  0.00000000000E+00 -0.14335781512E+04  0.38481432568E+04  0.35711427036E+04 0.  0.
        5    1    3    3  502    0  0.79632985448E+03 -0.15973858459E+04 -0.66334151608E+03  0.19041604015E+04  0.46999998093E+01 0.  1.
       -5    1    3    3    0  502 -0.79632985448E+03  0.15973858459E+04 -0.77023663517E+03  0.19439828553E+04  0.46999998093E+01 0. -1.
</event>
<event>
 5   0  0.2933506E-07  0.3635162E+04  0.7818609E-02  0.8082485E-01
       -1   -1    0    0    0  501  0.00000000000E+00  0.00000000000E+00  0.13889007627E+04  0.13889007627E+04  0.50400001928E-02 0. -1.
        1   -1    0    0  501    0  0.00000000000E+00  0.00000000000E+00 -0.23785721096E+04  0.23785721096E+04  0.50400001928E-02 0.  1.
    10030    2    1    2    0    0  0.00000000000E+00  0.00000000000E+00 -0.98967134695E+03  0.37674728723E+04  0.36351619590E+04 0.  0.
        4    1    3    3  502    0  0.12431410818E+04  0.53205694117E+03 -0.17535850238E+04  0.22143952643E+04  0.12699999809E+01 0.  1.
       -4    1    3    3    0  502 -0.12431410818E+04 -0.53205694117E+03  0.76391367688E+03  0.15530776080E+04  0.12699999809E+01 0. -1.
</event>
<event>
 5   0  0.9311672E-07  0.3496680E+04  0.7818609E-02  0.8114577E-01
       -2   -1    0    0    0  501  0.00000000000E+00  0.00000000000E+00  0.16331879213E+04  0.16331879213E+04  0.25500000920E-02 0. -1.
        2   -1    0    0  501    0  0.00000000000E+00  0.00000000000E+00 -0.18716115638E+04  0.18716115638E+04  0.25500000920E-02 0.  1.
    10030    2    1    2    0    0  0.00000000000E+00  0.00000000000E+00 -0.23842364242E+03  0.35047994851E+04  0.34966803682E+04 0.  0.
        4    1    3    3  502    0  0.45897262742E+03 -0.14146556013E+04  0.80204443915E+03  0.16897287469E+04  0.12699999809E+01 0. -1.
       -4    1    3    3    0  502 -0.45897262742E+03  0.14146556013E+04 -0.10404680816E+04  0.18150707382E+04  0.12699999809E+01 0.  1.
</event>
<event>
 5   0  0.9128871E-07  0.3491350E+04  0.7818609E-02  0.8115843E-01
        2   -1    0    0  501    0  0.00000000000E+00  0.00000000000E+00  0.22437149857E+04  0.22437149857E+04  0.25500000920E-02 0.  1.
       -2   -1    0    0    0  501  0.00000000000E+00  0.00000000000E+00 -0.13581854359E+04  0.13581854359E+04  0.25500000920E-02 0. -1.
    10030    2    1    2    0    0  0.00000000000E+00  0.00000000000E+00  0.88552954974E+03  0.36019004216E+04  0.34913498913E+04 0.  0.
        1    1    3    3  502    0  0.67402414795E+03  0.49376311021E+03 -0.11385008723E+04  0.14121950281E+04  0.50400001928E-02 0. -1.
       -1    1    3    3    0  502 -0.67402414795E+03 -0.49376311021E+03  0.20240304220E+04  0.21897053935E+04  0.50400001928E-02 0.  1.
</event>
<event>
 5   0  0.8950809E-07  0.3500433E+04  0.7818609E-02  0.8113687E-01
       -2   -1    0    0    0  501  0.00000000000E+00  0.00000000000E+00  0.20178301901E+04  0.20178301901E+04  0.25500000920E-02 0. -1.
        2   -1    0    0  501    0  0.00000000000E+00  0.00000000000E+00 -0.15180950390E+04  0.15180950390E+04  0.25500000920E-02 0.  1.
    10030    2    1    2    0    0  0.00000000000E+00  0.00000000000E+00  0.49973515118E+03  0.35359252291E+04  0.35004331167E+04 0.  0.
        2    1    3    3  502    0 -0.16680444106E+04 -0.17356243363E+03 -0.25597116576E+03  0.16964720192E+04  0.25500000920E-02 0.  1.
       -2    1    3    3    0  502  0.16680444106E+04  0.17356243363E+03  0.75570631694E+03  0.18394532099E+04  0.25500000920E-02 0. -1.
</event>
<event>
 5   0  0.2972541E-07  0.3593862E+04  0.7818609E-02  0.8091899E-01
       -1   -1    0    0    0  501  0.00000000000E+00  0.00000000000E+00  0.18028991076E+04  0.18028991076E+04  0.50400001928E-02 0. -1.
        1   -1    0    0  501    0  0.00000000000E+00  0.00000000000E+00 -0.17909829214E+04  0.17909829214E+04  0.50400001928E-02 0.  1.
    10030    2    1    2    0    0  0.00000000000E+00  0.00000000000E+00  0.11916186249E+02  0.35938820290E+04  0.35938622738E+04 0.  0.
        3    1    3    3  502    0  0.27587199273E+03  0.11985105679E+03  0.17775467510E+04  0.18028150472E+04  0.10100000352E+00 0. -1.
       -3    1    3    3    0  502 -0.27587199273E+03 -0.11985105679E+03 -0.17656305647E+04  0.17910669819E+04  0.10100000352E+00 0.  1.
</event>
<event>
 5   0  0.3061330E-07  0.3491474E+04  0.7818609E-02  0.8115813E-01
       -1   -1    0    0    0  501  0.00000000000E+00  0.00000000000E+00  0.17817515702E+04  0.17817515702E+04  0.50400001928E-02 0. -1.
        1   -1    0    0  501    0  0.00000000000E+00  0.00000000000E+00 -0.17104503934E+04  0.17104503934E+04  0.50400001928E-02 0.  1.
    10030    2    1    2    0    0  0.00000000000E+00  0.00000000000E+00  0.71301176786E+02  0.34922019637E+04  0.34914740007E+04 0.  0.
        5    1    3    3  502    0  0.99319789970E+03  0.36679041441E+03 -0.13526583733E+04  0.17177555242E+04  0.46999998093E+01 0.  1.
       -5    1    3    3    0  502 -0.99319789970E+03 -0.36679041441E+03  0.14239595501E+04  0.17744464394E+04  0.46999998093E+01 0. -1.
</event>
<event>
 5   0  0.2933506E-07  0.3497067E+04  0.7818609E-02  0.8114485E-01
        1   -1    0    0  501    0  0.00000000000E+00  0.00000000000E+00  0.11391887755E+04  0.11391887755E+04  0.50400001928E-02 0. -1.
       -1   -1    0    0    0  501  0.00000000000E+00  0.00000000000E+00 -0.26838123373E+04  0.26838123373E+04  0.50400001928E-02 0.  1.
    10030    2    1    2    0    0  0.00000000000E+00  0.00000000000E+00 -0.15446235618E+04  0.38230011128E+04  0.34970667081E+04 0.  0.
        4    1    3    3  502    0 -0.56831660919E+03 -0.43460963817E+03  0.97185048024E+03  0.12067991858E+04  0.12699999809E+01 0. -1.
       -4    1    3    3    0  502  0.56831660919E+03  0.43460963817E+03 -0.25164740420E+04  0.26162019270E+04  0.12699999809E+01 0.  1.
</event>
<event>
 5   0  0.2936607E-07  0.3524325E+04  0.7818609E-02  0.8108049E-01
        1   -1    0    0  501    0  0.00000000000E+00  0.00000000000E+00  0.97966106278E+03  0.97966106280E+03  0.50400001928E-02 0.  1.
       -1   -1    0    0    0  501  0.00000000000E+00  0.00000000000E+00 -0.31696852723E+04  0.31696852723E+04  0.50400001928E-02 0. -1.
    10030    2    1    2    0    0  0.00000000000E+00  0.00000000000E+00 -0.21900242095E+04  0.41493463351E+04  0.35243253213E+04 0.  0.
        2    1    3    3  502    0  0.14091449581E+04  0.30975793829E+03  0.96131473962E+02  0.14459878124E+04  0.25500000920E-02 0.  1.
       -2    1    3    3    0  502 -0.14091449581E+04 -0.30975793829E+03 -0.22861556834E+04  0.27033585227E+04  0.25500000920E-02 0. -1.
</event>
<event>
 5   0  0.8950809E-07  0.3484227E+04  0.7818609E-02  0.8117538E-01
        2   -1    0    0  501    0  0.00000000000E+00  0.00000000000E+00  0.27793779925E+04  0.27793779925E+04  0.25500000920E-02 0. -1.
       -2   -1    0    0    0  501  0.00000000000E+00  0.00000000000E+00 -0.10919563465E+04  0.10919563465E+04  0.25500000920E-02 0.  1.
    10030    2    1    2    0    0  0.00000000000E+00  0.00000000000E+00  0.16874216460E+04  0.38713343390E+04  0.34842269950E+04 0.  0.
        2    1    3    3  502    0  0.10337043096E+04 -0.11248530959E+04  0.17740697417E+04  0.23411882742E+04  0.25500000920E-02 0. -1.
       -2    1    3    3    0  502 -0.10337043096E+04  0.11248530959E+04 -0.86648095722E+02  0.15301460648E+04  0.25500000920E-02 0.  1.
</event>
<event>
 5   0  0.8845195E-07  0.3453791E+04  0.7818609E-02  0.8124829E-01
       -2   -1    0    0    0  501  0.00000000000E+00  0.00000000000E+00  0.16004376288E+04  0.16004376288E+04  0.25500000920E-02 0.  1.
        2   -1    0    0  501    0  0.00000000000E+00  0.00000000000E+00 -0.18633449704E+04  0.18633449704E+04  0.25500000920E-02 0. -1.
    10030    2    1    2    0    0  0.00000000000E+00  0.00000000000E+00 -0.26290734160E+03  0.34637825992E+04  0.34537906167E+04 0.  0.
        5    1    3    3  502    0  0.44089871006E+03 -0.87863351392E+03  0.12924273024E+04  0.16238161676E+04  0.46999998093E+01 0.  1.
       -5    1    3    3    0  502 -0.44089871006E+03  0.87863351392E+03 -0.15553346440E+04  0.18399664315E+04  0.46999998093E+01 0. -1.
</event>
<event>
 5   0  0.3026332E-07  0.3721768E+04  0.7818609E-02  0.8063155E-01
        1   -1    0    0  501    0  0.00000000000E+00  0.00000000000E+00  0.12345675234E+04  0.12345675234E+04  0.50400001928E-02 0.  1.
       -1   -1    0    0    0  501  0.00000000000E+00  0.00000000000E+00 -0.28049414346E+04  0.28049414346E+04  0.50400001928E-02 0. -1.
    10030    2    1    2    0    0  0.00000000000E+00  0.00000000000E+00 -0.15703739112E+04  0.40395089581E+04  0.37217681821E+04 0.  0.
        1    1    3    3  502    0  0.19578042924E+03 -0.15405748657E+04 -0.18979933183E+04  0.24523620307E+04  0.50400001928E-02 0. -1.
       -1    1    3    3    0  502 -0.19578042924E+03  0.15405748657E+04  0.32761940709E+03  0.15871469274E+04  0.50400001928E-02 0.  1.
</event>
<event>
 5   0  0.9128871E-07  0.3502492E+04  0.7818609E-02  0.8113200E-01
       -2   -1    0    0    0  501  0.00000000000E+00  0.00000000000E+00  0.24920867311E+04  0.24920867311E+04  0.25500000920E-02 0.  1.
        2   -1    0    0  501    0  0.00000000000E+00  0.00000000000E+00 -0.12306401696E+04  0.12306401696E+04  0.25500000920E-02 0. -1.
    10030    2    1    2    0    0  0.00000000000E+00  0.00000000000E+00  0.12614465615E+04  0.37227269007E+04  0.35024917058E+04 0.  0.
        1    1    3    3  502    0 -0.15668255712E+04 -0.78431366035E+02  0.14579742661E+04  0.21416775692E+04  0.50400001928E-02 0.  1.
       -1    1    3    3    0  502  0.15668255712E+04  0.78431366035E+02 -0.19652770465E+03  0.15810493314E+04  0.50400001928E-02 0. -1.
</event>
<event>
 5   0  0.2933506E-07  0.3479539E+04  0.7818609E-02  0.8118656E-01
        1   -1    0    0  501    0  0.00000000000E+00  0.00000000000E+00  0.20874571520E+04  0.20874571520E+04  0.50400001928E-02 0. -1.
       -1   -1    0    0    0  501  0.00000000000E+00  0.00000000000E+00 -0.14499931675E+04  0.14499931675E+04  0.50400001928E-02 0.  1.
    10030    2    1    2    0    0  0.00000000000E+00  0.00000000000E+00  0.63746398450E+03  0.35374503196E+04  0.34795393994E+04 0.  0.
        4    1    3    3  502    0 -0.60116193287E+03 -0.16232783001E+04  0.14156491436E+03  0.17367988792E+04  0.12699999809E+01 0.  1.
       -4    1    3    3    0  502  0.60116193287E+03  0.16232783001E+04  0.49589907014E+03  0.18006514404E+04  0.12699999809E+01 0. -1.
</event>
<event>
 5   0  0.6188930E-07  0.3490612E+04  0.7818609E-02  0.8116018E-01
       -2   -1    0    0    0  501  0.00000000000E+00  0.00000000000E+00  0.20648096892E+04  0.20648096892E+04  0.25500000920E-02 0.  1.
        2   -1    0    0  501    0  0.00000000000E+00  0.00000000000E+00 -0.14752418096E+04  0.14752418096E+04  0.25500000920E-02 0. -1.
    10030    2    1    2    0    0  0.00000000000E+00  0.00000000000E+00  0.58956787955E+03  0.35400514988E+04  0.34906123144E+04 0.  0.
        3    1    3    3  502    0  0.59378276639E+03 -0.23935627357E+03 -0.13518578476E+04  0.14957904431E+04  0.10100000352E+00 0. -1.
       -3    1    3    3    0  502 -0.59378276639E+03  0.23935627357E+03  0.19414257272E+04  0.20442610557E+04  0.10100000352E+00 0.  1.
</event>
<event>
 5   0  0.9128871E-07  0.3429432E+04  0.7818609E-02  0.8130720E-01
       -2   -1    0    0    0  501  0.00000000000E+00  0.00000000000E+00  0.12041859822E+04  0.12041859822E+04  0.25500000920E-02 0.  1.
        2   -1    0    0  501    0  0.00000000000E+00  0.00000000000E+00 -0.24416923203E+04  0.24416923203E+04  0.25500000920E-02 0. -1.
    10030    2    1    2    0    0  0.00000000000E+00  0.00000000000E+00 -0.12375063382E+04  0.36458783025E+04  0.34294324107E+04 0.  0.
        1    1    3    3  502    0  0.20907669979E+03  0.16844825435E+04 -0.87710776773E+03  0.19106314511E+04  0.50400001928E-02 0. -1.
       -1    1    3    3    0  502 -0.20907669979E+03 -0.16844825435E+04 -0.36039857044E+03  0.17352468514E+04  0.50400001928E-02 0.  1.
</event>
<event>
 5   0  0.6188930E-07  0.3491166E+04  0.7818609E-02  0.8115887E-01
       -2   -1    0    0    0  501  0.00000000000E+00  0.00000000000E+00  0.15597104457E+04  0.15597104457E+04  0.25500000920E-02 0. -1.
        2   -1    0    0  501    0  0.00000000000E+00  0.00000000000E+00 -0.19536060969E+04  0.19536060969E+04  0.25500000920E-02 0.  1.
    10030    2    1    2    0    0  0.00000000000E+00  0.00000000000E+00 -0.39389565112E+03  0.35133165426E+04  0.34911659005E+04 0.  0.
        3    1    3    3  502    0  0.14593801141E+04 -0.94720275900E+03 -0.33953818545E+03  0.17726447963E+04  0.10100000352E+00 0. -1.
       -3    1    3    3    0  502 -0.14593801141E+04  0.94720275900E+03 -0.54357465673E+02  0.17406717463E+04  0.10100000352E+00 0.  1.
</event>
<event>
 5   0  0.8845195E-07  0.3522203E+04  0.7818609E-02  0.8108548E-01
        2   -1    0    0  501    0  0.00000000000E+00  0.00000000000E+00  0.30254307957E+04  0.30254307957E+04  0.25500000920E-02 0.  1.
       -2   -1    0    0    0  501  0.00000000000E+00  0.00000000000E+00 -0.10251363056E+04  0.10251363056E+04  0.25500000920E-02 0. -1.
    10030    2    1    2    0    0  0.00000000000E+00  0.00000000000E+00  0.20002944901E+04  0.40505671012E+04  0.35222032586E+04 0.  0.
        5    1    3    3  502    0  0.92041482265E+03  0.91367258301E+03 -0.37000389408E+03  0.13486608196E+04  0.46999998093E+01 0. -1.
       -5    1    3    3    0  502 -0.92041482265E+03 -0.91367258301E+03  0.23702983842E+04  0.27019062816E+04  0.46999998093E+01 0.  1.
</event>
<event>
 5   0  0.8845195E-07  0.3587051E+04  0.7818609E-02  0.8093464E-01
       -2   -1    0    0    0  501  0.00000000000E+00  0.00000000000E+00  0.15242679818E+04  0.15242679818E+04  0.25500000920E-02 0. -1.
        2   -1    0    0  501    0  0.00000000000E+00  0.00000000000E+00 -0.21103462952E+04  0.21103462952E+04  0.25500000920E-02 0.  1.
    10030    2    1    2    0    0  0.00000000000E+00  0.00000000000E+00 -0.58607831345E+03  0.36346142770E+04  0.35870507597E+04 0.  0.
        5    1    3    3  502    0  0.47786284846E+03  0.13655006493E+04  0.78109568181E+03  0.16441038529E+04  0.46999998093E+01 0. -1.
       -5    1    3    3    0  502 -0.47786284846E+03 -0.13655006493E+04 -0.13671739953E+04  0.19905104241E+04  0.46999998093E+01 0.  1.
</event>
<event>
 5   0  0.9128871E-07  0.3521213E+04  0.7818609E-02  0.8108781E-01
        2   -1    0    0  501    0  0.00000000000E+00  0.00000000000E+00  0.16527107554E+04  0.16527107554E+04  0.25500000920E-02 0. -1.
       -2   -1    0    0    0  501  0.00000000000E+00  0.00000000000E+00 -0.18755460758E+04  0.18755460758E+04  0.25500000920E-02 0.  1.
    10030    2    1    2    0    0  0.00000000000E+00  0.00000000000E+00 -0.22283532038E+03  0.35282568312E+04  0.35212129568E+04 0.  0.
        1    1    3    3  502    0  0.31790891971E+02 -0.14504434721E+04 -0.11108789141E+04  0.18272517310E+04  0.50400001928E-02 0.  1.
       -1    1    3    3    0  502 -0.31790891971E+02  0.14504434721E+04  0.88804359369E+03  0.17010051002E+04  0.50400001928E-02 0. -1.
</event>
<event>
 5   0  0.2936607E-07  0.3523157E+04  0.7818609E-02  0.8108324E-01
       -1   -1    0    0    0  501  0.00000000000E+00  0.00000000000E+00  0.14201928188E+04  0.14201928188E+04  0.50400001928E-02 0.  1.
        1   -1    0    0  501    0  0.00000000000E+00  0.00000000000E+00 -0.21850267765E+04  0.21850267765E+04  0.50400001928E-02 0. -1.
    10030    2    1    2    0    0  0.00000000000E+00  0.00000000000E+00 -0.76483395767E+03  0.36052195953E+04  0.35231572981E+04 0.  0.
        2    1    3    3  502    0 -0.33699342108E+03 -0.16375076324E+03  0.13789482762E+04  0.14289426954E+04  0.25500000920E-02 0.  1.
       -2    1    3    3    0  502  0.33699342108E+03  0.16375076324E+03 -0.21437822339E+04  0.21762768998E+04  0.25500000920E-02 0. -1.
</event>
<event>
 5   0  0.9311672E-07  0.3382549E+04  0.7818609E-02  0.8142203E-01
        2   -1    0    0  501    0  0.00000000000E+00  0.00000000000E+00  0.13965698913E+04  0.13965698913E+04  0.25500000920E-02 0.  1.
       -2   -1    0    0    0  501  0.00000000000E+00  0.00000000000E+00 -0.20481676650E+04  0.20481676650E+04  0.25500000920E-02 0. -1.
    10030    2    1    2    0    0  0.00000000000E+00  0.00000000000E+00 -0.65159777367E+03  0.34447375563E+04  0.33825489166E+04 0.  0.
        4    1    3    3  502    0 -0.74828697279E+03 -0.12494332396E+04  0.54988850127E+03  0.15567259844E+04  0.12699999809E+01 0.  1.
       -4    1    3    3    0  502  0.74828697279E+03  0.12494332396E+04 -0.12014862749E+04  0.18880115719E+04  0.12699999809E+01 0. -1.
</event>
<event>
 5   0  0.2972541E-07  0.3539995E+04  0.7818609E-02  0.8104377E-01
        1   -1    0    0  501    0  0.00000000000E+00  0.00000000000E+00  0.19645988128E+04  0.19645988128E+04  0.50400001928E-02 0.  1.
       -1   -1    0    0    0  501  0.00000000000E+00  0.00000000000E+00 -0.15946722677E+04  0.15946722677E+04  0.50400001928E-02 0. -1.
    10030    2    1    2    0    0  0.00000000000E+00  0.00000000000E+00  0.36992654508E+03  0.35592710805E+04  0.35399950531E+04 0.  0.
        3    1    3    3  502    0 -0.13900318054E+04 -0.72501873879E+03  0.10110517950E+04  0.18654935899E+04  0.10100000352E+00 0.  1.
       -3    1    3    3    0  502  0.13900318054E+04  0.72501873879E+03 -0.64112524988E+03  0.16937774906E+04  0.10100000352E+00 0. -1.
</event>
<event>
 5   0  0.6188930E-07  0.3497153E+04  0.7818609E-02  0.8114465E-01
        2   -1    0    0  501    0  0.00000000000E+00  0.00000000000E+00  0.23438745161E+04  0.23438745161E+04  0.25500000920E-02 0. -1.
       -2   -1    0    0    0  501  0.00000000000E+00  0.00000000000E+00 -0.13044725669E+04  0.13044725669E+04  0.25500000920E-02 0.  1.
    10030    2    1    2    0    0  0.00000000000E+00  0.00000000000E+00  0.10394019492E+04  0.36483470830E+04  0.34971531316E+04 0.  0.
        3    1    3    3  502    0 -0.36089621752E+03  0.12554029279E+04 -0.69298213295E+03  0.14786841576E+04  0.10100000352E+00 0.  1.
       -3    1    3    3    0  502  0.36089621752E+03 -0.12554029279E+04  0.17323840822E+04  0.21696629254E+04  0.10100000352E+00 0. -1.
</event>
<event>
 5   0  0.2933506E-07  0.3365655E+04  0.7818609E-02  0.8146387E-01
       -1   -1    0    0    0  501  0.00000000000E+00  0.00000000000E+00  0.12205080686E+04  0.12205080686E+04  0.50400001928E-02 0. -1.
        1   -1    0    0  501    0  0.00000000000E+00  0.00000000000E+00 -0.23202704407E+04  0.23202704407E+04  0.50400001928E-02 0.  1.
    10030    2    1    2    0    0  0.00000000000E+00  0.00000000000E+00 -0.10997623721E+04  0.35407785093E+04  0.33656552373E+04 0.  0.
        4    1    3    3  502    0 -0.37887455423E+03 -0.14245442571E+04 -0.14039312806E+04  0.20356563860E+04  0.12699999809E+01 0.  1.
       -4    1    3    3    0  502  0.37887455423E+03  0.14245442571E+04  0.30416890852E+03  0.15051221233E+04  0.12699999809E+01 0. -1.
</event>
<event>
 5   0  0.9128871E-07  0.3428244E+04  0.7818609E-02  0.8131009E-01
        2   -1    0    0  501    0  0.00000000000E+00  0.00000000000E+00  0.23731241564E+04  0.23731241564E+04  0.25500000920E-02 0. -1.
       -2   -1    0    0    0  501  0.00000000000E+00  0.00000000000E+00 -0.12381208381E+04  0.12381208381E+04  0.25500000920E-02 0.  1.
    10030    2    1    2    0    0  0.00000000000E+00  0.00000000000E+00  0.11350033183E+04  0.36112449945E+04  0.34282441392E+04 0.  0.
        1    1    3    3  502    0 -0.10482087411E+04  0.18269876858E+03  0.19831500295E+04  0.22505564744E+04  0.50400001928E-02 0. -1.
       -1    1    3    3    0  502  0.10482087411E+04 -0.18269876858E+03 -0.84814671114E+03  0.13606885201E+04  0.50400001928E-02 0.  1.
</event>
<event>
 5   0  0.2972541E-07  0.3502642E+04  0.7818609E-02  0.8113164E-01
       -1   -1    0    0    0  501  0.00000000000E+00  0.00000000000E+00  0.14807641691E+04  0.14807641691E+04  0.50400001928E-02 0. -1.
        1   -1    0    0  501    0  0.00000000000E+00  0.00000000000E+00 -0.20713124092E+04  0.20713124092E+04  0.50400001928E-02 0.  1.
    10030    2    1    2    0    0  0.00000000000E+00  0.00000000000E+00 -0.59054824003E+03  0.35520765783E+04  0.35026419735E+04 0.  0.
        3    1    3    3  502    0  0.21825215286E+03  0.15714030392E+03  0.14596985096E+04  0.14842664270E+04  0.10100000352E+00 0. -1.
       -3    1    3    3    0  502 -0.21825215286E+03 -0.15714030392E+03 -0.20502467496E+04  0.20678101513E+04  0.10100000352E+00 0.  1.
</event>
<event>
 5   0  0.2933506E-07  0.3492634E+04  0.7818609E-02  0.8115538E-01
        1   -1    0    0  501    0  0.00000000000E+00  0.00000000000E+00  0.27802182900E+04  0.27802182900E+04  0.50400001928E-02 0. -1.
       -1   -1    0    0    0  501  0.00000000000E+00  0.00000000000E+00 -0.10969006831E+04  0.10969006831E+04  0.50400001928E-02 0.  1.
    10030    2    1    2    0    0  0.00000000000E+00  0.00000000000E+00  0.16833176069E+04  0.38771189732E+04  0.34926341587E+04 0.  0.
        4    1    3    3  502    0 -0.16257246266E+04 -0.60544835695E+03  0.10638794573E+04  0.20350403895E+04  0.12699999809E+01 0. -1.
       -4    1    3    3    0  502  0.16257246266E+04  0.60544835695E+03  0.61943814955E+03  0.18420785837E+04  0.12699999809E+01 0.  1.
</event>
<event>
 5   0  0.6188930E-07  0.3506270E+04  0.7818609E-02  0.8112306E-01
       -2   -1    0    0    0  501  0.00000000000E+00  0.00000000000E+00  0.15320044234E+04  0.15320044234E+04  0.25500000920E-02 0. -1.
        2   -1    0    0  501    0  0.00000000000E+00  0.00000000000E+00 -0.20061836892E+04  0.20061836892E+04  0.25500000920E-02 0.  1.
    10030    2    1    2    0    0  0.00000000000E+00  0.00000000000E+00 -0.47417926583E+03  0.35381881126E+04  0.35062699759E+04 0.  0.
        3    1    3    3  502    0  0.21392323562E+03  0.17340577753E+04 -0.91685056552E+02  0.17496072927E+04  0.10100000352E+00 0. -1.
       -3    1    3    3    0  502 -0.21392323562E+03 -0.17340577753E+04 -0.38249420927E+03  0.17885808199E+04  0.10100000352E+00 0.  1.
</event>
<event>
 5   0  0.3061330E-07  0.3493497E+04  0.7818609E-02  0.8115333E-01
       -1   -1    0    0    0  501  0.00000000000E+00  0.00000000000E+00  0.15902407365E+04  0.15902407365E+04  0.50400001928E-02 0.  1.
        1   -1    0    0  501    0  0.00000000000E+00  0.00000000000E+00 -0.19186595399E+04  0.19186595400E+04  0.50400001928E-02 0. -1.
    10030    2    1    2    0    0  0.00000000000E+00  0.00000000000E+00 -0.32841880344E+03  0.35089002765E+04  0.34934971361E+04 0.  0.
        5    1    3    3  502    0  0.12782960978E+04  0.96897884260E+03  0.53032155112E+03  0.16894448641E+04  0.46999998093E+01 0. -1.
       -5    1    3    3    0  502 -0.12782960978E+04 -0.96897884260E+03 -0.85874035456E+03  0.18194554124E+04  0.46999998093E+01 0.  1.
</event>
<event>
 5   0  0.2972541E-07  0.3493515E+04  0.7818609E-02  0.8115329E-01
        1   -1    0    0  501    0  0.00000000000E+00  0.00000000000E+00  0.20353075785E+04  0.20353075785E+04  0.50400001928E-02 0.  1.
       -1   -1    0    0    0  501  0.00000000000E+00  0.00000000000E+00 -0.14991157453E+04  0.14991157453E+04  0.50400001928E-02 0. -1.
    10030    2    1    2    0    0  0.00000000000E+00  0.00000000000E+00  0.53619183323E+03  0.35344233238E+04  0.34935149277E+04 0.  0.
        3    1    3    3  502    0  0.71233353662E+03 -0.15917319615E+04  0.16625978464E+03  0.17517625498E+04  0.10100000352E+00 0. -1.
       -3    1    3    3    0  502 -0.71233353662E+03  0.15917319615E+04  0.36993204858E+03  0.17826607741E+04  0.10100000352E+00 0.  1.
</event>
<event>
 5   0  0.2936607E-07  0.3516841E+04  0.7818609E-02  0.8109810E-01
        1   -1    0    0  501    0  0.00000000000E+00  0.00000000000E+00  0.94990960333E+03  0.94990960334E+03  0.50400001928E-02 0. -1.
       -1   -1    0    0    0  501  0.00000000000E+00  0.00000000000E+00 -0.32550910661E+04  0.32550910661E+04  0.50400001928E-02 0.  1.
    10030    2    1    2    0    0  0.00000000000E+00  0.00000000000E+00 -0.23051814627E+04  0.42050006694E+04  0.35168407774E+04 0.  0.
        2    1    3    3  502    0  0.11693698362E+04  0.10319932014E+04 -0.21236725439E+04  0.26348474065E+04  0.25500000920E-02 0.  1.
       -2    1    3    3    0  502 -0.11693698362E+04 -0.10319932014E+04 -0.18150891882E+03  0.15701532630E+04  0.25500000920E-02 0. -1.
</event>
<event>
 5   0  0.8950809E-07  0.3505011E+04  0.7818609E-02  0.8112603E-01
       -2   -1    0    0    0  501  0.00000000000E+00  0.00000000000E+00  0.11399709449E+04  0.11399709449E+04  0.25500000920E-02 0.  1.
        2   -1    0    0  501    0  0.00000000000E+00  0.00000000000E+00 -0.26941695858E+04  0.26941695858E+04  0.25500000920E-02 0. -1.
    10030    2    1    2    0    0  0.00000000000E+00  0.00000000000E+00 -0.15541986409E+04  0.38341405307E+04  0.35050107266E+04 0.  0.
        2    1    3    3  502    0  0.25590615296E+03  0.74176693939E+03  0.93707402321E+03  0.12222167878E+04  0.25500000920E-02 0.  1.
       -2    1    3    3    0  502 -0.25590615296E+03 -0.74176693939E+03 -0.24912726641E+04  0.26119237428E+04  0.25500000920E-02 0. -1.
</event>
<event>
 5   0  0.2936607E-07  0.2996495E+04  0.7818609E-02  0.8244732E-01
       -1   -1    0    0    0  501  0.00000000000E+00  0.00000000000E+00  0.19943787768E+04  0.19943787768E+04  0.50400001928E-02 0.  1.
        1   -1    0    0  501    0  0.00000000000E+00  0.00000000000E+00 -0.11255363216E+04  0.11255363216E+04  0.50400001928E-02 0. -1.
    10030    2    1    2    0    0  0.00000000000E+00  0.00000000000E+00  0.86884245518E+03  0.31199150984E+04  0.29964951209E+04 0.  0.
        2    1    3    3  502    0 -0.70599642021E+03 -0.42059733348E+03  0.17387821551E+04  0.19231995333E+04  0.25500000920E-02 0.  1.
       -2    1    3    3    0  502  0.70599642021E+03  0.42059733348E+03 -0.86993969989E+03  0.11967155651E+04  0.25500000920E-02 0. -1.
</event>
<event>
 5   0  0.2936607E-07  0.3511683E+04  0.7818609E-02  0.8111027E-01
        1   -1    0    0  501    0  0.00000000000E+00  0.00000000000E+00  0.21350192650E+04  0.21350192650E+04  0.50400001928E-02 0.  1.
       -1   -1    0    0    0  501  0.00000000000E+00  0.00000000000E+00 -0.14440057024E+04  0.14440057024E+04  0.50400001928E-02 0. -1.
    10030    2    1    2    0    0  0.00000000000E+00  0.00000000000E+00  0.69101356261E+03  0.35790249674E+04  0.35116833532E+04 0.  0.
        2    1    3    3  502    0 -0.10230117479E+04  0.54462348114E+03 -0.99880674269E+03  0.15299616602E+04  0.25500000920E-02 0. -1.
       -2    1    3    3    0  502  0.10230117479E+04 -0.54462348114E+03  0.16898203053E+04  0.20490633071E+04  0.25500000920E-02 0.  1.
</event>
<event>
 5   0  0.3026332E-07  0.3478120E+04  0.7818609E-02  0.8118995E-01
        1   -1    0    0  501    0  0.00000000000E+00  0.00000000000E+00  0.15990715858E+04  0.15990715858E+04  0.50400001928E-02 0. -1.
       -1   -1    0    0    0  501  0.00000000000E+00  0.00000000000E+00 -0.18913039675E+04  0.18913039675E+04  0.50400001928E-02 0.  1.
    10030    2    1    2    0    0  0.00000000000E+00  0.00000000000E+00 -0.29223238165E+03  0.34903755533E+04  0.34781204318E+04 0.  0.
        1    1    3    3  502    0  0.12996254746E+02  0.17187067413E+04 -0.41201899282E+03  0.17674505412E+04  0.50400001928E-02 0.  1.
       -1    1    3    3    0  502 -0.12996254746E+02 -0.17187067413E+04  0.11978661117E+03  0.17229250121E+04  0.50400001928E-02 0. -1.
</event>
<event>
 5   0  0.9128871E-07  0.3510464E+04  0.7818609E-02  0.8111315E-01
        2   -1    0    0  501    0  0.00000000000E+00  0.00000000000E+00  0.15675696277E+04  0.15675696277E+04  0.25500000920E-02 0. -1.
       -2   -1    0    0    0  501  0.00000000000E+00  0.00000000000E+00 -0.19653601815E+04  0.19653601815E+04  0.25500000920E-02 0.  1.
    10030    2    1    2    0    0  0.00000000000E+00  0.00000000000E+00 -0.39779055373E+03  0.35329298092E+04  0.35104637460E+04 0.  0.
        1    1    3    3  502    0  0.15869688933E+04  0.44933231123E+02 -0.95225097072E+03  0.18512890576E+04  0.50400001928E-02 0.  1.
       -1    1    3    3    0  502 -0.15869688933E+04 -0.44933231123E+02  0.55446041699E+03  0.16816407516E+04  0.50400001928E-02 0. -1.
</event>
<event>
 5   0  0.2907000E-07  0.3501278E+04  0.7818609E-02  0.8113487E-01
       -3   -1    0    0    0  501  0.00000000000E+00  0.00000000000E+00  0.18460825216E+04  0.18460825243E+04  0.10100000352E+00 0. -1.
        3   -1    0    0  501    0  0.00000000000E+00  0.00000000000E+00 -0.16601297258E+04  0.16601297288E+04  0.10100000352E+00 0.  1.
    10030    2    1    2    0    0  0.00000000000E+00  0.00000000000E+00  0.18595279577E+03  0.35062122532E+04  0.35012777556E+04 0.  0.
        3    1    3    3  502    0  0.12876914114E+04 -0.11566365450E+03  0.12749827439E+04  0.18157941126E+04  0.10100000352E+00 0. -1.
       -3    1    3    3    0  502 -0.12876914114E+04  0.11566365450E+03 -0.10890299481E+04  0.16904181406E+04  0.10100000352E+00 0.  1.
</event>
<event>
 5   0  0.9311672E-07  0.3493601E+04  0.7818609E-02  0.8115308E-01
        2   -1    0    0  501    0  0.00000000000E+00  0.00000000000E+00  0.23049765227E+04  0.23049765227E+04  0.25500000920E-02 0.  1.
       -2   -1    0    0    0  501  0.00000000000E+00  0.00000000000E+00 -0.13237928918E+04  0.13237928919E+04  0.25500000920E-02 0. -1.
    10030    2    1    2    0    0  0.00000000000E+00  0.00000000000E+00  0.98118363084E+03  0.36287694145E+04  0.34936007423E+04 0.  0.
        4    1    3    3  502    0  0.52768639155E+02  0.12562394798E+04  0.17501030370E+04  0.21549441786E+04  0.12699999809E+01 0.  1.
       -4    1    3    3    0  502 -0.52768639155E+02 -0.12562394798E+04 -0.76891940618E+03  0.14738252359E+04  0.12699999809E+01 0. -1.
</event>
<event>
 5   0  0.3026332E-07  0.3504758E+04  0.7818609E-02  0.8112663E-01
       -1   -1    0    0    0  501  0.00000000000E+00  0.00000000000E+00  0.26372838569E+04  0.26372838569E+04  0.50400001928E-02 0. -1.
        1   -1    0    0  501    0  0.00000000000E+00  0.00000000000E+00 -0.11643919377E+04  0.11643919377E+04  0.50400001928E-02 0.  1.
    10030    2    1    2    0    0  0.00000000000E+00  0.00000000000E+00  0.14728919192E+04  0.38016757947E+04  0.35047579435E+04 0.  0.
        1    1    3    3  502    0  0.83422404899E+03 -0.11898990932E+04 -0.32582660008E+03  0.14892792181E+04  0.50400001928E-02 0. -1.
       -1    1    3    3    0  502 -0.83422404899E+03  0.11898990932E+04  0.17987185193E+04  0.23123965766E+04  0.50400001928E-02 0.  1.
</event>
<event>
 5   0  0.9128871E-07  0.3494948E+04  0.7818609E-02  0.8114988E-01
       -2   -1    0    0    0  501  0.00000000000E+00  0.00000000000E+00  0.13915574170E+04  0.13915574170E+04  0.25500000920E-02 0.  1.
        2   -1    0    0  501    0  0.00000000000E+00  0.00000000000E+00 -0.21944228754E+04  0.21944228754E+04  0.25500000920E-02 0. -1.
    10030    2    1    2    0    0  0.00000000000E+00  0.00000000000E+00 -0.80286545845E+03  0.35859802924E+04  0.34949480273E+04 0.  0.
        1    1    3    3  502    0  0.80453353301E+03 -0.15420919574E+04 -0.22869197292E+03  0.17543152024E+04  0.50400001928E-02 0.  1.
       -1    1    3    3    0  502 -0.80453353301E+03  0.15420919574E+04 -0.57417348553E+03  0.18316650901E+04  0.50400001928E-02 0. -1.
</event>
<event>
 5   0  0.9311672E-07  0.3495908E+04  0.7818609E-02  0.8114760E-01
        2   -1    0    0  501    0  0.00000000000E+00  0.00000000000E+00  0.21213281303E+04  0.21213281303E+04  0.25500000920E-02 0. -1.
       -2   -1    0    0    0  501  0.00000000000E+00  0.00000000000E+00 -0.14402973725E+04  0.14402973725E+04  0.25500000920E-02 0.  1.
    10030    2    1    2    0    0  0.00000000000E+00  0.00000000000E+00  0.68103075778E+03  0.35616255029E+04  0.34959080837E+04 0.  0.
        4    1    3    3  502    0 -0.88893267857E+03 -0.76908425797E+03  0.16585309593E+04  0.20328350791E+04  0.12699999809E+01 0. -1.
       -4    1    3    3    0  502  0.88893267857E+03  0.76908425797E+03 -0.97750020154E+03  0.15287904238E+04  0.12699999809E+01 0.  1.
</event>
<event>
 5   0  0.8845195E-07  0.3486724E+04  0.7818609E-02  0.8116943E-01
       -2   -1    0    0    0  501  0.00000000000E+00  0.00000000000E+00  0.23105194721E+04  0.23105194721E+04  0.25500000920E-02 0.  1.
        2   -1    0    0  501    0  0.00000000000E+00  0.00000000000E+00 -0.13154230639E+04  0.13154230639E+04  0.25500000920E-02 0. -1.
    10030    2    1    2    0    0  0.00000000000E+00  0.00000000000E+00  0.99509640812E+03  0.36259425360E+04  0.34867237363E+04 0.  0.
        5    1    3    3  502    0 -0.56438101972E+03  0.97436477104E+02  0.22098868559E+04  0.22829020584E+04  0.46999998093E+01 0.  1.
       -5    1    3    3    0  502  0.56438101972E+03 -0.97436477104E+02 -0.12147904478E+04  0.13430404776E+04  0.46999998093E+01 0. -1.
</event>
<event>
 5   0  0.9128871E-07  0.3506281E+04  0.7818609E-02  0.8112303E-01
        2   -1    0    0  501    0  0.00000000000E+00  0.00000000000E+00  0.20282372755E+04  0.20282372755E+04  0.25500000920E-02 0.  1.
       -2   -1    0    0    0  501  0.00000000000E+00  0.00000000000E+00 -0.15153560455E+04  0.15153560455E+04  0.25500000920E-02 0. -1.
    10030    2    1    2    0    0  0.00000000000E+00  0.00000000000E+00  0.51288122998E+03  0.35435933210E+04  0.35062810025E+04 0.  0.
        1    1    3    3  502    0  0.60599546161E+03 -0.48502316026E+03  0.18451176108E+04  0.20017334895E+04  0.50400001928E-02 0.  1.
       -1    1    3    3    0  502 -0.60599546161E+03  0.48502316026E+03 -0.13322363808E+04  0.15418598315E+04  0.50400001928E-02 0. -1.
</event>
<event>
 5   0  0.8845195E-07  0.3461147E+04  0.7818609E-02  0.8123060E-01
       -2   -1    0    0    0  501  0.00000000000E+00  0.00000000000E+00  0.22200651524E+04  0.22200651524E+04  0.25500000920E-02 0. -1.
        2   -1    0    0  501    0  0.00000000000E+00  0.00000000000E+00 -0.13490074692E+04  0.13490074692E+04  0.25500000920E-02 0.  1.
    10030    2    1    2    0    0  0.00000000000E+00  0.00000000000E+00  0.87105768322E+03  0.35690726217E+04  0.34611469040E+04 0.  0.
        5    1    3    3  502    0 -0.46416348838E+02  0.16670885098E+04 -0.40966328522E+02  0.16682442588E+04  0.46999998093E+01 0.  1.
       -5    1    3    3    0  502  0.46416348838E+02 -0.16670885098E+04  0.91202401174E+03  0.19008283628E+04  0.46999998093E+01 0. -1.
</event>
<event>
 5   0  0.9128871E-07  0.3453966E+04  0.7818609E-02  0.8124787E-01
        2   -1    0    0  501    0  0.00000000000E+00  0.00000000000E+00  0.19888419671E+04  0.19888419671E+04  0.25500000920E-02 0. -1.
       -2   -1    0    0    0  501  0.00000000000E+00  0.00000000000E+00 -0.14996015510E+04  0.14996015510E+04  0.25500000920E-02 0.  1.
    10030    2    1    2    0    0  0.00000000000E+00  0.00000000000E+00  0.48924041608E+03  0.34884435181E+04  0.34539661252E+04 0.  0.
        1    1    3    3  502    0  0.14535825772E+04 -0.29715662081E+03 -0.64809538546E+03  0.16190219253E+04  0.50400001928E-02 0.  1.
       -1    1    3    3    0  502 -0.14535825772E+04  0.29715662081E+03  0.11373358015E+04  0.18694215928E+04  0.50400001928E-02 0. -1.
</event>
<event>
 5   0  0.2933506E-07  0.3499573E+04  0.7818609E-02  0.8113891E-01
       -1   -1    0    0    0  501  0.00000000000E+00  0.00000000000E+00  0.12744407442E+04  0.12744407442E+04  0.50400001928E-02 0. -1.
        1   -1    0    0  501    0  0.00000000000E+00  0.00000000000E+00 -0.24024287259E+04  0.24024287259E+04  0.50400001928E-02 0.  1.
    10030    2    1    2    0    0  0.00000000000E+00  0.00000000000E+00 -0.11279879817E+04  0.36768694702E+04  0.34995731474E+04 0.  0.
        4    1    3    3  502    0  0.11079972315E+04 -0.12181068918E+04 -0.11858486515E+04  0.20292069638E+04  0.12699999809E+01 0.  1.
       -4    1    3    3    0  502 -0.11079972315E+04  0.12181068918E+04  0.57860669746E+02  0.16476625064E+04  0.12699999809E+01 0. -1.
</event>
<event>
 5   0  0.3026332E-07  0.3520986E+04  0.7818609E-02  0.8108835E-01
        1   -1    0    0  501    0  0.00000000000E+00  0.00000000000E+00  0.24742145911E+04  0.24742145911E+04  0.50400001928E-02 0.  1.
       -1   -1    0    0    0  501  0.00000000000E+00  0.00000000000E+00 -0.12526540248E+04  0.12526540248E+04  0.50400001928E-02 0. -1.
    10030    2    1    2    0    0  0.00000000000E+00  0.00000000000E+00  0.12215605663E+04  0.37268686159E+04  0.35209855812E+04 0.  0.
        1    1    3    3  502    0  0.66562012852E+02  0.40826570930E+03  0.24220450747E+04  0.24571149210E+04  0.50400001928E-02 0.  1.
       -1    1    3    3    0  502 -0.66562012852E+02 -0.40826570930E+03 -0.12004845084E+04  0.12697536949E+04  0.50400001928E-02 0. -1.
</event>
<event>
 5   0  0.9128871E-07  0.3490382E+04  0.7818609E-02  0.8116073E-01
        2   -1    0    0  501    0  0.00000000000E+00  0.00000000000E+00  0.10685120121E+04  0.10685120121E+04  0.25500000920E-02 0.  1.
       -2   -1    0    0    0  501  0.00000000000E+00  0.00000000000E+00 -0.28504042502E+04  0.28504042502E+04  0.25500000920E-02 0. -1.
    10030    2    1    2    0    0  0.00000000000E+00  0.00000000000E+00 -0.17818922381E+04  0.39189162623E+04  0.34903817445E+04 0.  0.
        1    1    3    3  502    0  0.14599561283E+04  0.71060463061E+03 -0.17266758576E+03  0.16328640277E+04  0.50400001928E-02 0.  1.
       -1    1    3    3    0  502 -0.14599561283E+04 -0.71060463061E+03 -0.16092246523E+04  0.22860522346E+04  0.50400001928E-02 0. -1.
</event>
<event>
 5   0  0.2936607E-07  0.3045997E+04  0.7818609E-02  0.8230717E-01
       -1   -1    0    0    0  501  0.00000000000E+00  0.00000000000E+00  0.96612599690E+03  0.96612599692E+03  0.50400001928E-02 0. -1.
        1   -1    0    0  501    0  0.00000000000E+00  0.00000000000E+00 -0.24008502756E+04  0.24008502756E+04  0.50400001928E-02 0.  1.
    10030    2    1    2    0    0  0.00000000000E+00  0.00000000000E+00 -0.14347242787E+04  0.33669762725E+04  0.30459966290E+04 0.  0.
        2    1    3    3  502    0 -0.29936433474E+03  0.12027891096E+04  0.26088338447E+03  0.12666415386E+04  0.25500000920E-02 0. -1.
       -2    1    3    3    0  502  0.29936433474E+03 -0.12027891096E+04 -0.16956076632E+04  0.21003347339E+04  0.25500000920E-02 0.  1.
</event>
<event>
 5   0  0.8950809E-07  0.3542801E+04  0.7818609E-02  0.8103721E-01
        2   -1    0    0  501    0  0.00000000000E+00  0.00000000000E+00  0.18609483362E+04  0.18609483363E+04  0.25500000920E-02 0. -1.
       -2   -1    0    0    0  501  0.00000000000E+00  0.00000000000E+00 -0.16861616581E+04  0.16861616581E+04  0.25500000920E-02 0.  1.
    10030    2    1    2    0    0  0.00000000000E+00  0.00000000000E+00  0.17478667811E+03  0.35471099944E+04  0.35428010005E+04 0.  0.
        2    1    3    3  502    0  0.30318223662E+03  0.12550223237E+04  0.13016582703E+04  0.18333888715E+04  0.25500000920E-02 0. -1.
       -2    1    3    3    0  502 -0.30318223662E+03 -0.12550223237E+04 -0.11268715922E+04  0.17137211229E+04  0.25500000920E-02 0.  1.
</event>
<event>
 5   0  0.2936607E-07  0.3470417E+04  0.7818609E-02  0.8120837E-01
        1   -1    0    0  501    0  0.00000000000E+00  0.00000000000E+00  0.11401756054E+04  0.11401756054E+04  0.50400001928E-02 0. -1.
       -1   -1    0    0    0  501  0.00000000000E+00  0.00000000000E+00 -0.26407767375E+04  0.26407767376E+04  0.50400001928E-02 0.  1.
    10030    2    1    2    0    0  0.00000000000E+00  0.00000000000E+00 -0.15006011321E+04  0.37809523430E+04  0.34704173902E+04 0.  0.
        2    1    3    3  502    0  0.23151933078E+03 -0.11525930230E+04 -0.21407771610E+04  0.24423346884E+04  0.25500000920E-02 0.  1.
       -2    1    3    3    0  502 -0.23151933078E+03  0.11525930230E+04  0.64017602887E+03  0.13386176546E+04  0.25500000920E-02 0. -1.
</event>
<event>
 5   0  0.6188930E-07  0.3513915E+04  0.7818609E-02  0.8110500E-01
        2   -1    0    0  501    0  0.00000000000E+00  0.00000000000E+00  0.29307209544E+04  0.29307209544E+04  0.25500000920E-02 0.  1.
       -2   -1    0    0    0  501  0.00000000000E+00  0.00000000000E+00 -0.10532904696E+04  0.10532904696E+04  0.25500000920E-02 0. -1.
    10030    2    1    2    0    0  0.00000000000E+00  0.00000000000E+00  0.18774304848E+04  0.39840114240E+04  0.35139154516E+04 0.  0.
        3    1    3    3  502    0 -0.13331282926E+04  0.10488930556E+04  0.14576512065E+04  0.22365497393E+04  0.10100000352E+00 0.  1.
       -3    1    3    3    0  502  0.13331282926E+04 -0.10488930556E+04  0.41977927834E+03  0.17474616847E+04  0.10100000352E+00 0. -1.
</event>
<event>
 5   0  0.2933506E-07  0.3332382E+04  0.7818609E-02  0.8154704E-01
        1   -1    0    0  501    0  0.00000000000E+00  0.00000000000E+00  0.17016991754E+04  0.17016991754E+04  0.50400001928E-02 0.  1.
       -1   -1    0    0    0  501  0.00000000000E+00  0.00000000000E+00 -0.16314234438E+04  0.16314234438E+04  0.50400001928E-02 0. -1.
    10030    2    1    2    0    0  0.00000000000E+00  0.00000000000E+00  0.70275731548E+02  0.33331226192E+04  0.33323816882E+04 0.  0.
        4    1    3    3  502    0 -0.14572614251E+04  0.52293992001E+03  0.65099653466E+03  0.16795461060E+04  0.12699999809E+01 0. -1.
       -4    1    3    3    0  502  0.14572614251E+04 -0.52293992001E+03 -0.58072080311E+03  0.16535765132E+04  0.12699999809E+01 0.  1.
</event>
<event>
 5   0  0.9128871E-07  0.3604670E+04  0.7818609E-02  0.8089423E-01
       -2   -1    0    0    0  501  0.00000000000E+00  0.00000000000E+00  0.14855870064E+04  0.14855870064E+04  0.25500000920E-02 0.  1.
        2   -1    0    0  501    0  0.00000000000E+00  0.00000000000E+00 -0.21866183117E+04  0.21866183117E+04  0.25500000920E-02 0. -1.
    10030    2    1    2    0    0  0.00000000000E+00  0.00000000000E+00 -0.70103130527E+03  0.36722053181E+04  0.36046701663E+04 0.  0.
        1    1    3    3  502    0 -0.49060544063E+03  0.14929290883E+04  0.54856141336E+03  0.16644670574E+04  0.50400001928E-02 0.  1.
       -1    1    3    3    0  502  0.49060544063E+03 -0.14929290883E+04 -0.12495927186E+04  0.20077382607E+04  0.50400001928E-02 0. -1.
</event>
<event>
 5   0  0.2936607E-07  0.3503379E+04  0.7818609E-02  0.8112990E-01
       -1   -1    0    0    0  501  0.00000000000E+00  0.00000000000E+00  0.11498099168E+04  0.11498099168E+04  0.50400001928E-02 0. -1.
        1   -1    0    0  501    0  0.00000000000E+00  0.00000000000E+00 -0.26686294082E+04  0.26686294082E+04  0.50400001928E-02 0.  1.
    10030    2    1    2    0    0  0.00000000000E+00  0.00000000000E+00 -0.15188194914E+04  0.38184393250E+04  0.35033792588E+04 0.  0.
        2    1    3    3  502    0 -0.78674439997E+02  0.15705408102E+04  0.81765449560E+02  0.15746344632E+04  0.25500000920E-02 0. -1.
       -2    1    3    3    0  502  0.78674439997E+02 -0.15705408102E+04 -0.16005849410E+04  0.22438048617E+04  0.25500000920E-02 0.  1.
</event>
<event>
 5   0  0.8845195E-07  0.3025234E+04  0.7818609E-02  0.8236562E-01
        2   -1    0    0  501    0  0.00000000000E+00  0.00000000000E+00  0.20276214664E+04  0.20276214664E+04  0.25500000920E-02 0. -1.
       -2   -1    0    0    0  501  0.00000000000E+00  0.00000000000E+00 -0.11284204670E+04  0.11284204670E+04  0.25500000920E-02 0.  1.
    10030    2    1    2    0    0  0.00000000000E+00  0.00000000000E+00  0.89920099932E+03  0.31560419334E+04  0.30252335857E+04 0.  0.
        5    1    3    3  502    0 -0.46037910743E+03 -0.87286657642E+03 -0.74632762778E+03  0.12372841229E+04  0.46999998093E+01 0.  1.
       -5    1    3    3    0  502  0.46037910743E+03  0.87286657642E+03  0.16455286271E+04  0.19187578105E+04  0.46999998093E+01 0. -1.
</event>
<event>
 5   0  0.2972541E-07  0.3484349E+04  0.7818609E-02  0.8117509E-01
        1   -1    0    0  501    0  0.00000000000E+00  0.00000000000E+00  0.22199208735E+04  0.22199208735E+04  0.50400001928E-02 0. -1.
       -1   -1    0    0    0  501  0.00000000000E+00  0.00000000000E+00 -0.13672432983E+04  0.13672432983E+04  0.50400001928E-02 0.  1.
    10030    2    1    2    0    0  0.00000000000E+00  0.00000000000E+00  0.85267757522E+03  0.35871641718E+04  0.34843489705E+04 0.  0.
        3    1    3    3  502    0  0.36098187479E+03 -0.71919822502E+03  0.20171257536E+04  0.21717159844E+04  0.10100000352E+00 0. -1.
       -3    1    3    3    0  502 -0.36098187479E+03  0.71919822502E+03 -0.11644481784E+04  0.14154481874E+04  0.10100000352E+00 0.  1.
</event>
<event>
 5   0  0.3061330E-07  0.3476520E+04  0.7818609E-02  0.8119377E-01
        1   -1    0    0  501    0  0.00000000000E+00  0.00000000000E+00  0.14763333444E+04  0.14763333444E+04  0.50400001928E-02 0.  1.
       -1   -1    0    0    0  501  0.00000000000E+00  0.00000000000E+00 -0.20466570659E+04  0.20466570659E+04  0.50400001928E-02 0. -1.
    10030    2    1    2    0    0  0.00000000000E+00  0.00000000000E+00 -0.57032372146E+03  0.35229904103E+04  0.34765201400E+04 0.  0.
        5    1    3    3  502    0  0.17301074696E+04  0.62091878441E+01 -0.11494164742E+03  0.17339388924E+04  0.46999998093E+01 0.  1.
       -5    1    3    3    0  502 -0.17301074696E+04 -0.62091878441E+01 -0.45538207404E+03  0.17890515179E+04  0.46999998093E+01 0. -1.
</event>
<event>
 5   0  0.2936607E-07  0.3597631E+04  0.7818609E-02  0.8091035E-01
        1   -1    0    0  501    0  0.00000000000E+00  0.00000000000E+00  0.29597195290E+04  0.29597195290E+04  0.50400001928E-02 0.  1.
       -1   -1    0    0    0  501  0.00000000000E+00  0.00000000000E+00 -0.10932581835E+04  0.10932581835E+04  0.50400001928E-02 0. -1.
    10030    2    1    2    0    0  0.00000000000E+00  0.00000000000E+00  0.18664613455E+04  0.40529777124E+04  0.35976312184E+04 0.  0.
        2    1    3    3  502    0 -0.93720011522E+03 -0.10582166744E+04  0.21864948787E+04  0.26036371561E+04  0.25500000920E-02 0.  1.
       -2    1    3    3    0  502  0.93720011522E+03  0.10582166744E+04 -0.32003353320E+03  0.14493405564E+04  0.25500000920E-02 0. -1.
</event>
<event>
 5   0  0.9311672E-07  0.3504132E+04  0.7818609E-02  0.8112812E-01
        2   -1    0    0  501    0  0.00000000000E+00  0.00000000000E+00  0.19227402409E+04  0.19227402409E+04  0.25500000920E-02 0. -1.
       -2   -1    0    0    0  501  0.00000000000E+00  0.00000000000E+00 -0.15965414493E+04  0.15965414493E+04  0.25500000920E-02 0.  1.
    10030    2    1    2    0    0  0.00000000000E+00  0.00000000000E+00  0.32619879153E+03  0.35192816902E+04  0.35041315562E+04 0.  0.
        4    1    3    3  502    0 -0.14230057962E+04  0.87260482355E+03  0.69770543350E+03  0.18091929579E+04  0.12699999809E+01 0. -1.
       -4    1    3    3    0  502  0.14230057962E+04 -0.87260482355E+03 -0.37150664198E+03  0.17100887322E+04  0.12699999809E+01 0.  1.
</event>
<event>
 5   0  0.9128871E-07  0.3486711E+04  0.7818609E-02  0.8116947E-01
       -2   -1    0    0    0  501  0.00000000000E+00  0.00000000000E+00  0.16420390228E+04  0.16420390228E+04  0.25500000920E-02 0.  1.
        2   -1    0    0  501    0  0.00000000000E+00  0.00000000000E+00 -0.18509230527E+04  0.18509230527E+04  0.25500000920E-02 0. -1.
    10030    2    1    2    0    0  0.00000000000E+00  0.00000000000E+00 -0.20888402990E+03  0.34929620756E+04  0.34867107026E+04 0.  0.
        1    1    3    3  502    0 -0.13683418636E+04 -0.75575953472E+03 -0.87767816544E+03  0.17927216438E+04  0.50400001928E-02 0. -1.
       -1    1    3    3    0  502  0.13683418636E+04  0.75575953472E+03  0.66879413554E+03  0.17002404318E+04  0.50400001928E-02 0.  1.
</event>
<event>
 5   0  0.6188930E-07  0.3491900E+04  0.7818609E-02  0.8115712E-01
       -2   -1    0    0    0  501  0.00000000000E+00  0.00000000000E+00  0.16874205303E+04  0.16874205303E+04  0.25500000920E-02 0. -1.
        2   -1    0    0  501    0  0.00000000000E+00  0.00000000000E+00 -0.18065096377E+04  0.18065096377E+04  0.25500000920E-02 0.  1.
    10030    2    1    2    0    0  0.00000000000E+00  0.00000000000E+00 -0.11908910745E+03  0.34939301680E+04  0.34919000277E+04 0.  0.
        3    1    3    3  502    0 -0.59715776151E+02  0.36195115980E+03  0.16484237872E+04  0.16887497175E+04  0.10100000352E+00 0. -1.
       -3    1    3    3    0  502  0.59715776151E+02 -0.36195115980E+03 -0.17675128946E+04  0.18051804505E+04  0.10100000352E+00 0.  1.
</event>
<event>
 5   0  0.8950809E-07  0.3535898E+04  0.7818609E-02  0.8105335E-01
        2   -1    0    0  501    0  0.00000000000E+00  0.00000000000E+00  0.16085278458E+04  0.16085278458E+04  0.25500000920E-02 0.  1.
       -2   -1    0    0    0  501  0.00000000000E+00  0.00000000000E+00 -0.19431707367E+04  0.19431707367E+04  0.25500000920E-02 0. -1.
    10030    2    1    2    0    0  0.00000000000E+00  0.00000000000E+00 -0.33464289092E+03  0.35516985825E+04  0.35358983238E+04 0.  0.
        2    1    3    3  502    0 -0.16311792150E+04 -0.11928988534E+03  0.50699686154E+03  0.17123146690E+04  0.25500000920E-02 0.  1.
       -2    1    3    3    0  502  0.16311792150E+04  0.11928988534E+03 -0.84163975247E+03  0.18393839135E+04  0.25500000920E-02 0. -1.
</event>
<event>
 5   0  0.8845195E-07  0.3504034E+04  0.7818609E-02  0.8112835E-01
        2   -1    0    0  501    0  0.00000000000E+00  0.00000000000E+00  0.15603920195E+04  0.15603920195E+04  0.25500000920E-02 0.  1.
       -2   -1    0    0    0  501  0.00000000000E+00  0.00000000000E+00 -0.19671746942E+04  0.19671746942E+04  0.25500000920E-02 0. -1.
    10030    2    1    2    0    0  0.00000000000E+00  0.00000000000E+00 -0.40678267469E+03  0.35275667138E+04  0.35040340717E+04 0.  0.
        5    1    3    3  502    0 -0.96532803623E+03  0.73056504476E+03  0.10715888184E+04  0.16167585435E+04  0.46999998093E+01 0.  1.
       -5    1    3    3    0  502  0.96532803623E+03 -0.73056504476E+03 -0.14783714931E+04  0.19108081703E+04  0.46999998093E+01 0. -1.
</event>
<event>
 5   0  0.3026332E-07  0.3499693E+04  0.7818609E-02  0.8113863E-01
       -1   -1    0    0    0  501  0.00000000000E+00  0.00000000000E+00  0.13230453748E+04  0.13230453748E+04  0.50400001928E-02 0.  1.
        1   -1    0    0  501    0  0.00000000000E+00  0.00000000000E+00 -0.23143299693E+04  0.23143299693E+04  0.50400001928E-02 0. -1.
    10030    2    1    2    0    0  0.00000000000E+00  0.00000000000E+00 -0.99128459449E+03  0.36373753440E+04  0.34996934503E+04 0.  0.
        1    1    3    3  502    0 -0.93362690812E+03  0.85173862284E+03  0.76228068176E+03  0.14758691416E+04  0.50400001928E-02 0.  1.
       -1    1    3    3    0  502  0.93362690812E+03 -0.85173862284E+03 -0.17535652763E+04  0.21615062025E+04  0.50400001928E-02 0. -1.
</event>
<event>
 5   0  0.6188930E-07  0.3516360E+04  0.7818609E-02  0.8109924E-01
       -2   -1    0    0    0  501  0.00000000000E+00  0.00000000000E+00  0.19153184068E+04  0.19153184068E+04  0.25500000920E-02 0. -1.
        2   -1    0    0  501    0  0.00000000000E+00  0.00000000000E+00 -0.16139334306E+04  0.16139334306E+04  0.25500000920E-02 0.  1.
    10030    2    1    2    0    0  0.00000000000E+00  0.00000000000E+00  0.30138497623E+03  0.35292518373E+04  0.35163597125E+04 0.  0.
        3    1    3    3  502    0 -0.10011963442E+04  0.75083584264E+02 -0.12979164518E+04  0.16409201048E+04  0.10100000352E+00 0.  1.
       -3    1    3    3    0  502  0.10011963442E+04 -0.75083584264E+02  0.15993014280E+04  0.18883317326E+04  0.10100000352E+00 0. -1.
</event>
<event>
 5   0  0.9128871E-07  0.3519729E+04  0.7818609E-02  0.8109130E-01
        2   -1    0    0  501    0  0.00000000000E+00  0.00000000000E+00  0.22476890054E+04  0.22476890054E+04  0.25500000920E-02 0.  1.
       -2   -1    0    0    0  501  0.00000000000E+00  0.00000000000E+00 -0.13779146108E+04  0.13779146108E+04  0.25500000920E-02 0. -1.
    10030    2    1    2    0    0  0.00000000000E+00  0.00000000000E+00  0.86977439468E+03  0.36256036162E+04  0.35197292629E+04 0.  0.
        1    1    3    3  502    0 -0.86105711494E+03 -0.30970493324E+03  0.19833644053E+04  0.21842781108E+04  0.50400001928E-02 0.  1.
       -1    1    3    3    0  502  0.86105711494E+03  0.30970493324E+03 -0.11135900106E+04  0.14413255054E+04  0.50400001928E-02 0. -1.
</event>
<event>
 5   0  0.3061330E-07  0.3478618E+04  0.7818609E-02  0.8118876E-01
        1   -1    0    0  501    0  0.00000000000E+00  0.00000000000E+00  0.19026981538E+04  0.19026981538E+04  0.50400001928E-02 0.  1.
       -1   -1    0    0    0  501  0.00000000000E+00  0.00000000000E+00 -0.15899505166E+04  0.15899505166E+04  0.50400001928E-02 0. -1.
    10030    2    1    2    0    0  0.00000000000E+00  0.00000000000E+00  0.31274763719E+03  0.34926486704E+04  0.34786180662E+04 0.  0.
        5    1    3    3  502    0 -0.61183719190E+03  0.32619077907E+03 -0.14451864707E+04  0.16029133473E+04  0.46999998093E+01 0. -1.
       -5    1    3    3    0  502  0.61183719190E+03 -0.32619077907E+03  0.17579341079E+04  0.18897353231E+04  0.46999998093E+01 0.  1.
</event>
<event>
 5   0  0.3026332E-07  0.3482952E+04  0.7818609E-02  0.8117842E-01
       -1   -1    0    0    0  501  0.00000000000E+00  0.00000000000E+00  0.14629707291E+04  0.14629707292E+04  0.50400001928E-02 0. -1.
        1   -1    0    0  501    0  0.00000000000E+00  0.00000000000E+00 -0.20730006572E+04  0.20730006572E+04  0.50400001928E-02 0.  1.
    10030    2    1    2    0    0  0.00000000000E+00  0.00000000000E+00 -0.61002992804E+03  0.35359713864E+04  0.34829523586E+04 0.  0.
        1    1    3    3  502    0 -0.14390144520E+04  0.89769490185E+03 -0.70615060275E+03  0.18371900837E+04  0.50400001928E-02 0.  1.
       -1    1    3    3    0  502  0.14390144520E+04 -0.89769490185E+03  0.96120674708E+02  0.16987813026E+04  0.50400001928E-02 0. -1.
</event>
<event>
 5   0  0.8845195E-07  0.3492349E+04  0.7818609E-02  0.8115606E-01
       -2   -1    0    0    0  501  0.00000000000E+00  0.00000000000E+00  0.22151068013E+04  0.22151068013E+04  0.25500000920E-02 0.  1.
        2   -1    0    0  501    0  0.00000000000E+00  0.00000000000E+00 -0.13765138066E+04  0.13765138066E+04  0.25500000920E-02 0. -1.
    10030    2    1    2    0    0  0.00000000000E+00  0.00000000000E+00  0.83859299463E+03  0.35916206079E+04  0.34923488343E+04 0.  0.
        5    1    3    3  502    0 -0.11616949777E+04 -0.10021645978E+04  0.12768047512E+04  0.19960264440E+04  0.46999998093E+01 0.  1.
       -5    1    3    3    0  502  0.11616949777E+04  0.10021645978E+04 -0.43821175660E+03  0.15955941639E+04  0.46999998093E+01 0. -1.
</event>
<event>
 5   0  0.3026332E-07  0.3543454E+04  0.7818609E-02  0.8103568E-01
       -1   -1    0    0    0  501  0.00000000000E+00  0.00000000000E+00  0.23117899426E+04  0.23117899426E+04  0.50400001928E-02 0.  1.
        1   -1    0    0  501    0  0.00000000000E+00  0.00000000000E+00 -0.13578297401E+04  0.13578297402E+04  0.50400001928E-02 0. -1.
    10030    2    1    2    0    0  0.00000000000E+00  0.00000000000E+00  0.95396020245E+03  0.36696196827E+04  0.35434543243E+04 0.  0.
        1    1    3    3  502    0 -0.21629918981E+03  0.10818909594E+04  0.19126082204E+04  0.22080180236E+04  0.50400001928E-02 0.  1.
       -1    1    3    3    0  502  0.21629918981E+03 -0.10818909594E+04 -0.95864801800E+03  0.14616016591E+04  0.50400001928E-02 0. -1.
</event>
<event>
 5   0  0.6188930E-07  0.3498424E+04  0.7818609E-02  0.8114163E-01
        2   -1    0    0  501    0  0.00000000000E+00  0.00000000000E+00  0.17296252220E+04  0.17296252220E+04  0.25500000920E-02 0. -1.
       -2   -1    0    0    0  501  0.00000000000E+00  0.00000000000E+00 -0.17690209286E+04  0.17690209286E+04  0.25500000920E-02 0.  1.
    10030    2    1    2    0    0  0.00000000000E+00  0.00000000000E+00 -0.39395706609E+02  0.34986461507E+04  0.34984243405E+04 0.  0.
        3    1    3    3  502    0  0.13946684369E+04 -0.98029131936E+03  0.37233731576E+03  0.17449086528E+04  0.10100000352E+00 0. -1.
       -3    1    3    3    0  502 -0.13946684369E+04  0.98029131936E+03 -0.41173302237E+03  0.17537374979E+04  0.10100000352E+00 0.  1.
</event>
<event>
 5   0  0.8845195E-07  0.3477244E+04  0.7818609E-02  0.8119204E-01
        2   -1    0    0  501    0  0.00000000000E+00  0.00000000000E+00  0.21559050423E+04  0.21559050423E+04  0.25500000920E-02 0.  1.
       -2   -1    0    0    0  501  0.00000000000E+00  0.00000000000E+00 -0.14021054474E+04  0.14021054474E+04  0.25500000920E-02 0. -1.
    10030    2    1    2    0    0  0.00000000000E+00  0.00000000000E+00  0.75379959489E+03  0.35580104896E+04  0.34772438533E+04 0.  0.
        5    1    3    3  502    0  0.14379230403E+04 -0.76103510149E+03  0.10043200038E+04  0.19119304002E+04  0.46999998093E+01 0.  1.
       -5    1    3    3    0  502 -0.14379230403E+04  0.76103510149E+03 -0.25052040887E+03  0.16460800894E+04  0.46999998093E+01 0. -1.
</event>
<event>
 5   0  0.9128871E-07  0.3471241E+04  0.7818609E-02  0.8120640E-01
        2   -1    0    0  501    0  0.00000000000E+00  0.00000000000E+00  0.27175015120E+04  0.27175015120E+04  0.25500000920E-02 0. -1.
       -2   -1    0    0    0  501  0.00000000000E+00  0.00000000000E+00 -0.11085101629E+04  0.11085101629E+04  0.25500000920E-02 0.  1.
    10030    2    1    2    0    0  0.00000000000E+00  0.00000000000E+00  0.16089913491E+04  0.38260116749E+04  0.34712407256E+04 0.  0.
        1    1    3    3  502    0 -0.16896036083E+04  0.28251848999E+03  0.11119312555E+04  0.20422948287E+04  0.50400001928E-02 0.  1.
       -1    1    3    3    0  502  0.16896036083E+04 -0.28251848999E+03  0.49706009363E+03  0.17837168461E+04  0.50400001928E-02 0. -1.
</event>
<event>
 5   0  0.8845195E-07  0.3481439E+04  0.7818609E-02  0.8118203E-01
        2   -1    0    0  501    0  0.00000000000E+00  0.00000000000E+00  0.22554585612E+04  0.22554585612E+04  0.25500000920E-02 0.  1.
       -2   -1    0    0    0  501  0.00000000000E+00  0.00000000000E+00 -0.13434540634E+04  0.13434540634E+04  0.25500000920E-02 0. -1.
    10030    2    1    2    0    0  0.00000000000E+00  0.00000000000E+00  0.91200449787E+03  0.35989126246E+04  0.34814393396E+04 0.  0.
        5    1    3    3  502    0 -0.16855311761E+04 -0.17858312886E+03  0.46171034676E+02  0.16956005231E+04  0.46999998093E+01 0.  1.
       -5    1    3    3    0  502  0.16855311761E+04  0.17858312886E+03  0.86583346320E+03  0.19033121015E+04  0.46999998093E+01 0. -1.
</event>
<event>
 5   0  0.9311672E-07  0.3484920E+04  0.7818609E-02  0.8117373E-01
        2   -1    0    0  501    0  0.00000000000E+00  0.00000000000E+00  0.27356354512E+04  0.27356354512E+04  0.25500000920E-02 0. -1.
       -2   -1    0    0    0  501  0.00000000000E+00  0.00000000000E+00 -0.11098579054E+04  0.11098579054E+04  0.25500000920E-02 0.  1.
    10030    2    1    2    0    0  0.00000000000E+00  0.00000000000E+00  0.16257775459E+04  0.38454933566E+04  0.34849198738E+04 0.  0.
        4    1    3    3  502    0  0.67475902564E+03 -0.95336920649E+03 -0.61393792493E+03  0.13195203580E+04  0.12699999809E+01 0.  1.
       -4    1    3    3    0  502 -0.67475902564E+03  0.95336920649E+03  0.22397154708E+04  0.25259729986E+04  0.12699999809E+01 0. -1.
</event>
<event>
 5   0  0.2936607E-07  0.3497425E+04  0.7818609E-02  0.8114400E-01
       -1   -1    0    0    0  501  0.00000000000E+00  0.00000000000E+00  0.19750019663E+04  0.19750019663E+04  0.50400001928E-02 0. -1.
        1   -1    0    0  501    0  0.00000000000E+00  0.00000000000E+00 -0.15483505006E+04  0.15483505006E+04  0.50400001928E-02 0.  1.
    10030    2    1    2    0    0  0.00000000000E+00  0.00000000000E+00  0.42665146569E+03  0.35233524668E+04  0.34974249288E+04 0.  0.
        2    1    3    3  502    0 -0.87272216699E+03 -0.45164662899E+03 -0.12438991612E+04  0.15852172664E+04  0.25500000920E-02 0.  1.
       -2    1    3    3    0  502  0.87272216699E+03  0.45164662899E+03  0.16705506269E+04  0.19381352005E+04  0.25500000920E-02 0. -1.
</event>
<event>
 5   0  0.8845195E-07  0.3509152E+04  0.7818609E-02  0.8111624E-01
        2   -1    0    0  501    0  0.00000000000E+00  0.00000000000E+00  0.17898534438E+04  0.17898534438E+04  0.25500000920E-02 0.  1.
       -2   -1    0    0    0  501  0.00000000000E+00  0.00000000000E+00 -0.17199938578E+04  0.17199938578E+04  0.25500000920E-02 0. -1.
    10030    2    1    2    0    0  0.00000000000E+00  0.00000000000E+00  0.69859586063E+02  0.35098473016E+04  0.35091519942E+04 0.  0.
        5    1    3    3  502    0 -0.62214900641E+02  0.11814945047E+04  0.13308388145E+04  0.17807172709E+04  0.46999998093E+01 0.  1.
       -5    1    3    3    0  502  0.62214900641E+02 -0.11814945047E+04 -0.12609792284E+04  0.17291300307E+04  0.46999998093E+01 0. -1.
</event>
<event>
 5   0  0.2972541E-07  0.3474896E+04  0.7818609E-02  0.8119765E-01
        1   -1    0    0  501    0  0.00000000000E+00  0.00000000000E+00  0.23731920109E+04  0.23731920109E+04  0.50400001928E-02 0.  1.
       -1   -1    0    0    0  501  0.00000000000E+00  0.00000000000E+00 -0.12720103330E+04  0.12720103330E+04  0.50400001928E-02 0. -1.
    10030    2    1    2    0    0  0.00000000000E+00  0.00000000000E+00  0.11011816779E+04  0.36452023439E+04  0.34748955438E+04 0.  0.
        3    1    3    3  502    0 -0.28666021552E+03  0.30129521715E+03  0.23202104692E+04  0.23571867806E+04  0.10100000352E+00 0.  1.
       -3    1    3    3    0  502  0.28666021552E+03 -0.30129521715E+03 -0.12190287913E+04  0.12880155633E+04  0.10100000352E+00 0. -1.
</event>
<event>
 5   0  0.2936607E-07  0.3498623E+04  0.7818609E-02  0.8114116E-01
        1   -1    0    0  501    0  0.00000000000E+00  0.00000000000E+00  0.17526951982E+04  0.17526951982E+04  0.50400001928E-02 0.  1.
       -1   -1    0    0    0  501  0.00000000000E+00  0.00000000000E+00 -0.17459343798E+04  0.17459343798E+04  0.50400001928E-02 0. -1.
    10030    2    1    2    0    0  0.00000000000E+00  0.00000000000E+00  0.67608184147E+01  0.34986295780E+04  0.34986230457E+04 0.  0.
        2    1    3    3  502    0  0.77123992183E+03  0.15660779607E+04 -0.10922356597E+03  0.17490971910E+04  0.25500000920E-02 0. -1.
       -2    1    3    3    0  502 -0.77123992183E+03 -0.15660779607E+04  0.11598438439E+03  0.17495323871E+04  0.25500000920E-02 0.  1.
</event>
<event>
 5   0  0.3026332E-07  0.3509514E+04  0.7818609E-02  0.8111539E-01
       -1   -1    0    0    0  501  0.00000000000E+00  0.00000000000E+00  0.13117806996E+04  0.13117806997E+04  0.50400001928E-02 0. -1.
        1   -1    0    0  501    0  0.00000000000E+00  0.00000000000E+00 -0.23473224029E+04  0.23473224029E+04  0.50400001928E-02 0.  1.
    10030    2    1    2    0    0  0.00000000000E+00  0.00000000000E+00 -0.10355417032E+04  0.36591031026E+04  0.35095140541E+04 0.  0.
        1    1    3    3  502    0 -0.17187355229E+04  0.16342833468E+03 -0.19069323836E+03  0.17369871990E+04  0.50400001928E-02 0. -1.
       -1    1    3    3    0  502  0.17187355229E+04 -0.16342833468E+03 -0.84484846489E+03  0.19221159036E+04  0.50400001928E-02 0.  1.
</event>
<event>
 5   0  0.2972541E-07  0.3430108E+04  0.7818609E-02  0.8130556E-01
       -1   -1    0    0    0  501  0.00000000000E+00  0.00000000000E+00  0.17268248014E+04  0.17268248014E+04  0.50400001928E-02 0. -1.
        1   -1    0    0  501    0  0.00000000000E+00  0.00000000000E+00 -0.17033638070E+04  0.17033638070E+04  0.50400001928E-02 0.  1.
    10030    2    1    2    0    0  0.00000000000E+00  0.00000000000E+00  0.23460994340E+02  0.34301886084E+04  0.34301083760E+04 0.  0.
        3    1    3    3  502    0 -0.42890164063E+03  0.11076187337E+04 -0.12254867784E+04  0.17066322775E+04  0.10100000352E+00 0.  1.
       -3    1    3    3    0  502  0.42890164063E+03 -0.11076187337E+04  0.12489477727E+04  0.17235563309E+04  0.10100000352E+00 0. -1.
</event>
<event>
 5   0  0.3061330E-07  0.3495560E+04  0.7818609E-02  0.8114843E-01
       -1   -1    0    0    0  501  0.00000000000E+00  0.00000000000E+00  0.17038272463E+04  0.17038272463E+04  0.50400001928E-02 0. -1.
        1   -1    0    0  501    0  0.00000000000E+00  0.00000000000E+00 -0.17928664694E+04  0.17928664694E+04  0.50400001928E-02 0.  1.
    10030    2    1    2    0    0  0.00000000000E+00  0.00000000000E+00 -0.89039223064E+02  0.34966937157E+04  0.34955598919E+04 0.  0.
        5    1    3    3  502    0  0.13848771689E+03  0.17130020302E+04  0.27363676563E+03  0.17402453771E+04  0.46999998093E+01 0. -1.
       -5    1    3    3    0  502 -0.13848771689E+03 -0.17130020302E+04 -0.36267598869E+03  0.17564483385E+04  0.46999998093E+01 0.  1.
</event>
<event>
 5   0  0.3061330E-07  0.3395632E+04  0.7818609E-02  0.8138979E-01
       -1   -1    0    0    0  501  0.00000000000E+00  0.00000000000E+00  0.11702316999E+04  0.11702317000E+04  0.50400001928E-02 0.  1.
        1   -1    0    0  501    0  0.00000000000E+00  0.00000000000E+00 -0.24632543850E+04  0.24632543850E+04  0.50400001928E-02 0. -1.
    10030    2    1    2    0    0  0.00000000000E+00  0.00000000000E+00 -0.12930226851E+04  0.36334860850E+04  0.33956315268E+04 0.  0.
        5    1    3    3  502    0  0.50157071512E+02  0.15833759829E+04 -0.12999949210E+04  0.20492935660E+04  0.46999998093E+01 0. -1.
       -5    1    3    3    0  502 -0.50157071512E+02 -0.15833759829E+04  0.69722359661E+01  0.15841925190E+04  0.46999998093E+01 0.  1.
</event>
<event>
 5   0  0.9311672E-07  0.3539437E+04  0.7818609E-02  0.8104507E-01
       -2   -1    0    0    0  501  0.00000000000E+00  0.00000000000E+00  0.13106099480E+04  0.13106099480E+04  0.25500000920E-02 0. -1.
        2   -1    0    0  501    0  0.00000000000E+00  0.00000000000E+00 -0.23896538642E+04  0.23896538642E+04  0.25500000920E-02 0.  1.
    10030    2    1    2    0    0  0.00000000000E+00  0.00000000000E+00 -0.10790439162E+04  0.37002638122E+04  0.35394373150E+04 0.  0.
        4    1    3    3  502    0  0.11200004765E+04  0.12897192968E+04 -0.55758854996E+02  0.17090604421E+04  0.12699999809E+01 0. -1.
       -4    1    3    3    0  502 -0.11200004765E+04 -0.12897192968E+04 -0.10232850612E+04  0.19912033701E+04  0.12699999809E+01 0.  1.
</event>
<event>
 5   0  0.2933506E-07  0.3033840E+04  0.7818609E-02  0.8234133E-01
        1   -1    0    0  501    0  0.00000000000E+00  0.00000000000E+00  0.15726294617E+04  0.15726294617E+04  0.50400001928E-02 0.  1.
       -1   -1    0    0    0  501  0.00000000000E+00  0.00000000000E+00 -0.14631843352E+04  0.14631843352E+04  0.50400001928E-02 0. -1.
    10030    2    1    2    0    0  0.00000000000E+00  0.00000000000E+00  0.10944512652E+03  0.30358137969E+04  0.30338403342E+04 0.  0.
        4    1    3    3  502    0 -0.34978578955E+03 -0.25788731646E+03  0.15090052028E+04  0.15703357225E+04  0.12699999809E+01 0.  1.
       -4    1    3    3    0  502  0.34978578955E+03  0.25788731646E+03 -0.13995600762E+04  0.14654780744E+04  0.12699999809E+01 0. -1.
</event>
<event>
 5   0  0.6188930E-07  0.3413103E+04  0.7818609E-02  0.8134698E-01
        2   -1    0    0  501    0  0.00000000000E+00  0.00000000000E+00  0.32965297656E+04  0.32965297656E+04  0.25500000920E-02 0. -1.
       -2   -1    0    0    0  501  0.00000000000E+00  0.00000000000E+00 -0.88344977204E+03  0.88344977204E+03  0.25500000920E-02 0.  1.
    10030    2    1    2    0    0  0.00000000000E+00  0.00000000000E+00  0.24130799936E+04  0.41799795377E+04  0.34131032624E+04 0.  0.
        3    1    3    3  502    0  0.14206474575E+04 -0.32125845578E+03  0.11741456084E+03  0.14612434373E+04  0.10100000352E+00 0.  1.
       -3    1    3    3    0  502 -0.14206474575E+04  0.32125845578E+03  0.22956654327E+04  0.27187361003E+04  0.10100000352E+00 0. -1.
</event>
<event>
 5   0  0.9128871E-07  0.3564720E+04  0.7818609E-02  0.8098621E-01
       -2   -1    0    0    0  501  0.00000000000E+00  0.00000000000E+00  0.11113832238E+04  0.11113832238E+04  0.25500000920E-02 0. -1.
        2   -1    0    0  501    0  0.00000000000E+00  0.00000000000E+00 -0.28584265755E+04  0.28584265755E+04  0.25500000920E-02 0.  1.
    10030    2    1    2    0    0  0.00000000000E+00  0.00000000000E+00 -0.17470433517E+04  0.39698097993E+04  0.35647200971E+04 0.  0.
        1    1    3    3  502    0 -0.46124874440E+03 -0.97238354433E+03  0.70867900043E+03  0.12886062576E+04  0.50400001928E-02 0. -1.
       -1    1    3    3    0  502  0.46124874440E+03  0.97238354433E+03 -0.24557223521E+04  0.26812035417E+04  0.50400001928E-02 0.  1.
</event>
<event>
 5   0  0.2936607E-07  0.3430769E+04  0.7818609E-02  0.8130396E-01
        1   -1    0    0  501    0  0.00000000000E+00  0.00000000000E+00  0.25361321392E+04  0.25361321392E+04  0.50400001928E-02 0. -1.
       -1   -1    0    0    0  501  0.00000000000E+00  0.00000000000E+00 -0.11602486721E+04  0.11602486721E+04  0.50400001928E-02 0.  1.
    10030    2    1    2    0    0  0.00000000000E+00  0.00000000000E+00  0.13758834671E+04  0.36963808113E+04  0.34307689789E+04 0.  0.
        2    1    3    3  502    0  0.58160350127E+02  0.29869398347E+03  0.25068187562E+04  0.25252209801E+04  0.25500000920E-02 0. -1.
       -2    1    3    3    0  502 -0.58160350127E+02 -0.29869398347E+03 -0.11309352890E+04  0.11711598311E+04  0.25500000920E-02 0.  1.
</event>
<event>
 5   0  0.9128871E-07  0.3454980E+04  0.7818609E-02  0.8124543E-01
        2   -1    0    0  501    0  0.00000000000E+00  0.00000000000E+00  0.11046132210E+04  0.11046132210E+04  0.25500000920E-02 0. -1.
       -2   -1    0    0    0  501  0.00000000000E+00  0.00000000000E+00 -0.27015986473E+04  0.27015986474E+04  0.25500000920E-02 0.  1.
    10030    2    1    2    0    0  0.00000000000E+00  0.00000000000E+00 -0.15969854264E+04  0.38062118683E+04  0.34549799326E+04 0.  0.
        1    1    3    3  502    0 -0.76251284171E+03  0.12684503089E+04 -0.17800396325E+04  0.23149369566E+04  0.50400001928E-02 0.  1.
       -1    1    3    3    0  502  0.76251284171E+03 -0.12684503089E+04  0.18305420618E+03  0.14912749117E+04  0.50400001928E-02 0. -1.
</event>
<event>
 5   0  0.6188930E-07  0.3475817E+04  0.7818609E-02  0.8119545E-01
        2   -1    0    0  501    0  0.00000000000E+00  0.00000000000E+00  0.17786574792E+04  0.17786574792E+04  0.25500000920E-02 0. -1.
       -2   -1    0    0    0  501  0.00000000000E+00  0.00000000000E+00 -0.16980935176E+04  0.16980935176E+04  0.25500000920E-02 0.  1.
    10030    2    1    2    0    0  0.00000000000E+00  0.00000000000E+00  0.80563961624E+02  0.34767509968E+04  0.34758174494E+04 0.  0.
        3    1    3    3  502    0 -0.13876541038E+04  0.71856963037E+02 -0.10038275705E+04  0.17141811854E+04  0.10100000352E+00 0.  1.
       -3    1    3    3    0  502  0.13876541038E+04 -0.71856963037E+02  0.10843915321E+04  0.17625698114E+04  0.10100000352E+00 0. -1.
</event>
<event>
 5   0  0.2936607E-07  0.3488655E+04  0.7818609E-02  0.8116484E-01
       -1   -1    0    0    0  501  0.00000000000E+00  0.00000000000E+00  0.14349944887E+04  0.14349944887E+04  0.50400001928E-02 0. -1.
        1   -1    0    0  501    0  0.00000000000E+00  0.00000000000E+00 -0.21203412895E+04  0.21203412895E+04  0.50400001928E-02 0.  1.
    10030    2    1    2    0    0  0.00000000000E+00  0.00000000000E+00 -0.68534680085E+03  0.35553357782E+04  0.34886547921E+04 0.  0.
        2    1    3    3  502    0 -0.14973147223E+04 -0.32662277780E+03  0.50634324618E+03  0.16140065983E+04  0.25500000920E-02 0. -1.
       -2    1    3    3    0  502  0.14973147223E+04  0.32662277780E+03 -0.11916900470E+04  0.19413291799E+04  0.25500000920E-02 0.  1.
</event>
<event>
 5   0  0.6188930E-07  0.3565531E+04  0.7818609E-02  0.8098433E-01
       -2   -1    0    0    0  501  0.00000000000E+00  0.00000000000E+00  0.13104669843E+04  0.13104669843E+04  0.25500000920E-02 0. -1.
        2   -1    0    0  501    0  0.00000000000E+00  0.00000000000E+00 -0.24252822927E+04  0.24252822927E+04  0.25500000920E-02 0.  1.
    10030    2    1    2    0    0  0.00000000000E+00  0.00000000000E+00 -0.11148153084E+04  0.37357492771E+04  0.35655307444E+04 0.  0.
        3    1    3    3  502    0  0.56159154264E+03 -0.15993081652E+04  0.21302227732E+02  0.16951771185E+04  0.10100000352E+00 0. -1.
       -3    1    3    3    0  502 -0.56159154264E+03  0.15993081652E+04 -0.11361175361E+04  0.20405721585E+04  0.10100000352E+00 0.  1.
</event>
<event>
 5   0  0.2933506E-07  0.3509415E+04  0.7818609E-02  0.8111562E-01
        1   -1    0    0  501    0  0.00000000000E+00  0.00000000000E+00  0.13003653685E+04  0.13003653685E+04  0.50400001928E-02 0. -1.
       -1   -1    0    0    0  501  0.00000000000E+00  0.00000000000E+00 -0.23677941828E+04  0.23677941828E+04  0.50400001928E-02 0.  1.
    10030    2    1    2    0    0  0.00000000000E+00  0.00000000000E+00 -0.10674288142E+04  0.36681595513E+04  0.35094145125E+04 0.  0.
        4    1    3    3  502    0  0.79298799871E+03 -0.13751281619E+04  0.24790020738E+03  0.16066311193E+04  0.12699999809E+01 0. -1.
       -4    1    3    3    0  502 -0.79298799871E+03  0.13751281619E+04 -0.13153290216E+04  0.20615284320E+04  0.12699999809E+01 0.  1.
</event>
<event>
 5   0  0.8845195E-07  0.3311931E+04  0.7818609E-02  0.8159866E-01
       -2   -1    0    0    0  501  0.00000000000E+00  0.00000000000E+00  0.14583900130E+04  0.14583900130E+04  0.25500000920E-02 0. -1.
        2   -1    0    0  501    0  0.00000000000E+00  0.00000000000E+00 -0.18803072388E+04  0.18803072388E+04  0.25500000920E-02 0.  1.
    10030    2    1    2    0    0  0.00000000000E+00  0.00000000000E+00 -0.42191722577E+03  0.33386972518E+04  0.33119307351E+04 0.  0.
        5    1    3    3  502    0 -0.14039301177E+04 -0.86851251222E+03 -0.34187522339E+03  0.16858927954E+04  0.46999998093E+01 0. -1.
       -5    1    3    3    0  502  0.14039301177E+04  0.86851251222E+03 -0.80042002376E+02  0.16528044565E+04  0.46999998093E+01 0.  1.
</event>
<event>
 5   0  0.2933506E-07  0.3490701E+04  0.7818609E-02  0.8115997E-01
       -1   -1    0    0    0  501  0.00000000000E+00  0.00000000000E+00  0.19406783511E+04  0.19406783511E+04  0.50400001928E-02 0. -1.
        1   -1    0    0  501    0  0.00000000000E+00  0.00000000000E+00 -0.15696818318E+04  0.15696818318E+04  0.50400001928E-02 0.  1.
    10030    2    1    2    0    0  0.00000000000E+00  0.00000000000E+00  0.37099651925E+03  0.35103601829E+04  0.34907005309E+04 0.  0.
        4    1    3    3  502    0 -0.11362719331E+04 -0.13153630590E+04  0.34435009327E+03  0.17719685332E+04  0.12699999809E+01 0.  1.
       -4    1    3    3    0  502  0.11362719331E+04  0.13153630590E+04  0.26646425983E+02  0.17383916497E+04  0.12699999809E+01 0. -1.
</event>
<event>
 5   0  0.9128871E-07  0.3469445E+04  0.7818609E-02  0.8121069E-01
       -2   -1    0    0    0  501  0.00000000000E+00  0.00000000000E+00  0.17713102899E+04  0.17713102899E+04  0.25500000920E-02 0.  1.
        2   -1    0    0  501    0  0.00000000000E+00  0.00000000000E+00 -0.16988906030E+04  0.16988906030E+04  0.25500000920E-02 0. -1.
    10030    2    1    2    0    0  0.00000000000E+00  0.00000000000E+00  0.72419686860E+02  0.34702008929E+04  0.34694451467E+04 0.  0.
        1    1    3    3  502    0  0.12384950778E+04 -0.99662100342E+03  0.73072333866E+03  0.17495942615E+04  0.50400001928E-02 0.  1.
       -1    1    3    3    0  502 -0.12384950778E+04  0.99662100342E+03 -0.65830365180E+03  0.17206066314E+04  0.50400001928E-02 0. -1.
</event>
<event>
 5   0  0.2933506E-07  0.3472671E+04  0.7818609E-02  0.8120297E-01
       -1   -1    0    0    0  501  0.00000000000E+00  0.00000000000E+00  0.24425295650E+04  0.24425295650E+04  0.50400001928E-02 0.  1.
        1   -1    0    0  501    0  0.00000000000E+00  0.00000000000E+00 -0.12343188033E+04  0.12343188033E+04  0.50400001928E-02 0. -1.
    10030    2    1    2    0    0  0.00000000000E+00  0.00000000000E+00  0.12082107617E+04  0.36768483683E+04  0.34726705399E+04 0.  0.
        4    1    3    3  502    0 -0.22842196699E+03  0.31391277393E+03 -0.11877762366E+04  0.12496126703E+04  0.12699999809E+01 0. -1.
       -4    1    3    3    0  502  0.22842196699E+03 -0.31391277393E+03  0.23959869983E+04  0.24272356980E+04  0.12699999809E+01 0.  1.
</event>
<event>
 5   0  0.2936607E-07  0.3528442E+04  0.7818609E-02  0.8107083E-01
        1   -1    0    0  501    0  0.00000000000E+00  0.00000000000E+00  0.25785690642E+04  0.25785690643E+04  0.50400001928E-02 0.  1.
       -1   -1    0    0    0  501  0.00000000000E+00  0.00000000000E+00 -0.12070552244E+04  0.12070552244E+04  0.50400001928E-02 0. -1.
    10030    2    1    2    0    0  0.00000000000E+00  0.00000000000E+00  0.13715138398E+04  0.37856242887E+04  0.35284417301E+04 0.  0.
        2    1    3    3  502    0 -0.81060739814E+03 -0.15662918748E+04  0.73516421329E+03  0.19107121739E+04  0.25500000920E-02 0. -1.
       -2    1    3    3    0  502  0.81060739814E+03  0.15662918748E+04  0.63634962652E+03  0.18749121148E+04  0.25500000920E-02 0.  1.
</event>
<event>
 5   0  0.8950809E-07  0.3182760E+04  0.7818609E-02  0.8193385E-01
        2   -1    0    0  501    0  0.00000000000E+00  0.00000000000E+00  0.11439751965E+04  0.11439751965E+04  0.25500000920E-02 0.  1.
       -2   -1    0    0    0  501  0.00000000000E+00  0.00000000000E+00 -0.22137631491E+04  0.22137631491E+04  0.25500000920E-02 0. -1.
    10030    2    1    2    0    0  0.00000000000E+00  0.00000000000E+00 -0.10697879526E+04  0.33577383455E+04  0.31827598925E+04 0.  0.
        2    1    3    3  502    0  0.37690255920E+03  0.14919007192E+03  0.10885976222E+04  0.11616186981E+04  0.25500000920E-02 0.  1.
       -2    1    3    3    0  502 -0.37690255920E+03 -0.14919007192E+03 -0.21583855748E+04  0.21961196475E+04  0.25500000920E-02 0. -1.
</event>
<event>
 5   0  0.8950809E-07  0.3473864E+04  0.7818609E-02  0.8120012E-01
       -2   -1    0    0    0  501  0.00000000000E+00  0.00000000000E+00  0.10204107994E+04  0.10204107994E+04  0.25500000920E-02 0.  1.
        2   -1    0    0  501    0  0.00000000000E+00  0.00000000000E+00 -0.29565865212E+04  0.29565865212E+04  0.25500000920E-02 0. -1.
    10030    2    1    2    0    0  0.00000000000E+00  0.00000000000E+00 -0.19361757218E+04  0.39769973205E+04  0.34738640247E+04 0.  0.
        2    1    3    3  502    0  0.12048681067E+04 -0.13658984654E+03 -0.23918161553E+04  0.26816316789E+04  0.25500000920E-02 0. -1.
       -2    1    3    3    0  502 -0.12048681067E+04  0.13658984654E+03  0.45564043350E+03  0.12953656416E+04  0.25500000920E-02 0.  1.
</event>
<event>
 5   0  0.8845195E-07  0.3484442E+04  0.7818609E-02  0.8117487E-01
        2   -1    0    0  501    0  0.00000000000E+00  0.00000000000E+00  0.24313676370E+04  0.24313676370E+04  0.25500000920E-02 0. -1.
       -2   -1    0    0    0  501  0.00000000000E+00  0.00000000000E+00 -0.12484061899E+04  0.12484061899E+04  0.25500000920E-02 0.  1.
    10030    2    1    2    0    0  0.00000000000E+00  0.00000000000E+00  0.11829614471E+04  0.36797738269E+04  0.34844422268E+04 0.  0.
        5    1    3    3  502    0 -0.12214619604E+04 -0.11854881787E+04  0.19922826766E+03  0.17137868990E+04  0.46999998093E+01 0. -1.
       -5    1    3    3    0  502  0.12214619604E+04  0.11854881787E+04  0.98373317944E+03  0.19659869279E+04  0.46999998093E+01 0.  1.
</event>
<event>
 5   0  0.9128871E-07  0.3479407E+04  0.7818609E-02  0.8118688E-01
       -2   -1    0    0    0  501  0.00000000000E+00  0.00000000000E+00  0.16779510100E+04  0.16779510100E+04  0.25500000920E-02 0. -1.
        2   -1    0    0  501    0  0.00000000000E+00  0.00000000000E+00 -0.18037282458E+04  0.18037282458E+04  0.25500000920E-02 0.  1.
    10030    2    1    2    0    0  0.00000000000E+00  0.00000000000E+00 -0.12577723585E+03  0.34816792558E+04  0.34794066343E+04 0.  0.
        1    1    3    3  502    0  0.15180830255E+04 -0.84944654456E+03 -0.83689871764E+02  0.17415910826E+04  0.50400001928E-02 0.  1.
       -1    1    3    3    0  502 -0.15180830255E+04  0.84944654456E+03 -0.42087364082E+02  0.17400881732E+04  0.50400001928E-02 0. -1.
</event>
<event>
 5   0  0.3026332E-07  0.3504611E+04  0.7818609E-02  0.8112698E-01
       -1   -1    0    0    0  501  0.00000000000E+00  0.00000000000E+00  0.16130746109E+04  0.16130746109E+04  0.50400001928E-02 0.  1.
        1   -1    0    0  501    0  0.00000000000E+00  0.00000000000E+00 -0.19035535609E+04  0.19035535609E+04  0.50400001928E-02 0. -1.
    10030    2    1    2    0    0  0.00000000000E+00  0.00000000000E+00 -0.29047895001E+03  0.35166281719E+04  0.35046106316E+04 0.  0.
        1    1    3    3  502    0  0.63499127349E+03 -0.52318649718E+03 -0.16976826807E+04  0.18865483064E+04  0.50400001928E-02 0. -1.
       -1    1    3    3    0  502 -0.63499127349E+03  0.52318649718E+03  0.14072037306E+04  0.16300798655E+04  0.50400001928E-02 0.  1.
</event>
<event>
 5   0  0.9311672E-07  0.3533038E+04  0.7818609E-02  0.8106005E-01
       -2   -1    0    0    0  501  0.00000000000E+00  0.00000000000E+00  0.10468236221E+04  0.10468236221E+04  0.25500000920E-02 0. -1.
        2   -1    0    0  501    0  0.00000000000E+00  0.00000000000E+00 -0.29810070200E+04  0.29810070200E+04  0.25500000920E-02 0.  1.
    10030    2    1    2    0    0  0.00000000000E+00  0.00000000000E+00 -0.19341833979E+04  0.40278306421E+04  0.35330375408E+04 0.  0.
        4    1    3    3  502    0 -0.15686178847E+04 -0.51439245839E+03 -0.25019733366E+03  0.16696592431E+04  0.12699999809E+01 0.  1.
       -4    1    3    3    0  502  0.15686178847E+04  0.51439245839E+03 -0.16839860642E+04  0.23581713990E+04  0.12699999809E+01 0. -1.
</event>
<event>
 5   0  0.8845195E-07  0.3453105E+04  0.7818609E-02  0.8124994E-01
       -2   -1    0    0    0  501  0.00000000000E+00  0.00000000000E+00  0.10580654786E+04  0.10580654786E+04  0.25500000920E-02 0. -1.
        2   -1    0    0  501    0  0.00000000000E+00  0.00000000000E+00 -0.28173900004E+04  0.28173900004E+04  0.25500000920E-02 0.  1.
    10030    2    1    2    0    0  0.00000000000E+00  0.00000000000E+00 -0.17593245218E+04  0.38754554790E+04  0.34531047474E+04 0.  0.
        5    1    3    3  502    0  0.12240731768E+04  0.11041689042E+04 -0.14556786167E+04  0.21992195061E+04  0.46999998093E+01 0.  1.
       -5    1    3    3    0  502 -0.12240731768E+04 -0.11041689042E+04 -0.30364590511E+03  0.16762359729E+04  0.46999998093E+01 0. -1.
</event>
<event>
 5   0  0.6188930E-07  0.3491577E+04  0.7818609E-02  0.8115789E-01
       -2   -1    0    0    0  501  0.00000000000E+00  0.00000000000E+00  0.30271328534E+04  0.30271328534E+04  0.25500000920E-02 0.  1.
        2   -1    0    0  501    0  0.00000000000E+00  0.00000000000E+00 -0.10068195765E+04  0.10068195765E+04  0.25500000920E-02 0. -1.
    10030    2    1    2    0    0  0.00000000000E+00  0.00000000000E+00  0.20203132770E+04  0.40339524299E+04  0.34915765020E+04 0.  0.
        3    1    3    3  502    0 -0.59031252022E+03 -0.18882005065E+03 -0.87543730618E+03  0.10726193968E+04  0.10100000352E+00 0. -1.
       -3    1    3    3    0  502  0.59031252022E+03  0.18882005065E+03  0.28957505831E+04  0.29613330331E+04  0.10100000352E+00 0.  1.
</event>
<event>
 5   0  0.3026332E-07  0.3288432E+04  0.7818609E-02  0.8165845E-01
        1   -1    0    0  501    0  0.00000000000E+00  0.00000000000E+00  0.23534140729E+04  0.23534140729E+04  0.50400001928E-02 0. -1.
       -1   -1    0    0    0  501  0.00000000000E+00  0.00000000000E+00 -0.11487337002E+04  0.11487337002E+04  0.50400001928E-02 0.  1.
    10030    2    1    2    0    0  0.00000000000E+00  0.00000000000E+00  0.12046803727E+04  0.35021477732E+04  0.32884318793E+04 0.  0.
        1    1    3    3  502    0  0.12553275367E+04  0.22216616505E+03 -0.50352845651E+03  0.13706735337E+04  0.50400001928E-02 0.  1.
       -1    1    3    3    0  502 -0.12553275367E+04 -0.22216616505E+03  0.17082088292E+04  0.21314742395E+04  0.50400001928E-02 0. -1.
</event>
<event>
 5   0  0.8845195E-07  0.3571810E+04  0.7818609E-02  0.8096980E-01
       -2   -1    0    0    0  501  0.00000000000E+00  0.00000000000E+00  0.15000465212E+04  0.15000465213E+04  0.25500000920E-02 0.  1.
        2   -1    0    0  501    0  0.00000000000E+00  0.00000000000E+00 -0.21262390929E+04  0.21262390929E+04  0.25500000920E-02 0. -1.
    10030    2    1    2    0    0  0.00000000000E+00  0.00000000000E+00 -0.62619257165E+03  0.36262856142E+04  0.35718104959E+04 0.  0.
        5    1    3    3  502    0 -0.17837577715E+04  0.44523406876E+02 -0.38948573075E+03  0.18263338538E+04  0.46999998093E+01 0.  1.
       -5    1    3    3    0  502  0.17837577715E+04 -0.44523406876E+02 -0.23670684090E+03  0.17999517604E+04  0.46999998093E+01 0. -1.
</event>
<event>
 5   0  0.2936607E-07  0.3395444E+04  0.7818609E-02  0.8139025E-01
       -1   -1    0    0    0  501  0.00000000000E+00  0.00000000000E+00  0.13658419838E+04  0.13658419838E+04  0.50400001928E-02 0.  1.
        1   -1    0    0  501    0  0.00000000000E+00  0.00000000000E+00 -0.21102437751E+04  0.21102437751E+04  0.50400001928E-02 0. -1.
    10030    2    1    2    0    0  0.00000000000E+00  0.00000000000E+00 -0.74440179137E+03  0.34760857589E+04  0.33954437378E+04 0.  0.
        2    1    3    3  502    0  0.66739788560E+03  0.12318683166E+04 -0.13537952129E+04  0.19482507451E+04  0.25500000920E-02 0.  1.
       -2    1    3    3    0  502 -0.66739788560E+03 -0.12318683166E+04  0.60939342153E+03  0.15278350138E+04  0.25500000920E-02 0. -1.
</event>
<event>
 5   0  0.8950809E-07  0.3616577E+04  0.7818609E-02  0.8086705E-01
       -2   -1    0    0    0  501  0.00000000000E+00  0.00000000000E+00  0.13750280086E+04  0.13750280086E+04  0.25500000920E-02 0.  1.
        2   -1    0    0  501    0  0.00000000000E+00  0.00000000000E+00 -0.23780662081E+04  0.23780662081E+04  0.25500000920E-02 0. -1.
    10030    2    1    2    0    0  0.00000000000E+00  0.00000000000E+00 -0.10030381995E+04  0.37530942166E+04  0.36165771897E+04 0.  0.
        2    1    3    3  502    0  0.78732058218E+03  0.79815958410E+03 -0.19738686996E+04  0.22700418640E+04  0.25500000920E-02 0. -1.
       -2    1    3    3    0  502 -0.78732058218E+03 -0.79815958410E+03  0.97083050010E+03  0.14830523527E+04  0.25500000920E-02 0.  1.
</event>
<event>
 5   0  0.9311672E-07  0.3491139E+04  0.7818609E-02  0.8115893E-01
        2   -1    0    0  501    0  0.00000000000E+00  0.00000000000E+00  0.20905327492E+04  0.20905327492E+04  0.25500000920E-02 0. -1.
       -2   -1    0    0    0  501  0.00000000000E+00  0.00000000000E+00 -0.14575293243E+04  0.14575293243E+04  0.25500000920E-02 0.  1.
    10030    2    1    2    0    0  0.00000000000E+00  0.00000000000E+00  0.63300342485E+03  0.35480620735E+04  0.34911389462E+04 0.  0.
        4    1    3    3  502    0 -0.81944801520E+03 -0.42193095839E+03 -0.11900622248E+04  0.15052476524E+04  0.12699999809E+01 0.  1.
       -4    1    3    3    0  502  0.81944801520E+03  0.42193095839E+03  0.18230656496E+04  0.20428144211E+04  0.12699999809E+01 0. -1.
</event>
<event>
 5   0  0.8845195E-07  0.2943707E+04  0.7818609E-02  0.8259991E-01
        2   -1    0    0  501    0  0.00000000000E+00  0.00000000000E+00  0.16645649033E+04  0.16645649033E+04  0.25500000920E-02 0. -1.
       -2   -1    0    0    0  501  0.00000000000E+00  0.00000000000E+00 -0.13014529345E+04  0.13014529345E+04  0.25500000920E-02 0.  1.
    10030    2    1    2    0    0  0.00000000000E+00  0.00000000000E+00  0.36311196882E+03  0.29660178378E+04  0.29437071037E+04 0.  0.
        5    1    3    3  502    0 -0.36661130847E+03  0.12732038798E+04  0.82741249003E+03  0.15620772995E+04  0.46999998093E+01 0. -1.
       -5    1    3    3    0  502  0.36661130847E+03 -0.12732038798E+04 -0.46430052122E+03  0.14039405383E+04  0.46999998093E+01 0.  1.
</event>
<event>
 5   0  0.2933506E-07  0.3455390E+04  0.7818609E-02  0.8124444E-01
        1   -1    0    0  501    0  0.00000000000E+00  0.00000000000E+00  0.24755139137E+04  0.24755139137E+04  0.50400001928E-02 0. -1.
       -1   -1    0    0    0  501  0.00000000000E+00  0.00000000000E+00 -0.12057818211E+04  0.12057818211E+04  0.50400001928E-02 0.  1.
    10030    2    1    2    0    0  0.00000000000E+00  0.00000000000E+00  0.12697320926E+04  0.36812957348E+04  0.34553898044E+04 0.  0.
        4    1    3    3  502    0  0.11921321643E+04  0.62025425756E+02  0.19654806678E+04  0.22995960774E+04  0.12699999809E+01 0. -1.
       -4    1    3    3    0  502 -0.11921321643E+04 -0.62025425756E+02 -0.69574857523E+03  0.13816996574E+04  0.12699999809E+01 0.  1.
</event>
<event>
 5   0  0.2933506E-07  0.3753258E+04  0.7818609E-02  0.8056261E-01
       -1   -1    0    0    0  501  0.00000000000E+00  0.00000000000E+00  0.17437663509E+04  0.17437663509E+04  0.50400001928E-02 0.  1.
        1   -1    0    0  501    0  0.00000000000E+00  0.00000000000E+00 -0.20196153351E+04  0.20196153351E+04  0.50400001928E-02 0. -1.
    10030    2    1    2    0    0  0.00000000000E+00  0.00000000000E+00 -0.27584898420E+03  0.37633816861E+04  0.37532584581E+04 0.  0.
        4    1    3    3  502    0 -0.29342776118E+03  0.17526755513E+04 -0.74267992645E+03  0.19260183086E+04  0.12699999809E+01 0.  1.
       -4    1    3    3    0  502  0.29342776118E+03 -0.17526755513E+04  0.46683094225E+03  0.18373633774E+04  0.12699999809E+01 0. -1.
</event>
<event>
 5   0  0.8950809E-07  0.3510002E+04  0.7818609E-02  0.8111424E-01
        2   -1    0    0  501    0  0.00000000000E+00  0.00000000000E+00  0.24850056920E+04  0.24850056920E+04  0.25500000920E-02 0.  1.
       -2   -1    0    0    0  501  0.00000000000E+00  0.00000000000E+00 -0.12394449587E+04  0.12394449587E+04  0.25500000920E-02 0. -1.
    10030    2    1    2    0    0  0.00000000000E+00  0.00000000000E+00  0.12455607333E+04  0.37244506507E+04  0.35100015825E+04 0.  0.
        2    1    3    3  502    0  0.13038157436E+03 -0.28084146349E+03 -0.12102333263E+04  0.12492141477E+04  0.25500000920E-02 0. -1.
       -2    1    3    3    0  502 -0.13038157436E+03  0.28084146349E+03  0.24557940597E+04  0.24752365031E+04  0.25500000920E-02 0.  1.
</event>
<event>
 5   0  0.9128871E-07  0.3362286E+04  0.7818609E-02  0.8147225E-01
       -2   -1    0    0    0  501  0.00000000000E+00  0.00000000000E+00  0.13857645829E+04  0.13857645829E+04  0.25500000920E-02 0.  1.
        2   -1    0    0  501    0  0.00000000000E+00  0.00000000000E+00 -0.20394818705E+04  0.20394818705E+04  0.25500000920E-02 0. -1.
    10030    2    1    2    0    0  0.00000000000E+00  0.00000000000E+00 -0.65371728759E+03  0.34252464534E+04  0.33622859745E+04 0.  0.
        1    1    3    3  502    0 -0.28323009588E+03 -0.32477451075E+03  0.13285448920E+04  0.13966851113E+04  0.50400001928E-02 0.  1.
       -1    1    3    3    0  502  0.28323009588E+03  0.32477451075E+03 -0.19822621796E+04  0.20285613421E+04  0.50400001928E-02 0. -1.
</event>
<event>
 5   0  0.9128871E-07  0.3524521E+04  0.7818609E-02  0.8108003E-01
        2   -1    0    0  501    0  0.00000000000E+00  0.00000000000E+00  0.28402634455E+04  0.28402634455E+04  0.25500000920E-02 0. -1.
       -2   -1    0    0    0  501  0.00000000000E+00  0.00000000000E+00 -0.10934062649E+04  0.10934062649E+04  0.25500000920E-02 0.  1.
    10030    2    1    2    0    0  0.00000000000E+00  0.00000000000E+00  0.17468571806E+04  0.39336697104E+04  0.35245208726E+04 0.  0.
        1    1    3    3  502    0  0.36529699724E+03 -0.44012837591E+03 -0.98692601670E+03  0.11406918278E+04  0.50400001928E-02 0.  1.
       -1    1    3    3    0  502 -0.36529699724E+03  0.44012837591E+03  0.27337831973E+04  0.27929778827E+04  0.50400001928E-02 0. -1.
</event>
<event>
 5   0  0.8845195E-07  0.3271229E+04  0.7818609E-02  0.8170255E-01
        2   -1    0    0  501    0  0.00000000000E+00  0.00000000000E+00  0.20446939493E+04  0.20446939493E+04  0.25500000920E-02 0. -1.
       -2   -1    0    0    0  501  0.00000000000E+00  0.00000000000E+00 -0.13083788920E+04  0.13083788920E+04  0.25500000920E-02 0.  1.
    10030    2    1    2    0    0  0.00000000000E+00  0.00000000000E+00  0.73631505727E+03  0.33530728413E+04  0.32712287624E+04 0.  0.
        5    1    3    3  502    0 -0.11802308822E+04  0.18391938908E+03 -0.77713410922E+03  0.14250371190E+04  0.46999998093E+01 0.  1.
       -5    1    3    3    0  502  0.11802308822E+04 -0.18391938908E+03  0.15134491665E+04  0.19280357223E+04  0.46999998093E+01 0. -1.
</event>
<event>
 5   0  0.6188930E-07  0.3308394E+04  0.7818609E-02  0.8160763E-01
        2   -1    0    0  501    0  0.00000000000E+00  0.00000000000E+00  0.18070587131E+04  0.18070587131E+04  0.25500000920E-02 0.  1.
       -2   -1    0    0    0  501  0.00000000000E+00  0.00000000000E+00 -0.15142664148E+04  0.15142664148E+04  0.25500000920E-02 0. -1.
    10030    2    1    2    0    0  0.00000000000E+00  0.00000000000E+00  0.29279229822E+03  0.33213251279E+04  0.33083943651E+04 0.  0.
        3    1    3    3  502    0 -0.11931733945E+03 -0.13472388945E+04 -0.80973327874E+03  0.15763747205E+04  0.10100000352E+00 0. -1.
       -3    1    3    3    0  502  0.11931733945E+03  0.13472388945E+04  0.11025255770E+04  0.17449504074E+04  0.10100000352E+00 0.  1.
</event>
<event>
 5   0  0.2933506E-07  0.3525039E+04  0.7818609E-02  0.8107882E-01
       -1   -1    0    0    0  501  0.00000000000E+00  0.00000000000E+00  0.13260184620E+04  0.13260184620E+04  0.50400001928E-02 0.  1.
        1   -1    0    0  501    0  0.00000000000E+00  0.00000000000E+00 -0.23427082057E+04  0.23427082057E+04  0.50400001928E-02 0. -1.
    10030    2    1    2    0    0  0.00000000000E+00  0.00000000000E+00 -0.10166897437E+04  0.36687266676E+04  0.35250386277E+04 0.  0.
        4    1    3    3  502    0  0.10481465421E+04  0.12311358329E+03  0.96082812280E+03  0.14272212241E+04  0.12699999809E+01 0.  1.
       -4    1    3    3    0  502 -0.10481465421E+04 -0.12311358329E+03 -0.19775178665E+04  0.22415054435E+04  0.12699999809E+01 0. -1.
</event>
<event>
 5   0  0.3026332E-07  0.3468732E+04  0.7818609E-02  0.8121240E-01
        1   -1    0    0  501    0  0.00000000000E+00  0.00000000000E+00  0.20436944477E+04  0.20436944477E+04  0.50400001928E-02 0. -1.
       -1   -1    0    0    0  501  0.00000000000E+00  0.00000000000E+00 -0.14718571140E+04  0.14718571140E+04  0.50400001928E-02 0.  1.
    10030    2    1    2    0    0  0.00000000000E+00  0.00000000000E+00  0.57183733364E+03  0.35155515617E+04  0.34687324553E+04 0.  0.
        1    1    3    3  502    0 -0.32241800664E+03 -0.73304669332E+03  0.18450966201E+04  0.20113906540E+04  0.50400001928E-02 0. -1.
       -1    1    3    3    0  502  0.32241800664E+03  0.73304669332E+03 -0.12732592864E+04  0.15041609077E+04  0.50400001928E-02 0.  1.
</event>
<event>
 5   0  0.2933506E-07  0.3476171E+04  0.7818609E-02  0.8119460E-01
       -1   -1    0    0    0  501  0.00000000000E+00  0.00000000000E+00  0.23478566449E+04  0.23478566449E+04  0.50400001928E-02 0. -1.
        1   -1    0    0  501    0  0.00000000000E+00  0.00000000000E+00 -0.12866802532E+04  0.12866802532E+04  0.50400001928E-02 0.  1.
    10030    2    1    2    0    0  0.00000000000E+00  0.00000000000E+00  0.10611763917E+04  0.36345368982E+04  0.34761707567E+04 0.  0.
        4    1    3    3  502    0 -0.15454795262E+04 -0.55764271377E+03 -0.62222525017E+02  0.16441853963E+04  0.12699999809E+01 0. -1.
       -4    1    3    3    0  502  0.15454795262E+04  0.55764271377E+03  0.11233989167E+04  0.19903515018E+04  0.12699999809E+01 0.  1.
</event>
<event>
 5   0  0.8845195E-07  0.3592372E+04  0.7818609E-02  0.8092241E-01
        2   -1    0    0  501    0  0.00000000000E+00  0.00000000000E+00  0.17092833288E+04  0.17092833288E+04  0.25500000920E-02 0.  1.
       -2   -1    0    0    0  501  0.00000000000E+00  0.00000000000E+00 -0.18875068119E+04  0.18875068119E+04  0.25500000920E-02 0. -1.
    10030    2    1    2    0    0  0.00000000000E+00  0.00000000000E+00 -0.17822348316E+03  0.35967901407E+04  0.35923718775E+04 0.  0.
        5    1    3    3  502    0 -0.75469092001E+03 -0.32671705100E+03  0.15097114741E+04  0.17191722547E+04  0.46999998093E+01 0.  1.
       -5    1    3    3    0  502  0.75469092001E+03  0.32671705100E+03 -0.16879349573E+04  0.18776178861E+04  0.46999998093E+01 0. -1.
</event>
<event>
 5   0  0.2907000E-07  0.3480153E+04  0.7818609E-02  0.8118510E-01
       -3   -1    0    0    0  501  0.00000000000E+00  0.00000000000E+00  0.24414491968E+04  0.24414491989E+04  0.10100000352E+00 0.  1.
        3   -1    0    0  501    0  0.00000000000E+00  0.00000000000E+00 -0.12401921128E+04  0.12401921169E+04  0.10100000352E+00 0. -1.
    10030    2    1    2    0    0  0.00000000000E+00  0.00000000000E+00  0.12012570840E+04  0.36816413158E+04  0.34801528984E+04 0.  0.
        4    1    3    3  502    0 -0.11463458494E+03  0.17352910514E+04  0.53814710697E+03  0.18204340259E+04  0.12699999809E+01 0. -1.
       -4    1    3    3    0  502  0.11463458494E+03 -0.17352910514E+04  0.66310997699E+03  0.18612072898E+04  0.12699999809E+01 0.  1.
</event>
<event>
 5   0  0.3026332E-07  0.3542597E+04  0.7818609E-02  0.8103769E-01
       -1   -1    0    0    0  501  0.00000000000E+00  0.00000000000E+00  0.16608204448E+04  0.16608204448E+04  0.50400001928E-02 0.  1.
        1   -1    0    0  501    0  0.00000000000E+00  0.00000000000E+00 -0.18891255212E+04  0.18891255212E+04  0.50400001928E-02 0. -1.
    10030    2    1    2    0    0  0.00000000000E+00  0.00000000000E+00 -0.22830507637E+03  0.35499459660E+04  0.35425969505E+04 0.  0.
        1    1    3    3  502    0 -0.10626065432E+04 -0.11783949277E+04  0.67472324137E+03  0.17242385924E+04  0.50400001928E-02 0.  1.
       -1    1    3    3    0  502  0.10626065432E+04  0.11783949277E+04 -0.90302831774E+03  0.18257073736E+04  0.50400001928E-02 0. -1.
</event>
<event>
 5   0  0.6188930E-07  0.3548868E+04  0.7818609E-02  0.8102306E-01
       -2   -1    0    0    0  501  0.00000000000E+00  0.00000000000E+00  0.11474995796E+04  0.11474995796E+04  0.25500000920E-02 0.  1.
        2   -1    0    0  501    0  0.00000000000E+00  0.00000000000E+00 -0.27438922905E+04  0.27438922905E+04  0.25500000920E-02 0. -1.
    10030    2    1    2    0    0  0.00000000000E+00  0.00000000000E+00 -0.15963927109E+04  0.38913918701E+04  0.35488675657E+04 0.  0.
        3    1    3    3  502    0  0.22663012747E+03  0.46209100951E+03 -0.26602498994E+04  0.27095790915E+04  0.10100000352E+00 0. -1.
       -3    1    3    3    0  502 -0.22663012747E+03 -0.46209100951E+03  0.10638571885E+04  0.11818127786E+04  0.10100000352E+00 0.  1.
</event>
<event>
 5   0  0.3026332E-07  0.3541503E+04  0.7818609E-02  0.8104024E-01
       -1   -1    0    0    0  501  0.00000000000E+00  0.00000000000E+00  0.22512139283E+04  0.22512139283E+04  0.50400001928E-02 0.  1.
        1   -1    0    0  501    0  0.00000000000E+00  0.00000000000E+00 -0.13928313520E+04  0.13928313520E+04  0.50400001928E-02 0. -1.
    10030    2    1    2    0    0  0.00000000000E+00  0.00000000000E+00  0.85838257630E+03  0.36440452803E+04  0.35415032624E+04 0.  0.
        1    1    3    3  502    0  0.93407914392E+03  0.14136574390E+04  0.95850819949E+03  0.19467072637E+04  0.50400001928E-02 0.  1.
       -1    1    3    3    0  502 -0.93407914392E+03 -0.14136574390E+04 -0.10012562319E+03  0.16973380166E+04  0.50400001928E-02 0. -1.
</event>
<event>
 5   0  0.9311672E-07  0.3580573E+04  0.7818609E-02  0.8094956E-01
       -2   -1    0    0    0  501  0.00000000000E+00  0.00000000000E+00  0.14750329578E+04  0.14750329578E+04  0.25500000920E-02 0.  1.
        2   -1    0    0  501    0  0.00000000000E+00  0.00000000000E+00 -0.21729175162E+04  0.21729175162E+04  0.25500000920E-02 0. -1.
    10030    2    1    2    0    0  0.00000000000E+00  0.00000000000E+00 -0.69788455840E+03  0.36479504740E+04  0.35805725525E+04 0.  0.
        4    1    3    3  502    0 -0.86742311378E+03  0.32413628981E+03 -0.19099744346E+04  0.21226142246E+04  0.12699999809E+01 0. -1.
       -4    1    3    3    0  502  0.86742311378E+03 -0.32413628981E+03  0.12120898762E+04  0.15253362494E+04  0.12699999809E+01 0.  1.
</event>
<event>
 5   0  0.6188930E-07  0.3182798E+04  0.7818609E-02  0.8193375E-01
        2   -1    0    0  501    0  0.00000000000E+00  0.00000000000E+00  0.21216952810E+04  0.21216952810E+04  0.25500000920E-02 0. -1.
       -2   -1    0    0    0  501  0.00000000000E+00  0.00000000000E+00 -0.11936449207E+04  0.11936449207E+04  0.25500000920E-02 0.  1.
    10030    2    1    2    0    0  0.00000000000E+00  0.00000000000E+00  0.92805036034E+03  0.33153402017E+04  0.31827980114E+04 0.  0.
        3    1    3    3  502    0 -0.43448082469E+02  0.21152606437E+03  0.21063633112E+04  0.21174034620E+04  0.10100000352E+00 0. -1.
       -3    1    3    3    0  502  0.43448082469E+02 -0.21152606437E+03 -0.11783129509E+04  0.11979367397E+04  0.10100000352E+00 0.  1.
</event>
<event>
 5   0  0.8950809E-07  0.3486143E+04  0.7818609E-02  0.8117082E-01
       -2   -1    0    0    0  501  0.00000000000E+00  0.00000000000E+00  0.21874424132E+04  0.21874424132E+04  0.25500000920E-02 0. -1.
        2   -1    0    0  501    0  0.00000000000E+00  0.00000000000E+00 -0.13889727817E+04  0.13889727817E+04  0.25500000920E-02 0.  1.
    10030    2    1    2    0    0  0.00000000000E+00  0.00000000000E+00  0.79846963149E+03  0.35764151949E+04  0.34861428390E+04 0.  0.
        2    1    3    3  502    0  0.14561726734E+03  0.93197215505E+03 -0.11045046723E+04  0.14524830662E+04  0.25500000920E-02 0.  1.
       -2    1    3    3    0  502 -0.14561726734E+03 -0.93197215505E+03  0.19029743038E+04  0.21239321287E+04  0.25500000920E-02 0. -1.
</event>
<event>
 5   0  0.3061330E-07  0.3502486E+04  0.7818609E-02  0.8113201E-01
        1   -1    0    0  501    0  0.00000000000E+00  0.00000000000E+00  0.20948028471E+04  0.20948028471E+04  0.50400001928E-02 0. -1.
       -1   -1    0    0    0  501  0.00000000000E+00  0.00000000000E+00 -0.14640289976E+04  0.14640289976E+04  0.50400001928E-02 0.  1.
    10030    2    1    2    0    0  0.00000000000E+00  0.00000000000E+00  0.63077384949E+03  0.35588318447E+04  0.35024860385E+04 0.  0.
        5    1    3    3  502    0  0.10759957928E+03  0.97540234899E+02  0.20886670409E+04  0.20937153256E+04  0.46999998093E+01 0. -1.
       -5    1    3    3    0  502 -0.10759957928E+03 -0.97540234899E+02 -0.14578931914E+04  0.14651165191E+04  0.46999998093E+01 0.  1.
</event>
<event>
 5   0  0.3026332E-07  0.3517731E+04  0.7818609E-02  0.8109601E-01
       -1   -1    0    0    0  501  0.00000000000E+00  0.00000000000E+00  0.12755900981E+04  0.12755900982E+04  0.50400001928E-02 0. -1.
        1   -1    0    0  501    0  0.00000000000E+00  0.00000000000E+00 -0.24252368757E+04  0.24252368757E+04  0.50400001928E-02 0.  1.
    10030    2    1    2    0    0  0.00000000000E+00  0.00000000000E+00 -0.11496467776E+04  0.37008269739E+04  0.35177311690E+04 0.  0.
        1    1    3    3  502    0 -0.20288303244E+03  0.15151432415E+03 -0.24059606401E+04  0.24192487919E+04  0.50400001928E-02 0.  1.
       -1    1    3    3    0  502  0.20288303244E+03 -0.15151432415E+03  0.12563138625E+04  0.12815781820E+04  0.50400001928E-02 0. -1.
</event>
<event>
 5   0  0.9311672E-07  0.3499039E+04  0.7818609E-02  0.8114018E-01
        2   -1    0    0  501    0  0.00000000000E+00  0.00000000000E+00  0.19113872909E+04  0.19113872909E+04  0.25500000920E-02 0. -1.
       -2   -1    0    0    0  501  0.00000000000E+00  0.00000000000E+00 -0.16013595044E+04  0.16013595044E+04  0.25500000920E-02 0.  1.
    10030    2    1    2    0    0  0.00000000000E+00  0.00000000000E+00  0.31002778650E+03  0.35127467953E+04  0.34990388422E+04 0.  0.
        4    1    3    3  502    0 -0.13448635037E+04  0.10758580672E+04 -0.15390604432E+03  0.17291087611E+04  0.12699999809E+01 0.  1.
       -4    1    3    3    0  502  0.13448635037E+04 -0.10758580672E+04  0.46393383083E+03  0.17836380341E+04  0.12699999809E+01 0. -1.
</event>
<event>
 5   0  0.9311672E-07  0.3522854E+04  0.7818609E-02  0.8108395E-01
        2   -1    0    0  501    0  0.00000000000E+00  0.00000000000E+00  0.22550041375E+04  0.22550041375E+04  0.25500000920E-02 0. -1.
       -2   -1    0    0    0  501  0.00000000000E+00  0.00000000000E+00 -0.13758844684E+04  0.13758844684E+04  0.25500000920E-02 0.  1.
    10030    2    1    2    0    0  0.00000000000E+00  0.00000000000E+00  0.87911966910E+03  0.36308886058E+04  0.35228540525E+04 0.  0.
        4    1    3    3  502    0  0.18150183578E+03 -0.16006897798E+04  0.11737772606E+04  0.19932148298E+04  0.12699999809E+01 0. -1.
       -4    1    3    3    0  502 -0.18150183578E+03  0.16006897798E+04 -0.29465759150E+03  0.16376737760E+04  0.12699999809E+01 0.  1.
</event>
<event>
 5   0  0.8845195E-07  0.3499428E+04  0.7818609E-02  0.8113925E-01
       -2   -1    0    0    0  501  0.00000000000E+00  0.00000000000E+00  0.20264205494E+04  0.20264205494E+04  0.25500000920E-02 0.  1.
        2   -1    0    0  501    0  0.00000000000E+00  0.00000000000E+00 -0.15107918908E+04  0.15107918908E+04  0.25500000920E-02 0. -1.
    10030    2    1    2    0    0  0.00000000000E+00  0.00000000000E+00  0.51562865865E+03  0.35372124402E+04  0.34994283724E+04 0.  0.
        5    1    3    3  502    0  0.57896941747E+01 -0.16647140656E+04 -0.28667727779E+03  0.16892342622E+04  0.46999998093E+01 0. -1.
       -5    1    3    3    0  502 -0.57896941747E+01  0.16647140656E+04  0.80230593644E+03  0.18479781781E+04  0.46999998093E+01 0.  1.
</event>
<event>
 5   0  0.6188930E-07  0.3496202E+04  0.7818609E-02  0.8114691E-01
        2   -1    0    0  501    0  0.00000000000E+00  0.00000000000E+00  0.25287017736E+04  0.25287017736E+04  0.25500000920E-02 0. -1.
       -2   -1    0    0    0  501  0.00000000000E+00  0.00000000000E+00 -0.12084688045E+04  0.12084688045E+04  0.25500000920E-02 0.  1.
    10030    2    1    2    0    0  0.00000000000E+00  0.00000000000E+00  0.13202329692E+04  0.37371705781E+04  0.34962020589E+04 0.  0.
        3    1    3    3  502    0  0.10259929415E+04  0.11090158823E+04  0.16000878698E+04  0.22006496642E+04  0.10100000352E+00 0. -1.
       -3    1    3    3    0  502 -0.10259929415E+04 -0.11090158823E+04 -0.27985490061E+03  0.15365209139E+04  0.10100000352E+00 0.  1.
</event>
<event>
 5   0  0.9311672E-07  0.3511097E+04  0.7818609E-02  0.8111165E-01
        2   -1    0    0  501    0  0.00000000000E+00  0.00000000000E+00  0.21890210059E+04  0.21890210059E+04  0.25500000920E-02 0. -1.
       -2   -1    0    0    0  501  0.00000000000E+00  0.00000000000E+00 -0.14079125856E+04  0.14079125856E+04  0.25500000920E-02 0.  1.
    10030    2    1    2    0    0  0.00000000000E+00  0.00000000000E+00  0.78110842032E+03  0.35969335914E+04  0.35110968225E+04 0.  0.
        4    1    3    3  502    0  0.11374934738E+04 -0.39307411047E+03 -0.91879600384E+03  0.15141289142E+04  0.12699999809E+01 0.  1.
       -4    1    3    3    0  502 -0.11374934738E+04  0.39307411047E+03  0.16999044242E+04  0.20828046772E+04  0.12699999809E+01 0. -1.
</event>
<event>
 5   0  0.2907000E-07  0.3514251E+04  0.7818609E-02  0.8110421E-01
       -3   -1    0    0    0  501  0.00000000000E+00  0.00000000000E+00  0.10978573709E+04  0.10978573756E+04  0.10100000352E+00 0.  1.
        3   -1    0    0  501    0  0.00000000000E+00  0.00000000000E+00 -0.28122875336E+04  0.28122875354E+04  0.10100000352E+00 0. -1.
    10030    2    1    2    0    0  0.00000000000E+00  0.00000000000E+00 -0.17144301627E+04  0.39101449109E+04  0.35142513345E+04 0.  0.
        3    1    3    3  502    0  0.13273148261E+04  0.11107526392E+04 -0.51981390489E+03  0.18071365690E+04  0.10100000352E+00 0.  1.
       -3    1    3    3    0  502 -0.13273148261E+04 -0.11107526392E+04 -0.11946162578E+04  0.21030083420E+04  0.10100000352E+00 0. -1.
</event>
<event>
 5   0  0.2972541E-07  0.3501855E+04  0.7818609E-02  0.8113350E-01
       -1   -1    0    0    0  501  0.00000000000E+00  0.00000000000E+00  0.12848631252E+04  0.12848631252E+04  0.50400001928E-02 0.  1.
        1   -1    0    0  501    0  0.00000000000E+00  0.00000000000E+00 -0.23860499391E+04  0.23860499391E+04  0.50400001928E-02 0. -1.
    10030    2    1    2    0    0  0.00000000000E+00  0.00000000000E+00 -0.11011868139E+04  0.36709130642E+04  0.35018552692E+04 0.  0.
        3    1    3    3  502    0  0.79266769577E+02  0.14361036498E+04 -0.15973335371E+04  0.21494537336E+04  0.10100000352E+00 0. -1.
       -3    1    3    3    0  502 -0.79266769577E+02 -0.14361036498E+04  0.49614672318E+03  0.15214593307E+04  0.10100000352E+00 0.  1.
</event>
<event>
 5   0  0.2936607E-07  0.2868041E+04  0.7818609E-02  0.8282450E-01
        1   -1    0    0  501    0  0.00000000000E+00  0.00000000000E+00  0.99269146266E+03  0.99269146267E+03  0.50400001928E-02 0.  1.
       -1   -1    0    0    0  501  0.00000000000E+00  0.00000000000E+00 -0.20715547538E+04  0.20715547538E+04  0.50400001928E-02 0. -1.
    10030    2    1    2    0    0  0.00000000000E+00  0.00000000000E+00 -0.10788632911E+04  0.30642462164E+04  0.28680409471E+04 0.  0.
        2    1    3    3  502    0 -0.43687669209E+03 -0.77726088452E+03 -0.17393950287E+04  0.19546075802E+04  0.25500000920E-02 0. -1.
       -2    1    3    3    0  502  0.43687669209E+03  0.77726088452E+03  0.66053173759E+03  0.11096386363E+04  0.25500000920E-02 0.  1.
</event>
<event>
 5   0  0.2907000E-07  0.3233677E+04  0.7818609E-02  0.8179979E-01
       -3   -1    0    0    0  501  0.00000000000E+00  0.00000000000E+00  0.13013616737E+04  0.13013616776E+04  0.10100000352E+00 0.  1.
        3   -1    0    0  501    0  0.00000000000E+00  0.00000000000E+00 -0.20087938200E+04  0.20087938225E+04  0.10100000352E+00 0. -1.
    10030    2    1    2    0    0  0.00000000000E+00  0.00000000000E+00 -0.70743214627E+03  0.33101555001E+04  0.32336773484E+04 0.  0.
        2    1    3    3  502    0 -0.42964892211E+03 -0.11358463677E+04 -0.14463986967E+04  0.18886011642E+04  0.25500000920E-02 0. -1.
       -2    1    3    3    0  502  0.42964892211E+03  0.11358463677E+04  0.73896655047E+03  0.14215543360E+04  0.25500000920E-02 0.  1.
</event>
<event>
 5   0  0.9311672E-07  0.3526038E+04  0.7818609E-02  0.8107647E-01
        2   -1    0    0  501    0  0.00000000000E+00  0.00000000000E+00  0.14159287911E+04  0.14159287911E+04  0.25500000920E-02 0.  1.
       -2   -1    0    0    0  501  0.00000000000E+00  0.00000000000E+00 -0.21951919939E+04  0.21951919939E+04  0.25500000920E-02 0. -1.
    10030    2    1    2    0    0  0.00000000000E+00  0.00000000000E+00 -0.77926320278E+03  0.36111207850E+04  0.35260377458E+04 0.  0.
        4    1    3    3  502    0  0.13497989261E+04  0.38684808332E+03 -0.14814834843E+04  0.20411769907E+04  0.12699999809E+01 0. -1.
       -4    1    3    3    0  502 -0.13497989261E+04 -0.38684808332E+03  0.70222028150E+03  0.15699437942E+04  0.12699999809E+01 0.  1.
</event>
<event>
 5   0  0.6188930E-07  0.3539396E+04  0.7818609E-02  0.8104516E-01
       -2   -1    0    0    0  501  0.00000000000E+00  0.00000000000E+00  0.13878049511E+04  0.13878049511E+04  0.25500000920E-02 0.  1.
        2   -1    0    0  501    0  0.00000000000E+00  0.00000000000E+00 -0.22566800253E+04  0.22566800253E+04  0.25500000920E-02 0. -1.
    10030    2    1    2    0    0  0.00000000000E+00  0.00000000000E+00 -0.86887507427E+03  0.36444849764E+04  0.35393963961E+04 0.  0.
        3    1    3    3  502    0 -0.71620309535E+03 -0.78590532734E+03 -0.18910911548E+04  0.21695206437E+04  0.10100000352E+00 0. -1.
       -3    1    3    3    0  502  0.71620309535E+03  0.78590532734E+03  0.10222160805E+04  0.14749643327E+04  0.10100000352E+00 0.  1.
</event>
<event>
 5   0  0.3061330E-07  0.3524503E+04  0.7818609E-02  0.8108008E-01
       -1   -1    0    0    0  501  0.00000000000E+00  0.00000000000E+00  0.33255712662E+04  0.33255712662E+04  0.50400001928E-02 0.  1.
        1   -1    0    0  501    0  0.00000000000E+00  0.00000000000E+00 -0.93383358716E+03  0.93383358717E+03  0.50400001928E-02 0. -1.
    10030    2    1    2    0    0  0.00000000000E+00  0.00000000000E+00  0.23917376790E+04  0.42594048534E+04  0.35245028840E+04 0.  0.
        5    1    3    3  502    0 -0.11364055599E+04  0.73350227436E+03  0.25610410143E+04  0.28962728376E+04  0.46999998093E+01 0.  1.
       -5    1    3    3    0  502  0.11364055599E+04 -0.73350227436E+03 -0.16930333524E+03  0.13631320158E+04  0.46999998093E+01 0. -1.
</event>
<event>
 5   0  0.8950809E-07  0.3490756E+04  0.7818609E-02  0.8115984E-01
        2   -1    0    0  501    0  0.00000000000E+00  0.00000000000E+00  0.20262122429E+04  0.20262122429E+04  0.25500000920E-02 0.  1.
       -2   -1    0    0    0  501  0.00000000000E+00  0.00000000000E+00 -0.15034676113E+04  0.15034676113E+04  0.25500000920E-02 0. -1.
    10030    2    1    2    0    0  0.00000000000E+00  0.00000000000E+00  0.52274463165E+03  0.35296798542E+04  0.34907560676E+04 0.  0.
        2    1    3    3  502    0  0.12387804460E+04 -0.77701585356E+03 -0.70215060698E+03  0.16221424429E+04  0.25500000920E-02 0. -1.
       -2    1    3    3    0  502 -0.12387804460E+04  0.77701585356E+03  0.12248952386E+04  0.19075374114E+04  0.25500000920E-02 0.  1.
</event>
<event>
 5   0  0.9311672E-07  0.3423957E+04  0.7818609E-02  0.8132051E-01
       -2   -1    0    0    0  501  0.00000000000E+00  0.00000000000E+00  0.16367039082E+04  0.16367039082E+04  0.25500000920E-02 0. -1.
        2   -1    0    0  501    0  0.00000000000E+00  0.00000000000E+00 -0.17907148107E+04  0.17907148107E+04  0.25500000920E-02 0.  1.
    10030    2    1    2    0    0  0.00000000000E+00  0.00000000000E+00 -0.15401090249E+03  0.34274187189E+04  0.34239567341E+04 0.  0.
        4    1    3    3  502    0  0.12979940656E+04  0.19877703644E+03  0.10225438116E+04  0.16643011639E+04  0.12699999809E+01 0. -1.
       -4    1    3    3    0  502 -0.12979940656E+04 -0.19877703644E+03 -0.11765547141E+04  0.17631175550E+04  0.12699999809E+01 0.  1.
</event>
<event>
 5   0  0.2933506E-07  0.3557425E+04  0.7818609E-02  0.8100314E-01
        1   -1    0    0  501    0  0.00000000000E+00  0.00000000000E+00  0.22437829688E+04  0.22437829688E+04  0.50400001928E-02 0. -1.
       -1   -1    0    0    0  501  0.00000000000E+00  0.00000000000E+00 -0.14100376013E+04  0.14100376013E+04  0.50400001928E-02 0.  1.
    10030    2    1    2    0    0  0.00000000000E+00  0.00000000000E+00  0.83374536748E+03  0.36538205702E+04  0.35574251111E+04 0.  0.
        4    1    3    3  502    0  0.14385926267E+04 -0.88857165621E+03 -0.15008894801E+03  0.16975384057E+04  0.12699999809E+01 0.  1.
       -4    1    3    3    0  502 -0.14385926267E+04  0.88857165621E+03  0.98383431549E+03  0.19562821644E+04  0.12699999809E+01 0. -1.
</event>
<event>
 5   0  0.8950809E-07  0.3492155E+04  0.7818609E-02  0.8115652E-01
       -2   -1    0    0    0  501  0.00000000000E+00  0.00000000000E+00  0.18167132812E+04  0.18167132812E+04  0.25500000920E-02 0. -1.
        2   -1    0    0  501    0  0.00000000000E+00  0.00000000000E+00 -0.16781885198E+04  0.16781885198E+04  0.25500000920E-02 0.  1.
    10030    2    1    2    0    0  0.00000000000E+00  0.00000000000E+00  0.13852476135E+03  0.34949018010E+04  0.34921554217E+04 0.  0.
        2    1    3    3  502    0 -0.16347942570E+04  0.51722860729E+03 -0.26070842453E+03  0.17343720990E+04  0.25500000920E-02 0. -1.
       -2    1    3    3    0  502  0.16347942570E+04 -0.51722860729E+03  0.39923318588E+03  0.17605297020E+04  0.25500000920E-02 0.  1.
</event>
<event>
 5   0  0.2972541E-07  0.3539481E+04  0.7818609E-02  0.8104497E-01
        1   -1    0    0  501    0  0.00000000000E+00  0.00000000000E+00  0.15237473442E+04  0.15237473442E+04  0.50400001928E-02 0. -1.
       -1   -1    0    0    0  501  0.00000000000E+00  0.00000000000E+00 -0.20554464131E+04  0.20554464131E+04  0.50400001928E-02 0.  1.
    10030    2    1    2    0    0  0.00000000000E+00  0.00000000000E+00 -0.53169906886E+03  0.35791937573E+04  0.35394807603E+04 0.  0.
        3    1    3    3  502    0 -0.11574316250E+04 -0.86659086627E+03  0.76606731448E+03  0.16363027949E+04  0.10100000352E+00 0. -1.
       -3    1    3    3    0  502  0.11574316250E+04  0.86659086627E+03 -0.12977663833E+04  0.19428909624E+04  0.10100000352E+00 0.  1.
</event>
<event>
 5   0  0.3061330E-07  0.3468312E+04  0.7818609E-02  0.8121341E-01
        1   -1    0    0  501    0  0.00000000000E+00  0.00000000000E+00  0.21314898543E+04  0.21314898543E+04  0.50400001928E-02 0. -1.
       -1   -1    0    0    0  501  0.00000000000E+00  0.00000000000E+00 -0.14108896479E+04  0.14108896479E+04  0.50400001928E-02 0.  1.
    10030    2    1    2    0    0  0.00000000000E+00  0.00000000000E+00  0.72060020641E+03  0.35423795022E+04  0.34683119641E+04 0.  0.
        5    1    3    3  502    0  0.13525799070E+04  0.14550148463E+03  0.14587354383E+04  0.19946363719E+04  0.46999998093E+01 0. -1.
       -5    1    3    3    0  502 -0.13525799070E+04 -0.14550148463E+03 -0.73813523193E+03  0.15477431304E+04  0.46999998093E+01 0.  1.
</event>
<event>
 5   0  0.3026332E-07  0.3445119E+04  0.7818609E-02  0.8126921E-01
        1   -1    0    0  501    0  0.00000000000E+00  0.00000000000E+00  0.16829769626E+04  0.16829769626E+04  0.50400001928E-02 0. -1.
       -1   -1    0    0    0  501  0.00000000000E+00  0.00000000000E+00 -0.17630730540E+04  0.17630730540E+04  0.50400001928E-02 0.  1.
    10030    2    1    2    0    0  0.00000000000E+00  0.00000000000E+00 -0.80096091420E+02  0.34460500166E+04  0.34451190593E+04 0.  0.
        1    1    3    3  502    0  0.12668558012E+04 -0.38572974740E+03 -0.11419356075E+04  0.17486360373E+04  0.50400001928E-02 0.  1.
       -1    1    3    3    0  502 -0.12668558012E+04  0.38572974740E+03  0.10618395161E+04  0.16974139793E+04  0.50400001928E-02 0. -1.
</event>
<event>
 5   0  0.8845195E-07  0.3505121E+04  0.7818609E-02  0.8112577E-01
        2   -1    0    0  501    0  0.00000000000E+00  0.00000000000E+00  0.25266661422E+04  0.25266661422E+04  0.25500000920E-02 0. -1.
       -2   -1    0    0    0  501  0.00000000000E+00  0.00000000000E+00 -0.12156210856E+04  0.12156210856E+04  0.25500000920E-02 0.  1.
    10030    2    1    2    0    0  0.00000000000E+00  0.00000000000E+00  0.13110450566E+04  0.37422872278E+04  0.35051211897E+04 0.  0.
        5    1    3    3  502    0  0.12831124560E+04  0.11050278350E+04  0.11377261735E+04  0.20400752503E+04  0.46999998093E+01 0. -1.
       -5    1    3    3    0  502 -0.12831124560E+04 -0.11050278350E+04  0.17331888307E+03  0.17022119775E+04  0.46999998093E+01 0.  1.
</event>
<event>
 5   0  0.3061330E-07  0.3381387E+04  0.7818609E-02  0.8142490E-01
        1   -1    0    0  501    0  0.00000000000E+00  0.00000000000E+00  0.19692383019E+04  0.19692383019E+04  0.50400001928E-02 0. -1.
       -1   -1    0    0    0  501  0.00000000000E+00  0.00000000000E+00 -0.14515480014E+04  0.14515480014E+04  0.50400001928E-02 0.  1.
    10030    2    1    2    0    0  0.00000000000E+00  0.00000000000E+00  0.51769030043E+03  0.34207863033E+04  0.33813866513E+04 0.  0.
        5    1    3    3  502    0 -0.73612196399E+03  0.10937915070E+04 -0.81186615047E+03  0.15483553025E+04  0.46999998093E+01 0.  1.
       -5    1    3    3    0  502  0.73612196399E+03 -0.10937915070E+04  0.13295564509E+04  0.18724310008E+04  0.46999998093E+01 0. -1.
</event>
<event>
 5   0  0.6188930E-07  0.3191629E+04  0.7818609E-02  0.8191031E-01
        2   -1    0    0  501    0  0.00000000000E+00  0.00000000000E+00  0.19869433405E+04  0.19869433405E+04  0.25500000920E-02 0. -1.
       -2   -1    0    0    0  501  0.00000000000E+00  0.00000000000E+00 -0.12816790749E+04  0.12816790750E+04  0.25500000920E-02 0.  1.
    10030    2    1    2    0    0  0.00000000000E+00  0.00000000000E+00  0.70526426552E+03  0.32686224154E+04  0.31916288648E+04 0.  0.
        3    1    3    3  502    0 -0.14748773091E+04 -0.60512916074E+03  0.27892856523E+03  0.16184083331E+04  0.10100000352E+00 0. -1.
       -3    1    3    3    0  502  0.14748773091E+04  0.60512916074E+03  0.42633570029E+03  0.16502140823E+04  0.10100000352E+00 0.  1.
</event>
<event>
 5   0  0.2933506E-07  0.3508256E+04  0.7818609E-02  0.8111836E-01
        1   -1    0    0  501    0  0.00000000000E+00  0.00000000000E+00  0.11704885120E+04  0.11704885120E+04  0.50400001928E-02 0.  1.
       -1   -1    0    0    0  501  0.00000000000E+00  0.00000000000E+00 -0.26287874931E+04  0.26287874931E+04  0.50400001928E-02 0. -1.
    10030    2    1    2    0    0  0.00000000000E+00  0.00000000000E+00 -0.14582989811E+04  0.37992760051E+04  0.35082562969E+04 0.  0.
        4    1    3    3  502    0  0.14789350670E+04 -0.13409491966E+02 -0.17505383131E+04  0.22916838232E+04  0.12699999809E+01 0.  1.
       -4    1    3    3    0  502 -0.14789350670E+04  0.13409491966E+02  0.29223933205E+03  0.15075921819E+04  0.12699999809E+01 0. -1.
</event>
<event>
 5   0  0.2972541E-07  0.3487446E+04  0.7818609E-02  0.8116771E-01
        1   -1    0    0  501    0  0.00000000000E+00  0.00000000000E+00  0.16580773737E+04  0.16580773737E+04  0.50400001928E-02 0. -1.
       -1   -1    0    0    0  501  0.00000000000E+00  0.00000000000E+00 -0.18337927818E+04  0.18337927819E+04  0.50400001928E-02 0.  1.
    10030    2    1    2    0    0  0.00000000000E+00  0.00000000000E+00 -0.17571540815E+03  0.34918701555E+04  0.34874462402E+04 0.  0.
        3    1    3    3  502    0 -0.10748799748E+04  0.77361408201E+03 -0.12236354809E+04  0.18030888798E+04  0.10100000352E+00 0.  1.
       -3    1    3    3    0  502  0.10748799748E+04 -0.77361408201E+03  0.10479200728E+04  0.16887812757E+04  0.10100000352E+00 0. -1.
</event>
<event>
 5   0  0.6188930E-07  0.3465958E+04  0.7818609E-02  0.8121905E-01
       -2   -1    0    0    0  501  0.00000000000E+00  0.00000000000E+00  0.11049796401E+04  0.11049796401E+04  0.25500000920E-02 0.  1.
        2   -1    0    0  501    0  0.00000000000E+00  0.00000000000E+00 -0.27178925395E+04  0.27178925395E+04  0.25500000920E-02 0. -1.
    10030    2    1    2    0    0  0.00000000000E+00  0.00000000000E+00 -0.16129128994E+04  0.38228721796E+04  0.34659578302E+04 0.  0.
        3    1    3    3  502    0  0.15768286062E+04  0.87784325269E+02 -0.15934608593E+04  0.22434821286E+04  0.10100000352E+00 0. -1.
       -3    1    3    3    0  502 -0.15768286062E+04 -0.87784325269E+02 -0.19452040049E+02  0.15793900510E+04  0.10100000352E+00 0.  1.
</event>
<event>
 5   0  0.6188930E-07  0.3477799E+04  0.7818609E-02  0.8119072E-01
       -2   -1    0    0    0  501  0.00000000000E+00  0.00000000000E+00  0.18839401842E+04  0.18839401842E+04  0.25500000920E-02 0.  1.
        2   -1    0    0  501    0  0.00000000000E+00  0.00000000000E+00 -0.16050251751E+04  0.16050251751E+04  0.25500000920E-02 0. -1.
    10030    2    1    2    0    0  0.00000000000E+00  0.00000000000E+00  0.27891500909E+03  0.34889653592E+04  0.34777989729E+04 0.  0.
        3    1    3    3  502    0  0.15451726569E+03 -0.15489594474E+04 -0.63802789707E+03  0.16823289104E+04  0.10100000352E+00 0. -1.
       -3    1    3    3    0  502 -0.15451726569E+03  0.15489594474E+04  0.91694290616E+03  0.18066364489E+04  0.10100000352E+00 0.  1.
</event>
<event>
 5   0  0.8845195E-07  0.3494888E+04  0.7818609E-02  0.8115002E-01
       -2   -1    0    0    0  501  0.00000000000E+00  0.00000000000E+00  0.15708112700E+04  0.15708112700E+04  0.25500000920E-02 0.  1.
        2   -1    0    0  501    0  0.00000000000E+00  0.00000000000E+00 -0.19439384566E+04  0.19439384566E+04  0.25500000920E-02 0. -1.
    10030    2    1    2    0    0  0.00000000000E+00  0.00000000000E+00 -0.37312718657E+03  0.35147497266E+04  0.34948879443E+04 0.  0.
        5    1    3    3  502    0 -0.16467195674E+04  0.20164338594E+03 -0.73849302874E+03  0.18159679051E+04  0.46999998093E+01 0. -1.
       -5    1    3    3    0  502  0.16467195674E+04 -0.20164338594E+03  0.36536584217E+03  0.16987818216E+04  0.46999998093E+01 0.  1.
</event>
<event>
 5   0  0.2933506E-07  0.3484476E+04  0.7818609E-02  0.8117479E-01
        1   -1    0    0  501    0  0.00000000000E+00  0.00000000000E+00  0.22404635840E+04  0.22404635840E+04  0.50400001928E-02 0. -1.
       -1   -1    0    0    0  501  0.00000000000E+00  0.00000000000E+00 -0.13548062564E+04  0.13548062564E+04  0.50400001928E-02 0.  1.
    10030    2    1    2    0    0  0.00000000000E+00  0.00000000000E+00  0.88565732764E+03  0.35952698404E+04  0.34844764777E+04 0.  0.
        4    1    3    3  502    0  0.51566710787E+02 -0.16881510982E+04  0.15873946402E+01  0.16889397233E+04  0.12699999809E+01 0. -1.
       -4    1    3    3    0  502 -0.51566710787E+02  0.16881510982E+04  0.88406993300E+03  0.19063301171E+04  0.12699999809E+01 0.  1.
</event>
<event>
 5   0  0.3061330E-07  0.3500549E+04  0.7818609E-02  0.8113660E-01
        1   -1    0    0  501    0  0.00000000000E+00  0.00000000000E+00  0.32108472725E+04  0.32108472725E+04  0.50400001928E-02 0.  1.
       -1   -1    0    0    0  501  0.00000000000E+00  0.00000000000E+00 -0.95409724592E+03  0.95409724594E+03  0.50400001928E-02 0. -1.
    10030    2    1    2    0    0  0.00000000000E+00  0.00000000000E+00  0.22567500266E+04  0.41649445185E+04  0.35005488369E+04 0.  0.
        5    1    3    3  502    0 -0.14415751908E+04 -0.56553554951E+03  0.20989676261E+04  0.26083820030E+04  0.46999998093E+01 0.  1.
       -5    1    3    3    0  502  0.14415751908E+04  0.56553554951E+03  0.15778240050E+03  0.15565625154E+04  0.46999998093E+01 0. -1.
</event>
<event>
 5   0  0.2936607E-07  0.3454865E+04  0.7818609E-02  0.8124570E-01
        1   -1    0    0  501    0  0.00000000000E+00  0.00000000000E+00  0.23505379454E+04  0.23505379454E+04  0.50400001928E-02 0.  1.
       -1   -1    0    0    0  501  0.00000000000E+00  0.00000000000E+00 -0.12695065139E+04  0.12695065139E+04  0.50400001928E-02 0. -1.
    10030    2    1    2    0    0  0.00000000000E+00  0.00000000000E+00  0.10810314315E+04  0.36200444593E+04  0.34548651105E+04 0.  0.
        2    1    3    3  502    0  0.15278145537E+04 -0.64469946461E+03  0.33470059322E+02  0.16586063291E+04  0.25500000920E-02 0. -1.
       -2    1    3    3    0  502 -0.15278145537E+04  0.64469946461E+03  0.10475613722E+04  0.19614381302E+04  0.25500000920E-02 0.  1.
</event>
<event>
 5   0  0.3026332E-07  0.2878130E+04  0.7818609E-02  0.8279414E-01
        1   -1    0    0  501    0  0.00000000000E+00  0.00000000000E+00  0.21455644683E+04  0.21455644683E+04  0.50400001928E-02 0. -1.
       -1   -1    0    0    0  501  0.00000000000E+00  0.00000000000E+00 -0.96520407143E+03  0.96520407144E+03  0.50400001928E-02 0.  1.
    10030    2    1    2    0    0  0.00000000000E+00  0.00000000000E+00  0.11803603969E+04  0.31107685398E+04  0.28781296429E+04 0.  0.
        1    1    3    3  502    0 -0.39380356148E+03 -0.42092398769E+03 -0.83497887510E+03  0.10146171546E+04  0.50400001928E-02 0.  1.
       -1    1    3    3    0  502  0.39380356148E+03  0.42092398769E+03  0.20153392720E+04  0.20961513852E+04  0.50400001928E-02 0. -1.
</event>
<event>
 5   0  0.2907000E-07  0.3517769E+04  0.7818609E-02  0.8109592E-01
       -3   -1    0    0    0  501  0.00000000000E+00  0.00000000000E+00  0.16715313062E+04  0.16715313093E+04  0.10100000352E+00 0.  1.
        3   -1    0    0  501    0  0.00000000000E+00  0.00000000000E+00 -0.18508023177E+04  0.18508023204E+04  0.10100000352E+00 0. -1.
    10030    2    1    2    0    0  0.00000000000E+00  0.00000000000E+00 -0.17927101148E+03  0.35223336297E+04  0.35177686256E+04 0.  0.
        4    1    3    3  502    0  0.94975648944E+03  0.45020666556E+03 -0.15017666770E+04  0.18330379690E+04  0.12699999809E+01 0. -1.
       -4    1    3    3    0  502 -0.94975648944E+03 -0.45020666556E+03  0.13224956655E+04  0.16892956607E+04  0.12699999809E+01 0.  1.
</event>
<event>
 5   0  0.2933506E-07  0.3504209E+04  0.7818609E-02  0.8112793E-01
        1   -1    0    0  501    0  0.00000000000E+00  0.00000000000E+00  0.28511289469E+04  0.28511289469E+04  0.50400001928E-02 0. -1.
       -1   -1    0    0    0  501  0.00000000000E+00  0.00000000000E+00 -0.10767210988E+04  0.10767210988E+04  0.50400001928E-02 0.  1.
    10030    2    1    2    0    0  0.00000000000E+00  0.00000000000E+00  0.17744078481E+04  0.39278500457E+04  0.35042092931E+04 0.  0.
        4    1    3    3  502    0 -0.92400698644E+03  0.60905389252E+03  0.24097791608E+04  0.26517490024E+04  0.12699999809E+01 0. -1.
       -4    1    3    3    0  502  0.92400698644E+03 -0.60905389252E+03 -0.63537131263E+03  0.12761010433E+04  0.12699999809E+01 0.  1.
</event>
<event>
 5   0  0.6188930E-07  0.3483631E+04  0.7818609E-02  0.8117680E-01
        2   -1    0    0  501    0  0.00000000000E+00  0.00000000000E+00  0.16601879106E+04  0.16601879106E+04  0.25500000920E-02 0. -1.
       -2   -1    0    0    0  501  0.00000000000E+00  0.00000000000E+00 -0.18274562707E+04  0.18274562707E+04  0.25500000920E-02 0.  1.
    10030    2    1    2    0    0  0.00000000000E+00  0.00000000000E+00 -0.16726836005E+03  0.34876441813E+04  0.34836307542E+04 0.  0.
        3    1    3    3  502    0 -0.93790305851E+03  0.26795435602E+03  0.13611011603E+04  0.16745321922E+04  0.10100000352E+00 0. -1.
       -3    1    3    3    0  502  0.93790305851E+03 -0.26795435602E+03 -0.15283695203E+04  0.18131119891E+04  0.10100000352E+00 0.  1.
</event>
<event>
 5   0  0.8845195E-07  0.3529911E+04  0.7818609E-02  0.8106738E-01
       -2   -1    0    0    0  501  0.00000000000E+00  0.00000000000E+00  0.11232689693E+04  0.11232689693E+04  0.25500000920E-02 0. -1.
        2   -1    0    0  501    0  0.00000000000E+00  0.00000000000E+00 -0.27732164767E+04  0.27732164767E+04  0.25500000920E-02 0.  1.
    10030    2    1    2    0    0  0.00000000000E+00  0.00000000000E+00 -0.16499475074E+04  0.38964854460E+04  0.35299110547E+04 0.  0.
        5    1    3    3  502    0 -0.13665068332E+04 -0.83755300229E+03 -0.16407839074E+04  0.22936935012E+04  0.46999998093E+01 0.  1.
       -5    1    3    3    0  502  0.13665068332E+04  0.83755300229E+03 -0.91635999718E+01  0.16027919448E+04  0.46999998093E+01 0. -1.
</event>
<event>
 5   0  0.8845195E-07  0.3487076E+04  0.7818609E-02  0.8116860E-01
       -2   -1    0    0    0  501  0.00000000000E+00  0.00000000000E+00  0.11946877207E+04  0.11946877207E+04  0.25500000920E-02 0. -1.
        2   -1    0    0  501    0  0.00000000000E+00  0.00000000000E+00 -0.25445347787E+04  0.25445347787E+04  0.25500000920E-02 0.  1.
    10030    2    1    2    0    0  0.00000000000E+00  0.00000000000E+00 -0.13498470580E+04  0.37392224995E+04  0.34870758266E+04 0.  0.
        5    1    3    3  502    0 -0.87183162525E+03  0.14488064734E+04 -0.11308399560E+04  0.20341955845E+04  0.46999998093E+01 0.  1.
       -5    1    3    3    0  502  0.87183162525E+03 -0.14488064734E+04 -0.21900710202E+03  0.17050269150E+04  0.46999998093E+01 0. -1.
</event>
<event>
 5   0  0.2933506E-07  0.3484278E+04  0.7818609E-02  0.8117526E-01
        1   -1    0    0  501    0  0.00000000000E+00  0.00000000000E+00  0.19761261346E+04  0.19761261346E+04  0.50400001928E-02 0. -1.
       -1   -1    0    0    0  501  0.00000000000E+00  0.00000000000E+00 -0.15358578291E+04  0.15358578291E+04  0.50400001928E-02 0.  1.
    10030    2    1    2    0    0  0.00000000000E+00  0.00000000000E+00  0.44026830550E+03  0.35119839636E+04  0.34842782868E+04 0.  0.
        4    1    3    3  502    0 -0.13416972978E+03 -0.76804197949E+03 -0.13501875785E+04  0.15591337687E+04  0.12699999809E+01 0.  1.
       -4    1    3    3    0  502  0.13416972978E+03  0.76804197949E+03  0.17904558840E+04  0.19528501950E+04  0.12699999809E+01 0. -1.
</event>
<event>
 5   0  0.9128871E-07  0.3491802E+04  0.7818609E-02  0.8115735E-01
       -2   -1    0    0    0  501  0.00000000000E+00  0.00000000000E+00  0.15099182588E+04  0.15099182588E+04  0.25500000920E-02 0. -1.
        2   -1    0    0  501    0  0.00000000000E+00  0.00000000000E+00 -0.20187654388E+04  0.20187654388E+04  0.25500000920E-02 0.  1.
    10030    2    1    2    0    0  0.00000000000E+00  0.00000000000E+00 -0.50884717999E+03  0.35286836977E+04  0.34918022833E+04 0.  0.
        1    1    3    3  502    0  0.47641584458E+03  0.10940175546E+04  0.10335277672E+04  0.15786152515E+04  0.50400001928E-02 0. -1.
       -1    1    3    3    0  502 -0.47641584458E+03 -0.10940175546E+04 -0.15423749472E+04  0.19500684461E+04  0.50400001928E-02 0.  1.
</event>
<event>
 5   0  0.9128871E-07  0.3277497E+04  0.7818609E-02  0.8168645E-01
       -2   -1    0    0    0  501  0.00000000000E+00  0.00000000000E+00  0.12334797733E+04  0.12334797733E+04  0.25500000920E-02 0.  1.
        2   -1    0    0  501    0  0.00000000000E+00  0.00000000000E+00 -0.21771706796E+04  0.21771706796E+04  0.25500000920E-02 0. -1.
    10030    2    1    2    0    0  0.00000000000E+00  0.00000000000E+00 -0.94369090631E+03  0.34106504530E+04  0.32774966035E+04 0.  0.
        1    1    3    3  502    0  0.18301524133E+02  0.12674851771E+04 -0.15526164985E+04  0.20043631436E+04  0.50400001928E-02 0. -1.
       -1    1    3    3    0  502 -0.18301524133E+02 -0.12674851771E+04  0.60892559217E+03  0.14062873094E+04  0.50400001928E-02 0.  1.
</event>
<event>
 5   0  0.3026332E-07  0.3511013E+04  0.7818609E-02  0.8111185E-01
        1   -1    0    0  501    0  0.00000000000E+00  0.00000000000E+00  0.17524370301E+04  0.17524370301E+04  0.50400001928E-02 0. -1.
       -1   -1    0    0    0  501  0.00000000000E+00  0.00000000000E+00 -0.17585811179E+04  0.17585811179E+04  0.50400001928E-02 0.  1.
    10030    2    1    2    0    0  0.00000000000E+00  0.00000000000E+00 -0.61440877969E+01  0.35110181481E+04  0.35110127722E+04 0.  0.
        1    1    3    3  502    0 -0.56401234926E+02 -0.10656308288E+03 -0.17544358766E+04  0.17585738640E+04  0.50400001928E-02 0.  1.
       -1    1    3    3    0  502  0.56401234926E+02  0.10656308288E+03  0.17482917888E+04  0.17524442841E+04  0.50400001928E-02 0. -1.
</event>
<event>
 5   0  0.9311672E-07  0.3510267E+04  0.7818609E-02  0.8111361E-01
       -2   -1    0    0    0  501  0.00000000000E+00  0.00000000000E+00  0.21784020366E+04  0.21784020366E+04  0.25500000920E-02 0.  1.
        2   -1    0    0  501    0  0.00000000000E+00  0.00000000000E+00 -0.14141073700E+04  0.14141073700E+04  0.25500000920E-02 0. -1.
    10030    2    1    2    0    0  0.00000000000E+00  0.00000000000E+00  0.76429466651E+03  0.35925094066E+04  0.35102674398E+04 0.  0.
        4    1    3    3  502    0  0.16688406901E+04  0.26996234145E+03 -0.10069410025E+03  0.16935317621E+04  0.12699999809E+01 0.  1.
       -4    1    3    3    0  502 -0.16688406901E+04 -0.26996234145E+03  0.86498876677E+03  0.18989776445E+04  0.12699999809E+01 0. -1.
</event>
<event>
 5   0  0.2936607E-07  0.3492785E+04  0.7818609E-02  0.8115502E-01
       -1   -1    0    0    0  501  0.00000000000E+00  0.00000000000E+00  0.22658790476E+04  0.22658790476E+04  0.50400001928E-02 0.  1.
        1   -1    0    0  501    0  0.00000000000E+00  0.00000000000E+00 -0.13460058745E+04  0.13460058745E+04  0.50400001928E-02 0. -1.
    10030    2    1    2    0    0  0.00000000000E+00  0.00000000000E+00  0.91987317311E+03  0.36118849222E+04  0.34927848540E+04 0.  0.
        2    1    3    3  502    0  0.57466442287E+03 -0.12129025292E+04 -0.69553404370E+03  0.15116677380E+04  0.25500000920E-02 0. -1.
       -2    1    3    3    0  502 -0.57466442287E+03  0.12129025292E+04  0.16154072168E+04  0.21002171841E+04  0.25500000920E-02 0.  1.
</event>
<event>
 5   0  0.8950809E-07  0.3475239E+04  0.7818609E-02  0.8119683E-01
        2   -1    0    0  501    0  0.00000000000E+00  0.00000000000E+00  0.14844334485E+04  0.14844334485E+04  0.25500000920E-02 0. -1.
       -2   -1    0    0    0  501  0.00000000000E+00  0.00000000000E+00 -0.20339896761E+04  0.20339896762E+04  0.25500000920E-02 0.  1.
    10030    2    1    2    0    0  0.00000000000E+00  0.00000000000E+00 -0.54955622761E+03  0.35184231247E+04  0.34752394503E+04 0.  0.
        2    1    3    3  502    0  0.61310838388E+03  0.13408190030E+04  0.65622727245E+03  0.16137942007E+04  0.25500000920E-02 0.  1.
       -2    1    3    3    0  502 -0.61310838388E+03 -0.13408190030E+04 -0.12057835001E+04  0.19046289240E+04  0.25500000920E-02 0. -1.
</event>
<event>
 5   0  0.3026332E-07  0.3476140E+04  0.7818609E-02  0.8119468E-01
       -1   -1    0    0    0  501  0.00000000000E+00  0.00000000000E+00  0.30510325942E+04  0.30510325942E+04  0.50400001928E-02 0. -1.
        1   -1    0    0  501    0  0.00000000000E+00  0.00000000000E+00 -0.99011978395E+03  0.99011978397E+03  0.50400001928E-02 0.  1.
    10030    2    1    2    0    0  0.00000000000E+00  0.00000000000E+00  0.20609128102E+04  0.40411523781E+04  0.34761402348E+04 0.  0.
        1    1    3    3  502    0 -0.98929951502E+03 -0.13683762761E+04  0.55152294653E+03  0.17763290022E+04  0.50400001928E-02 0.  1.
       -1    1    3    3    0  502  0.98929951502E+03  0.13683762761E+04  0.15093898637E+04  0.22648233759E+04  0.50400001928E-02 0. -1.
</event>
<event>
 5   0  0.8950809E-07  0.3488303E+04  0.7818609E-02  0.8116568E-01
       -2   -1    0    0    0  501  0.00000000000E+00  0.00000000000E+00  0.11916170954E+04  0.11916170954E+04  0.25500000920E-02 0. -1.
        2   -1    0    0  501    0  0.00000000000E+00  0.00000000000E+00 -0.25528878373E+04  0.25528878373E+04  0.25500000920E-02 0.  1.
    10030    2    1    2    0    0  0.00000000000E+00  0.00000000000E+00 -0.13612707420E+04  0.37445049327E+04  0.34883031918E+04 0.  0.
        2    1    3    3  502    0 -0.87642992151E+03 -0.58225254629E+03  0.81254197258E+03  0.13294253993E+04  0.25500000920E-02 0. -1.
       -2    1    3    3    0  502  0.87642992151E+03  0.58225254629E+03 -0.21738127145E+04  0.24150795335E+04  0.25500000920E-02 0.  1.
</event>
<event>
 5   0  0.6188930E-07  0.3516732E+04  0.7818609E-02  0.8109836E-01
       -2   -1    0    0    0  501  0.00000000000E+00  0.00000000000E+00  0.13039053779E+04  0.13039053779E+04  0.25500000920E-02 0.  1.
        2   -1    0    0  501    0  0.00000000000E+00  0.00000000000E+00 -0.23712231513E+04  0.23712231513E+04  0.25500000920E-02 0. -1.
    10030    2    1    2    0    0  0.00000000000E+00  0.00000000000E+00 -0.10673177735E+04  0.36751285292E+04  0.35167317891E+04 0.  0.
        3    1    3    3  502    0 -0.15476112443E+04  0.31700939372E+03 -0.13406139196E+04  0.20719172790E+04  0.10100000352E+00 0. -1.
       -3    1    3    3    0  502  0.15476112443E+04 -0.31700939372E+03  0.27329614618E+03  0.16032112502E+04  0.10100000352E+00 0.  1.
</event>
<event>
 5   0  0.6188930E-07  0.3429644E+04  0.7818609E-02  0.8130669E-01
       -2   -1    0    0    0  501  0.00000000000E+00  0.00000000000E+00  0.13631346040E+04  0.13631346040E+04  0.25500000920E-02 0. -1.
        2   -1    0    0  501    0  0.00000000000E+00  0.00000000000E+00 -0.21572445088E+04  0.21572445088E+04  0.25500000920E-02 0.  1.
    10030    2    1    2    0    0  0.00000000000E+00  0.00000000000E+00 -0.79410990483E+03  0.35203791128E+04  0.34296440860E+04 0.  0.
        3    1    3    3  502    0  0.38874145299E+02  0.12069374747E+03  0.13583159765E+04  0.13642215664E+04  0.10100000352E+00 0. -1.
       -3    1    3    3    0  502 -0.38874145299E+02 -0.12069374747E+03 -0.21524258814E+04  0.21561575464E+04  0.10100000352E+00 0.  1.
</event>
<event>
 5   0  0.8845195E-07  0.3506529E+04  0.7818609E-02  0.8112244E-01
        2   -1    0    0  501    0  0.00000000000E+00  0.00000000000E+00  0.25049972381E+04  0.25049972381E+04  0.25500000920E-02 0. -1.
       -2   -1    0    0    0  501  0.00000000000E+00  0.00000000000E+00 -0.12271217844E+04  0.12271217844E+04  0.25500000920E-02 0.  1.
    10030    2    1    2    0    0  0.00000000000E+00  0.00000000000E+00  0.12778754537E+04  0.37321190225E+04  0.35065291561E+04 0.  0.
        5    1    3    3  502    0  0.48174032764E+03 -0.16851763688E+04  0.68679080730E+03  0.18824443791E+04  0.46999998093E+01 0.  1.
       -5    1    3    3    0  502 -0.48174032764E+03  0.16851763688E+04  0.59108464636E+03  0.18496746434E+04  0.46999998093E+01 0. -1.
</event>
<event>
 5   0  0.3026332E-07  0.3477901E+04  0.7818609E-02  0.8119047E-01
        1   -1    0    0  501    0  0.00000000000E+00  0.00000000000E+00  0.13980042432E+04  0.13980042432E+04  0.50400001928E-02 0.  1.
       -1   -1    0    0    0  501  0.00000000000E+00  0.00000000000E+00 -0.21630470342E+04  0.21630470342E+04  0.50400001928E-02 0. -1.
    10030    2    1    2    0    0  0.00000000000E+00  0.00000000000E+00 -0.76504279102E+03  0.35610512775E+04  0.34779010522E+04 0.  0.
        1    1    3    3  502    0  0.86711242952E+03  0.62380217095E+03  0.10224864969E+04  0.14786790559E+04  0.50400001928E-02 0.  1.
       -1    1    3    3    0  502 -0.86711242952E+03 -0.62380217095E+03 -0.17875292879E+04  0.20823722216E+04  0.50400001928E-02 0. -1.
</event>
<event>
 5   0  0.3026332E-07  0.2823386E+04  0.7818609E-02  0.8296044E-01
       -1   -1    0    0    0  501  0.00000000000E+00  0.00000000000E+00  0.89949419489E+03  0.89949419490E+03  0.50400001928E-02 0. -1.
        1   -1    0    0  501    0  0.00000000000E+00  0.00000000000E+00 -0.22155532174E+04  0.22155532175E+04  0.50400001928E-02 0.  1.
    10030    2    1    2    0    0  0.00000000000E+00  0.00000000000E+00 -0.13160590226E+04  0.31150474124E+04  0.28233860930E+04 0.  0.
        1    1    3    3  502    0  0.11603891863E+04  0.59253533254E+03 -0.12575561966E+04  0.18108143946E+04  0.50400001928E-02 0.  1.
       -1    1    3    3    0  502 -0.11603891863E+04 -0.59253533254E+03 -0.58502825927E+02  0.13042330178E+04  0.50400001928E-02 0. -1.
</event>
<event>
 5   0  0.2972541E-07  0.2852874E+04  0.7818609E-02  0.8287038E-01
       -1   -1    0    0    0  501  0.00000000000E+00  0.00000000000E+00  0.87271295885E+03  0.87271295887E+03  0.50400001928E-02 0.  1.
        1   -1    0    0  501    0  0.00000000000E+00  0.00000000000E+00 -0.23314919247E+04  0.23314919247E+04  0.50400001928E-02 0. -1.
    10030    2    1    2    0    0  0.00000000000E+00  0.00000000000E+00 -0.14587789658E+04  0.32042048835E+04  0.28528744916E+04 0.  0.
        3    1    3    3  502    0  0.76976684160E+03  0.76622230290E+03 -0.17679753489E+04  0.20749396262E+04  0.10100000352E+00 0. -1.
       -3    1    3    3    0  502 -0.76976684160E+03 -0.76622230290E+03  0.30919638310E+03  0.11292652573E+04  0.10100000352E+00 0.  1.
</event>
<event>
 5   0  0.9128871E-07  0.3344685E+04  0.7818609E-02  0.8151617E-01
       -2   -1    0    0    0  501  0.00000000000E+00  0.00000000000E+00  0.16048767840E+04  0.16048767840E+04  0.25500000920E-02 0. -1.
        2   -1    0    0  501    0  0.00000000000E+00  0.00000000000E+00 -0.17426444072E+04  0.17426444072E+04  0.25500000920E-02 0.  1.
    10030    2    1    2    0    0  0.00000000000E+00  0.00000000000E+00 -0.13776762322E+03  0.33475211911E+04  0.33446850684E+04 0.  0.
        1    1    3    3  502    0 -0.16048553939E+04 -0.43885507134E+03 -0.23806839531E+03  0.16807234067E+04  0.50400001928E-02 0.  1.
       -1    1    3    3    0  502  0.16048553939E+04  0.43885507134E+03  0.10030077209E+03  0.16667977844E+04  0.50400001928E-02 0. -1.
</event>
<event>
 5   0  0.2972541E-07  0.3288033E+04  0.7818609E-02  0.8165947E-01
       -1   -1    0    0    0  501  0.00000000000E+00  0.00000000000E+00  0.11760925049E+04  0.11760925050E+04  0.50400001928E-02 0.  1.
        1   -1    0    0  501    0  0.00000000000E+00  0.00000000000E+00 -0.22981103971E+04  0.22981103971E+04  0.50400001928E-02 0. -1.
    10030    2    1    2    0    0  0.00000000000E+00  0.00000000000E+00 -0.11220178921E+04  0.34742029021E+04  0.32880330981E+04 0.  0.
        3    1    3    3  502    0  0.18169944591E+03  0.90564848744E+03  0.87598570405E+03  0.12730140751E+04  0.10100000352E+00 0.  1.
       -3    1    3    3    0  502 -0.18169944591E+03 -0.90564848744E+03 -0.19980035962E+04  0.22011888270E+04  0.10100000352E+00 0. -1.
</event>
<event>
 5   0  0.9128871E-07  0.3524631E+04  0.7818609E-02  0.8107977E-01
        2   -1    0    0  501    0  0.00000000000E+00  0.00000000000E+00  0.17820785412E+04  0.17820785412E+04  0.25500000920E-02 0.  1.
       -2   -1    0    0    0  501  0.00000000000E+00  0.00000000000E+00 -0.17427712625E+04  0.17427712625E+04  0.25500000920E-02 0. -1.
    10030    2    1    2    0    0  0.00000000000E+00  0.00000000000E+00  0.39307278688E+02  0.35248498037E+04  0.35246306298E+04 0.  0.
        1    1    3    3  502    0 -0.48378462859E+03 -0.16367539054E+04  0.45870753938E+03  0.17673210009E+04  0.50400001928E-02 0.  1.
       -1    1    3    3    0  502  0.48378462859E+03  0.16367539054E+04 -0.41940026069E+03  0.17575288027E+04  0.50400001928E-02 0. -1.
</event>
<event>
 5   0  0.6188930E-07  0.3470920E+04  0.7818609E-02  0.8120716E-01
        2   -1    0    0  501    0  0.00000000000E+00  0.00000000000E+00  0.27928981068E+04  0.27928981068E+04  0.25500000920E-02 0.  1.
       -2   -1    0    0    0  501  0.00000000000E+00  0.00000000000E+00 -0.10783856641E+04  0.10783856641E+04  0.25500000920E-02 0. -1.
    10030    2    1    2    0    0  0.00000000000E+00  0.00000000000E+00  0.17145124427E+04  0.38712837710E+04  0.34709199241E+04 0.  0.
        3    1    3    3  502    0  0.13791160957E+04  0.34023555116E+03  0.19693090347E+04  0.24281473432E+04  0.10100000352E+00 0.  1.
       -3    1    3    3    0  502 -0.13791160957E+04 -0.34023555116E+03 -0.25479659207E+03  0.14431364278E+04  0.10100000352E+00 0. -1.
</event>
<event>
 5   0  0.8950809E-07  0.3491020E+04  0.7818609E-02  0.8115921E-01
       -2   -1    0    0    0  501  0.00000000000E+00  0.00000000000E+00  0.13960584657E+04  0.13960584657E+04  0.25500000920E-02 0.  1.
        2   -1    0    0  501    0  0.00000000000E+00  0.00000000000E+00 -0.21824339970E+04  0.21824339970E+04  0.25500000920E-02 0. -1.
    10030    2    1    2    0    0  0.00000000000E+00  0.00000000000E+00 -0.78637553131E+03  0.35784924627E+04  0.34910201702E+04 0.  0.
        2    1    3    3  502    0  0.80195294824E+03  0.53776932350E+03  0.10973728798E+04  0.14616947745E+04  0.25500000920E-02 0.  1.
       -2    1    3    3    0  502 -0.80195294824E+03 -0.53776932350E+03 -0.18837484111E+04  0.21167976882E+04  0.25500000920E-02 0. -1.
</event>
<event>
 5   0  0.2936607E-07  0.3495370E+04  0.7818609E-02  0.8114888E-01
        1   -1    0    0  501    0  0.00000000000E+00  0.00000000000E+00  0.24042518360E+04  0.24042518360E+04  0.50400001928E-02 0.  1.
       -1   -1    0    0    0  501  0.00000000000E+00  0.00000000000E+00 -0.12704168256E+04  0.12704168256E+04  0.50400001928E-02 0. -1.
    10030    2    1    2    0    0  0.00000000000E+00  0.00000000000E+00  0.11338350104E+04  0.36746686616E+04  0.34953695000E+04 0.  0.
        2    1    3    3  502    0 -0.81616054644E+03  0.68919889631E+03 -0.88725309901E+03  0.13886436613E+04  0.25500000920E-02 0. -1.
       -2    1    3    3    0  502  0.81616054644E+03 -0.68919889631E+03  0.20210881094E+04  0.22860250004E+04  0.25500000920E-02 0.  1.
</event>
<event>
 5   0  0.8845195E-07  0.3471697E+04  0.7818609E-02  0.8120530E-01
       -2   -1    0    0    0  501  0.00000000000E+00  0.00000000000E+00  0.11281032657E+04  0.11281032657E+04  0.25500000920E-02 0.  1.
        2   -1    0    0  501    0  0.00000000000E+00  0.00000000000E+00 -0.26710053262E+04  0.26710053262E+04  0.25500000920E-02 0. -1.
    10030    2    1    2    0    0  0.00000000000E+00  0.00000000000E+00 -0.15429020605E+04  0.37991085919E+04  0.34716968942E+04 0.  0.
        5    1    3    3  502    0 -0.11682883190E+04  0.98378545745E+03 -0.16741174093E+04  0.22661470854E+04  0.46999998093E+01 0. -1.
       -5    1    3    3    0  502  0.11682883190E+04 -0.98378545745E+03  0.13121534882E+03  0.15329615065E+04  0.46999998093E+01 0.  1.
</event>
<event>
 5   0  0.3061330E-07  0.3519626E+04  0.7818609E-02  0.8109155E-01
        1   -1    0    0  501    0  0.00000000000E+00  0.00000000000E+00  0.25657160673E+04  0.25657160673E+04  0.50400001928E-02 0. -1.
       -1   -1    0    0    0  501  0.00000000000E+00  0.00000000000E+00 -0.12070476284E+04  0.12070476284E+04  0.50400001928E-02 0.  1.
    10030    2    1    2    0    0  0.00000000000E+00  0.00000000000E+00  0.13586684389E+04  0.37727636957E+04  0.35196258291E+04 0.  0.
        5    1    3    3  502    0  0.14877136327E+04 -0.71510588894E+03  0.25329150893E+02  0.16508579409E+04  0.46999998093E+01 0.  1.
       -5    1    3    3    0  502 -0.14877136327E+04  0.71510588894E+03  0.13333392880E+04  0.21219057548E+04  0.46999998093E+01 0. -1.
</event>
<event>
 5   0  0.6188930E-07  0.3553112E+04  0.7818609E-02  0.8101317E-01
        2   -1    0    0  501    0  0.00000000000E+00  0.00000000000E+00  0.17284879931E+04  0.17284879931E+04  0.25500000920E-02 0.  1.
       -2   -1    0    0    0  501  0.00000000000E+00  0.00000000000E+00 -0.18259609653E+04  0.18259609653E+04  0.25500000920E-02 0. -1.
    10030    2    1    2    0    0  0.00000000000E+00  0.00000000000E+00 -0.97472972143E+02  0.35544489584E+04  0.35531122157E+04 0.  0.
        3    1    3    3  502    0 -0.15175830727E+04  0.43870412812E+03  0.76436195541E+03  0.17549270366E+04  0.10100000352E+00 0. -1.
       -3    1    3    3    0  502  0.15175830727E+04 -0.43870412812E+03 -0.86183492755E+03  0.17995219218E+04  0.10100000352E+00 0.  1.
</event>
<event>
 5   0  0.9128871E-07  0.3465984E+04  0.7818609E-02  0.8121899E-01
       -2   -1    0    0    0  501  0.00000000000E+00  0.00000000000E+00  0.23787204458E+04  0.23787204458E+04  0.25500000920E-02 0.  1.
        2   -1    0    0  501    0  0.00000000000E+00  0.00000000000E+00 -0.12625533972E+04  0.12625533972E+04  0.25500000920E-02 0. -1.
    10030    2    1    2    0    0  0.00000000000E+00  0.00000000000E+00  0.11161670486E+04  0.36412738430E+04  0.34659841776E+04 0.  0.
        1    1    3    3  502    0  0.11363670603E+04 -0.99462064189E+03  0.14511713174E+04  0.20943969322E+04  0.50400001928E-02 0. -1.
       -1    1    3    3    0  502 -0.11363670603E+04  0.99462064189E+03 -0.33500426880E+03  0.15468769108E+04  0.50400001928E-02 0.  1.
</event>
<event>
 5   0  0.9311672E-07  0.3475654E+04  0.7818609E-02  0.8119584E-01
        2   -1    0    0  501    0  0.00000000000E+00  0.00000000000E+00  0.91922731404E+03  0.91922731404E+03  0.25500000920E-02 0. -1.
       -2   -1    0    0    0  501  0.00000000000E+00  0.00000000000E+00 -0.32854136920E+04  0.32854136920E+04  0.25500000920E-02 0.  1.
    10030    2    1    2    0    0  0.00000000000E+00  0.00000000000E+00 -0.23661863780E+04  0.42046410061E+04  0.34756536097E+04 0.  0.
        4    1    3    3  502    0  0.78969780772E+03  0.15794006272E+03  0.67985809763E+03  0.10539337440E+04  0.12699999809E+01 0. -1.
       -4    1    3    3    0  502 -0.78969780772E+03 -0.15794006272E+03 -0.30460444756E+04  0.31507072621E+04  0.12699999809E+01 0.  1.
</event>
<event>
 5   0  0.2936607E-07  0.3495274E+04  0.7818609E-02  0.8114911E-01
        1   -1    0    0  501    0  0.00000000000E+00  0.00000000000E+00  0.29048953952E+04  0.29048953952E+04  0.50400001928E-02 0. -1.
       -1   -1    0    0    0  501  0.00000000000E+00  0.00000000000E+00 -0.10514094338E+04  0.10514094338E+04  0.50400001928E-02 0.  1.
    10030    2    1    2    0    0  0.00000000000E+00  0.00000000000E+00  0.18534859613E+04  0.39563048290E+04  0.34952736218E+04 0.  0.
        2    1    3    3  502    0  0.45571730527E+03 -0.13381064198E+04  0.20899209118E+04  0.25230886768E+04  0.25500000920E-02 0. -1.
       -2    1    3    3    0  502 -0.45571730527E+03  0.13381064198E+04 -0.23643495053E+03  0.14332161522E+04  0.25500000920E-02 0.  1.
</event>
<event>
 5   0  0.2936607E-07  0.3495031E+04  0.7818609E-02  0.8114969E-01
        1   -1    0    0  501    0  0.00000000000E+00  0.00000000000E+00  0.14955719747E+04  0.14955719747E+04  0.50400001928E-02 0.  1.
       -1   -1    0    0    0  501  0.00000000000E+00  0.00000000000E+00 -0.20419007920E+04  0.20419007920E+04  0.50400001928E-02 0. -1.
    10030    2    1    2    0    0  0.00000000000E+00  0.00000000000E+00 -0.54632881730E+03  0.35374727666E+04  0.34950305289E+04 0.  0.
        2    1    3    3  502    0 -0.63328558955E+03  0.16078179460E+04 -0.53647821768E+03  0.18094026814E+04  0.25500000920E-02 0.  1.
       -2    1    3    3    0  502  0.63328558955E+03 -0.16078179460E+04 -0.98505996163E+01  0.17280700853E+04  0.25500000920E-02 0. -1.
</event>
<event>
 5   0  0.8845195E-07  0.3484842E+04  0.7818609E-02  0.8117392E-01
       -2   -1    0    0    0  501  0.00000000000E+00  0.00000000000E+00  0.14850006965E+04  0.14850006965E+04  0.25500000920E-02 0.  1.
        2   -1    0    0  501    0  0.00000000000E+00  0.00000000000E+00 -0.20444643165E+04  0.20444643165E+04  0.25500000920E-02 0. -1.
    10030    2    1    2    0    0  0.00000000000E+00  0.00000000000E+00 -0.55946362004E+03  0.35294650130E+04  0.34848419958E+04 0.  0.
        5    1    3    3  502    0  0.34586110220E+03  0.46022681092E+02 -0.20087149005E+04  0.20387975943E+04  0.46999998093E+01 0. -1.
       -5    1    3    3    0  502 -0.34586110220E+03 -0.46022681092E+02  0.14492512804E+04  0.14906674187E+04  0.46999998093E+01 0.  1.
</event>
<event>
 5   0  0.6188930E-07  0.3462278E+04  0.7818609E-02  0.8122788E-01
        2   -1    0    0  501    0  0.00000000000E+00  0.00000000000E+00  0.15288038308E+04  0.15288038308E+04  0.25500000920E-02 0. -1.
       -2   -1    0    0    0  501  0.00000000000E+00  0.00000000000E+00 -0.19602529359E+04  0.19602529359E+04  0.25500000920E-02 0.  1.
    10030    2    1    2    0    0  0.00000000000E+00  0.00000000000E+00 -0.43144910512E+03  0.34890567667E+04  0.34622779771E+04 0.  0.
        3    1    3    3  502    0 -0.70560534430E+03  0.94898289578E+03  0.10583302939E+04  0.15869815562E+04  0.10100000352E+00 0. -1.
       -3    1    3    3    0  502  0.70560534430E+03 -0.94898289578E+03 -0.14897793991E+04  0.19020752105E+04  0.10100000352E+00 0.  1.
</event>
<event>
 5   0  0.8845195E-07  0.3413249E+04  0.7818609E-02  0.8134662E-01
       -2   -1    0    0    0  501  0.00000000000E+00  0.00000000000E+00  0.16247814664E+04  0.16247814664E+04  0.25500000920E-02 0. -1.
        2   -1    0    0  501    0  0.00000000000E+00  0.00000000000E+00 -0.17925901542E+04  0.17925901542E+04  0.25500000920E-02 0.  1.
    10030    2    1    2    0    0  0.00000000000E+00  0.00000000000E+00 -0.16780868788E+03  0.34173716206E+04  0.34132490442E+04 0.  0.
        5    1    3    3  502    0 -0.46826003700E+03  0.25162320412E+03  0.15397706021E+04  0.16289558914E+04  0.46999998093E+01 0. -1.
       -5    1    3    3    0  502  0.46826003700E+03 -0.25162320412E+03 -0.17075792899E+04  0.17884157292E+04  0.46999998093E+01 0.  1.
</event>
<event>
 5   0  0.9311672E-07  0.3493530E+04  0.7818609E-02  0.8115325E-01
       -2   -1    0    0    0  501  0.00000000000E+00  0.00000000000E+00  0.16589075464E+04  0.16589075464E+04  0.25500000920E-02 0. -1.
        2   -1    0    0  501    0  0.00000000000E+00  0.00000000000E+00 -0.18392754385E+04  0.18392754385E+04  0.25500000920E-02 0.  1.
    10030    2    1    2    0    0  0.00000000000E+00  0.00000000000E+00 -0.18036789216E+03  0.34981829849E+04  0.34935299654E+04 0.  0.
        4    1    3    3  502    0 -0.27428764326E+03  0.28209672370E+03 -0.17943243442E+04  0.18369577398E+04  0.12699999809E+01 0.  1.
       -4    1    3    3    0  502  0.27428764326E+03 -0.28209672370E+03  0.16139564521E+04  0.16612252451E+04  0.12699999809E+01 0. -1.
</event>
<event>
 5   0  0.2936607E-07  0.3454802E+04  0.7818609E-02  0.8124586E-01
       -1   -1    0    0    0  501  0.00000000000E+00  0.00000000000E+00  0.15131845161E+04  0.15131845161E+04  0.50400001928E-02 0. -1.
        1   -1    0    0  501    0  0.00000000000E+00  0.00000000000E+00 -0.19719434208E+04  0.19719434208E+04  0.50400001928E-02 0.  1.
    10030    2    1    2    0    0  0.00000000000E+00  0.00000000000E+00 -0.45875890466E+03  0.34851279369E+04  0.34548020210E+04 0.  0.
        2    1    3    3  502    0  0.34930017793E+03  0.12337377729E+04 -0.13970348611E+04  0.18962663077E+04  0.25500000920E-02 0.  1.
       -2    1    3    3    0  502 -0.34930017793E+03 -0.12337377729E+04  0.93827595640E+03  0.15888616293E+04  0.25500000920E-02 0. -1.
</event>
<event>
 5   0  0.2972541E-07  0.3494572E+04  0.7818609E-02  0.8115078E-01
        1   -1    0    0  501    0  0.00000000000E+00  0.00000000000E+00  0.14492015454E+04  0.14492015454E+04  0.50400001928E-02 0. -1.
       -1   -1    0    0    0  501  0.00000000000E+00  0.00000000000E+00 -0.21066826203E+04  0.21066826203E+04  0.50400001928E-02 0.  1.
    10030    2    1    2    0    0  0.00000000000E+00  0.00000000000E+00 -0.65748107488E+03  0.35558841657E+04  0.34945716241E+04 0.  0.
        3    1    3    3  502    0  0.15462619297E+04 -0.71044356014E+03  0.74894972956E+02  0.17033100935E+04  0.10100000352E+00 0. -1.
       -3    1    3    3    0  502 -0.15462619297E+04  0.71044356014E+03 -0.73237604783E+03  0.18525740722E+04  0.10100000352E+00 0.  1.
</event>
<event>
 5   0  0.9128871E-07  0.3539164E+04  0.7818609E-02  0.8104571E-01
       -2   -1    0    0    0  501  0.00000000000E+00  0.00000000000E+00  0.15469021968E+04  0.15469021968E+04  0.25500000920E-02 0. -1.
        2   -1    0    0  501    0  0.00000000000E+00  0.00000000000E+00 -0.20243174249E+04  0.20243174249E+04  0.25500000920E-02 0.  1.
    10030    2    1    2    0    0  0.00000000000E+00  0.00000000000E+00 -0.47741522809E+03  0.35712196218E+04  0.35391643487E+04 0.  0.
        1    1    3    3  502    0  0.79360960591E+03 -0.37120550757E+03  0.13126868385E+04  0.15782130627E+04  0.50400001928E-02 0. -1.
       -1    1    3    3    0  502 -0.79360960591E+03  0.37120550757E+03 -0.17901020666E+04  0.19930065590E+04  0.50400001928E-02 0.  1.
</event>
<event>
 5   0  0.2936607E-07  0.3408480E+04  0.7818609E-02  0.8135828E-01
        1   -1    0    0  501    0  0.00000000000E+00  0.00000000000E+00  0.31103098006E+04  0.31103098006E+04  0.50400001928E-02 0. -1.
       -1   -1    0    0    0  501  0.00000000000E+00  0.00000000000E+00 -0.93380858682E+03  0.93380858684E+03  0.50400001928E-02 0.  1.
    10030    2    1    2    0    0  0.00000000000E+00  0.00000000000E+00  0.21765012137E+04  0.40441183874E+04  0.34084800128E+04 0.  0.
        2    1    3    3  502    0 -0.63476772711E+01 -0.13964991487E+04 -0.70737918457E+02  0.13983039792E+04  0.25500000920E-02 0.  1.
       -2    1    3    3    0  502  0.63476772711E+01  0.13964991487E+04  0.22472391322E+04  0.26458144082E+04  0.25500000920E-02 0. -1.
</event>
<event>
 5   0  0.9128871E-07  0.3518601E+04  0.7818609E-02  0.8109396E-01
        2   -1    0    0  501    0  0.00000000000E+00  0.00000000000E+00  0.24221790937E+04  0.24221790937E+04  0.25500000920E-02 0.  1.
       -2   -1    0    0    0  501  0.00000000000E+00  0.00000000000E+00 -0.12778318700E+04  0.12778318700E+04  0.25500000920E-02 0. -1.
    10030    2    1    2    0    0  0.00000000000E+00  0.00000000000E+00  0.11443472237E+04  0.37000109637E+04  0.35186006541E+04 0.  0.
        1    1    3    3  502    0  0.36728474447E+02 -0.39508247806E+03 -0.12301660603E+04  0.12925740525E+04  0.50400001928E-02 0. -1.
       -1    1    3    3    0  502 -0.36728474447E+02  0.39508247806E+03  0.23745132840E+04  0.24074369112E+04  0.50400001928E-02 0.  1.
</event>
<event>
 5   0  0.6188930E-07  0.3473715E+04  0.7818609E-02  0.8120048E-01
        2   -1    0    0  501    0  0.00000000000E+00  0.00000000000E+00  0.10969196888E+04  0.10969196888E+04  0.25500000920E-02 0. -1.
       -2   -1    0    0    0  501  0.00000000000E+00  0.00000000000E+00 -0.27501321784E+04  0.27501321784E+04  0.25500000920E-02 0.  1.
    10030    2    1    2    0    0  0.00000000000E+00  0.00000000000E+00 -0.16532124896E+04  0.38470518672E+04  0.34737150909E+04 0.  0.
        3    1    3    3  502    0  0.45745829694E+03  0.11960798421E+04 -0.21260848202E+04  0.24819572428E+04  0.10100000352E+00 0.  1.
       -3    1    3    3    0  502 -0.45745829694E+03 -0.11960798421E+04  0.47287233060E+03  0.13650946243E+04  0.10100000352E+00 0. -1.
</event>
<event>
 5   0  0.3026332E-07  0.3508149E+04  0.7818609E-02  0.8111862E-01
       -1   -1    0    0    0  501  0.00000000000E+00  0.00000000000E+00  0.26482025484E+04  0.26482025485E+04  0.50400001928E-02 0.  1.
        1   -1    0    0  501    0  0.00000000000E+00  0.00000000000E+00 -0.11618358329E+04  0.11618358330E+04  0.50400001928E-02 0. -1.
    10030    2    1    2    0    0  0.00000000000E+00  0.00000000000E+00  0.14863667155E+04  0.38100383814E+04  0.35081485794E+04 0.  0.
        1    1    3    3  502    0  0.13418747150E+03  0.29922226075E+03 -0.11282473793E+04  0.11749393124E+04  0.50400001928E-02 0. -1.
       -1    1    3    3    0  502 -0.13418747150E+03 -0.29922226075E+03  0.26146140948E+04  0.26350990690E+04  0.50400001928E-02 0.  1.
</event>
<event>
 5   0  0.2933506E-07  0.3587875E+04  0.7818609E-02  0.8093275E-01
        1   -1    0    0  501    0  0.00000000000E+00  0.00000000000E+00  0.21933275887E+04  0.21933275887E+04  0.50400001928E-02 0.  1.
       -1   -1    0    0    0  501  0.00000000000E+00  0.00000000000E+00 -0.14672737203E+04  0.14672737203E+04  0.50400001928E-02 0. -1.
    10030    2    1    2    0    0  0.00000000000E+00  0.00000000000E+00  0.72605386842E+03  0.36606013090E+04  0.35878750986E+04 0.  0.
        4    1    3    3  502    0 -0.82392375461E+03  0.15017381651E+04  0.90688199426E+03  0.19381703832E+04  0.12699999809E+01 0.  1.
       -4    1    3    3    0  502  0.82392375461E+03 -0.15017381651E+04 -0.18082812584E+03  0.17224309258E+04  0.12699999809E+01 0. -1.
</event>
<event>
 5   0  0.9128871E-07  0.3520699E+04  0.7818609E-02  0.8108902E-01
        2   -1    0    0  501    0  0.00000000000E+00  0.00000000000E+00  0.19187944407E+04  0.19187944407E+04  0.25500000920E-02 0.  1.
       -2   -1    0    0    0  501  0.00000000000E+00  0.00000000000E+00 -0.16149884954E+04  0.16149884954E+04  0.25500000920E-02 0. -1.
    10030    2    1    2    0    0  0.00000000000E+00  0.00000000000E+00  0.30380594532E+03  0.35337829361E+04  0.35206993321E+04 0.  0.
        1    1    3    3  502    0 -0.71954010698E+03  0.42169203777E+03 -0.14041060328E+04  0.16331184561E+04  0.50400001928E-02 0. -1.
       -1    1    3    3    0  502  0.71954010698E+03 -0.42169203777E+03  0.17079119781E+04  0.19006644800E+04  0.50400001928E-02 0.  1.
</event>
<event>
 5   0  0.8845195E-07  0.3510575E+04  0.7818609E-02  0.8111288E-01
       -2   -1    0    0    0  501  0.00000000000E+00  0.00000000000E+00  0.19172423138E+04  0.19172423138E+04  0.25500000920E-02 0.  1.
        2   -1    0    0  501    0  0.00000000000E+00  0.00000000000E+00 -0.16070131750E+04  0.16070131750E+04  0.25500000920E-02 0. -1.
    10030    2    1    2    0    0  0.00000000000E+00  0.00000000000E+00  0.31022913886E+03  0.35242554888E+04  0.35105746868E+04 0.  0.
        5    1    3    3  502    0 -0.40537622932E+01 -0.31729669725E+03  0.18882019756E+04  0.19146859841E+04  0.46999998093E+01 0.  1.
       -5    1    3    3    0  502  0.40537622932E+01  0.31729669725E+03 -0.15779728367E+04  0.16095695047E+04  0.46999998093E+01 0. -1.
</event>
<event>
 5   0  0.3026332E-07  0.3503269E+04  0.7818609E-02  0.8113016E-01
        1   -1    0    0  501    0  0.00000000000E+00  0.00000000000E+00  0.20890697247E+04  0.20890697247E+04  0.50400001928E-02 0. -1.
       -1   -1    0    0    0  501  0.00000000000E+00  0.00000000000E+00 -0.14687032176E+04  0.14687032176E+04  0.50400001928E-02 0.  1.
    10030    2    1    2    0    0  0.00000000000E+00  0.00000000000E+00  0.62036650706E+03  0.35577729423E+04  0.35032690027E+04 0.  0.
        1    1    3    3  502    0  0.77150016779E+03  0.39904130450E+03 -0.12345926523E+04  0.15095249215E+04  0.50400001928E-02 0.  1.
       -1    1    3    3    0  502 -0.77150016779E+03 -0.39904130450E+03  0.18549591593E+04  0.20482480207E+04  0.50400001928E-02 0. -1.
</event>
<event>
 5   0  0.6188930E-07  0.3500105E+04  0.7818609E-02  0.8113765E-01
        2   -1    0    0  501    0  0.00000000000E+00  0.00000000000E+00  0.97875200716E+03  0.97875200716E+03  0.25500000920E-02 0. -1.
       -2   -1    0    0    0  501  0.00000000000E+00  0.00000000000E+00 -0.31291732588E+04  0.31291732588E+04  0.25500000920E-02 0.  1.
    10030    2    1    2    0    0  0.00000000000E+00  0.00000000000E+00 -0.21504212516E+04  0.41079252659E+04  0.35001054886E+04 0.  0.
        3    1    3    3  502    0  0.44103466156E+03 -0.96341270254E+03 -0.27099302326E+04  0.29097074568E+04  0.10100000352E+00 0.  1.
       -3    1    3    3    0  502 -0.44103466156E+03  0.96341270254E+03  0.55950898103E+03  0.11982178091E+04  0.10100000352E+00 0. -1.
</event>
<event>
 5   0  0.2933506E-07  0.3463141E+04  0.7818609E-02  0.8122581E-01
       -1   -1    0    0    0  501  0.00000000000E+00  0.00000000000E+00  0.17525910694E+04  0.17525910694E+04  0.50400001928E-02 0. -1.
        1   -1    0    0  501    0  0.00000000000E+00  0.00000000000E+00 -0.17108019832E+04  0.17108019832E+04  0.50400001928E-02 0.  1.
    10030    2    1    2    0    0  0.00000000000E+00  0.00000000000E+00  0.41789086228E+02  0.34633930526E+04  0.34631409312E+04 0.  0.
        4    1    3    3  502    0  0.14398055624E+04  0.22084282042E+03 -0.91540171567E+03  0.17203992336E+04  0.12699999809E+01 0.  1.
       -4    1    3    3    0  502 -0.14398055624E+04 -0.22084282042E+03  0.95719080190E+03  0.17429938190E+04  0.12699999809E+01 0. -1.
</event>
<event>
 5   0  0.2933506E-07  0.3525505E+04  0.7818609E-02  0.8107772E-01
        1   -1    0    0  501    0  0.00000000000E+00  0.00000000000E+00  0.26939602338E+04  0.26939602338E+04  0.50400001928E-02 0.  1.
       -1   -1    0    0    0  501  0.00000000000E+00  0.00000000000E+00 -0.11534306919E+04  0.11534306920E+04  0.50400001928E-02 0. -1.
    10030    2    1    2    0    0  0.00000000000E+00  0.00000000000E+00  0.15405295419E+04  0.38473909258E+04  0.35255050229E+04 0.  0.
        4    1    3    3  502    0 -0.16069144437E+04 -0.54496141715E+03  0.24901769702E+03  0.17149834990E+04  0.12699999809E+01 0. -1.
       -4    1    3    3    0  502  0.16069144437E+04  0.54496141715E+03  0.12915118448E+04  0.21324074268E+04  0.12699999809E+01 0.  1.
</event>
<event>
 5   0  0.2933506E-07  0.3488262E+04  0.7818609E-02  0.8116577E-01
        1   -1    0    0  501    0  0.00000000000E+00  0.00000000000E+00  0.10284328778E+04  0.10284328778E+04  0.50400001928E-02 0.  1.
       -1   -1    0    0    0  501  0.00000000000E+00  0.00000000000E+00 -0.29578924198E+04  0.29578924198E+04  0.50400001928E-02 0. -1.
    10030    2    1    2    0    0  0.00000000000E+00  0.00000000000E+00 -0.19294595420E+04  0.39863252977E+04  0.34882624979E+04 0.  0.
        4    1    3    3  502    0  0.27234935983E+03 -0.80028857250E+03 -0.27081216064E+04  0.28369984528E+04  0.12699999809E+01 0. -1.
       -4    1    3    3    0  502 -0.27234935983E+03  0.80028857250E+03  0.77866206434E+03  0.11493268449E+04  0.12699999809E+01 0.  1.
</event>
<event>
 5   0  0.8950809E-07  0.3558500E+04  0.7818609E-02  0.8100064E-01
       -2   -1    0    0    0  501  0.00000000000E+00  0.00000000000E+00  0.15784814146E+04  0.15784814146E+04  0.25500000920E-02 0. -1.
        2   -1    0    0  501    0  0.00000000000E+00  0.00000000000E+00 -0.20055544134E+04  0.20055544135E+04  0.25500000920E-02 0.  1.
    10030    2    1    2    0    0  0.00000000000E+00  0.00000000000E+00 -0.42707299883E+03  0.35840358281E+04  0.35584998905E+04 0.  0.
        2    1    3    3  502    0 -0.15948786022E+04 -0.55127129415E+03  0.35459700854E+03  0.17243192378E+04  0.25500000920E-02 0. -1.
       -2    1    3    3    0  502  0.15948786022E+04  0.55127129415E+03 -0.78167000737E+03  0.18597165902E+04  0.25500000920E-02 0.  1.
</event>
<event>
 5   0  0.9311672E-07  0.3483953E+04  0.7818609E-02  0.8117603E-01
       -2   -1    0    0    0  501  0.00000000000E+00  0.00000000000E+00  0.15290011376E+04  0.15290011376E+04  0.25500000920E-02 0. -1.
        2   -1    0    0  501    0  0.00000000000E+00  0.00000000000E+00 -0.19846174272E+04  0.19846174272E+04  0.25500000920E-02 0.  1.
    10030    2    1    2    0    0  0.00000000000E+00  0.00000000000E+00 -0.45561628951E+03  0.35136185648E+04  0.34839531018E+04 0.  0.
        4    1    3    3  502    0 -0.38518334794E+03  0.95164451075E+03 -0.16470889631E+04  0.19408495953E+04  0.12699999809E+01 0.  1.
       -4    1    3    3    0  502  0.38518334794E+03 -0.95164451075E+03  0.11914726736E+04  0.15727689694E+04  0.12699999809E+01 0. -1.
</event>
<event>
 5   0  0.6188930E-07  0.3563994E+04  0.7818609E-02  0.8098789E-01
       -2   -1    0    0    0  501  0.00000000000E+00  0.00000000000E+00  0.19746023420E+04  0.19746023420E+04  0.25500000920E-02 0. -1.
        2   -1    0    0  501    0  0.00000000000E+00  0.00000000000E+00 -0.16081785042E+04  0.16081785042E+04  0.25500000920E-02 0.  1.
    10030    2    1    2    0    0  0.00000000000E+00  0.00000000000E+00  0.36642383779E+03  0.35827808462E+04  0.35639938501E+04 0.  0.
        3    1    3    3  502    0 -0.47297234180E+03 -0.36580401129E+03  0.18707501044E+04  0.19639810015E+04  0.10100000352E+00 0. -1.
       -3    1    3    3    0  502  0.47297234180E+03  0.36580401129E+03 -0.15043262666E+04  0.16187998448E+04  0.10100000352E+00 0.  1.
</event>
<event>
 5   0  0.2972541E-07  0.3527929E+04  0.7818609E-02  0.8107203E-01
       -1   -1    0    0    0  501  0.00000000000E+00  0.00000000000E+00  0.23534922239E+04  0.23534922239E+04  0.50400001928E-02 0.  1.
        1   -1    0    0  501    0  0.00000000000E+00  0.00000000000E+00 -0.13221075797E+04  0.13221075797E+04  0.50400001928E-02 0. -1.
    10030    2    1    2    0    0  0.00000000000E+00  0.00000000000E+00  0.10313846441E+04  0.36755998036E+04  0.35279285185E+04 0.  0.
        3    1    3    3  502    0 -0.28063219220E+03  0.17190469345E+04  0.22529026486E+03  0.17563121887E+04  0.10100000352E+00 0. -1.
       -3    1    3    3    0  502  0.28063219220E+03 -0.17190469345E+04  0.80609437927E+03  0.19192876149E+04  0.10100000352E+00 0.  1.
</event>
<event>
 5   0  0.6188930E-07  0.3535460E+04  0.7818609E-02  0.8105437E-01
       -2   -1    0    0    0  501  0.00000000000E+00  0.00000000000E+00  0.11338625990E+04  0.11338625990E+04  0.25500000920E-02 0. -1.
        2   -1    0    0  501    0  0.00000000000E+00  0.00000000000E+00 -0.27559502769E+04  0.27559502769E+04  0.25500000920E-02 0.  1.
    10030    2    1    2    0    0  0.00000000000E+00  0.00000000000E+00 -0.16220876779E+04  0.38898128759E+04  0.35354597685E+04 0.  0.
        3    1    3    3  502    0 -0.91893532084E+03 -0.64954761805E+03 -0.23109559450E+04  0.25703835554E+04  0.10100000352E+00 0.  1.
       -3    1    3    3    0  502  0.91893532084E+03  0.64954761805E+03  0.68886826716E+03  0.13194293205E+04  0.10100000352E+00 0. -1.
</event>
<event>
 5   0  0.2907000E-07  0.3648874E+04  0.7818609E-02  0.8079387E-01
       -3   -1    0    0    0  501  0.00000000000E+00  0.00000000000E+00  0.95322308996E+03  0.95322309531E+03  0.10100000352E+00 0.  1.
        3   -1    0    0  501    0  0.00000000000E+00  0.00000000000E+00 -0.34919112103E+04  0.34919112117E+04  0.10100000352E+00 0. -1.
    10030    2    1    2    0    0  0.00000000000E+00  0.00000000000E+00 -0.25386881203E+04  0.44451343070E+04  0.36488740230E+04 0.  0.
        4    1    3    3  502    0  0.70499576485E+03  0.14486922797E+04 -0.22647271859E+03  0.16269664578E+04  0.12699999809E+01 0.  1.
       -4    1    3    3    0  502 -0.70499576485E+03 -0.14486922797E+04 -0.23122154017E+04  0.28181678492E+04  0.12699999809E+01 0. -1.
</event>
<event>
 5   0  0.8950809E-07  0.3537719E+04  0.7818609E-02  0.8104909E-01
       -2   -1    0    0    0  501  0.00000000000E+00  0.00000000000E+00  0.19263967226E+04  0.19263967226E+04  0.25500000920E-02 0. -1.
        2   -1    0    0  501    0  0.00000000000E+00  0.00000000000E+00 -0.16242056886E+04  0.16242056886E+04  0.25500000920E-02 0.  1.
    10030    2    1    2    0    0  0.00000000000E+00  0.00000000000E+00  0.30219103399E+03  0.35506024112E+04  0.35377193305E+04 0.  0.
        2    1    3    3  502    0  0.14694696361E+04 -0.98300724200E+03  0.94141473617E+02  0.17704538588E+04  0.25500000920E-02 0. -1.
       -2    1    3    3    0  502 -0.14694696361E+04  0.98300724200E+03  0.20804956037E+03  0.17801485524E+04  0.25500000920E-02 0.  1.
</event>
<event>
 5   0  0.2972541E-07  0.3496271E+04  0.7818609E-02  0.8114674E-01
       -1   -1    0    0    0  501  0.00000000000E+00  0.00000000000E+00  0.18595515335E+04  0.18595515335E+04  0.50400001928E-02 0.  1.
        1   -1    0    0  501    0  0.00000000000E+00  0.00000000000E+00 -0.16433949628E+04  0.16433949628E+04  0.50400001928E-02 0. -1.
    10030    2    1    2    0    0  0.00000000000E+00  0.00000000000E+00  0.21615657075E+03  0.35029464963E+04  0.34962709410E+04 0.  0.
        3    1    3    3  502    0  0.11763767513E+04 -0.12186992748E+04  0.54120848838E+03  0.17782004447E+04  0.10100000352E+00 0.  1.
       -3    1    3    3    0  502 -0.11763767513E+04  0.12186992748E+04 -0.32505191763E+03  0.17247460517E+04  0.10100000352E+00 0. -1.
</event>
<event>
 5   0  0.8845195E-07  0.3490699E+04  0.7818609E-02  0.8115998E-01
        2   -1    0    0  501    0  0.00000000000E+00  0.00000000000E+00  0.16439028973E+04  0.16439028973E+04  0.25500000920E-02 0.  1.
       -2   -1    0    0    0  501  0.00000000000E+00  0.00000000000E+00 -0.18530560466E+04  0.18530560466E+04  0.25500000920E-02 0. -1.
    10030    2    1    2    0    0  0.00000000000E+00  0.00000000000E+00 -0.20915314935E+03  0.34969589439E+04  0.34906986143E+04 0.  0.
        5    1    3    3  502    0 -0.13477595242E+03 -0.16954874134E+04  0.28776337222E+03  0.17250136158E+04  0.46999998093E+01 0.  1.
       -5    1    3    3    0  502  0.13477595242E+03  0.16954874134E+04 -0.49691652158E+03  0.17719453281E+04  0.46999998093E+01 0. -1.
</event>
<event>
 5   0  0.3061330E-07  0.3482801E+04  0.7818609E-02  0.8117878E-01
        1   -1    0    0  501    0  0.00000000000E+00  0.00000000000E+00  0.15869577623E+04  0.15869577623E+04  0.50400001928E-02 0.  1.
       -1   -1    0    0    0  501  0.00000000000E+00  0.00000000000E+00 -0.19108734904E+04  0.19108734904E+04  0.50400001928E-02 0. -1.
    10030    2    1    2    0    0  0.00000000000E+00  0.00000000000E+00 -0.32391572810E+03  0.34978312527E+04  0.34828008949E+04 0.  0.
        5    1    3    3  502    0 -0.73467375951E+03  0.13748468600E+04 -0.94151899364E+03  0.18211066763E+04  0.46999998093E+01 0. -1.
       -5    1    3    3    0  502  0.73467375951E+03 -0.13748468600E+04  0.61760326554E+03  0.16767245763E+04  0.46999998093E+01 0.  1.
</event>
<event>
 5   0  0.6188930E-07  0.3494985E+04  0.7818609E-02  0.8114979E-01
        2   -1    0    0  501    0  0.00000000000E+00  0.00000000000E+00  0.21270306154E+04  0.21270306154E+04  0.25500000920E-02 0. -1.
       -2   -1    0    0    0  501  0.00000000000E+00  0.00000000000E+00 -0.14356777459E+04  0.14356777459E+04  0.25500000920E-02 0.  1.
    10030    2    1    2    0    0  0.00000000000E+00  0.00000000000E+00  0.69135286951E+03  0.35627083613E+04  0.34949852758E+04 0.  0.
        3    1    3    3  502    0  0.12867342698E+04  0.89436213267E+01  0.15509430858E+04  0.20152393246E+04  0.10100000352E+00 0. -1.
       -3    1    3    3    0  502 -0.12867342698E+04 -0.89436213267E+01 -0.85959021634E+03  0.15474690368E+04  0.10100000352E+00 0.  1.
</event>
<event>
 5   0  0.9128871E-07  0.3514139E+04  0.7818609E-02  0.8110447E-01
        2   -1    0    0  501    0  0.00000000000E+00  0.00000000000E+00  0.24078062785E+04  0.24078062785E+04  0.25500000920E-02 0. -1.
       -2   -1    0    0    0  501  0.00000000000E+00  0.00000000000E+00 -0.12822017768E+04  0.12822017768E+04  0.25500000920E-02 0.  1.
    10030    2    1    2    0    0  0.00000000000E+00  0.00000000000E+00  0.11256045017E+04  0.36900080553E+04  0.35141391484E+04 0.  0.
        1    1    3    3  502    0 -0.12277920031E+04  0.19835032305E+03 -0.74047264756E+03  0.14474514829E+04  0.50400001928E-02 0.  1.
       -1    1    3    3    0  502  0.12277920031E+04 -0.19835032305E+03  0.18660771492E+04  0.22425565724E+04  0.50400001928E-02 0. -1.
</event>
<event>
 5   0  0.9311672E-07  0.3326648E+04  0.7818609E-02  0.8156148E-01
        2   -1    0    0  501    0  0.00000000000E+00  0.00000000000E+00  0.19309993705E+04  0.19309993705E+04  0.25500000920E-02 0.  1.
       -2   -1    0    0    0  501  0.00000000000E+00  0.00000000000E+00 -0.14327540638E+04  0.14327540638E+04  0.25500000920E-02 0. -1.
    10030    2    1    2    0    0  0.00000000000E+00  0.00000000000E+00  0.49824530675E+03  0.33637534343E+04  0.33266482803E+04 0.  0.
        4    1    3    3  502    0  0.93773108908E+03 -0.58908540493E+03  0.15040475128E+04  0.18677584810E+04  0.12699999809E+01 0.  1.
       -4    1    3    3    0  502 -0.93773108908E+03  0.58908540493E+03 -0.10058022060E+04  0.14959949533E+04  0.12699999809E+01 0. -1.
</event>
<event>
 5   0  0.2972541E-07  0.3499045E+04  0.7818609E-02  0.8114016E-01
       -1   -1    0    0    0  501  0.00000000000E+00  0.00000000000E+00  0.10700832446E+04  0.10700832446E+04  0.50400001928E-02 0.  1.
        1   -1    0    0  501    0  0.00000000000E+00  0.00000000000E+00 -0.28603659134E+04  0.28603659134E+04  0.50400001928E-02 0. -1.
    10030    2    1    2    0    0  0.00000000000E+00  0.00000000000E+00 -0.17902826688E+04  0.39304491580E+04  0.34990453769E+04 0.  0.
        3    1    3    3  502    0 -0.75124979486E+03  0.15633362166E+04 -0.63792651715E+03  0.18480656460E+04  0.10100000352E+00 0.  1.
       -3    1    3    3    0  502  0.75124979486E+03 -0.15633362166E+04 -0.11523561517E+04  0.20823835120E+04  0.10100000352E+00 0. -1.
</event>
<event>
 5   0  0.2933506E-07  0.3542776E+04  0.7818609E-02  0.8103727E-01
        1   -1    0    0  501    0  0.00000000000E+00  0.00000000000E+00  0.17738224200E+04  0.17738224200E+04  0.50400001928E-02 0.  1.
       -1   -1    0    0    0  501  0.00000000000E+00  0.00000000000E+00 -0.17689564604E+04  0.17689564604E+04  0.50400001928E-02 0. -1.
    10030    2    1    2    0    0  0.00000000000E+00  0.00000000000E+00  0.48659596500E+01  0.35427788804E+04  0.35427755388E+04 0.  0.
        4    1    3    3  502    0 -0.17470695141E+04 -0.79861682971E+02 -0.27896245444E+03  0.17710029473E+04  0.12699999809E+01 0. -1.
       -4    1    3    3    0  502  0.17470695141E+04  0.79861682971E+02  0.28382841409E+03  0.17717759331E+04  0.12699999809E+01 0.  1.
</event>
<event>
 5   0  0.9128871E-07  0.3491576E+04  0.7818609E-02  0.8115789E-01
        2   -1    0    0  501    0  0.00000000000E+00  0.00000000000E+00  0.21910334877E+04  0.21910334877E+04  0.25500000920E-02 0. -1.
       -2   -1    0    0    0  501  0.00000000000E+00  0.00000000000E+00 -0.13910219484E+04  0.13910219484E+04  0.25500000920E-02 0.  1.
    10030    2    1    2    0    0  0.00000000000E+00  0.00000000000E+00  0.80001153935E+03  0.35820554361E+04  0.34915759600E+04 0.  0.
        1    1    3    3  502    0  0.52955753291E+03  0.98853273164E+02 -0.13036203086E+04  0.14105421154E+04  0.50400001928E-02 0.  1.
       -1    1    3    3    0  502 -0.52955753291E+03 -0.98853273164E+02  0.21036318479E+04  0.21715133207E+04  0.50400001928E-02 0. -1.
</event>
<event>
 5   0  0.2933506E-07  0.3476105E+04  0.7818609E-02  0.8119476E-01
        1   -1    0    0  501    0  0.00000000000E+00  0.00000000000E+00  0.17198657921E+04  0.17198657921E+04  0.50400001928E-02 0.  1.
       -1   -1    0    0    0  501  0.00000000000E+00  0.00000000000E+00 -0.17564311954E+04  0.17564311954E+04  0.50400001928E-02 0. -1.
    10030    2    1    2    0    0  0.00000000000E+00  0.00000000000E+00 -0.36565403218E+02  0.34762969875E+04  0.34761046757E+04 0.  0.
        4    1    3    3  502    0 -0.86905642056E+01  0.11818421047E+03 -0.17523859240E+04  0.17563886452E+04  0.12699999809E+01 0. -1.
       -4    1    3    3    0  502  0.86905642056E+01 -0.11818421047E+03  0.17158205208E+04  0.17199083423E+04  0.12699999809E+01 0.  1.
</event>
<event>
 5   0  0.9311672E-07  0.3305591E+04  0.7818609E-02  0.8161474E-01
        2   -1    0    0  501    0  0.00000000000E+00  0.00000000000E+00  0.25050366512E+04  0.25050366512E+04  0.25500000920E-02 0. -1.
       -2   -1    0    0    0  501  0.00000000000E+00  0.00000000000E+00 -0.10904965132E+04  0.10904965132E+04  0.25500000920E-02 0.  1.
    10030    2    1    2    0    0  0.00000000000E+00  0.00000000000E+00  0.14145401381E+04  0.35955331644E+04  0.33055914651E+04 0.  0.
        4    1    3    3  502    0  0.19617310773E+03  0.66208133759E+03  0.23406131985E+04  0.24403498405E+04  0.12699999809E+01 0. -1.
       -4    1    3    3    0  502 -0.19617310773E+03 -0.66208133759E+03 -0.92607306047E+03  0.11551833240E+04  0.12699999809E+01 0.  1.
</event>
<event>
 5   0  0.6188930E-07  0.3342689E+04  0.7818609E-02  0.8152117E-01
        2   -1    0    0  501    0  0.00000000000E+00  0.00000000000E+00  0.25383296570E+04  0.25383296570E+04  0.25500000920E-02 0.  1.
       -2   -1    0    0    0  501  0.00000000000E+00  0.00000000000E+00 -0.11004846079E+04  0.11004846079E+04  0.25500000920E-02 0. -1.
    10030    2    1    2    0    0  0.00000000000E+00  0.00000000000E+00  0.14378450491E+04  0.36388142649E+04  0.33426891673E+04 0.  0.
        3    1    3    3  502    0  0.14506083594E+04  0.65003026723E+03  0.12809852705E+04  0.20415012207E+04  0.10100000352E+00 0.  1.
       -3    1    3    3    0  502 -0.14506083594E+04 -0.65003026723E+03  0.15685977861E+03  0.15973130442E+04  0.10100000352E+00 0. -1.
</event>
<event>
 5   0  0.8845195E-07  0.3529168E+04  0.7818609E-02  0.8106912E-01
        2   -1    0    0  501    0  0.00000000000E+00  0.00000000000E+00  0.21557351973E+04  0.21557351973E+04  0.25500000920E-02 0. -1.
       -2   -1    0    0    0  501  0.00000000000E+00  0.00000000000E+00 -0.14444062225E+04  0.14444062225E+04  0.25500000920E-02 0.  1.
    10030    2    1    2    0    0  0.00000000000E+00  0.00000000000E+00  0.71132897481E+03  0.36001414198E+04  0.35291683627E+04 0.  0.
        5    1    3    3  502    0  0.42550310394E+03 -0.11720809904E+04  0.16293361798E+04  0.20517273738E+04  0.46999998093E+01 0. -1.
       -5    1    3    3    0  502 -0.42550310394E+03  0.11720809904E+04 -0.91800720498E+03  0.15484140460E+04  0.46999998093E+01 0.  1.
</event>
<event>
 5   0  0.2936607E-07  0.3485640E+04  0.7818609E-02  0.8117202E-01
       -1   -1    0    0    0  501  0.00000000000E+00  0.00000000000E+00  0.16477180122E+04  0.16477180122E+04  0.50400001928E-02 0.  1.
        1   -1    0    0  501    0  0.00000000000E+00  0.00000000000E+00 -0.18434111191E+04  0.18434111191E+04  0.50400001928E-02 0. -1.
    10030    2    1    2    0    0  0.00000000000E+00  0.00000000000E+00 -0.19569310685E+03  0.34911291313E+04  0.34856400874E+04 0.  0.
        2    1    3    3  502    0  0.81063887631E+03 -0.63891114603E+03  0.13086721466E+04  0.16667230207E+04  0.25500000920E-02 0.  1.
       -2    1    3    3    0  502 -0.81063887631E+03  0.63891114603E+03 -0.15043652535E+04  0.18244061106E+04  0.25500000920E-02 0. -1.
</event>
<event>
 5   0  0.2936607E-07  0.3478355E+04  0.7818609E-02  0.8118939E-01
       -1   -1    0    0    0  501  0.00000000000E+00  0.00000000000E+00  0.15614993373E+04  0.15614993373E+04  0.50400001928E-02 0. -1.
        1   -1    0    0  501    0  0.00000000000E+00  0.00000000000E+00 -0.19370734237E+04  0.19370734237E+04  0.50400001928E-02 0.  1.
    10030    2    1    2    0    0  0.00000000000E+00  0.00000000000E+00 -0.37557408638E+03  0.34985727610E+04  0.34783552823E+04 0.  0.
        2    1    3    3  502    0  0.96238273451E+02  0.15525299099E+04 -0.97020818053E+03  0.18332798041E+04  0.25500000920E-02 0.  1.
       -2    1    3    3    0  502 -0.96238273451E+02 -0.15525299099E+04  0.59463409415E+03  0.16652929569E+04  0.25500000920E-02 0. -1.
</event>
<event>
 5   0  0.2907000E-07  0.3516616E+04  0.7818609E-02  0.8109864E-01
        3   -1    0    0  501    0  0.00000000000E+00  0.00000000000E+00  0.20125409297E+04  0.20125409322E+04  0.10100000352E+00 0. -1.
       -3   -1    0    0    0  501  0.00000000000E+00  0.00000000000E+00 -0.15361905293E+04  0.15361905327E+04  0.10100000352E+00 0.  1.
    10030    2    1    2    0    0  0.00000000000E+00  0.00000000000E+00  0.47635040036E+03  0.35487314649E+04  0.35166156040E+04 0.  0.
        2    1    3    3  502    0 -0.53117196783E+03  0.12087629158E+04 -0.93363368275E+03  0.16170724472E+04  0.25500000920E-02 0.  1.
       -2    1    3    3    0  502  0.53117196783E+03 -0.12087629158E+04  0.14099840831E+04  0.19316590177E+04  0.25500000920E-02 0. -1.
</event>
<event>
 5   0  0.3026332E-07  0.3479506E+04  0.7818609E-02  0.8118664E-01
        1   -1    0    0  501    0  0.00000000000E+00  0.00000000000E+00  0.17313451738E+04  0.17313451738E+04  0.50400001928E-02 0.  1.
       -1   -1    0    0    0  501  0.00000000000E+00  0.00000000000E+00 -0.17482013421E+04  0.17482013421E+04  0.50400001928E-02 0. -1.
    10030    2    1    2    0    0  0.00000000000E+00  0.00000000000E+00 -0.16856168346E+02  0.34795465159E+04  0.34795056870E+04 0.  0.
        1    1    3    3  502    0  0.16385659729E+04 -0.56195940894E+03 -0.16980882324E+03  0.17405550440E+04  0.50400001928E-02 0. -1.
       -1    1    3    3    0  502 -0.16385659729E+04  0.56195940894E+03  0.15295265489E+03  0.17389914719E+04  0.50400001928E-02 0.  1.
</event>
<event>
 5   0  0.8845195E-07  0.3514027E+04  0.7818609E-02  0.8110474E-01
       -2   -1    0    0    0  501  0.00000000000E+00  0.00000000000E+00  0.14416304053E+04  0.14416304053E+04  0.25500000920E-02 0. -1.
        2   -1    0    0  501    0  0.00000000000E+00  0.00000000000E+00 -0.21413921727E+04  0.21413921727E+04  0.25500000920E-02 0.  1.
    10030    2    1    2    0    0  0.00000000000E+00  0.00000000000E+00 -0.69976176743E+03  0.35830225780E+04  0.35140267875E+04 0.  0.
        5    1    3    3  502    0 -0.69083021146E+03 -0.58508615242E+03  0.11855076614E+04  0.14916509954E+04  0.46999998093E+01 0. -1.
       -5    1    3    3    0  502  0.69083021146E+03  0.58508615242E+03 -0.18852694289E+04  0.20913715825E+04  0.46999998093E+01 0.  1.
</event>
<event>
 5   0  0.9311672E-07  0.3462364E+04  0.7818609E-02  0.8122768E-01
       -2   -1    0    0    0  501  0.00000000000E+00  0.00000000000E+00  0.27768505002E+04  0.27768505002E+04  0.25500000920E-02 0.  1.
        2   -1    0    0  501    0  0.00000000000E+00  0.00000000000E+00 -0.10792770079E+04  0.10792770079E+04  0.25500000920E-02 0. -1.
    10030    2    1    2    0    0  0.00000000000E+00  0.00000000000E+00  0.16975734923E+04  0.38561275081E+04  0.34623638741E+04 0.  0.
        4    1    3    3  502    0  0.28654020392E+03 -0.14593944086E+04  0.18355838787E+04  0.23624790194E+04  0.12699999809E+01 0.  1.
       -4    1    3    3    0  502 -0.28654020392E+03  0.14593944086E+04 -0.13801038643E+03  0.14936484887E+04  0.12699999809E+01 0. -1.
</event>
<event>
 5   0  0.9128871E-07  0.3305106E+04  0.7818609E-02  0.8161597E-01
        2   -1    0    0  501    0  0.00000000000E+00  0.00000000000E+00  0.23972874848E+04  0.23972874848E+04  0.25500000920E-02 0. -1.
       -2   -1    0    0    0  501  0.00000000000E+00  0.00000000000E+00 -0.11391757207E+04  0.11391757207E+04  0.25500000920E-02 0.  1.
    10030    2    1    2    0    0  0.00000000000E+00  0.00000000000E+00  0.12581117641E+04  0.35364632055E+04  0.33051061697E+04 0.  0.
        1    1    3    3  502    0 -0.93984071285E+03  0.11738556295E+04 -0.10426031685E+03  0.15073512590E+04  0.50400001928E-02 0.  1.
       -1    1    3    3    0  502  0.93984071285E+03 -0.11738556295E+04  0.13623720809E+04  0.20291119465E+04  0.50400001928E-02 0. -1.
</event>
<event>
 5   0  0.9128871E-07  0.3518855E+04  0.7818609E-02  0.8109336E-01
        2   -1    0    0  501    0  0.00000000000E+00  0.00000000000E+00  0.12985833855E+04  0.12985833855E+04  0.25500000920E-02 0. -1.
       -2   -1    0    0    0  501  0.00000000000E+00  0.00000000000E+00 -0.23838175563E+04  0.23838175563E+04  0.25500000920E-02 0.  1.
    10030    2    1    2    0    0  0.00000000000E+00  0.00000000000E+00 -0.10852341708E+04  0.36824009418E+04  0.35188554234E+04 0.  0.
        1    1    3    3  502    0  0.12516342421E+02 -0.72424419556E+03 -0.22205407694E+04  0.23356985298E+04  0.50400001928E-02 0.  1.
       -1    1    3    3    0  502 -0.12516342421E+02  0.72424419556E+03  0.11353065986E+04  0.13467024120E+04  0.50400001928E-02 0. -1.
</event>
<event>
 5   0  0.2936607E-07  0.3498983E+04  0.7818609E-02  0.8114031E-01
        1   -1    0    0  501    0  0.00000000000E+00  0.00000000000E+00  0.25060565971E+04  0.25060565971E+04  0.50400001928E-02 0. -1.
       -1   -1    0    0    0  501  0.00000000000E+00  0.00000000000E+00 -0.12213292886E+04  0.12213292887E+04  0.50400001928E-02 0.  1.
    10030    2    1    2    0    0  0.00000000000E+00  0.00000000000E+00  0.12847273084E+04  0.37273858857E+04  0.34989828928E+04 0.  0.
        2    1    3    3  502    0  0.12634364461E+04 -0.60950417778E+03  0.17560511538E+04  0.22475503667E+04  0.25500000920E-02 0. -1.
       -2    1    3    3    0  502 -0.12634364461E+04  0.60950417778E+03 -0.47132384542E+03  0.14798355190E+04  0.25500000920E-02 0.  1.
</event>
<event>
 5   0  0.3061330E-07  0.3521894E+04  0.7818609E-02  0.8108621E-01
        1   -1    0    0  501    0  0.00000000000E+00  0.00000000000E+00  0.19007773518E+04  0.19007773518E+04  0.50400001928E-02 0. -1.
       -1   -1    0    0    0  501  0.00000000000E+00  0.00000000000E+00 -0.16314028514E+04  0.16314028514E+04  0.50400001928E-02 0.  1.
    10030    2    1    2    0    0  0.00000000000E+00  0.00000000000E+00  0.26937450035E+03  0.35321802032E+04  0.35218935769E+04 0.  0.
        5    1    3    3  502    0 -0.15761523957E+04 -0.34816190121E+03 -0.57124246541E+03  0.17122538154E+04  0.46999998093E+01 0.  1.
       -5    1    3    3    0  502  0.15761523957E+04  0.34816190121E+03  0.84061696577E+03  0.18199263878E+04  0.46999998093E+01 0. -1.
</event>
<event>
 5   0  0.6188930E-07  0.3492095E+04  0.7818609E-02  0.8115666E-01
        2   -1    0    0  501    0  0.00000000000E+00  0.00000000000E+00  0.18150382910E+04  0.18150382910E+04  0.25500000920E-02 0. -1.
       -2   -1    0    0    0  501  0.00000000000E+00  0.00000000000E+00 -0.16796793854E+04  0.16796793854E+04  0.25500000920E-02 0.  1.
    10030    2    1    2    0    0  0.00000000000E+00  0.00000000000E+00  0.13535890564E+03  0.34947176764E+04  0.34920953029E+04 0.  0.
        3    1    3    3  502    0  0.12838358786E+03  0.16116105063E+04 -0.59229407435E+03  0.17217964602E+04  0.10100000352E+00 0.  1.
       -3    1    3    3    0  502 -0.12838358786E+03 -0.16116105063E+04  0.72765297999E+03  0.17729212162E+04  0.10100000352E+00 0. -1.
</event>
<event>
 5   0  0.2936607E-07  0.3520193E+04  0.7818609E-02  0.8109021E-01
        1   -1    0    0  501    0  0.00000000000E+00  0.00000000000E+00  0.32586338658E+04  0.32586338658E+04  0.50400001928E-02 0.  1.
       -1   -1    0    0    0  501  0.00000000000E+00  0.00000000000E+00 -0.95068678211E+03  0.95068678213E+03  0.50400001928E-02 0. -1.
    10030    2    1    2    0    0  0.00000000000E+00  0.00000000000E+00  0.23079470836E+04  0.42093206479E+04  0.35201932583E+04 0.  0.
        2    1    3    3  502    0 -0.23038215916E+03  0.74885228877E+03 -0.73066765967E+03  0.10713220424E+04  0.25500000920E-02 0. -1.
       -2    1    3    3    0  502  0.23038215916E+03 -0.74885228877E+03  0.30386147433E+04  0.31379986055E+04  0.25500000920E-02 0.  1.
</event>
<event>
 5   0  0.8950809E-07  0.3482698E+04  0.7818609E-02  0.8117902E-01
       -2   -1    0    0    0  501  0.00000000000E+00  0.00000000000E+00  0.12488850859E+04  0.12488850859E+04  0.25500000920E-02 0.  1.
        2   -1    0    0  501    0  0.00000000000E+00  0.00000000000E+00 -0.24280032595E+04  0.24280032595E+04  0.25500000920E-02 0. -1.
    10030    2    1    2    0    0  0.00000000000E+00  0.00000000000E+00 -0.11791181737E+04  0.36768883454E+04  0.34826984132E+04 0.  0.
        2    1    3    3  502    0  0.66928180424E+03 -0.35699212285E+03  0.10652949301E+04  0.13077594570E+04  0.25500000920E-02 0.  1.
       -2    1    3    3    0  502 -0.66928180424E+03  0.35699212285E+03 -0.22444131038E+04  0.23691288884E+04  0.25500000920E-02 0. -1.
</event>
<event>
 5   0  0.3026332E-07  0.3586429E+04  0.7818609E-02  0.8093607E-01
       -1   -1    0    0    0  501  0.00000000000E+00  0.00000000000E+00  0.12085674148E+04  0.12085674148E+04  0.50400001928E-02 0. -1.
        1   -1    0    0  501    0  0.00000000000E+00  0.00000000000E+00 -0.26606855482E+04  0.26606855483E+04  0.50400001928E-02 0.  1.
    10030    2    1    2    0    0  0.00000000000E+00  0.00000000000E+00 -0.14521181334E+04  0.38692529631E+04  0.35864287835E+04 0.  0.
        1    1    3    3  502    0 -0.37145139447E+03  0.13717230834E+04  0.45380963118E+03  0.14918255720E+04  0.50400001928E-02 0. -1.
       -1    1    3    3    0  502  0.37145139447E+03 -0.13717230834E+04 -0.19059277646E+04  0.23774273911E+04  0.50400001928E-02 0.  1.
</event>
<event>
 5   0  0.6188930E-07  0.3489347E+04  0.7818609E-02  0.8116319E-01
        2   -1    0    0  501    0  0.00000000000E+00  0.00000000000E+00  0.12336170125E+04  0.12336170125E+04  0.25500000920E-02 0. -1.
       -2   -1    0    0    0  501  0.00000000000E+00  0.00000000000E+00 -0.24674485086E+04  0.24674485086E+04  0.25500000920E-02 0.  1.
    10030    2    1    2    0    0  0.00000000000E+00  0.00000000000E+00 -0.12338314961E+04  0.37010655211E+04  0.34893474792E+04 0.  0.
        3    1    3    3  502    0  0.69987234491E+02  0.78266313000E+03  0.10352976447E+04  0.12997311304E+04  0.10100000352E+00 0. -1.
       -3    1    3    3    0  502 -0.69987234491E+02 -0.78266313000E+03 -0.22691291408E+04  0.24013343907E+04  0.10100000352E+00 0.  1.
</event>
<event>
 5   0  0.8845195E-07  0.2950829E+04  0.7818609E-02  0.8257913E-01
       -2   -1    0    0    0  501  0.00000000000E+00  0.00000000000E+00  0.15044102186E+04  0.15044102186E+04  0.25500000920E-02 0. -1.
        2   -1    0    0  501    0  0.00000000000E+00  0.00000000000E+00 -0.14469772925E+04  0.14469772925E+04  0.25500000920E-02 0.  1.
    10030    2    1    2    0    0  0.00000000000E+00  0.00000000000E+00  0.57432926043E+02  0.29513875111E+04  0.29508286463E+04 0.  0.
        5    1    3    3  502    0  0.13244293764E+04 -0.63732248519E+03  0.15731846277E+03  0.14781963036E+04  0.46999998093E+01 0. -1.
       -5    1    3    3    0  502 -0.13244293764E+04  0.63732248519E+03 -0.99885536729E+02  0.14731912075E+04  0.46999998093E+01 0.  1.
</event>
<event>
 5   0  0.3026332E-07  0.3575543E+04  0.7818609E-02  0.8096117E-01
        1   -1    0    0  501    0  0.00000000000E+00  0.00000000000E+00  0.24035554930E+04  0.24035554930E+04  0.50400001928E-02 0. -1.
       -1   -1    0    0    0  501  0.00000000000E+00  0.00000000000E+00 -0.13297496968E+04  0.13297496968E+04  0.50400001928E-02 0.  1.
    10030    2    1    2    0    0  0.00000000000E+00  0.00000000000E+00  0.10738057962E+04  0.37333051897E+04  0.35755431408E+04 0.  0.
        1    1    3    3  502    0 -0.11928806949E+04 -0.51139605056E+03  0.18206374079E+04  0.22358915098E+04  0.50400001928E-02 0. -1.
       -1    1    3    3    0  502  0.11928806949E+04  0.51139605056E+03 -0.74683161165E+03  0.14974136799E+04  0.50400001928E-02 0.  1.
</event>
<event>
 5   0  0.2933506E-07  0.3498094E+04  0.7818609E-02  0.8114242E-01
       -1   -1    0    0    0  501  0.00000000000E+00  0.00000000000E+00  0.14818441891E+04  0.14818441891E+04  0.50400001928E-02 0. -1.
        1   -1    0    0  501    0  0.00000000000E+00  0.00000000000E+00 -0.20644307624E+04  0.20644307624E+04  0.50400001928E-02 0.  1.
    10030    2    1    2    0    0  0.00000000000E+00  0.00000000000E+00 -0.58258657325E+03  0.35462749515E+04  0.34980936117E+04 0.  0.
        4    1    3    3  502    0  0.82455402946E+03  0.14162444722E+04 -0.91087847306E+03  0.18749237206E+04  0.12699999809E+01 0.  1.
       -4    1    3    3    0  502 -0.82455402946E+03 -0.14162444722E+04  0.32829189981E+03  0.16713512309E+04  0.12699999809E+01 0. -1.
</event>
<event>
 5   0  0.3061330E-07  0.3380192E+04  0.7818609E-02  0.8142785E-01
        1   -1    0    0  501    0  0.00000000000E+00  0.00000000000E+00  0.22230887274E+04  0.22230887274E+04  0.50400001928E-02 0. -1.
       -1   -1    0    0    0  501  0.00000000000E+00  0.00000000000E+00 -0.12848903704E+04  0.12848903704E+04  0.50400001928E-02 0.  1.
    10030    2    1    2    0    0  0.00000000000E+00  0.00000000000E+00  0.93819835693E+03  0.35079790978E+04  0.33801924788E+04 0.  0.
        5    1    3    3  502    0  0.29656814940E+03  0.26024065083E+03 -0.12364167348E+04  0.12978544971E+04  0.46999998093E+01 0.  1.
       -5    1    3    3    0  502 -0.29656814940E+03 -0.26024065083E+03  0.21746150917E+04  0.22101246007E+04  0.46999998093E+01 0. -1.
</event>
<event>
 5   0  0.3061330E-07  0.3527740E+04  0.7818609E-02  0.8107247E-01
       -1   -1    0    0    0  501  0.00000000000E+00  0.00000000000E+00  0.14059331176E+04  0.14059331176E+04  0.50400001928E-02 0. -1.
        1   -1    0    0  501    0  0.00000000000E+00  0.00000000000E+00 -0.22129339295E+04  0.22129339295E+04  0.50400001928E-02 0.  1.
    10030    2    1    2    0    0  0.00000000000E+00  0.00000000000E+00 -0.80700081191E+03  0.36188670471E+04  0.35277398422E+04 0.  0.
        5    1    3    3  502    0  0.17568377651E+04  0.14086856341E+03 -0.47525088249E+03  0.18254337501E+04  0.46999998093E+01 0. -1.
       -5    1    3    3    0  502 -0.17568377651E+04 -0.14086856341E+03 -0.33174992943E+03  0.17934332969E+04  0.46999998093E+01 0.  1.
</event>
<event>
 5   0  0.8845195E-07  0.3494022E+04  0.7818609E-02  0.8115208E-01
        2   -1    0    0  501    0  0.00000000000E+00  0.00000000000E+00  0.18884889716E+04  0.18884889716E+04  0.25500000920E-02 0.  1.
       -2   -1    0    0    0  501  0.00000000000E+00  0.00000000000E+00 -0.16161323087E+04  0.16161323087E+04  0.25500000920E-02 0. -1.
    10030    2    1    2    0    0  0.00000000000E+00  0.00000000000E+00  0.27235666291E+03  0.35046212803E+04  0.34940223477E+04 0.  0.
        5    1    3    3  502    0  0.11987308723E+03  0.18879329921E+03 -0.16017094693E+04  0.16172531592E+04  0.46999998093E+01 0. -1.
       -5    1    3    3    0  502 -0.11987308723E+03 -0.18879329921E+03  0.18740661322E+04  0.18873681211E+04  0.46999998093E+01 0.  1.
</event>
<event>
 5   0  0.6188930E-07  0.3485336E+04  0.7818609E-02  0.8117274E-01
       -2   -1    0    0    0  501  0.00000000000E+00  0.00000000000E+00  0.23756637377E+04  0.23756637377E+04  0.25500000920E-02 0. -1.
        2   -1    0    0  501    0  0.00000000000E+00  0.00000000000E+00 -0.12783342869E+04  0.12783342869E+04  0.25500000920E-02 0.  1.
    10030    2    1    2    0    0  0.00000000000E+00  0.00000000000E+00  0.10973294508E+04  0.36539980246E+04  0.34853363741E+04 0.  0.
        3    1    3    3  502    0  0.87383572454E+03  0.12397808830E+04  0.14482355168E+04  0.20971484530E+04  0.10100000352E+00 0. -1.
       -3    1    3    3    0  502 -0.87383572454E+03 -0.12397808830E+04 -0.35090606601E+03  0.15568495717E+04  0.10100000352E+00 0.  1.
</event>
<event>
 5   0  0.6188930E-07  0.3569221E+04  0.7818609E-02  0.8097579E-01
       -2   -1    0    0    0  501  0.00000000000E+00  0.00000000000E+00  0.29296476294E+04  0.29296476294E+04  0.25500000920E-02 0.  1.
        2   -1    0    0  501    0  0.00000000000E+00  0.00000000000E+00 -0.10871048958E+04  0.10871048958E+04  0.25500000920E-02 0. -1.
    10030    2    1    2    0    0  0.00000000000E+00  0.00000000000E+00  0.18425427336E+04  0.40167525252E+04  0.35692208006E+04 0.  0.
        3    1    3    3  502    0  0.92573321018E+03  0.69402273520E+03 -0.60784042789E+03  0.13069504694E+04  0.10100000352E+00 0. -1.
       -3    1    3    3    0  502 -0.92573321018E+03 -0.69402273520E+03  0.24503831615E+04  0.27098020558E+04  0.10100000352E+00 0.  1.
</event>
<event>
 5   0  0.6188930E-07  0.3459860E+04  0.7818609E-02  0.8123369E-01
        2   -1    0    0  501    0  0.00000000000E+00  0.00000000000E+00  0.12178221961E+04  0.12178221961E+04  0.25500000920E-02 0.  1.
       -2   -1    0    0    0  501  0.00000000000E+00  0.00000000000E+00 -0.24573846003E+04  0.24573846003E+04  0.25500000920E-02 0. -1.
    10030    2    1    2    0    0  0.00000000000E+00  0.00000000000E+00 -0.12395624042E+04  0.36752067964E+04  0.34598598299E+04 0.  0.
        3    1    3    3  502    0  0.95183223562E+03  0.94274083067E+03 -0.17823960015E+04  0.22297265292E+04  0.10100000352E+00 0. -1.
       -3    1    3    3    0  502 -0.95183223562E+03 -0.94274083067E+03  0.54283359727E+03  0.14454802673E+04  0.10100000352E+00 0.  1.
</event>
<event>
 5   0  0.2936607E-07  0.3490191E+04  0.7818609E-02  0.8116118E-01
       -1   -1    0    0    0  501  0.00000000000E+00  0.00000000000E+00  0.12831496453E+04  0.12831496453E+04  0.50400001928E-02 0.  1.
        1   -1    0    0  501    0  0.00000000000E+00  0.00000000000E+00 -0.23733468384E+04  0.23733468384E+04  0.50400001928E-02 0. -1.
    10030    2    1    2    0    0  0.00000000000E+00  0.00000000000E+00 -0.10901971931E+04  0.36564964837E+04  0.34901914869E+04 0.  0.
        2    1    3    3  502    0  0.20339621988E+03 -0.13568268040E+03  0.12651166306E+04  0.12885262516E+04  0.25500000920E-02 0.  1.
       -2    1    3    3    0  502 -0.20339621988E+03  0.13568268040E+03 -0.23553138237E+04  0.23679702321E+04  0.25500000920E-02 0. -1.
</event>
<event>
 5   0  0.6188930E-07  0.3517154E+04  0.7818609E-02  0.8109737E-01
       -2   -1    0    0    0  501  0.00000000000E+00  0.00000000000E+00  0.30614410076E+04  0.30614410076E+04  0.25500000920E-02 0.  1.
        2   -1    0    0  501    0  0.00000000000E+00  0.00000000000E+00 -0.10101755644E+04  0.10101755644E+04  0.25500000920E-02 0. -1.
    10030    2    1    2    0    0  0.00000000000E+00  0.00000000000E+00  0.20512654433E+04  0.40716165720E+04  0.35171539049E+04 0.  0.
        3    1    3    3  502    0  0.12163952204E+04  0.12108058939E+04  0.58189860373E+03  0.18122566706E+04  0.10100000352E+00 0.  1.
       -3    1    3    3    0  502 -0.12163952204E+04 -0.12108058939E+04  0.14693668395E+04  0.22593599014E+04  0.10100000352E+00 0. -1.
</event>
<event>
 5   0  0.8950809E-07  0.3556516E+04  0.7818609E-02  0.8100525E-01
       -2   -1    0    0    0  501  0.00000000000E+00  0.00000000000E+00  0.13565529348E+04  0.13565529348E+04  0.25500000920E-02 0. -1.
        2   -1    0    0  501    0  0.00000000000E+00  0.00000000000E+00 -0.23310564858E+04  0.23310564858E+04  0.25500000920E-02 0.  1.
    10030    2    1    2    0    0  0.00000000000E+00  0.00000000000E+00 -0.97450355095E+03  0.36876094206E+04  0.35565160014E+04 0.  0.
        2    1    3    3  502    0  0.10983107808E+04  0.34819560562E+03 -0.18916804651E+04  0.22149450858E+04  0.25500000920E-02 0.  1.
       -2    1    3    3    0  502 -0.10983107808E+04 -0.34819560562E+03  0.91717691417E+03  0.14726643348E+04  0.25500000920E-02 0. -1.
</event>
<event>
 5   0  0.6188930E-07  0.3558208E+04  0.7818609E-02  0.8100132E-01
       -2   -1    0    0    0  501  0.00000000000E+00  0.00000000000E+00  0.13934724165E+04  0.13934724165E+04  0.25500000920E-02 0. -1.
        2   -1    0    0  501    0  0.00000000000E+00  0.00000000000E+00 -0.22714562388E+04  0.22714562388E+04  0.25500000920E-02 0.  1.
    10030    2    1    2    0    0  0.00000000000E+00  0.00000000000E+00 -0.87798382229E+03  0.36649286554E+04  0.35582083212E+04 0.  0.
        3    1    3    3  502    0  0.80027737220E+03 -0.72011067749E+03 -0.18978806429E+04  0.21819610916E+04  0.10100000352E+00 0.  1.
       -3    1    3    3    0  502 -0.80027737220E+03  0.72011067749E+03  0.10198968206E+04  0.14829675638E+04  0.10100000352E+00 0. -1.
</event>
<event>
 5   0  0.8845195E-07  0.3532106E+04  0.7818609E-02  0.8106223E-01
        2   -1    0    0  501    0  0.00000000000E+00  0.00000000000E+00  0.20030911179E+04  0.20030911179E+04  0.25500000920E-02 0.  1.
       -2   -1    0    0    0  501  0.00000000000E+00  0.00000000000E+00 -0.15570652712E+04  0.15570652712E+04  0.25500000920E-02 0. -1.
    10030    2    1    2    0    0  0.00000000000E+00  0.00000000000E+00  0.44602584672E+03  0.35601563891E+04  0.35321062355E+04 0.  0.
        5    1    3    3  502    0  0.94039022564E+02  0.12208985132E+04  0.15057090533E+04  0.19407777720E+04  0.46999998093E+01 0.  1.
       -5    1    3    3    0  502 -0.94039022564E+02 -0.12208985132E+04 -0.10596832066E+04  0.16193786171E+04  0.46999998093E+01 0. -1.
</event>
<event>
 5   0  0.8950809E-07  0.3502683E+04  0.7818609E-02  0.8113154E-01
       -2   -1    0    0    0  501  0.00000000000E+00  0.00000000000E+00  0.16553126737E+04  0.16553126737E+04  0.25500000920E-02 0.  1.
        2   -1    0    0  501    0  0.00000000000E+00  0.00000000000E+00 -0.18529413276E+04  0.18529413276E+04  0.25500000920E-02 0. -1.
    10030    2    1    2    0    0  0.00000000000E+00  0.00000000000E+00 -0.19762865391E+03  0.35082540013E+04  0.35026831220E+04 0.  0.
        2    1    3    3  502    0  0.10430878772E+04  0.71055472785E+03 -0.13149435184E+04  0.18226345759E+04  0.25500000920E-02 0. -1.
       -2    1    3    3    0  502 -0.10430878772E+04 -0.71055472785E+03  0.11173148645E+04  0.16856194254E+04  0.25500000920E-02 0.  1.
</event>
<event>
 5   0  0.2936607E-07  0.3446767E+04  0.7818609E-02  0.8126523E-01
        1   -1    0    0  501    0  0.00000000000E+00  0.00000000000E+00  0.15865824448E+04  0.15865824448E+04  0.50400001928E-02 0. -1.
       -1   -1    0    0    0  501  0.00000000000E+00  0.00000000000E+00 -0.18719800417E+04  0.18719800417E+04  0.50400001928E-02 0.  1.
    10030    2    1    2    0    0  0.00000000000E+00  0.00000000000E+00 -0.28539759687E+03  0.34585624865E+04  0.34467669902E+04 0.  0.
        2    1    3    3  502    0  0.15831703053E+04 -0.60091530718E+03  0.17858948071E+03  0.17027688112E+04  0.25500000920E-02 0.  1.
       -2    1    3    3    0  502 -0.15831703053E+04  0.60091530718E+03 -0.46398707758E+03  0.17557936753E+04  0.25500000920E-02 0. -1.
</event>
<event>
 5   0  0.2936607E-07  0.3496898E+04  0.7818609E-02  0.8114525E-01
       -1   -1    0    0    0  501  0.00000000000E+00  0.00000000000E+00  0.14243833614E+04  0.14243833614E+04  0.50400001928E-02 0. -1.
        1   -1    0    0  501    0  0.00000000000E+00  0.00000000000E+00 -0.21462438529E+04  0.21462438529E+04  0.50400001928E-02 0.  1.
    10030    2    1    2    0    0  0.00000000000E+00  0.00000000000E+00 -0.72186049150E+03  0.35706272143E+04  0.34968980732E+04 0.  0.
        2    1    3    3  502    0 -0.38422675673E+03  0.11416356938E+04 -0.16549753680E+04  0.20469259212E+04  0.25500000920E-02 0.  1.
       -2    1    3    3    0  502  0.38422675673E+03 -0.11416356938E+04  0.93311487653E+03  0.15237012931E+04  0.25500000920E-02 0. -1.
</event>
<event>
 5   0  0.9311672E-07  0.3512191E+04  0.7818609E-02  0.8110907E-01
       -2   -1    0    0    0  501  0.00000000000E+00  0.00000000000E+00  0.12861167764E+04  0.12861167764E+04  0.25500000920E-02 0. -1.
        2   -1    0    0  501    0  0.00000000000E+00  0.00000000000E+00 -0.23978160802E+04  0.23978160802E+04  0.25500000920E-02 0.  1.
    10030    2    1    2    0    0  0.00000000000E+00  0.00000000000E+00 -0.11116993038E+04  0.36839328566E+04  0.35121910469E+04 0.  0.
        4    1    3    3  502    0  0.15968155282E+04 -0.59808493778E+03 -0.99631776457E+03  0.19748863574E+04  0.12699999809E+01 0.  1.
       -4    1    3    3    0  502 -0.15968155282E+04  0.59808493778E+03 -0.11538153924E+03  0.17090464992E+04  0.12699999809E+01 0. -1.
</event>
<event>
 5   0  0.2972541E-07  0.3496042E+04  0.7818609E-02  0.8114729E-01
        1   -1    0    0  501    0  0.00000000000E+00  0.00000000000E+00  0.16125164116E+04  0.16125164116E+04  0.50400001928E-02 0. -1.
       -1   -1    0    0    0  501  0.00000000000E+00  0.00000000000E+00 -0.18949123128E+04  0.18949123128E+04  0.50400001928E-02 0.  1.
    10030    2    1    2    0    0  0.00000000000E+00  0.00000000000E+00 -0.28239590120E+03  0.35074287244E+04  0.34960418778E+04 0.  0.
        3    1    3    3  502    0  0.16904399593E+04  0.33005852568E+02 -0.58637799964E+03  0.17895574344E+04  0.10100000352E+00 0. -1.
       -3    1    3    3    0  502 -0.16904399593E+04 -0.33005852568E+02  0.30398209844E+03  0.17178712899E+04  0.10100000352E+00 0.  1.
</event>
<event>
 5   0  0.8845195E-07  0.3479795E+04  0.7818609E-02  0.8118595E-01
        2   -1    0    0  501    0  0.00000000000E+00  0.00000000000E+00  0.24720261642E+04  0.24720261642E+04  0.25500000920E-02 0.  1.
       -2   -1    0    0    0  501  0.00000000000E+00  0.00000000000E+00 -0.12246003610E+04  0.12246003610E+04  0.25500000920E-02 0. -1.
    10030    2    1    2    0    0  0.00000000000E+00  0.00000000000E+00  0.12474258032E+04  0.36966265253E+04  0.34797954728E+04 0.  0.
        5    1    3    3  502    0 -0.83890217400E+03  0.14650418094E+04  0.10707904052E+04  0.19991794673E+04  0.46999998093E+01 0.  1.
       -5    1    3    3    0  502  0.83890217400E+03 -0.14650418094E+04  0.17663539798E+03  0.16974470579E+04  0.46999998093E+01 0. -1.
</event>
<event>
 5   0  0.6188930E-07  0.3502998E+04  0.7818609E-02  0.8113080E-01
        2   -1    0    0  501    0  0.00000000000E+00  0.00000000000E+00  0.18736800429E+04  0.18736800429E+04  0.25500000920E-02 0.  1.
       -2   -1    0    0    0  501  0.00000000000E+00  0.00000000000E+00 -0.16372848482E+04  0.16372848482E+04  0.25500000920E-02 0. -1.
    10030    2    1    2    0    0  0.00000000000E+00  0.00000000000E+00  0.23639519472E+03  0.35109648911E+04  0.35029975419E+04 0.  0.
        3    1    3    3  502    0  0.11527858958E+04 -0.26072875558E+03  0.14137524108E+04  0.18427128628E+04  0.10100000352E+00 0.  1.
       -3    1    3    3    0  502 -0.11527858958E+04  0.26072875558E+03 -0.11773572161E+04  0.16682520283E+04  0.10100000352E+00 0. -1.
</event>
<event>
 5   0  0.6188930E-07  0.3346390E+04  0.7818609E-02  0.8151191E-01
       -2   -1    0    0    0  501  0.00000000000E+00  0.00000000000E+00  0.12785746650E+04  0.12785746650E+04  0.25500000920E-02 0. -1.
        2   -1    0    0  501    0  0.00000000000E+00  0.00000000000E+00 -0.21896115113E+04  0.21896115113E+04  0.25500000920E-02 0.  1.
    10030    2    1    2    0    0  0.00000000000E+00  0.00000000000E+00 -0.91103684632E+03  0.34681861763E+04  0.33463901772E+04 0.  0.
        3    1    3    3  502    0 -0.10671331312E+04  0.17421192915E+03 -0.17788867955E+04  0.20817207204E+04  0.10100000352E+00 0.  1.
       -3    1    3    3    0  502  0.10671331312E+04 -0.17421192915E+03  0.86784994921E+03  0.13864654560E+04  0.10100000352E+00 0. -1.
</event>
<event>
 5   0  0.8950809E-07  0.3081895E+04  0.7818609E-02  0.8220724E-01
        2   -1    0    0  501    0  0.00000000000E+00  0.00000000000E+00  0.15660030871E+04  0.15660030871E+04  0.25500000920E-02 0. -1.
       -2   -1    0    0    0  501  0.00000000000E+00  0.00000000000E+00 -0.15162924242E+04  0.15162924242E+04  0.25500000920E-02 0.  1.
    10030    2    1    2    0    0  0.00000000000E+00  0.00000000000E+00  0.49710662949E+02  0.30822955113E+04  0.30818946233E+04 0.  0.
        2    1    3    3  502    0  0.48668208187E+03  0.71983059363E+03 -0.12479071904E+04  0.15206208891E+04  0.25500000920E-02 0.  1.
       -2    1    3    3    0  502 -0.48668208187E+03 -0.71983059363E+03  0.12976178534E+04  0.15616746222E+04  0.25500000920E-02 0. -1.
</event>
<event>
 5   0  0.3026332E-07  0.3474898E+04  0.7818609E-02  0.8119765E-01
        1   -1    0    0  501    0  0.00000000000E+00  0.00000000000E+00  0.21325775847E+04  0.21325775847E+04  0.50400001928E-02 0. -1.
       -1   -1    0    0    0  501  0.00000000000E+00  0.00000000000E+00 -0.14155310093E+04  0.14155310093E+04  0.50400001928E-02 0.  1.
    10030    2    1    2    0    0  0.00000000000E+00  0.00000000000E+00  0.71704657542E+03  0.35481085941E+04  0.34748983876E+04 0.  0.
        1    1    3    3  502    0  0.97773931737E+03 -0.92180520381E+03  0.14831041514E+04  0.20013237945E+04  0.50400001928E-02 0. -1.
       -1    1    3    3    0  502 -0.97773931737E+03  0.92180520381E+03 -0.76605757596E+03  0.15467847996E+04  0.50400001928E-02 0.  1.
</event>
<event>
 5   0  0.9311672E-07  0.3580106E+04  0.7818609E-02  0.8095064E-01
        2   -1    0    0  501    0  0.00000000000E+00  0.00000000000E+00  0.17400063490E+04  0.17400063490E+04  0.25500000920E-02 0.  1.
       -2   -1    0    0    0  501  0.00000000000E+00  0.00000000000E+00 -0.18415392107E+04  0.18415392107E+04  0.25500000920E-02 0. -1.
    10030    2    1    2    0    0  0.00000000000E+00  0.00000000000E+00 -0.10153286174E+03  0.35815455597E+04  0.35801060982E+04 0.  0.
        4    1    3    3  502    0 -0.10251666582E+04 -0.14059767403E+04 -0.47111513781E+03  0.18026892015E+04  0.12699999809E+01 0. -1.
       -4    1    3    3    0  502  0.10251666582E+04  0.14059767403E+04  0.36958227607E+03  0.17788563582E+04  0.12699999809E+01 0.  1.
</event>
<event>
 5   0  0.3026332E-07  0.3520083E+04  0.7818609E-02  0.8109047E-01
       -1   -1    0    0    0  501  0.00000000000E+00  0.00000000000E+00  0.17688882081E+04  0.17688882081E+04  0.50400001928E-02 0.  1.
        1   -1    0    0  501    0  0.00000000000E+00  0.00000000000E+00 -0.17512387785E+04  0.17512387785E+04  0.50400001928E-02 0. -1.
    10030    2    1    2    0    0  0.00000000000E+00  0.00000000000E+00  0.17649429626E+02  0.35201269867E+04  0.35200827405E+04 0.  0.
        1    1    3    3  502    0 -0.10182053937E+04 -0.55262393430E+03 -0.13161863506E+04  0.17534200712E+04  0.50400001928E-02 0. -1.
       -1    1    3    3    0  502  0.10182053937E+04  0.55262393430E+03  0.13338357803E+04  0.17667069155E+04  0.50400001928E-02 0.  1.
</event>
<event>
 5   0  0.6188930E-07  0.3504565E+04  0.7818609E-02  0.8112709E-01
        2   -1    0    0  501    0  0.00000000000E+00  0.00000000000E+00  0.20231404197E+04  0.20231404197E+04  0.25500000920E-02 0.  1.
       -2   -1    0    0    0  501  0.00000000000E+00  0.00000000000E+00 -0.15176867386E+04  0.15176867386E+04  0.25500000920E-02 0. -1.
    10030    2    1    2    0    0  0.00000000000E+00  0.00000000000E+00  0.50545368107E+03  0.35408271583E+04  0.35045646721E+04 0.  0.
        3    1    3    3  502    0 -0.24273201265E+03 -0.11471947426E+03 -0.14967832292E+04  0.15206707182E+04  0.10100000352E+00 0. -1.
       -3    1    3    3    0  502  0.24273201265E+03  0.11471947426E+03  0.20022369102E+04  0.20201564401E+04  0.10100000352E+00 0.  1.
</event>
<event>
 5   0  0.6188930E-07  0.3505749E+04  0.7818609E-02  0.8112429E-01
       -2   -1    0    0    0  501  0.00000000000E+00  0.00000000000E+00  0.15781016750E+04  0.15781016750E+04  0.25500000920E-02 0. -1.
        2   -1    0    0  501    0  0.00000000000E+00  0.00000000000E+00 -0.19470036425E+04  0.19470036425E+04  0.25500000920E-02 0.  1.
    10030    2    1    2    0    0  0.00000000000E+00  0.00000000000E+00 -0.36890196753E+03  0.35251053175E+04  0.35057493975E+04 0.  0.
        3    1    3    3  502    0 -0.13878462697E+04  0.10611757710E+04 -0.40980289877E+02  0.17475384630E+04  0.10100000352E+00 0. -1.
       -3    1    3    3    0  502  0.13878462697E+04 -0.10611757710E+04 -0.32792167765E+03  0.17775668545E+04  0.10100000352E+00 0.  1.
</event>
<event>
 5   0  0.2933506E-07  0.3343925E+04  0.7818609E-02  0.8151808E-01
        1   -1    0    0  501    0  0.00000000000E+00  0.00000000000E+00  0.14216331851E+04  0.14216331851E+04  0.50400001928E-02 0.  1.
       -1   -1    0    0    0  501  0.00000000000E+00  0.00000000000E+00 -0.19663715817E+04  0.19663715817E+04  0.50400001928E-02 0. -1.
    10030    2    1    2    0    0  0.00000000000E+00  0.00000000000E+00 -0.54473839658E+03  0.33880047668E+04  0.33439252951E+04 0.  0.
        4    1    3    3  502    0  0.14948171878E+04 -0.44922201458E+03 -0.87958448473E+03  0.17916331438E+04  0.12699999809E+01 0. -1.
       -4    1    3    3    0  502 -0.14948171878E+04  0.44922201458E+03  0.33484608815E+03  0.15963716231E+04  0.12699999809E+01 0.  1.
</event>
<event>
 5   0  0.3026332E-07  0.3500777E+04  0.7818609E-02  0.8113606E-01
        1   -1    0    0  501    0  0.00000000000E+00  0.00000000000E+00  0.27107278412E+04  0.27107278412E+04  0.50400001928E-02 0.  1.
       -1   -1    0    0    0  501  0.00000000000E+00  0.00000000000E+00 -0.11302718513E+04  0.11302718513E+04  0.50400001928E-02 0. -1.
    10030    2    1    2    0    0  0.00000000000E+00  0.00000000000E+00  0.15804559900E+04  0.38409996925E+04  0.35007766998E+04 0.  0.
        1    1    3    3  502    0  0.10560818169E+04 -0.30782081866E+03  0.22840915776E+04  0.25351798349E+04  0.50400001928E-02 0.  1.
       -1    1    3    3    0  502 -0.10560818169E+04  0.30782081866E+03 -0.70363558762E+03  0.13058198576E+04  0.50400001928E-02 0. -1.
</event>
<event>
 5   0  0.9128871E-07  0.3517580E+04  0.7818609E-02  0.8109636E-01
       -2   -1    0    0    0  501  0.00000000000E+00  0.00000000000E+00  0.19509164114E+04  0.19509164114E+04  0.25500000920E-02 0. -1.
        2   -1    0    0  501    0  0.00000000000E+00  0.00000000000E+00 -0.15855842905E+04  0.15855842905E+04  0.25500000920E-02 0.  1.
    10030    2    1    2    0    0  0.00000000000E+00  0.00000000000E+00  0.36533212085E+03  0.35365007019E+04  0.35175800852E+04 0.  0.
        1    1    3    3  502    0  0.10588302600E+04  0.12469016459E+04 -0.46691854242E+03  0.17011461311E+04  0.50400001928E-02 0.  1.
       -1    1    3    3    0  502 -0.10588302600E+04 -0.12469016459E+04  0.83225066327E+03  0.18353545708E+04  0.50400001928E-02 0. -1.
</event>
<event>
 5   0  0.2936607E-07  0.3459656E+04  0.7818609E-02  0.8123418E-01
       -1   -1    0    0    0  501  0.00000000000E+00  0.00000000000E+00  0.15457653305E+04  0.15457653305E+04  0.50400001928E-02 0. -1.
        1   -1    0    0  501    0  0.00000000000E+00  0.00000000000E+00 -0.19358079489E+04  0.19358079489E+04  0.50400001928E-02 0.  1.
    10030    2    1    2    0    0  0.00000000000E+00  0.00000000000E+00 -0.39004261840E+03  0.34815732794E+04  0.34596559447E+04 0.  0.
        2    1    3    3  502    0 -0.11185060329E+03  0.10140253743E+04 -0.16008490671E+04  0.18982823164E+04  0.25500000920E-02 0.  1.
       -2    1    3    3    0  502  0.11185060329E+03 -0.10140253743E+04  0.12108064487E+04  0.15832909630E+04  0.25500000920E-02 0. -1.
</event>
<event>
 5   0  0.6188930E-07  0.3485855E+04  0.7818609E-02  0.8117150E-01
        2   -1    0    0  501    0  0.00000000000E+00  0.00000000000E+00  0.28387191475E+04  0.28387191475E+04  0.25500000920E-02 0.  1.
       -2   -1    0    0    0  501  0.00000000000E+00  0.00000000000E+00 -0.10701293268E+04  0.10701293268E+04  0.25500000920E-02 0. -1.
    10030    2    1    2    0    0  0.00000000000E+00  0.00000000000E+00  0.17685898206E+04  0.39088484743E+04  0.34858551951E+04 0.  0.
        3    1    3    3  502    0 -0.14276516462E+04 -0.67120221695E+03  0.53367238226E+02  0.15784643522E+04  0.10100000352E+00 0. -1.
       -3    1    3    3    0  502  0.14276516462E+04  0.67120221695E+03  0.17152225824E+04  0.23303841221E+04  0.10100000352E+00 0.  1.
</event>
<event>
 5   0  0.2936607E-07  0.3490782E+04  0.7818609E-02  0.8115978E-01
       -1   -1    0    0    0  501  0.00000000000E+00  0.00000000000E+00  0.15887175239E+04  0.15887175239E+04  0.50400001928E-02 0. -1.
        1   -1    0    0  501    0  0.00000000000E+00  0.00000000000E+00 -0.19175148828E+04  0.19175148828E+04  0.50400001928E-02 0.  1.
    10030    2    1    2    0    0  0.00000000000E+00  0.00000000000E+00 -0.32879735888E+03  0.35062324067E+04  0.34907818590E+04 0.  0.
        2    1    3    3  502    0 -0.11126629447E+03  0.70926838823E+03  0.14335380203E+04  0.16032695003E+04  0.25500000920E-02 0. -1.
       -2    1    3    3    0  502  0.11126629447E+03 -0.70926838823E+03 -0.17623353792E+04  0.19029629065E+04  0.25500000920E-02 0.  1.
</event>
<event>
 5   0  0.3061330E-07  0.3517792E+04  0.7818609E-02  0.8109586E-01
       -1   -1    0    0    0  501  0.00000000000E+00  0.00000000000E+00  0.17788177423E+04  0.17788177423E+04  0.50400001928E-02 0. -1.
        1   -1    0    0  501    0  0.00000000000E+00  0.00000000000E+00 -0.17391975916E+04  0.17391975916E+04  0.50400001928E-02 0.  1.
    10030    2    1    2    0    0  0.00000000000E+00  0.00000000000E+00  0.39620150781E+02  0.35180153339E+04  0.35177922243E+04 0.  0.
        5    1    3    3  502    0 -0.13172291198E+04 -0.11057134514E+04  0.38861341607E+03  0.17631611577E+04  0.46999998093E+01 0.  1.
       -5    1    3    3    0  502  0.13172291198E+04  0.11057134514E+04 -0.34899326528E+03  0.17548541763E+04  0.46999998093E+01 0. -1.
</event>
<event>
 5   0  0.3026332E-07  0.3370006E+04  0.7818609E-02  0.8145307E-01
        1   -1    0    0  501    0  0.00000000000E+00  0.00000000000E+00  0.12279604931E+04  0.12279604931E+04  0.50400001928E-02 0. -1.
       -1   -1    0    0    0  501  0.00000000000E+00  0.00000000000E+00 -0.23121552199E+04  0.23121552199E+04  0.50400001928E-02 0.  1.
    10030    2    1    2    0    0  0.00000000000E+00  0.00000000000E+00 -0.10841947268E+04  0.35401157130E+04  0.33700060914E+04 0.  0.
        1    1    3    3  502    0 -0.70223792138E+03 -0.37516954298E+03 -0.21020989480E+04  0.22478234520E+04  0.50400001928E-02 0.  1.
       -1    1    3    3    0  502  0.70223792138E+03  0.37516954298E+03  0.10179042212E+04  0.12922922610E+04  0.50400001928E-02 0. -1.
</event>
<event>
 5   0  0.8845195E-07  0.3490042E+04  0.7818609E-02  0.8116154E-01
        2   -1    0    0  501    0  0.00000000000E+00  0.00000000000E+00  0.19191139349E+04  0.19191139349E+04  0.25500000920E-02 0.  1.
       -2   -1    0    0    0  501  0.00000000000E+00  0.00000000000E+00 -0.15867209601E+04  0.15867209601E+04  0.25500000920E-02 0. -1.
    10030    2    1    2    0    0  0.00000000000E+00  0.00000000000E+00  0.33239297479E+03  0.35058348951E+04  0.34900420086E+04 0.  0.
        5    1    3    3  502    0 -0.14508040056E+03  0.39571148592E+03  0.18672109191E+04  0.19141929394E+04  0.46999998093E+01 0.  1.
       -5    1    3    3    0  502  0.14508040056E+03 -0.39571148592E+03 -0.15348179444E+04  0.15916419557E+04  0.46999998093E+01 0. -1.
</event>
<event>
 5   0  0.2936607E-07  0.3436304E+04  0.7818609E-02  0.8129053E-01
       -1   -1    0    0    0  501  0.00000000000E+00  0.00000000000E+00  0.22634663321E+04  0.22634663321E+04  0.50400001928E-02 0. -1.
        1   -1    0    0  501    0  0.00000000000E+00  0.00000000000E+00 -0.13042147371E+04  0.13042147372E+04  0.50400001928E-02 0.  1.
    10030    2    1    2    0    0  0.00000000000E+00  0.00000000000E+00  0.95925159500E+03  0.35676810693E+04  0.34363039141E+04 0.  0.
        2    1    3    3  502    0 -0.20126472598E+03  0.14858257095E+04 -0.39141358356E+03  0.15496419336E+04  0.25500000920E-02 0.  1.
       -2    1    3    3    0  502  0.20126472598E+03 -0.14858257095E+04  0.13506651786E+04  0.20180391357E+04  0.25500000920E-02 0. -1.
</event>
<event>
 5   0  0.3026332E-07  0.3467032E+04  0.7818609E-02  0.8121648E-01
        1   -1    0    0  501    0  0.00000000000E+00  0.00000000000E+00  0.16465316120E+04  0.16465316120E+04  0.50400001928E-02 0.  1.
       -1   -1    0    0    0  501  0.00000000000E+00  0.00000000000E+00 -0.18250954783E+04  0.18250954783E+04  0.50400001928E-02 0. -1.
    10030    2    1    2    0    0  0.00000000000E+00  0.00000000000E+00 -0.17856386625E+03  0.34716270903E+04  0.34670318140E+04 0.  0.
        1    1    3    3  502    0  0.93857183391E+03 -0.92944266285E+03  0.10348353694E+04  0.16779943363E+04  0.50400001928E-02 0.  1.
       -1    1    3    3    0  502 -0.93857183391E+03  0.92944266285E+03 -0.12133992356E+04  0.17936327539E+04  0.50400001928E-02 0. -1.
</event>
<event>
 5   0  0.6188930E-07  0.3472204E+04  0.7818609E-02  0.8120409E-01
       -2   -1    0    0    0  501  0.00000000000E+00  0.00000000000E+00  0.14103177297E+04  0.14103177297E+04  0.25500000920E-02 0.  1.
        2   -1    0    0  501    0  0.00000000000E+00  0.00000000000E+00 -0.21371432286E+04  0.21371432286E+04  0.25500000920E-02 0. -1.
    10030    2    1    2    0    0  0.00000000000E+00  0.00000000000E+00 -0.72682549894E+03  0.35474609583E+04  0.34722044791E+04 0.  0.
        3    1    3    3  502    0  0.37568106002E+03 -0.16836929877E+04 -0.16400920686E+03  0.17328754617E+04  0.10100000352E+00 0. -1.
       -3    1    3    3    0  502 -0.37568106002E+03  0.16836929877E+04 -0.56281629208E+03  0.18145854966E+04  0.10100000352E+00 0.  1.
</event>
<event>
 5   0  0.8845195E-07  0.3512658E+04  0.7818609E-02  0.8110797E-01
       -2   -1    0    0    0  501  0.00000000000E+00  0.00000000000E+00  0.12539601936E+04  0.12539601936E+04  0.25500000920E-02 0. -1.
        2   -1    0    0  501    0  0.00000000000E+00  0.00000000000E+00 -0.24599594517E+04  0.24599594517E+04  0.25500000920E-02 0.  1.
    10030    2    1    2    0    0  0.00000000000E+00  0.00000000000E+00 -0.12059992580E+04  0.37139196453E+04  0.35126578145E+04 0.  0.
        5    1    3    3  502    0  0.29756217970E+03 -0.86529232945E+03  0.98202629714E+03  0.13422636866E+04  0.46999998093E+01 0. -1.
       -5    1    3    3    0  502 -0.29756217970E+03  0.86529232945E+03 -0.21880255552E+04  0.23716559587E+04  0.46999998093E+01 0.  1.
</event>
<event>
 5   0  0.9128871E-07  0.3572320E+04  0.7818609E-02  0.8096862E-01
       -2   -1    0    0    0  501  0.00000000000E+00  0.00000000000E+00  0.13801970005E+04  0.13801970005E+04  0.25500000920E-02 0. -1.
        2   -1    0    0  501    0  0.00000000000E+00  0.00000000000E+00 -0.23115311901E+04  0.23115311901E+04  0.25500000920E-02 0.  1.
    10030    2    1    2    0    0  0.00000000000E+00  0.00000000000E+00 -0.93133418958E+03  0.36917281906E+04  0.35723204869E+04 0.  0.
        1    1    3    3  502    0  0.65482800136E+03  0.49355667424E+03 -0.21055189808E+04  0.22595592669E+04  0.50400001928E-02 0.  1.
       -1    1    3    3    0  502 -0.65482800136E+03 -0.49355667424E+03  0.11741847913E+04  0.14321689237E+04  0.50400001928E-02 0. -1.
</event>
<event>
 5   0  0.2936607E-07  0.3470164E+04  0.7818609E-02  0.8120897E-01
        1   -1    0    0  501    0  0.00000000000E+00  0.00000000000E+00  0.15263481614E+04  0.15263481614E+04  0.50400001928E-02 0. -1.
       -1   -1    0    0    0  501  0.00000000000E+00  0.00000000000E+00 -0.19723609846E+04  0.19723609846E+04  0.50400001928E-02 0.  1.
    10030    2    1    2    0    0  0.00000000000E+00  0.00000000000E+00 -0.44601282321E+03  0.34987091461E+04  0.34701640091E+04 0.  0.
        2    1    3    3  502    0  0.16705566457E+04  0.42460921713E+03 -0.22734404976E+02  0.17238240475E+04  0.25500000920E-02 0. -1.
       -2    1    3    3    0  502 -0.16705566457E+04 -0.42460921713E+03 -0.42327841823E+03  0.17748850985E+04  0.25500000920E-02 0.  1.
</event>
<event>
 5   0  0.2972541E-07  0.3372843E+04  0.7818609E-02  0.8144604E-01
       -1   -1    0    0    0  501  0.00000000000E+00  0.00000000000E+00  0.99104603241E+03  0.99104603243E+03  0.50400001928E-02 0.  1.
        1   -1    0    0  501    0  0.00000000000E+00  0.00000000000E+00 -0.28697134650E+04  0.28697134650E+04  0.50400001928E-02 0. -1.
    10030    2    1    2    0    0  0.00000000000E+00  0.00000000000E+00 -0.18786674326E+04  0.38607594974E+04  0.33728433961E+04 0.  0.
        3    1    3    3  502    0  0.40953363857E+03  0.34491220856E+03  0.89116934362E+03  0.10396465947E+04  0.10100000352E+00 0.  1.
       -3    1    3    3    0  502 -0.40953363857E+03 -0.34491220856E+03 -0.27698367762E+04  0.28211129027E+04  0.10100000352E+00 0. -1.
</event>
<event>
 5   0  0.3026332E-07  0.3078537E+04  0.7818609E-02  0.8221653E-01
       -1   -1    0    0    0  501  0.00000000000E+00  0.00000000000E+00  0.14142178138E+04  0.14142178138E+04  0.50400001928E-02 0.  1.
        1   -1    0    0  501    0  0.00000000000E+00  0.00000000000E+00 -0.16753771165E+04  0.16753771165E+04  0.50400001928E-02 0. -1.
    10030    2    1    2    0    0  0.00000000000E+00  0.00000000000E+00 -0.26115930270E+03  0.30895949303E+04  0.30785374209E+04 0.  0.
        1    1    3    3  502    0  0.29110252620E+02 -0.15334863896E+04 -0.26112472390E+03  0.15558322645E+04  0.50400001928E-02 0. -1.
       -1    1    3    3    0  502 -0.29110252620E+02  0.15334863896E+04 -0.34578795360E-01  0.15337626658E+04  0.50400001928E-02 0.  1.
</event>
<event>
 5   0  0.8950809E-07  0.3464087E+04  0.7818609E-02  0.8122354E-01
       -2   -1    0    0    0  501  0.00000000000E+00  0.00000000000E+00  0.18565753122E+04  0.18565753122E+04  0.25500000920E-02 0. -1.
        2   -1    0    0  501    0  0.00000000000E+00  0.00000000000E+00 -0.16158647106E+04  0.16158647106E+04  0.25500000920E-02 0.  1.
    10030    2    1    2    0    0  0.00000000000E+00  0.00000000000E+00  0.24071060167E+03  0.34724400228E+04  0.34640869098E+04 0.  0.
        2    1    3    3  502    0  0.95964909585E+03 -0.45029889943E+03 -0.12527210519E+04  0.16410379398E+04  0.25500000920E-02 0.  1.
       -2    1    3    3    0  502 -0.95964909585E+03  0.45029889943E+03  0.14934316535E+04  0.18314020830E+04  0.25500000920E-02 0. -1.
</event>
<event>
 5   0  0.3026332E-07  0.3509388E+04  0.7818609E-02  0.8111569E-01
       -1   -1    0    0    0  501  0.00000000000E+00  0.00000000000E+00  0.29950608293E+04  0.29950608293E+04  0.50400001928E-02 0. -1.
        1   -1    0    0  501    0  0.00000000000E+00  0.00000000000E+00 -0.10280093925E+04  0.10280093925E+04  0.50400001928E-02 0.  1.
    10030    2    1    2    0    0  0.00000000000E+00  0.00000000000E+00  0.19670514368E+04  0.40230702218E+04  0.35093877891E+04 0.  0.
        1    1    3    3  502    0  0.12352211491E+04 -0.42431768264E+03  0.23268556574E+04  0.26683466854E+04  0.50400001928E-02 0. -1.
       -1    1    3    3    0  502 -0.12352211491E+04  0.42431768264E+03 -0.35980422055E+03  0.13547235364E+04  0.50400001928E-02 0.  1.
</event>
<event>
 5   0  0.8845195E-07  0.3402991E+04  0.7818609E-02  0.8137173E-01
        2   -1    0    0  501    0  0.00000000000E+00  0.00000000000E+00  0.21645668793E+04  0.21645668793E+04  0.25500000920E-02 0.  1.
       -2   -1    0    0    0  501  0.00000000000E+00  0.00000000000E+00 -0.13374902891E+04  0.13374902891E+04  0.25500000920E-02 0. -1.
    10030    2    1    2    0    0  0.00000000000E+00  0.00000000000E+00  0.82707659019E+03  0.35020571684E+04  0.34029911438E+04 0.  0.
        5    1    3    3  502    0  0.14690303783E+04 -0.70713544514E+03 -0.87433225890E+02  0.16327147482E+04  0.46999998093E+01 0.  1.
       -5    1    3    3    0  502 -0.14690303783E+04  0.70713544514E+03  0.91450981608E+03  0.18693424202E+04  0.46999998093E+01 0. -1.
</event>
<event>
 5   0  0.2933506E-07  0.3467390E+04  0.7818609E-02  0.8121562E-01
       -1   -1    0    0    0  501  0.00000000000E+00  0.00000000000E+00  0.13735498147E+04  0.13735498147E+04  0.50400001928E-02 0.  1.
        1   -1    0    0  501    0  0.00000000000E+00  0.00000000000E+00 -0.21882699942E+04  0.21882699942E+04  0.50400001928E-02 0. -1.
    10030    2    1    2    0    0  0.00000000000E+00  0.00000000000E+00 -0.81472017947E+03  0.35618198089E+04  0.34673897070E+04 0.  0.
        4    1    3    3  502    0 -0.30693157935E+03  0.13664046097E+04 -0.14571647007E+04  0.20210391212E+04  0.12699999809E+01 0.  1.
       -4    1    3    3    0  502  0.30693157935E+03 -0.13664046097E+04  0.64244452119E+03  0.15407806877E+04  0.12699999809E+01 0. -1.
</event>
<event>
 5   0  0.9128871E-07  0.3367263E+04  0.7818609E-02  0.8145988E-01
        2   -1    0    0  501    0  0.00000000000E+00  0.00000000000E+00  0.29321196986E+04  0.29321196986E+04  0.25500000920E-02 0.  1.
       -2   -1    0    0    0  501  0.00000000000E+00  0.00000000000E+00 -0.96674619609E+03  0.96674619610E+03  0.25500000920E-02 0. -1.
    10030    2    1    2    0    0  0.00000000000E+00  0.00000000000E+00  0.19653735025E+04  0.38988658947E+04  0.33672633191E+04 0.  0.
        1    1    3    3  502    0  0.92483988379E+03 -0.13123284122E+04  0.39560832960E+03  0.16534934601E+04  0.50400001928E-02 0. -1.
       -1    1    3    3    0  502 -0.92483988379E+03  0.13123284122E+04  0.15697651729E+04  0.22453724346E+04  0.50400001928E-02 0.  1.
</event>
<event>
 5   0  0.6188930E-07  0.3481712E+04  0.7818609E-02  0.8118138E-01
       -2   -1    0    0    0  501  0.00000000000E+00  0.00000000000E+00  0.11761902395E+04  0.11761902395E+04  0.25500000920E-02 0.  1.
        2   -1    0    0  501    0  0.00000000000E+00  0.00000000000E+00 -0.25766068282E+04  0.25766068282E+04  0.25500000920E-02 0. -1.
    10030    2    1    2    0    0  0.00000000000E+00  0.00000000000E+00 -0.14004165887E+04  0.37527970677E+04  0.34817121089E+04 0.  0.
        3    1    3    3  502    0 -0.16400439325E+04  0.57281753413E+03 -0.82175227432E+03  0.19217546250E+04  0.10100000352E+00 0.  1.
       -3    1    3    3    0  502  0.16400439325E+04 -0.57281753413E+03 -0.57866431434E+03  0.18310424427E+04  0.10100000352E+00 0. -1.
</event>
<event>
 5   0  0.8845195E-07  0.3525097E+04  0.7818609E-02  0.8107868E-01
        2   -1    0    0  501    0  0.00000000000E+00  0.00000000000E+00  0.32042914896E+04  0.32042914896E+04  0.25500000920E-02 0.  1.
       -2   -1    0    0    0  501  0.00000000000E+00  0.00000000000E+00 -0.96950500292E+03  0.96950500292E+03  0.25500000920E-02 0. -1.
    10030    2    1    2    0    0  0.00000000000E+00  0.00000000000E+00  0.22347864867E+04  0.41737964925E+04  0.35250966682E+04 0.  0.
        5    1    3    3  502    0 -0.37471450711E+03 -0.75093322061E+03  0.29525311063E+04  0.30694907864E+04  0.46999998093E+01 0.  1.
       -5    1    3    3    0  502  0.37471450711E+03  0.75093322061E+03 -0.71774461964E+03  0.11043057062E+04  0.46999998093E+01 0. -1.
</event>
<event>
 5   0  0.3061330E-07  0.3013817E+04  0.7818609E-02  0.8239796E-01
        1   -1    0    0  501    0  0.00000000000E+00  0.00000000000E+00  0.96598184278E+03  0.96598184279E+03  0.50400001928E-02 0. -1.
       -1   -1    0    0    0  501  0.00000000000E+00  0.00000000000E+00 -0.23507409146E+04  0.23507409146E+04  0.50400001928E-02 0.  1.
    10030    2    1    2    0    0  0.00000000000E+00  0.00000000000E+00 -0.13847590718E+04  0.33167227574E+04  0.30138168761E+04 0.  0.
        5    1    3    3  502    0  0.52352942902E+03  0.12961878847E+04 -0.73189927248E+02  0.13998446167E+04  0.46999998093E+01 0. -1.
       -5    1    3    3    0  502 -0.52352942902E+03 -0.12961878847E+04 -0.13115691446E+04  0.19168781407E+04  0.46999998093E+01 0.  1.
</event>
<event>
 5   0  0.3061330E-07  0.3405122E+04  0.7818609E-02  0.8136650E-01
       -1   -1    0    0    0  501  0.00000000000E+00  0.00000000000E+00  0.27994851318E+04  0.27994851318E+04  0.50400001928E-02 0. -1.
        1   -1    0    0  501    0  0.00000000000E+00  0.00000000000E+00 -0.10354455489E+04  0.10354455489E+04  0.50400001928E-02 0.  1.
    10030    2    1    2    0    0  0.00000000000E+00  0.00000000000E+00  0.17640395829E+04  0.38349306806E+04  0.34051222702E+04 0.  0.
        5    1    3    3  502    0  0.15042471577E+04 -0.63754686484E+03  0.34252811504E+03  0.16693031827E+04  0.46999998093E+01 0.  1.
       -5    1    3    3    0  502 -0.15042471577E+04  0.63754686484E+03  0.14215114679E+04  0.21656274979E+04  0.46999998093E+01 0. -1.
</event>
<event>
 5   0  0.8845195E-07  0.3565016E+04  0.7818609E-02  0.8098552E-01
        2   -1    0    0  501    0  0.00000000000E+00  0.00000000000E+00  0.20751739064E+04  0.20751739064E+04  0.25500000920E-02 0.  1.
       -2   -1    0    0    0  501  0.00000000000E+00  0.00000000000E+00 -0.15311174526E+04  0.15311174526E+04  0.25500000920E-02 0. -1.
    10030    2    1    2    0    0  0.00000000000E+00  0.00000000000E+00  0.54405645381E+03  0.36062913590E+04  0.35650161208E+04 0.  0.
        5    1    3    3  502    0  0.13112444449E+04 -0.10244052698E+04 -0.37454709868E+03  0.17056012929E+04  0.46999998093E+01 0. -1.
       -5    1    3    3    0  502 -0.13112444449E+04  0.10244052698E+04  0.91860355248E+03  0.19006900662E+04  0.46999998093E+01 0.  1.
</event>
<event>
 5   0  0.9128871E-07  0.3489031E+04  0.7818609E-02  0.8116394E-01
        2   -1    0    0  501    0  0.00000000000E+00  0.00000000000E+00  0.24118977297E+04  0.24118977297E+04  0.25500000920E-02 0.  1.
       -2   -1    0    0    0  501  0.00000000000E+00  0.00000000000E+00 -0.12618007716E+04  0.12618007716E+04  0.25500000920E-02 0. -1.
    10030    2    1    2    0    0  0.00000000000E+00  0.00000000000E+00  0.11500969581E+04  0.36736985013E+04  0.34890310496E+04 0.  0.
        1    1    3    3  502    0  0.47430557535E+03 -0.65637686883E+03  0.22019970582E+04  0.23461857167E+04  0.50400001928E-02 0.  1.
       -1    1    3    3    0  502 -0.47430557535E+03  0.65637686883E+03 -0.10519001001E+04  0.13275127846E+04  0.50400001928E-02 0. -1.
</event>
<event>
 5   0  0.3061330E-07  0.3484561E+04  0.7818609E-02  0.8117459E-01
       -1   -1    0    0    0  501  0.00000000000E+00  0.00000000000E+00  0.23867676590E+04  0.23867676590E+04  0.50400001928E-02 0.  1.
        1   -1    0    0  501    0  0.00000000000E+00  0.00000000000E+00 -0.12718209741E+04  0.12718209741E+04  0.50400001928E-02 0. -1.
    10030    2    1    2    0    0  0.00000000000E+00  0.00000000000E+00  0.11149466849E+04  0.36585886331E+04  0.34845609014E+04 0.  0.
        5    1    3    3  502    0  0.28226726195E+02  0.16755019244E+04  0.56775547872E+02  0.16767077860E+04  0.46999998093E+01 0. -1.
       -5    1    3    3    0  502 -0.28226726195E+02 -0.16755019244E+04  0.10581711370E+04  0.19818808471E+04  0.46999998093E+01 0.  1.
</event>
<event>
 5   0  0.2936607E-07  0.3479703E+04  0.7818609E-02  0.8118617E-01
        1   -1    0    0  501    0  0.00000000000E+00  0.00000000000E+00  0.14740444222E+04  0.14740444222E+04  0.50400001928E-02 0. -1.
       -1   -1    0    0    0  501  0.00000000000E+00  0.00000000000E+00 -0.20535900900E+04  0.20535900900E+04  0.50400001928E-02 0.  1.
    10030    2    1    2    0    0  0.00000000000E+00  0.00000000000E+00 -0.57954566776E+03  0.35276345122E+04  0.34797028710E+04 0.  0.
        2    1    3    3  502    0  0.15243377563E+04  0.57930641380E+03 -0.90465995449E+03  0.18648354216E+04  0.25500000920E-02 0.  1.
       -2    1    3    3    0  502 -0.15243377563E+04 -0.57930641380E+03  0.32511428673E+03  0.16627990906E+04  0.25500000920E-02 0. -1.
</event>
<event>
 5   0  0.9311672E-07  0.3491968E+04  0.7818609E-02  0.8115696E-01
        2   -1    0    0  501    0  0.00000000000E+00  0.00000000000E+00  0.11024612447E+04  0.11024612447E+04  0.25500000920E-02 0. -1.
       -2   -1    0    0    0  501  0.00000000000E+00  0.00000000000E+00 -0.27651404363E+04  0.27651404363E+04  0.25500000920E-02 0.  1.
    10030    2    1    2    0    0  0.00000000000E+00  0.00000000000E+00 -0.16626791916E+04  0.38676016810E+04  0.34919680223E+04 0.  0.
        4    1    3    3  502    0 -0.82823615164E+03 -0.13450088911E+04 -0.73824923123E+01  0.15795822721E+04  0.12699999809E+01 0. -1.
       -4    1    3    3    0  502  0.82823615164E+03  0.13450088911E+04 -0.16552966993E+04  0.22880194089E+04  0.12699999809E+01 0.  1.
</event>
<event>
 5   0  0.6188930E-07  0.3515179E+04  0.7818609E-02  0.8110202E-01
        2   -1    0    0  501    0  0.00000000000E+00  0.00000000000E+00  0.25722563653E+04  0.25722563653E+04  0.25500000920E-02 0. -1.
       -2   -1    0    0    0  501  0.00000000000E+00  0.00000000000E+00 -0.12009379273E+04  0.12009379273E+04  0.25500000920E-02 0.  1.
    10030    2    1    2    0    0  0.00000000000E+00  0.00000000000E+00  0.13713184380E+04  0.37731942926E+04  0.35151786457E+04 0.  0.
        3    1    3    3  502    0 -0.14740647588E+04 -0.89449802942E+03  0.31987279279E+03  0.17536568226E+04  0.10100000352E+00 0.  1.
       -3    1    3    3    0  502  0.14740647588E+04  0.89449802942E+03  0.10514456452E+04  0.20195374700E+04  0.10100000352E+00 0. -1.
</event>
<event>
 5   0  0.6188930E-07  0.3442188E+04  0.7818609E-02  0.8127629E-01
       -2   -1    0    0    0  501  0.00000000000E+00  0.00000000000E+00  0.18307288258E+04  0.18307288258E+04  0.25500000920E-02 0. -1.
        2   -1    0    0  501    0  0.00000000000E+00  0.00000000000E+00 -0.16180247308E+04  0.16180247308E+04  0.25500000920E-02 0.  1.
    10030    2    1    2    0    0  0.00000000000E+00  0.00000000000E+00  0.21270409497E+03  0.34487535566E+04  0.34421879760E+04 0.  0.
        3    1    3    3  502    0  0.61758155501E+03 -0.93272084236E+02 -0.15004705990E+04  0.16252749575E+04  0.10100000352E+00 0.  1.
       -3    1    3    3    0  502 -0.61758155501E+03  0.93272084236E+02  0.17131746940E+04  0.18234785990E+04  0.10100000352E+00 0. -1.
</event>
<event>
 5   0  0.8845195E-07  0.3687492E+04  0.7818609E-02  0.8070739E-01
        2   -1    0    0  501    0  0.00000000000E+00  0.00000000000E+00  0.18977836019E+04  0.18977836019E+04  0.25500000920E-02 0. -1.
       -2   -1    0    0    0  501  0.00000000000E+00  0.00000000000E+00 -0.17912469673E+04  0.17912469673E+04  0.25500000920E-02 0.  1.
    10030    2    1    2    0    0  0.00000000000E+00  0.00000000000E+00  0.10653663463E+03  0.36890305692E+04  0.36874918964E+04 0.  0.
        5    1    3    3  502    0  0.11819470192E+04  0.85947215264E+03  0.11778752290E+04  0.18769931493E+04  0.46999998093E+01 0. -1.
       -5    1    3    3    0  502 -0.11819470192E+04 -0.85947215264E+03 -0.10713385944E+04  0.18120374199E+04  0.46999998093E+01 0.  1.
</event>
<event>
 5   0  0.8845195E-07  0.3490080E+04  0.7818609E-02  0.8116145E-01
        2   -1    0    0  501    0  0.00000000000E+00  0.00000000000E+00  0.17824165980E+04  0.17824165980E+04  0.25500000920E-02 0. -1.
       -2   -1    0    0    0  501  0.00000000000E+00  0.00000000000E+00 -0.17084472873E+04  0.17084472873E+04  0.25500000920E-02 0.  1.
    10030    2    1    2    0    0  0.00000000000E+00  0.00000000000E+00  0.73969310699E+02  0.34908638854E+04  0.34900801147E+04 0.  0.
        5    1    3    3  502    0 -0.12109839249E+04  0.56666440665E+03 -0.10846734826E+04  0.17216646799E+04  0.46999998093E+01 0.  1.
       -5    1    3    3    0  502  0.12109839249E+04 -0.56666440665E+03  0.11586427933E+04  0.17691992055E+04  0.46999998093E+01 0. -1.
</event>
<event>
 5   0  0.3061330E-07  0.3482349E+04  0.7818609E-02  0.8117986E-01
       -1   -1    0    0    0  501  0.00000000000E+00  0.00000000000E+00  0.16989453743E+04  0.16989453743E+04  0.50400001928E-02 0. -1.
        1   -1    0    0  501    0  0.00000000000E+00  0.00000000000E+00 -0.17844532893E+04  0.17844532893E+04  0.50400001928E-02 0.  1.
    10030    2    1    2    0    0  0.00000000000E+00  0.00000000000E+00 -0.85507915012E+02  0.34833986636E+04  0.34823490127E+04 0.  0.
        5    1    3    3  502    0  0.40054001335E+03 -0.13972016939E+04  0.91621206236E+03  0.17181593374E+04  0.46999998093E+01 0.  1.
       -5    1    3    3    0  502 -0.40054001335E+03  0.13972016939E+04 -0.10017199774E+04  0.17652393262E+04  0.46999998093E+01 0. -1.
</event>
<event>
 5   0  0.9128871E-07  0.3504325E+04  0.7818609E-02  0.8112766E-01
        2   -1    0    0  501    0  0.00000000000E+00  0.00000000000E+00  0.18013650395E+04  0.18013650395E+04  0.25500000920E-02 0.  1.
       -2   -1    0    0    0  501  0.00000000000E+00  0.00000000000E+00 -0.17043041529E+04  0.17043041529E+04  0.25500000920E-02 0. -1.
    10030    2    1    2    0    0  0.00000000000E+00  0.00000000000E+00  0.97060886609E+02  0.35056691924E+04  0.35043252804E+04 0.  0.
        1    1    3    3  502    0 -0.15817103224E+04  0.13785183002E+03  0.78993762787E+03  0.17733618151E+04  0.50400001928E-02 0. -1.
       -1    1    3    3    0  502  0.15817103224E+04 -0.13785183002E+03 -0.69287674126E+03  0.17323073774E+04  0.50400001928E-02 0.  1.
</event>
<event>
 5   0  0.8845195E-07  0.3517649E+04  0.7818609E-02  0.8109620E-01
       -2   -1    0    0    0  501  0.00000000000E+00  0.00000000000E+00  0.18860475048E+04  0.18860475048E+04  0.25500000920E-02 0. -1.
        2   -1    0    0  501    0  0.00000000000E+00  0.00000000000E+00 -0.16401837467E+04  0.16401837467E+04  0.25500000920E-02 0.  1.
    10030    2    1    2    0    0  0.00000000000E+00  0.00000000000E+00  0.24586375811E+03  0.35262312515E+04  0.35176494782E+04 0.  0.
        5    1    3    3  502    0 -0.57160973502E+03  0.16607199235E+04  0.29355229101E+02  0.17565910659E+04  0.46999998093E+01 0. -1.
       -5    1    3    3    0  502  0.57160973502E+03 -0.16607199235E+04  0.21650852900E+03  0.17696401856E+04  0.46999998093E+01 0.  1.
</event>
<event>
 5   0  0.2936607E-07  0.3156640E+04  0.7818609E-02  0.8200363E-01
       -1   -1    0    0    0  501  0.00000000000E+00  0.00000000000E+00  0.11290029203E+04  0.11290029203E+04  0.50400001928E-02 0. -1.
        1   -1    0    0  501    0  0.00000000000E+00  0.00000000000E+00 -0.22064554050E+04  0.22064554050E+04  0.50400001928E-02 0.  1.
    10030    2    1    2    0    0  0.00000000000E+00  0.00000000000E+00 -0.10774524847E+04  0.33354583253E+04  0.31566403632E+04 0.  0.
        2    1    3    3  502    0 -0.12004538221E+03  0.14256069156E+04 -0.12430665768E+04  0.18952520904E+04  0.25500000920E-02 0.  1.
       -2    1    3    3    0  502  0.12004538221E+03 -0.14256069156E+04  0.16561409215E+03  0.14402062349E+04  0.25500000920E-02 0. -1.
</event>
<event>
 5   0  0.3026332E-07  0.3541854E+04  0.7818609E-02  0.8103942E-01
        1   -1    0    0  501    0  0.00000000000E+00  0.00000000000E+00  0.15924310431E+04  0.15924310431E+04  0.50400001928E-02 0. -1.
       -1   -1    0    0    0  501  0.00000000000E+00  0.00000000000E+00 -0.19694309169E+04  0.19694309169E+04  0.50400001928E-02 0.  1.
    10030    2    1    2    0    0  0.00000000000E+00  0.00000000000E+00 -0.37699987382E+03  0.35618619600E+04  0.35418542767E+04 0.  0.
        1    1    3    3  502    0  0.91374799351E+03  0.13545242933E+04 -0.87537469962E+03  0.18536321969E+04  0.50400001928E-02 0.  1.
       -1    1    3    3    0  502 -0.91374799351E+03 -0.13545242933E+04  0.49837482580E+03  0.17082297631E+04  0.50400001928E-02 0. -1.
</event>
<event>
 5   0  0.9128871E-07  0.3481826E+04  0.7818609E-02  0.8118111E-01
        2   -1    0    0  501    0  0.00000000000E+00  0.00000000000E+00  0.24448752336E+04  0.24448752336E+04  0.25500000920E-02 0.  1.
       -2   -1    0    0    0  501  0.00000000000E+00  0.00000000000E+00 -0.12396449616E+04  0.12396449616E+04  0.25500000920E-02 0. -1.
    10030    2    1    2    0    0  0.00000000000E+00  0.00000000000E+00  0.12052302720E+04  0.36845201952E+04  0.34818255356E+04 0.  0.
        1    1    3    3  502    0 -0.15611464414E+04  0.63232881396E+02  0.14151704116E+04  0.21080521584E+04  0.50400001928E-02 0. -1.
       -1    1    3    3    0  502  0.15611464414E+04 -0.63232881396E+02 -0.20994013961E+03  0.15764680368E+04  0.50400001928E-02 0.  1.
</event>
<event>
 5   0  0.2936607E-07  0.3477396E+04  0.7818609E-02  0.8119168E-01
       -1   -1    0    0    0  501  0.00000000000E+00  0.00000000000E+00  0.11366307431E+04  0.11366307432E+04  0.50400001928E-02 0.  1.
        1   -1    0    0  501    0  0.00000000000E+00  0.00000000000E+00 -0.26596763499E+04  0.26596763499E+04  0.50400001928E-02 0. -1.
    10030    2    1    2    0    0  0.00000000000E+00  0.00000000000E+00 -0.15230456067E+04  0.37963070930E+04  0.34773955232E+04 0.  0.
        2    1    3    3  502    0 -0.12101283965E+04  0.11112927799E+04 -0.13826352441E+04  0.21473384915E+04  0.25500000920E-02 0. -1.
       -2    1    3    3    0  502  0.12101283965E+04 -0.11112927799E+04 -0.14041036257E+03  0.16489686015E+04  0.25500000920E-02 0.  1.
</event>
<event>
 5   0  0.2933506E-07  0.3505983E+04  0.7818609E-02  0.8112374E-01
        1   -1    0    0  501    0  0.00000000000E+00  0.00000000000E+00  0.28633367113E+04  0.28633367113E+04  0.50400001928E-02 0. -1.
       -1   -1    0    0    0  501  0.00000000000E+00  0.00000000000E+00 -0.10732161566E+04  0.10732161566E+04  0.50400001928E-02 0.  1.
    10030    2    1    2    0    0  0.00000000000E+00  0.00000000000E+00  0.17901205547E+04  0.39365528679E+04  0.35059830122E+04 0.  0.
        4    1    3    3  502    0 -0.72790162293E+03 -0.47133805575E+01  0.26856218018E+04  0.27825220689E+04  0.12699999809E+01 0. -1.
       -4    1    3    3    0  502  0.72790162293E+03  0.47133805575E+01 -0.89550124712E+03  0.11540307990E+04  0.12699999809E+01 0.  1.
</event>
<event>
 5   0  0.2972541E-07  0.3472399E+04  0.7818609E-02  0.8120362E-01
        1   -1    0    0  501    0  0.00000000000E+00  0.00000000000E+00  0.14444171618E+04  0.14444171618E+04  0.50400001928E-02 0. -1.
       -1   -1    0    0    0  501  0.00000000000E+00  0.00000000000E+00 -0.20869233873E+04  0.20869233873E+04  0.50400001928E-02 0.  1.
    10030    2    1    2    0    0  0.00000000000E+00  0.00000000000E+00 -0.64250622547E+03  0.35313405491E+04  0.34723985693E+04 0.  0.
        3    1    3    3  502    0  0.13570427638E+04 -0.52053948895E+03 -0.12870370145E+04  0.19413888610E+04  0.10100000352E+00 0.  1.
       -3    1    3    3    0  502 -0.13570427638E+04  0.52053948895E+03  0.64453078906E+03  0.15899516882E+04  0.10100000352E+00 0. -1.
</event>
<event>
 5   0  0.8950809E-07  0.3432759E+04  0.7818609E-02  0.8129913E-01
        2   -1    0    0  501    0  0.00000000000E+00  0.00000000000E+00  0.15688232024E+04  0.15688232024E+04  0.25500000920E-02 0.  1.
       -2   -1    0    0    0  501  0.00000000000E+00  0.00000000000E+00 -0.18778141835E+04  0.18778141835E+04  0.25500000920E-02 0. -1.
    10030    2    1    2    0    0  0.00000000000E+00  0.00000000000E+00 -0.30899098117E+03  0.34466373859E+04  0.34327589259E+04 0.  0.
        2    1    3    3  502    0 -0.12532262311E+04 -0.54906643151E+03  0.88598977638E+03  0.16300392070E+04  0.25500000920E-02 0.  1.
       -2    1    3    3    0  502  0.12532262311E+04  0.54906643151E+03 -0.11949807575E+04  0.18165981789E+04  0.25500000920E-02 0. -1.
</event>
<event>
 5   0  0.9311672E-07  0.3462319E+04  0.7818609E-02  0.8122778E-01
       -2   -1    0    0    0  501  0.00000000000E+00  0.00000000000E+00  0.11823667923E+04  0.11823667923E+04  0.25500000920E-02 0. -1.
        2   -1    0    0  501    0  0.00000000000E+00  0.00000000000E+00 -0.25346733314E+04  0.25346733314E+04  0.25500000920E-02 0.  1.
    10030    2    1    2    0    0  0.00000000000E+00  0.00000000000E+00 -0.13523065390E+04  0.37170401237E+04  0.34623192091E+04 0.  0.
        4    1    3    3  502    0 -0.10542019146E+04 -0.70688717153E+03  0.58768960733E+03  0.13987179263E+04  0.12699999809E+01 0. -1.
       -4    1    3    3    0  502  0.10542019146E+04  0.70688717153E+03 -0.19399961464E+04  0.23183221974E+04  0.12699999809E+01 0.  1.
</event>
<event>
 5   0  0.8845195E-07  0.3492332E+04  0.7818609E-02  0.8115610E-01
       -2   -1    0    0    0  501  0.00000000000E+00  0.00000000000E+00  0.13409616270E+04  0.13409616270E+04  0.25500000920E-02 0. -1.
        2   -1    0    0  501    0  0.00000000000E+00  0.00000000000E+00 -0.22738127303E+04  0.22738127303E+04  0.25500000920E-02 0.  1.
    10030    2    1    2    0    0  0.00000000000E+00  0.00000000000E+00 -0.93285110328E+03  0.36147743574E+04  0.34923319536E+04 0.  0.
        5    1    3    3  502    0 -0.14708468721E+03 -0.17273053678E+04 -0.24966555186E+03  0.17514487480E+04  0.46999998093E+01 0. -1.
       -5    1    3    3    0  502  0.14708468721E+03  0.17273053678E+04 -0.68318555142E+03  0.18633256094E+04  0.46999998093E+01 0.  1.
</event>
<event>
 5   0  0.6188930E-07  0.3509768E+04  0.7818609E-02  0.8111479E-01
       -2   -1    0    0    0  501  0.00000000000E+00  0.00000000000E+00  0.17328677375E+04  0.17328677375E+04  0.25500000920E-02 0.  1.
        2   -1    0    0  501    0  0.00000000000E+00  0.00000000000E+00 -0.17771795746E+04  0.17771795746E+04  0.25500000920E-02 0. -1.
    10030    2    1    2    0    0  0.00000000000E+00  0.00000000000E+00 -0.44311837127E+02  0.35100473121E+04  0.35097675983E+04 0.  0.
        3    1    3    3  502    0  0.14870432325E+04 -0.22895825400E+03 -0.92549845242E+03  0.17664277095E+04  0.10100000352E+00 0. -1.
       -3    1    3    3    0  502 -0.14870432325E+04  0.22895825400E+03  0.88118661529E+03  0.17436196026E+04  0.10100000352E+00 0.  1.
</event>
<event>
 5   0  0.8845195E-07  0.3569547E+04  0.7818609E-02  0.8097503E-01
       -2   -1    0    0    0  501  0.00000000000E+00  0.00000000000E+00  0.10645069151E+04  0.10645069151E+04  0.25500000920E-02 0.  1.
        2   -1    0    0  501    0  0.00000000000E+00  0.00000000000E+00 -0.29923875721E+04  0.29923875721E+04  0.25500000920E-02 0. -1.
    10030    2    1    2    0    0  0.00000000000E+00  0.00000000000E+00 -0.19278806570E+04  0.40568944871E+04  0.35695474576E+04 0.  0.
        5    1    3    3  502    0  0.36516528114E+03 -0.17429016829E+04 -0.11000546415E+04  0.20931302547E+04  0.46999998093E+01 0.  1.
       -5    1    3    3    0  502 -0.36516528114E+03  0.17429016829E+04 -0.82782601552E+03  0.19637642325E+04  0.46999998093E+01 0. -1.
</event>
<event>
 5   0  0.8950809E-07  0.3477771E+04  0.7818609E-02  0.8119078E-01
       -2   -1    0    0    0  501  0.00000000000E+00  0.00000000000E+00  0.17933889615E+04  0.17933889615E+04  0.25500000920E-02 0. -1.
        2   -1    0    0  501    0  0.00000000000E+00  0.00000000000E+00 -0.16860380820E+04  0.16860380820E+04  0.25500000920E-02 0.  1.
    10030    2    1    2    0    0  0.00000000000E+00  0.00000000000E+00  0.10735087958E+03  0.34794270435E+04  0.34777705991E+04 0.  0.
        2    1    3    3  502    0  0.81491534821E+03 -0.15355106370E+04  0.96616087195E+02  0.17410383710E+04  0.25500000920E-02 0.  1.
       -2    1    3    3    0  502 -0.81491534821E+03  0.15355106370E+04  0.10734792389E+02  0.17383886725E+04  0.25500000920E-02 0. -1.
</event>
<event>
 5   0  0.3026332E-07  0.3544760E+04  0.7818609E-02  0.8103264E-01
        1   -1    0    0  501    0  0.00000000000E+00  0.00000000000E+00  0.17059123380E+04  0.17059123380E+04  0.50400001928E-02 0.  1.
       -1   -1    0    0    0  501  0.00000000000E+00  0.00000000000E+00 -0.18414377014E+04  0.18414377014E+04  0.50400001928E-02 0. -1.
    10030    2    1    2    0    0  0.00000000000E+00  0.00000000000E+00 -0.13552536333E+03  0.35473500394E+04  0.35447602427E+04 0.  0.
        1    1    3    3  502    0  0.80943960705E+03  0.60217414139E+03 -0.15260593397E+04  0.18293887728E+04  0.50400001928E-02 0. -1.
       -1    1    3    3    0  502 -0.80943960705E+03 -0.60217414139E+03  0.13905339763E+04  0.17179612666E+04  0.50400001928E-02 0.  1.
</event>
<event>
 5   0  0.2936607E-07  0.3419814E+04  0.7818609E-02  0.8133060E-01
       -1   -1    0    0    0  501  0.00000000000E+00  0.00000000000E+00  0.16606161006E+04  0.16606161006E+04  0.50400001928E-02 0. -1.
        1   -1    0    0  501    0  0.00000000000E+00  0.00000000000E+00 -0.17606606418E+04  0.17606606418E+04  0.50400001928E-02 0.  1.
    10030    2    1    2    0    0  0.00000000000E+00  0.00000000000E+00 -0.10004454123E+03  0.34212767424E+04  0.34198136847E+04 0.  0.
        2    1    3    3  502    0  0.14985857810E+04  0.80734836090E+03 -0.21198869328E+03  0.17153745728E+04  0.25500000920E-02 0.  1.
       -2    1    3    3    0  502 -0.14985857810E+04 -0.80734836090E+03  0.11194415205E+03  0.17059021696E+04  0.25500000920E-02 0. -1.
</event>
<event>
 5   0  0.9311672E-07  0.3504186E+04  0.7818609E-02  0.8112799E-01
       -2   -1    0    0    0  501  0.00000000000E+00  0.00000000000E+00  0.18460524685E+04  0.18460524685E+04  0.25500000920E-02 0. -1.
        2   -1    0    0  501    0  0.00000000000E+00  0.00000000000E+00 -0.16629158364E+04  0.16629158364E+04  0.25500000920E-02 0.  1.
    10030    2    1    2    0    0  0.00000000000E+00  0.00000000000E+00  0.18313663210E+03  0.35089683049E+04  0.35041860023E+04 0.  0.
        4    1    3    3  502    0 -0.50210056503E+02 -0.42292101636E+03 -0.16102937137E+04  0.16656622386E+04  0.12699999809E+01 0.  1.
       -4    1    3    3    0  502  0.50210056503E+02  0.42292101636E+03  0.17934303458E+04  0.18433060663E+04  0.12699999809E+01 0. -1.
</event>
<event>
 5   0  0.9311672E-07  0.3506083E+04  0.7818609E-02  0.8112350E-01
        2   -1    0    0  501    0  0.00000000000E+00  0.00000000000E+00  0.18944998675E+04  0.18944998675E+04  0.25500000920E-02 0.  1.
       -2   -1    0    0    0  501  0.00000000000E+00  0.00000000000E+00 -0.16221459439E+04  0.16221459439E+04  0.25500000920E-02 0. -1.
    10030    2    1    2    0    0  0.00000000000E+00  0.00000000000E+00  0.27235392363E+03  0.35166458114E+04  0.35060834421E+04 0.  0.
        4    1    3    3  502    0  0.97886809749E+03 -0.11566821473E+04 -0.74798720459E+03  0.16898469793E+04  0.12699999809E+01 0. -1.
       -4    1    3    3    0  502 -0.97886809749E+03  0.11566821473E+04  0.10203411282E+04  0.18267988321E+04  0.12699999809E+01 0.  1.
</event>
<event>
 5   0  0.2907000E-07  0.3548258E+04  0.7818609E-02  0.8102448E-01
        4   -1    0    0  501    0  0.00000000000E+00  0.00000000000E+00  0.12234383943E+04  0.12234390535E+04  0.12699999809E+01 0. -1.
       -4   -1    0    0    0  501  0.00000000000E+00  0.00000000000E+00 -0.25726937102E+04  0.25726940236E+04  0.12699999809E+01 0.  1.
    10030    2    1    2    0    0  0.00000000000E+00  0.00000000000E+00 -0.13492553158E+04  0.37961330771E+04  0.35482582251E+04 0.  0.
        3    1    3    3  502    0 -0.45433888198E+03 -0.10308720685E+04  0.79166871276E+03  0.13769024665E+04  0.10100000352E+00 0. -1.
       -3    1    3    3    0  502  0.45433888198E+03  0.10308720685E+04 -0.21409240286E+04  0.24192306107E+04  0.10100000352E+00 0.  1.
</event>
<event>
 5   0  0.8845195E-07  0.3501472E+04  0.7818609E-02  0.8113441E-01
       -2   -1    0    0    0  501  0.00000000000E+00  0.00000000000E+00  0.99798791480E+03  0.99798791481E+03  0.25500000920E-02 0.  1.
        2   -1    0    0  501    0  0.00000000000E+00  0.00000000000E+00 -0.30712555253E+04  0.30712555253E+04  0.25500000920E-02 0. -1.
    10030    2    1    2    0    0  0.00000000000E+00  0.00000000000E+00 -0.20732676105E+04  0.40692434401E+04  0.35014716321E+04 0.  0.
        5    1    3    3  502    0  0.11342162779E+03 -0.47681838193E+03  0.91662366037E+03  0.10394427641E+04  0.46999998093E+01 0.  1.
       -5    1    3    3    0  502 -0.11342162779E+03  0.47681838193E+03 -0.29898912709E+04  0.30298006761E+04  0.46999998093E+01 0. -1.
</event>
<event>
 5   0  0.8950809E-07  0.3510280E+04  0.7818609E-02  0.8111358E-01
       -2   -1    0    0    0  501  0.00000000000E+00  0.00000000000E+00  0.14442424669E+04  0.14442424669E+04  0.25500000920E-02 0. -1.
        2   -1    0    0  501    0  0.00000000000E+00  0.00000000000E+00 -0.21329640700E+04  0.21329640700E+04  0.25500000920E-02 0.  1.
    10030    2    1    2    0    0  0.00000000000E+00  0.00000000000E+00 -0.68872160313E+03  0.35772065369E+04  0.35102804960E+04 0.  0.
        2    1    3    3  502    0 -0.15874968516E+04 -0.22972953026E+03 -0.10704015983E+04  0.19283883148E+04  0.25500000920E-02 0.  1.
       -2    1    3    3    0  502  0.15874968516E+04  0.22972953026E+03  0.38167999513E+03  0.16488182221E+04  0.25500000920E-02 0. -1.
</event>
<event>
 5   0  0.6188930E-07  0.3500102E+04  0.7818609E-02  0.8113766E-01
        2   -1    0    0  501    0  0.00000000000E+00  0.00000000000E+00  0.23956510112E+04  0.23956510112E+04  0.25500000920E-02 0. -1.
       -2   -1    0    0    0  501  0.00000000000E+00  0.00000000000E+00 -0.12784328323E+04  0.12784328323E+04  0.25500000920E-02 0.  1.
    10030    2    1    2    0    0  0.00000000000E+00  0.00000000000E+00  0.11172181788E+04  0.36740838435E+04  0.35001022314E+04 0.  0.
        3    1    3    3  502    0  0.12689930003E+04 -0.92360469713E+03 -0.25400969676E+03  0.15899401900E+04  0.10100000352E+00 0.  1.
       -3    1    3    3    0  502 -0.12689930003E+04  0.92360469713E+03  0.13712278756E+04  0.20841436535E+04  0.10100000352E+00 0. -1.
</event>
<event>
 5   0  0.2907000E-07  0.3489801E+04  0.7818609E-02  0.8116211E-01
       -3   -1    0    0    0  501  0.00000000000E+00  0.00000000000E+00  0.22430151540E+04  0.22430151563E+04  0.10100000352E+00 0.  1.
        3   -1    0    0  501    0  0.00000000000E+00  0.00000000000E+00 -0.13574039972E+04  0.13574040010E+04  0.10100000352E+00 0. -1.
    10030    2    1    2    0    0  0.00000000000E+00  0.00000000000E+00  0.88561115676E+03  0.36004191573E+04  0.34898009953E+04 0.  0.
        4    1    3    3  502    0  0.12721299916E+04  0.54789856955E+03 -0.65204311414E+03  0.15309047631E+04  0.12699999809E+01 0. -1.
       -4    1    3    3    0  502 -0.12721299916E+04 -0.54789856955E+03  0.15376542709E+04  0.20695143942E+04  0.12699999809E+01 0.  1.
</event>
<event>
 5   0  0.8950809E-07  0.3486280E+04  0.7818609E-02  0.8117049E-01
        2   -1    0    0  501    0  0.00000000000E+00  0.00000000000E+00  0.10088607973E+04  0.10088607973E+04  0.25500000920E-02 0.  1.
       -2   -1    0    0    0  501  0.00000000000E+00  0.00000000000E+00 -0.30118503121E+04  0.30118503121E+04  0.25500000920E-02 0. -1.
    10030    2    1    2    0    0  0.00000000000E+00  0.00000000000E+00 -0.20029895148E+04  0.40207111094E+04  0.34862803715E+04 0.  0.
        2    1    3    3  502    0  0.10280223863E+04 -0.12692897208E+03  0.61542239517E+03  0.12048592097E+04  0.25500000920E-02 0.  1.
       -2    1    3    3    0  502 -0.10280223863E+04  0.12692897208E+03 -0.26184119100E+04  0.28158518997E+04  0.25500000920E-02 0. -1.
</event>
<event>
 5   0  0.9128871E-07  0.3373877E+04  0.7818609E-02  0.8144348E-01
       -2   -1    0    0    0  501  0.00000000000E+00  0.00000000000E+00  0.11409479285E+04  0.11409479285E+04  0.25500000920E-02 0. -1.
        2   -1    0    0  501    0  0.00000000000E+00  0.00000000000E+00 -0.24942076583E+04  0.24942076583E+04  0.25500000920E-02 0.  1.
    10030    2    1    2    0    0  0.00000000000E+00  0.00000000000E+00 -0.13532597298E+04  0.36351555868E+04  0.33738767381E+04 0.  0.
        1    1    3    3  502    0  0.36928523226E+03 -0.16212950455E+04 -0.98288090873E+03  0.19315858998E+04  0.50400001928E-02 0.  1.
       -1    1    3    3    0  502 -0.36928523226E+03  0.16212950455E+04 -0.37037882107E+03  0.17035696870E+04  0.50400001928E-02 0. -1.
</event>
<event>
 5   0  0.2972541E-07  0.3465419E+04  0.7818609E-02  0.8122034E-01
       -1   -1    0    0    0  501  0.00000000000E+00  0.00000000000E+00  0.18018587228E+04  0.18018587228E+04  0.50400001928E-02 0.  1.
        1   -1    0    0  501    0  0.00000000000E+00  0.00000000000E+00 -0.16662140054E+04  0.16662140054E+04  0.50400001928E-02 0. -1.
    10030    2    1    2    0    0  0.00000000000E+00  0.00000000000E+00  0.13564471742E+03  0.34680727282E+04  0.34654190163E+04 0.  0.
        3    1    3    3  502    0  0.15679026054E+03  0.59894376514E+03 -0.15517386907E+04  0.16706914120E+04  0.10100000352E+00 0. -1.
       -3    1    3    3    0  502 -0.15679026054E+03 -0.59894376514E+03  0.16873834081E+04  0.17973813162E+04  0.10100000352E+00 0.  1.
</event>
<event>
 5   0  0.8845195E-07  0.3296960E+04  0.7818609E-02  0.8163669E-01
       -2   -1    0    0    0  501  0.00000000000E+00  0.00000000000E+00  0.12113189496E+04  0.12113189496E+04  0.25500000920E-02 0. -1.
        2   -1    0    0  501    0  0.00000000000E+00  0.00000000000E+00 -0.22434104070E+04  0.22434104070E+04  0.25500000920E-02 0.  1.
    10030    2    1    2    0    0  0.00000000000E+00  0.00000000000E+00 -0.10320914574E+04  0.34547293565E+04  0.32969595312E+04 0.  0.
        5    1    3    3  502    0  0.15117108864E+04  0.44997169505E+03 -0.13819970209E+02  0.15773260322E+04  0.46999998093E+01 0. -1.
       -5    1    3    3    0  502 -0.15117108864E+04 -0.44997169505E+03 -0.10182714872E+04  0.18774033243E+04  0.46999998093E+01 0.  1.
</event>
<event>
 5   0  0.9311672E-07  0.3600628E+04  0.7818609E-02  0.8090348E-01
       -2   -1    0    0    0  501  0.00000000000E+00  0.00000000000E+00  0.13132655401E+04  0.13132655401E+04  0.25500000920E-02 0. -1.
        2   -1    0    0  501    0  0.00000000000E+00  0.00000000000E+00 -0.24679925770E+04  0.24679925770E+04  0.25500000920E-02 0.  1.
    10030    2    1    2    0    0  0.00000000000E+00  0.00000000000E+00 -0.11547270370E+04  0.37812581171E+04  0.36006275034E+04 0.  0.
        4    1    3    3  502    0 -0.52246383180E+03 -0.36858618080E+00 -0.23866266772E+04  0.24431449201E+04  0.12699999809E+01 0.  1.
       -4    1    3    3    0  502  0.52246383180E+03  0.36858618080E+00  0.12318996402E+04  0.13381131970E+04  0.12699999809E+01 0. -1.
</event>
<event>
 5   0  0.8950809E-07  0.3526017E+04  0.7818609E-02  0.8107652E-01
       -2   -1    0    0    0  501  0.00000000000E+00  0.00000000000E+00  0.21617467931E+04  0.21617467931E+04  0.25500000920E-02 0. -1.
        2   -1    0    0  501    0  0.00000000000E+00  0.00000000000E+00 -0.14378180689E+04  0.14378180689E+04  0.25500000920E-02 0.  1.
    10030    2    1    2    0    0  0.00000000000E+00  0.00000000000E+00  0.72392872420E+03  0.35995648620E+04  0.35260167892E+04 0.  0.
        2    1    3    3  502    0 -0.11130978468E+04 -0.60532762394E+03  0.16134181359E+04  0.20514693344E+04  0.25500000920E-02 0. -1.
       -2    1    3    3    0  502  0.11130978468E+04  0.60532762394E+03 -0.88948941170E+03  0.15480955276E+04  0.25500000920E-02 0.  1.
</event>
<event>
 5   0  0.2972541E-07  0.3455854E+04  0.7818609E-02  0.8124332E-01
        1   -1    0    0  501    0  0.00000000000E+00  0.00000000000E+00  0.21385329328E+04  0.21385329328E+04  0.50400001928E-02 0. -1.
       -1   -1    0    0    0  501  0.00000000000E+00  0.00000000000E+00 -0.13961586725E+04  0.13961586725E+04  0.50400001928E-02 0.  1.
    10030    2    1    2    0    0  0.00000000000E+00  0.00000000000E+00  0.74237426037E+03  0.35346916053E+04  0.34558537588E+04 0.  0.
        3    1    3    3  502    0  0.27258728928E+03 -0.75444107393E+03  0.19365406602E+04  0.20961094683E+04  0.10100000352E+00 0. -1.
       -3    1    3    3    0  502 -0.27258728928E+03  0.75444107393E+03 -0.11941663998E+04  0.14385821370E+04  0.10100000352E+00 0.  1.
</event>
<event>
 5   0  0.3061330E-07  0.3421365E+04  0.7818609E-02  0.8132683E-01
       -1   -1    0    0    0  501  0.00000000000E+00  0.00000000000E+00  0.33959387684E+04  0.33959387684E+04  0.50400001928E-02 0.  1.
        1   -1    0    0  501    0  0.00000000000E+00  0.00000000000E+00 -0.86174527324E+03  0.86174527325E+03  0.50400001928E-02 0. -1.
    10030    2    1    2    0    0  0.00000000000E+00  0.00000000000E+00  0.25341934952E+04  0.42576840417E+04  0.34213647464E+04 0.  0.
        5    1    3    3  502    0  0.87967949172E+03 -0.74759543724E+03  0.28380896611E+04  0.30639043654E+04  0.46999998093E+01 0. -1.
       -5    1    3    3    0  502 -0.87967949172E+03  0.74759543724E+03 -0.30389616587E+03  0.11937796763E+04  0.46999998093E+01 0.  1.
</event>
<event>
 5   0  0.9128871E-07  0.3492452E+04  0.7818609E-02  0.8115581E-01
        2   -1    0    0  501    0  0.00000000000E+00  0.00000000000E+00  0.16116882794E+04  0.16116882794E+04  0.25500000920E-02 0.  1.
       -2   -1    0    0    0  501  0.00000000000E+00  0.00000000000E+00 -0.18919946577E+04  0.18919946577E+04  0.25500000920E-02 0. -1.
    10030    2    1    2    0    0  0.00000000000E+00  0.00000000000E+00 -0.28030637833E+03  0.35036829370E+04  0.34924522126E+04 0.  0.
        1    1    3    3  502    0 -0.12357073248E+04 -0.10955543060E+04  0.42920490352E+03  0.17062909128E+04  0.50400001928E-02 0. -1.
       -1    1    3    3    0  502  0.12357073248E+04  0.10955543060E+04 -0.70951128185E+03  0.17973920243E+04  0.50400001928E-02 0.  1.
</event>
<event>
 5   0  0.8845195E-07  0.3071891E+04  0.7818609E-02  0.8223495E-01
        2   -1    0    0  501    0  0.00000000000E+00  0.00000000000E+00  0.16063096706E+04  0.16063096706E+04  0.25500000920E-02 0. -1.
       -2   -1    0    0    0  501  0.00000000000E+00  0.00000000000E+00 -0.14686638655E+04  0.14686638655E+04  0.25500000920E-02 0.  1.
    10030    2    1    2    0    0  0.00000000000E+00  0.00000000000E+00  0.13764580515E+03  0.30749735361E+04  0.30718912546E+04 0.  0.
        5    1    3    3  502    0  0.12467117499E+04  0.58394069294E+03  0.75055688617E+03  0.15680033959E+04  0.46999998093E+01 0. -1.
       -5    1    3    3    0  502 -0.12467117499E+04 -0.58394069294E+03 -0.61291108103E+03  0.15069701402E+04  0.46999998093E+01 0.  1.
</event>
<event>
 5   0  0.6188930E-07  0.3461630E+04  0.7818609E-02  0.8122944E-01
        2   -1    0    0  501    0  0.00000000000E+00  0.00000000000E+00  0.13978198343E+04  0.13978198343E+04  0.25500000920E-02 0. -1.
       -2   -1    0    0    0  501  0.00000000000E+00  0.00000000000E+00 -0.21431380872E+04  0.21431380872E+04  0.25500000920E-02 0.  1.
    10030    2    1    2    0    0  0.00000000000E+00  0.00000000000E+00 -0.74531825298E+03  0.35409579215E+04  0.34616302090E+04 0.  0.
        3    1    3    3  502    0  0.14782787528E+04  0.29243225542E+03  0.49826036732E+03  0.15871635388E+04  0.10100000352E+00 0. -1.
       -3    1    3    3    0  502 -0.14782787528E+04 -0.29243225542E+03 -0.12435786203E+04  0.19537943827E+04  0.10100000352E+00 0.  1.
</event>
<event>
 5   0  0.2936607E-07  0.3490021E+04  0.7818609E-02  0.8116159E-01
        1   -1    0    0  501    0  0.00000000000E+00  0.00000000000E+00  0.12787069530E+04  0.12787069530E+04  0.50400001928E-02 0. -1.
       -1   -1    0    0    0  501  0.00000000000E+00  0.00000000000E+00 -0.23813604439E+04  0.23813604439E+04  0.50400001928E-02 0.  1.
    10030    2    1    2    0    0  0.00000000000E+00  0.00000000000E+00 -0.11026534909E+04  0.36600673969E+04  0.34900212935E+04 0.  0.
        2    1    3    3  502    0  0.20847663915E+03  0.11025412219E+04 -0.19528555806E+04  0.22522665415E+04  0.25500000920E-02 0.  1.
       -2    1    3    3    0  502 -0.20847663915E+03 -0.11025412219E+04  0.85020208971E+03  0.14078008554E+04  0.25500000920E-02 0. -1.
</event>
<event>
 5   0  0.2936607E-07  0.3459656E+04  0.7818609E-02  0.8123418E-01
        1   -1    0    0  501    0  0.00000000000E+00  0.00000000000E+00  0.11892887409E+04  0.11892887409E+04  0.50400001928E-02 0.  1.
       -1   -1    0    0    0  501  0.00000000000E+00  0.00000000000E+00 -0.25160453188E+04  0.25160453188E+04  0.50400001928E-02 0. -1.
    10030    2    1    2    0    0  0.00000000000E+00  0.00000000000E+00 -0.13267565778E+04  0.37053340597E+04  0.34596556877E+04 0.  0.
        2    1    3    3  502    0  0.10995764330E+04  0.10921030413E+04 -0.14864197577E+04  0.21473707367E+04  0.25500000920E-02 0. -1.
       -2    1    3    3    0  502 -0.10995764330E+04 -0.10921030413E+04  0.15966317990E+03  0.15579633230E+04  0.25500000920E-02 0.  1.
</event>
<event>
 5   0  0.2936607E-07  0.3412539E+04  0.7818609E-02  0.8134836E-01
        1   -1    0    0  501    0  0.00000000000E+00  0.00000000000E+00  0.19029897006E+04  0.19029897006E+04  0.50400001928E-02 0.  1.
       -1   -1    0    0    0  501  0.00000000000E+00  0.00000000000E+00 -0.15298855382E+04  0.15298855382E+04  0.50400001928E-02 0. -1.
    10030    2    1    2    0    0  0.00000000000E+00  0.00000000000E+00  0.37310416240E+03  0.34328752389E+04  0.34125394781E+04 0.  0.
        2    1    3    3  502    0  0.11563697685E+04  0.75147365586E+03 -0.82415039181E+03  0.16065887979E+04  0.25500000920E-02 0. -1.
       -2    1    3    3    0  502 -0.11563697685E+04 -0.75147365586E+03  0.11972545542E+04  0.18262864410E+04  0.25500000920E-02 0.  1.
</event>
<event>
 5   0  0.9128871E-07  0.3313654E+04  0.7818609E-02  0.8159430E-01
       -2   -1    0    0    0  501  0.00000000000E+00  0.00000000000E+00  0.14250457323E+04  0.14250457323E+04  0.25500000920E-02 0. -1.
        2   -1    0    0  501    0  0.00000000000E+00  0.00000000000E+00 -0.19263072138E+04  0.19263072138E+04  0.25500000920E-02 0.  1.
    10030    2    1    2    0    0  0.00000000000E+00  0.00000000000E+00 -0.50126148148E+03  0.33513529461E+04  0.33136541003E+04 0.  0.
        1    1    3    3  502    0  0.13349977906E+03 -0.11499053788E+04  0.94816922679E+03  0.14963720974E+04  0.50400001928E-02 0. -1.
       -1    1    3    3    0  502 -0.13349977906E+03  0.11499053788E+04 -0.14494307083E+04  0.18549808487E+04  0.50400001928E-02 0.  1.
</event>
<event>
 5   0  0.8845195E-07  0.3590782E+04  0.7818609E-02  0.8092606E-01
        2   -1    0    0  501    0  0.00000000000E+00  0.00000000000E+00  0.26983850437E+04  0.26983850437E+04  0.25500000920E-02 0.  1.
       -2   -1    0    0    0  501  0.00000000000E+00  0.00000000000E+00 -0.11945771994E+04  0.11945771994E+04  0.25500000920E-02 0. -1.
    10030    2    1    2    0    0  0.00000000000E+00  0.00000000000E+00  0.15038078443E+04  0.38929622431E+04  0.35907822259E+04 0.  0.
        5    1    3    3  502    0 -0.57514062381E+03 -0.13015002718E+04 -0.43509285850E+03  0.14879575196E+04  0.46999998093E+01 0. -1.
       -5    1    3    3    0  502  0.57514062381E+03  0.13015002718E+04  0.19389007028E+04  0.24050047235E+04  0.46999998093E+01 0.  1.
</event>
<event>
 5   0  0.6188930E-07  0.3518053E+04  0.7818609E-02  0.8109525E-01
        2   -1    0    0  501    0  0.00000000000E+00  0.00000000000E+00  0.25282374407E+04  0.25282374407E+04  0.25500000920E-02 0.  1.
       -2   -1    0    0    0  501  0.00000000000E+00  0.00000000000E+00 -0.12238466257E+04  0.12238466257E+04  0.25500000920E-02 0. -1.
    10030    2    1    2    0    0  0.00000000000E+00  0.00000000000E+00  0.13043908149E+04  0.37520840664E+04  0.35180533599E+04 0.  0.
        3    1    3    3  502    0  0.12886098803E+04  0.11873370628E+04  0.48734904830E+03  0.18187341283E+04  0.10100000352E+00 0.  1.
       -3    1    3    3    0  502 -0.12886098803E+04 -0.11873370628E+04  0.81704176661E+03  0.19333499381E+04  0.10100000352E+00 0. -1.
</event>
<event>
 5   0  0.2933506E-07  0.3191908E+04  0.7818609E-02  0.8190957E-01
       -1   -1    0    0    0  501  0.00000000000E+00  0.00000000000E+00  0.14073198630E+04  0.14073198630E+04  0.50400001928E-02 0. -1.
        1   -1    0    0  501    0  0.00000000000E+00  0.00000000000E+00 -0.18098726256E+04  0.18098726256E+04  0.50400001928E-02 0.  1.
    10030    2    1    2    0    0  0.00000000000E+00  0.00000000000E+00 -0.40255276253E+03  0.32171924886E+04  0.31919083292E+04 0.  0.
        4    1    3    3  502    0  0.49005994161E+03 -0.65796897686E+02 -0.17307218950E+04  0.17999688522E+04  0.12699999809E+01 0.  1.
       -4    1    3    3    0  502 -0.49005994161E+03  0.65796897686E+02  0.13281691325E+04  0.14172236364E+04  0.12699999809E+01 0. -1.
</event>
<event>
 5   0  0.9128871E-07  0.3555075E+04  0.7818609E-02  0.8100860E-01
        2   -1    0    0  501    0  0.00000000000E+00  0.00000000000E+00  0.21733936804E+04  0.21733936804E+04  0.25500000920E-02 0. -1.
       -2   -1    0    0    0  501  0.00000000000E+00  0.00000000000E+00 -0.14537819069E+04  0.14537819069E+04  0.25500000920E-02 0.  1.
    10030    2    1    2    0    0  0.00000000000E+00  0.00000000000E+00  0.71961177348E+03  0.36271755873E+04  0.35550754755E+04 0.  0.
        1    1    3    3  502    0 -0.50641366097E+03  0.52067057123E+03  0.20150800562E+04  0.21419851243E+04  0.50400001928E-02 0. -1.
       -1    1    3    3    0  502  0.50641366097E+03 -0.52067057123E+03 -0.12954682827E+04  0.14851904630E+04  0.50400001928E-02 0.  1.
</event>
<event>
 5   0  0.2933506E-07  0.3455774E+04  0.7818609E-02  0.8124352E-01
       -1   -1    0    0    0  501  0.00000000000E+00  0.00000000000E+00  0.10742511045E+04  0.10742511045E+04  0.50400001928E-02 0. -1.
        1   -1    0    0  501    0  0.00000000000E+00  0.00000000000E+00 -0.27792327356E+04  0.27792327356E+04  0.50400001928E-02 0.  1.
    10030    2    1    2    0    0  0.00000000000E+00  0.00000000000E+00 -0.17049816311E+04  0.38534838402E+04  0.34557742033E+04 0.  0.
        4    1    3    3  502    0 -0.66253994924E+03  0.13669570610E+04  0.65720636454E+02  0.15204774269E+04  0.12699999809E+01 0.  1.
       -4    1    3    3    0  502  0.66253994924E+03 -0.13669570610E+04 -0.17707022676E+04  0.23330064132E+04  0.12699999809E+01 0. -1.
</event>
<event>
 5   0  0.6188930E-07  0.3493885E+04  0.7818609E-02  0.8115241E-01
        2   -1    0    0  501    0  0.00000000000E+00  0.00000000000E+00  0.14431724439E+04  0.14431724439E+04  0.25500000920E-02 0.  1.
       -2   -1    0    0    0  501  0.00000000000E+00  0.00000000000E+00 -0.21146528884E+04  0.21146528884E+04  0.25500000920E-02 0. -1.
    10030    2    1    2    0    0  0.00000000000E+00  0.00000000000E+00 -0.67148044446E+03  0.35578253323E+04  0.34938853885E+04 0.  0.
        3    1    3    3  502    0  0.14917031415E+02 -0.97582117489E+03 -0.18111727490E+04  0.20573760522E+04  0.10100000352E+00 0. -1.
       -3    1    3    3    0  502 -0.14917031415E+02  0.97582117489E+03  0.11396923045E+04  0.15004492802E+04  0.10100000352E+00 0.  1.
</event>
<event>
 5   0  0.9311672E-07  0.3502108E+04  0.7818609E-02  0.8113291E-01
       -2   -1    0    0    0  501  0.00000000000E+00  0.00000000000E+00  0.14916531639E+04  0.14916531639E+04  0.25500000920E-02 0.  1.
        2   -1    0    0  501    0  0.00000000000E+00  0.00000000000E+00 -0.20555651320E+04  0.20555651320E+04  0.25500000920E-02 0. -1.
    10030    2    1    2    0    0  0.00000000000E+00  0.00000000000E+00 -0.56391196817E+03  0.35472182959E+04  0.35021080696E+04 0.  0.
        4    1    3    3  502    0 -0.20523108788E+03 -0.14594911214E+04  0.67571444277E+03  0.16213653980E+04  0.12699999809E+01 0.  1.
       -4    1    3    3    0  502  0.20523108788E+03  0.14594911214E+04 -0.12396264109E+04  0.19258528979E+04  0.12699999809E+01 0. -1.
</event>
<event>
 5   0  0.3026332E-07  0.3452815E+04  0.7818609E-02  0.8125064E-01
        1   -1    0    0  501    0  0.00000000000E+00  0.00000000000E+00  0.15460944246E+04  0.15460944246E+04  0.50400001928E-02 0. -1.
       -1   -1    0    0    0  501  0.00000000000E+00  0.00000000000E+00 -0.19277495583E+04  0.19277495584E+04  0.50400001928E-02 0.  1.
    10030    2    1    2    0    0  0.00000000000E+00  0.00000000000E+00 -0.38165513371E+03  0.34738439830E+04  0.34528149932E+04 0.  0.
        1    1    3    3  502    0 -0.75313076362E+03  0.23591288926E+03  0.13539789361E+04  0.15672012627E+04  0.50400001928E-02 0. -1.
       -1    1    3    3    0  502  0.75313076362E+03 -0.23591288926E+03 -0.17356340698E+04  0.19066427203E+04  0.50400001928E-02 0.  1.
</event>
<event>
 5   0  0.9128871E-07  0.3485080E+04  0.7818609E-02  0.8117335E-01
       -2   -1    0    0    0  501  0.00000000000E+00  0.00000000000E+00  0.30693477939E+04  0.30693477939E+04  0.25500000920E-02 0.  1.
        2   -1    0    0  501    0  0.00000000000E+00  0.00000000000E+00 -0.98928051194E+03  0.98928051195E+03  0.25500000920E-02 0. -1.
    10030    2    1    2    0    0  0.00000000000E+00  0.00000000000E+00  0.20800672820E+04  0.40586283058E+04  0.34850801752E+04 0.  0.
        1    1    3    3  502    0 -0.13852203448E+04 -0.20810477564E+03 -0.16702923071E+03  0.14106884012E+04  0.50400001928E-02 0. -1.
       -1    1    3    3    0  502  0.13852203448E+04  0.20810477564E+03  0.22470965127E+04  0.26479399046E+04  0.50400001928E-02 0.  1.
</event>
<event>
 5   0  0.2972541E-07  0.2839854E+04  0.7818609E-02  0.8291001E-01
       -1   -1    0    0    0  501  0.00000000000E+00  0.00000000000E+00  0.68948017005E+03  0.68948017007E+03  0.50400001928E-02 0.  1.
        1   -1    0    0  501    0  0.00000000000E+00  0.00000000000E+00 -0.29242214117E+04  0.29242214117E+04  0.50400001928E-02 0. -1.
    10030    2    1    2    0    0  0.00000000000E+00  0.00000000000E+00 -0.22347412416E+04  0.36137015818E+04  0.28398539936E+04 0.  0.
        3    1    3    3  502    0 -0.67143428282E+03 -0.11207595166E+04 -0.40971345758E+03  0.13692300821E+04  0.10100000352E+00 0.  1.
       -3    1    3    3    0  502  0.67143428282E+03  0.11207595166E+04 -0.18250277841E+04  0.22444714997E+04  0.10100000352E+00 0. -1.
</event>
<event>
 5   0  0.3061330E-07  0.3465986E+04  0.7818609E-02  0.8121898E-01
       -1   -1    0    0    0  501  0.00000000000E+00  0.00000000000E+00  0.25691268662E+04  0.25691268662E+04  0.50400001928E-02 0. -1.
        1   -1    0    0  501    0  0.00000000000E+00  0.00000000000E+00 -0.11689825980E+04  0.11689825981E+04  0.50400001928E-02 0.  1.
    10030    2    1    2    0    0  0.00000000000E+00  0.00000000000E+00  0.14001442681E+04  0.37381094642E+04  0.34659859196E+04 0.  0.
        5    1    3    3  502    0 -0.92263030154E+03 -0.95393232168E+03  0.19020254097E+04  0.23192577039E+04  0.46999998093E+01 0. -1.
       -5    1    3    3    0  502  0.92263030154E+03  0.95393232168E+03 -0.50188114158E+03  0.14188517604E+04  0.46999998093E+01 0.  1.
</event>
<event>
 5   0  0.2933506E-07  0.3411447E+04  0.7818609E-02  0.8135102E-01
        1   -1    0    0  501    0  0.00000000000E+00  0.00000000000E+00  0.15999512986E+04  0.15999512986E+04  0.50400001928E-02 0.  1.
       -1   -1    0    0    0  501  0.00000000000E+00  0.00000000000E+00 -0.18184887215E+04  0.18184887215E+04  0.50400001928E-02 0. -1.
    10030    2    1    2    0    0  0.00000000000E+00  0.00000000000E+00 -0.21853742294E+03  0.34184400201E+04  0.34114474298E+04 0.  0.
        4    1    3    3  502    0  0.12751649523E+04 -0.53480890693E+03 -0.11100277628E+04  0.17731975269E+04  0.12699999809E+01 0. -1.
       -4    1    3    3    0  502 -0.12751649523E+04  0.53480890693E+03  0.89149033989E+03  0.16452424932E+04  0.12699999809E+01 0.  1.
</event>
<event>
 5   0  0.2972541E-07  0.3499030E+04  0.7818609E-02  0.8114020E-01
       -1   -1    0    0    0  501  0.00000000000E+00  0.00000000000E+00  0.10389733625E+04  0.10389733625E+04  0.50400001928E-02 0. -1.
        1   -1    0    0  501    0  0.00000000000E+00  0.00000000000E+00 -0.29459872153E+04  0.29459872153E+04  0.50400001928E-02 0.  1.
    10030    2    1    2    0    0  0.00000000000E+00  0.00000000000E+00 -0.19070138528E+04  0.39849605778E+04  0.34990297187E+04 0.  0.
        3    1    3    3  502    0 -0.82750977949E+03 -0.95056619031E+03 -0.23354725000E+04  0.26538237179E+04  0.10100000352E+00 0.  1.
       -3    1    3    3    0  502  0.82750977949E+03  0.95056619031E+03  0.42845864720E+03  0.13311368599E+04  0.10100000352E+00 0. -1.
</event>
<event>
 5   0  0.2972541E-07  0.3540694E+04  0.7818609E-02  0.8104213E-01
        1   -1    0    0  501    0  0.00000000000E+00  0.00000000000E+00  0.15825834356E+04  0.15825834356E+04  0.50400001928E-02 0. -1.
       -1   -1    0    0    0  501  0.00000000000E+00  0.00000000000E+00 -0.19803873127E+04  0.19803873127E+04  0.50400001928E-02 0.  1.
    10030    2    1    2    0    0  0.00000000000E+00  0.00000000000E+00 -0.39780387709E+03  0.35629707483E+04  0.35406938061E+04 0.  0.
        3    1    3    3  502    0  0.62919900812E+01  0.64327527631E+03  0.14608039201E+04  0.15961800567E+04  0.10100000352E+00 0. -1.
       -3    1    3    3    0  502 -0.62919900812E+01 -0.64327527631E+03 -0.18586077972E+04  0.19667906915E+04  0.10100000352E+00 0.  1.
</event>
<event>
 5   0  0.2933506E-07  0.3499604E+04  0.7818609E-02  0.8113884E-01
       -1   -1    0    0    0  501  0.00000000000E+00  0.00000000000E+00  0.14918160909E+04  0.14918160909E+04  0.50400001928E-02 0.  1.
        1   -1    0    0  501    0  0.00000000000E+00  0.00000000000E+00 -0.20524024528E+04  0.20524024528E+04  0.50400001928E-02 0. -1.
    10030    2    1    2    0    0  0.00000000000E+00  0.00000000000E+00 -0.56058636188E+03  0.35442185437E+04  0.34996039799E+04 0.  0.
        4    1    3    3  502    0 -0.27996055221E+03 -0.14528787980E+04 -0.12263166255E+04  0.19217410833E+04  0.12699999809E+01 0. -1.
       -4    1    3    3    0  502  0.27996055221E+03  0.14528787980E+04  0.66573026366E+03  0.16224774603E+04  0.12699999809E+01 0.  1.
</event>
<event>
 5   0  0.3026332E-07  0.3495024E+04  0.7818609E-02  0.8114970E-01
       -1   -1    0    0    0  501  0.00000000000E+00  0.00000000000E+00  0.15800958096E+04  0.15800958096E+04  0.50400001928E-02 0.  1.
        1   -1    0    0  501    0  0.00000000000E+00  0.00000000000E+00 -0.19326663765E+04  0.19326663765E+04  0.50400001928E-02 0. -1.
    10030    2    1    2    0    0  0.00000000000E+00  0.00000000000E+00 -0.35257056685E+03  0.35127621861E+04  0.34950239157E+04 0.  0.
        1    1    3    3  502    0 -0.12174685138E+03 -0.16349185570E+04  0.43177867256E+03  0.16953506440E+04  0.50400001928E-02 0.  1.
       -1    1    3    3    0  502  0.12174685138E+03  0.16349185570E+04 -0.78434923942E+03  0.18174115421E+04  0.50400001928E-02 0. -1.
</event>
<event>
 5   0  0.3026332E-07  0.3500090E+04  0.7818609E-02  0.8113769E-01
        1   -1    0    0  501    0  0.00000000000E+00  0.00000000000E+00  0.28796760079E+04  0.28796760079E+04  0.50400001928E-02 0. -1.
       -1   -1    0    0    0  501  0.00000000000E+00  0.00000000000E+00 -0.10635425398E+04  0.10635425399E+04  0.50400001928E-02 0.  1.
    10030    2    1    2    0    0  0.00000000000E+00  0.00000000000E+00  0.18161334680E+04  0.39432185477E+04  0.35000902476E+04 0.  0.
        1    1    3    3  502    0  0.15272345072E+04 -0.39607839582E+03  0.55014389095E+02  0.15787178085E+04  0.50400001928E-02 0. -1.
       -1    1    3    3    0  502 -0.15272345072E+04  0.39607839582E+03  0.17611190789E+04  0.23645007392E+04  0.50400001928E-02 0.  1.
</event>
<event>
 5   0  0.2972541E-07  0.3500495E+04  0.7818609E-02  0.8113673E-01
        1   -1    0    0  501    0  0.00000000000E+00  0.00000000000E+00  0.19625040584E+04  0.19625040584E+04  0.50400001928E-02 0. -1.
       -1   -1    0    0    0  501  0.00000000000E+00  0.00000000000E+00 -0.15609479459E+04  0.15609479460E+04  0.50400001928E-02 0.  1.
    10030    2    1    2    0    0  0.00000000000E+00  0.00000000000E+00  0.40155611246E+03  0.35234520044E+04  0.35004952100E+04 0.  0.
        3    1    3    3  502    0 -0.13990539103E+03 -0.95439967021E+03 -0.12692498778E+04  0.15941918051E+04  0.10100000352E+00 0.  1.
       -3    1    3    3    0  502  0.13990539103E+03  0.95439967021E+03  0.16708059903E+04  0.19292601992E+04  0.10100000352E+00 0. -1.
</event>
<event>
 5   0  0.6188930E-07  0.3468089E+04  0.7818609E-02  0.8121394E-01
        2   -1    0    0  501    0  0.00000000000E+00  0.00000000000E+00  0.16784235998E+04  0.16784235998E+04  0.25500000920E-02 0.  1.
       -2   -1    0    0    0  501  0.00000000000E+00  0.00000000000E+00 -0.17915081436E+04  0.17915081436E+04  0.25500000920E-02 0. -1.
    10030    2    1    2    0    0  0.00000000000E+00  0.00000000000E+00 -0.11308454381E+03  0.34699317434E+04  0.34680885498E+04 0.  0.
        3    1    3    3  502    0  0.69189462692E+03 -0.15619662593E+04  0.24102589264E+03  0.17252681708E+04  0.10100000352E+00 0.  1.
       -3    1    3    3    0  502 -0.69189462692E+03  0.15619662593E+04 -0.35411043645E+03  0.17446635726E+04  0.10100000352E+00 0. -1.
</event>
<event>
 5   0  0.8950809E-07  0.3452310E+04  0.7818609E-02  0.8125186E-01
       -2   -1    0    0    0  501  0.00000000000E+00  0.00000000000E+00  0.15577040685E+04  0.15577040685E+04  0.25500000920E-02 0. -1.
        2   -1    0    0  501    0  0.00000000000E+00  0.00000000000E+00 -0.19128226476E+04  0.19128226476E+04  0.25500000920E-02 0.  1.
    10030    2    1    2    0    0  0.00000000000E+00  0.00000000000E+00 -0.35511857901E+03  0.34705267161E+04  0.34523103108E+04 0.  0.
        2    1    3    3  502    0  0.99131961590E+03  0.45565474679E+03  0.11671370097E+04  0.15976684977E+04  0.25500000920E-02 0. -1.
       -2    1    3    3    0  502 -0.99131961590E+03 -0.45565474679E+03 -0.15222555887E+04  0.18728582184E+04  0.25500000920E-02 0.  1.
</event>
<event>
 5   0  0.3061330E-07  0.3503925E+04  0.7818609E-02  0.8112860E-01
        1   -1    0    0  501    0  0.00000000000E+00  0.00000000000E+00  0.18064719182E+04  0.18064719182E+04  0.50400001928E-02 0. -1.
       -1   -1    0    0    0  501  0.00000000000E+00  0.00000000000E+00 -0.16990981708E+04  0.16990981708E+04  0.50400001928E-02 0.  1.
    10030    2    1    2    0    0  0.00000000000E+00  0.00000000000E+00  0.10737374740E+03  0.35055700890E+04  0.35039253028E+04 0.  0.
        5    1    3    3  502    0  0.12463783914E+04  0.12281384993E+04  0.14072066253E+03  0.17554508432E+04  0.46999998093E+01 0. -1.
       -5    1    3    3    0  502 -0.12463783914E+04 -0.12281384993E+04 -0.33346915127E+02  0.17501192459E+04  0.46999998093E+01 0.  1.
</event>
<event>
 5   0  0.6188930E-07  0.3499675E+04  0.7818609E-02  0.8113867E-01
       -2   -1    0    0    0  501  0.00000000000E+00  0.00000000000E+00  0.16567534548E+04  0.16567534548E+04  0.25500000920E-02 0. -1.
        2   -1    0    0  501    0  0.00000000000E+00  0.00000000000E+00 -0.18481513955E+04  0.18481513955E+04  0.25500000920E-02 0.  1.
    10030    2    1    2    0    0  0.00000000000E+00  0.00000000000E+00 -0.19139794074E+03  0.35049048503E+04  0.34996749617E+04 0.  0.
        3    1    3    3  502    0  0.26743327626E+03  0.17280130508E+04 -0.29406863621E+02  0.17488323061E+04  0.10100000352E+00 0. -1.
       -3    1    3    3    0  502 -0.26743327626E+03 -0.17280130508E+04 -0.16199107712E+03  0.17560725442E+04  0.10100000352E+00 0.  1.
</event>
<event>
 5   0  0.9128871E-07  0.3490402E+04  0.7818609E-02  0.8116068E-01
        2   -1    0    0  501    0  0.00000000000E+00  0.00000000000E+00  0.22106845667E+04  0.22106845667E+04  0.25500000920E-02 0. -1.
       -2   -1    0    0    0  501  0.00000000000E+00  0.00000000000E+00 -0.13777301145E+04  0.13777301145E+04  0.25500000920E-02 0.  1.
    10030    2    1    2    0    0  0.00000000000E+00  0.00000000000E+00  0.83295445221E+03  0.35884146811E+04  0.34904020978E+04 0.  0.
        1    1    3    3  502    0  0.12500192097E+04 -0.22846150726E+03 -0.81335127978E+03  0.15087355597E+04  0.50400001928E-02 0.  1.
       -1    1    3    3    0  502 -0.12500192097E+04  0.22846150726E+03  0.16463057320E+04  0.20796791214E+04  0.50400001928E-02 0. -1.
</event>
<event>
 5   0  0.9311672E-07  0.3498330E+04  0.7818609E-02  0.8114186E-01
       -2   -1    0    0    0  501  0.00000000000E+00  0.00000000000E+00  0.16434536341E+04  0.16434536341E+04  0.25500000920E-02 0.  1.
        2   -1    0    0  501    0  0.00000000000E+00  0.00000000000E+00 -0.18616763832E+04  0.18616763832E+04  0.25500000920E-02 0. -1.
    10030    2    1    2    0    0  0.00000000000E+00  0.00000000000E+00 -0.21822274913E+03  0.35051300173E+04  0.34983303546E+04 0.  0.
        4    1    3    3  502    0  0.86636582663E+03 -0.76591486208E+03 -0.14240501025E+04  0.18344306007E+04  0.12699999809E+01 0. -1.
       -4    1    3    3    0  502 -0.86636582663E+03  0.76591486208E+03  0.12058273534E+04  0.16706994166E+04  0.12699999809E+01 0.  1.
</event>
<event>
 5   0  0.8950809E-07  0.3526423E+04  0.7818609E-02  0.8107557E-01
        2   -1    0    0  501    0  0.00000000000E+00  0.00000000000E+00  0.20942178176E+04  0.20942178176E+04  0.25500000920E-02 0.  1.
       -2   -1    0    0    0  501  0.00000000000E+00  0.00000000000E+00 -0.14845228929E+04  0.14845228929E+04  0.25500000920E-02 0. -1.
    10030    2    1    2    0    0  0.00000000000E+00  0.00000000000E+00  0.60969492473E+03  0.35787407105E+04  0.35264227160E+04 0.  0.
        2    1    3    3  502    0 -0.72406045742E+02 -0.53854498696E+02  0.20918729004E+04  0.20938183240E+04  0.25500000920E-02 0.  1.
       -2    1    3    3    0  502  0.72406045742E+02  0.53854498696E+02 -0.14821779756E+04  0.14849223865E+04  0.25500000920E-02 0. -1.
</event>
<event>
 5   0  0.2972541E-07  0.3495270E+04  0.7818609E-02  0.8114912E-01
        1   -1    0    0  501    0  0.00000000000E+00  0.00000000000E+00  0.28492414527E+04  0.28492414527E+04  0.50400001928E-02 0.  1.
       -1   -1    0    0    0  501  0.00000000000E+00  0.00000000000E+00 -0.10719443146E+04  0.10719443146E+04  0.50400001928E-02 0. -1.
    10030    2    1    2    0    0  0.00000000000E+00  0.00000000000E+00  0.17772971382E+04  0.39211857673E+04  0.34952700475E+04 0.  0.
        3    1    3    3  502    0 -0.13710447816E+04  0.10433996614E+04  0.12172228372E+04  0.21095208206E+04  0.10100000352E+00 0. -1.
       -3    1    3    3    0  502  0.13710447816E+04 -0.10433996614E+04  0.56007430092E+03  0.18116649468E+04  0.10100000352E+00 0.  1.
</event>
<event>
 5   0  0.8950809E-07  0.3491292E+04  0.7818609E-02  0.8115857E-01
       -2   -1    0    0    0  501  0.00000000000E+00  0.00000000000E+00  0.28410225514E+04  0.28410225514E+04  0.25500000920E-02 0. -1.
        2   -1    0    0  501    0  0.00000000000E+00  0.00000000000E+00 -0.10725996523E+04  0.10725996523E+04  0.25500000920E-02 0.  1.
    10030    2    1    2    0    0  0.00000000000E+00  0.00000000000E+00  0.17684228992E+04  0.39136222037E+04  0.34912919103E+04 0.  0.
        2    1    3    3  502    0  0.12509004001E+04  0.53261592579E+03 -0.34315669362E+03  0.14022082769E+04  0.25500000920E-02 0.  1.
       -2    1    3    3    0  502 -0.12509004001E+04 -0.53261592579E+03  0.21115795928E+04  0.25114139268E+04  0.25500000920E-02 0. -1.
</event>
<event>
 5   0  0.3061330E-07  0.3516927E+04  0.7818609E-02  0.8109790E-01
       -1   -1    0    0    0  501  0.00000000000E+00  0.00000000000E+00  0.22669880226E+04  0.22669880226E+04  0.50400001928E-02 0.  1.
        1   -1    0    0  501    0  0.00000000000E+00  0.00000000000E+00 -0.13640101119E+04  0.13640101119E+04  0.50400001928E-02 0. -1.
    10030    2    1    2    0    0  0.00000000000E+00  0.00000000000E+00  0.90297791069E+03  0.36309981344E+04  0.35169274012E+04 0.  0.
        5    1    3    3  502    0 -0.10617163668E+04  0.11176730795E+04  0.13249420366E+04  0.20327145020E+04  0.46999998093E+01 0.  1.
       -5    1    3    3    0  502  0.10617163668E+04 -0.11176730795E+04 -0.42196412586E+03  0.15982836325E+04  0.46999998093E+01 0. -1.
</event>
<event>
 5   0  0.2936607E-07  0.3520629E+04  0.7818609E-02  0.8108918E-01
       -1   -1    0    0    0  501  0.00000000000E+00  0.00000000000E+00  0.20375868473E+04  0.20375868473E+04  0.50400001928E-02 0.  1.
        1   -1    0    0  501    0  0.00000000000E+00  0.00000000000E+00 -0.15207733230E+04  0.15207733230E+04  0.50400001928E-02 0. -1.
    10030    2    1    2    0    0  0.00000000000E+00  0.00000000000E+00  0.51681352428E+03  0.35583601703E+04  0.35206293305E+04 0.  0.
        2    1    3    3  502    0 -0.98102740237E+03 -0.68185323752E+03 -0.10482628415E+04  0.15894003859E+04  0.25500000920E-02 0. -1.
       -2    1    3    3    0  502  0.98102740237E+03  0.68185323752E+03  0.15650763658E+04  0.19689597844E+04  0.25500000920E-02 0.  1.
</event>
<event>
 5   0  0.8845195E-07  0.3505927E+04  0.7818609E-02  0.8112387E-01
        2   -1    0    0  501    0  0.00000000000E+00  0.00000000000E+00  0.11284858235E+04  0.11284858235E+04  0.25500000920E-02 0.  1.
       -2   -1    0    0    0  501  0.00000000000E+00  0.00000000000E+00 -0.27230120318E+04  0.27230120318E+04  0.25500000920E-02 0. -1.
    10030    2    1    2    0    0  0.00000000000E+00  0.00000000000E+00 -0.15945262083E+04  0.38514978554E+04  0.35059266822E+04 0.  0.
        5    1    3    3  502    0 -0.15851584299E+04 -0.36521496908E+03 -0.15149138988E+04  0.22228574926E+04  0.46999998093E+01 0. -1.
       -5    1    3    3    0  502  0.15851584299E+04  0.36521496908E+03 -0.79612309462E+02  0.16286403628E+04  0.46999998093E+01 0.  1.
</event>
<event>
 5   0  0.2936607E-07  0.3464274E+04  0.7818609E-02  0.8122309E-01
       -1   -1    0    0    0  501  0.00000000000E+00  0.00000000000E+00  0.13614179459E+04  0.13614179459E+04  0.50400001928E-02 0. -1.
        1   -1    0    0  501    0  0.00000000000E+00  0.00000000000E+00 -0.22038047365E+04  0.22038047365E+04  0.50400001928E-02 0.  1.
    10030    2    1    2    0    0  0.00000000000E+00  0.00000000000E+00 -0.84238679061E+03  0.35652226825E+04  0.34642744220E+04 0.  0.
        2    1    3    3  502    0  0.11368629433E+04  0.89434921189E+03  0.55945396211E+03  0.15509050907E+04  0.25500000920E-02 0. -1.
       -2    1    3    3    0  502 -0.11368629433E+04 -0.89434921189E+03 -0.14018407527E+04  0.20143175918E+04  0.25500000920E-02 0.  1.
</event>
<event>
 5   0  0.9128871E-07  0.3497214E+04  0.7818609E-02  0.8114451E-01
       -2   -1    0    0    0  501  0.00000000000E+00  0.00000000000E+00  0.18312897335E+04  0.18312897335E+04  0.25500000920E-02 0.  1.
        2   -1    0    0  501    0  0.00000000000E+00  0.00000000000E+00 -0.16696573429E+04  0.16696573429E+04  0.25500000920E-02 0. -1.
    10030    2    1    2    0    0  0.00000000000E+00  0.00000000000E+00  0.16163239053E+03  0.35009470764E+04  0.34972139486E+04 0.  0.
        1    1    3    3  502    0 -0.10334122812E+04 -0.14054314437E+04 -0.39511382351E+02  0.17449182317E+04  0.50400001928E-02 0. -1.
       -1    1    3    3    0  502  0.10334122812E+04  0.14054314437E+04  0.20114377288E+03  0.17560288447E+04  0.50400001928E-02 0.  1.
</event>
<event>
 5   0  0.9311672E-07  0.3613387E+04  0.7818609E-02  0.8087432E-01
        2   -1    0    0  501    0  0.00000000000E+00  0.00000000000E+00  0.10462559646E+04  0.10462559646E+04  0.25500000920E-02 0. -1.
       -2   -1    0    0    0  501  0.00000000000E+00  0.00000000000E+00 -0.31198300543E+04  0.31198300543E+04  0.25500000920E-02 0.  1.
    10030    2    1    2    0    0  0.00000000000E+00  0.00000000000E+00 -0.20735740897E+04  0.41660860190E+04  0.36133866679E+04 0.  0.
        4    1    3    3  502    0 -0.77615764328E+03  0.14234807104E+04 -0.19558486743E+04  0.25404849281E+04  0.12699999809E+01 0.  1.
       -4    1    3    3    0  502  0.77615764328E+03 -0.14234807104E+04 -0.11772541536E+03  0.16256010908E+04  0.12699999809E+01 0. -1.
</event>
<event>
 5   0  0.2972541E-07  0.3514529E+04  0.7818609E-02  0.8110355E-01
       -1   -1    0    0    0  501  0.00000000000E+00  0.00000000000E+00  0.13839086720E+04  0.13839086720E+04  0.50400001928E-02 0.  1.
        1   -1    0    0  501    0  0.00000000000E+00  0.00000000000E+00 -0.22313453128E+04  0.22313453128E+04  0.50400001928E-02 0. -1.
    10030    2    1    2    0    0  0.00000000000E+00  0.00000000000E+00 -0.84743664076E+03  0.36152539848E+04  0.35145287756E+04 0.  0.
        3    1    3    3  502    0 -0.87211789869E+03 -0.10177087036E+04 -0.15928014467E+04  0.20816669026E+04  0.10100000352E+00 0. -1.
       -3    1    3    3    0  502  0.87211789869E+03  0.10177087036E+04  0.74536480596E+03  0.15335870822E+04  0.10100000352E+00 0.  1.
</event>
<event>
 5   0  0.6188930E-07  0.3602815E+04  0.7818609E-02  0.8089847E-01
        2   -1    0    0  501    0  0.00000000000E+00  0.00000000000E+00  0.21910300578E+04  0.21910300578E+04  0.25500000920E-02 0.  1.
       -2   -1    0    0    0  501  0.00000000000E+00  0.00000000000E+00 -0.14810702529E+04  0.14810702529E+04  0.25500000920E-02 0. -1.
    10030    2    1    2    0    0  0.00000000000E+00  0.00000000000E+00  0.70995980491E+03  0.36721003107E+04  0.36028152558E+04 0.  0.
        3    1    3    3  502    0  0.11958999276E+04  0.18822590996E+03  0.17145985806E+04  0.20989173240E+04  0.10100000352E+00 0.  1.
       -3    1    3    3    0  502 -0.11958999276E+04 -0.18822590996E+03 -0.10046387757E+04  0.15731829868E+04  0.10100000352E+00 0. -1.
</event>
<event>
 5   0  0.2972541E-07  0.3488447E+04  0.7818609E-02  0.8116533E-01
       -1   -1    0    0    0  501  0.00000000000E+00  0.00000000000E+00  0.14742889398E+04  0.14742889398E+04  0.50400001928E-02 0.  1.
        1   -1    0    0  501    0  0.00000000000E+00  0.00000000000E+00 -0.20635820255E+04  0.20635820255E+04  0.50400001928E-02 0. -1.
    10030    2    1    2    0    0  0.00000000000E+00  0.00000000000E+00 -0.58929308573E+03  0.35378709653E+04  0.34884473088E+04 0.  0.
        3    1    3    3  502    0 -0.16555338510E+04  0.50533710973E+03 -0.51253506310E+03  0.18052285526E+04  0.10100000352E+00 0. -1.
       -3    1    3    3    0  502  0.16555338510E+04 -0.50533710973E+03 -0.76758022630E+02  0.17326424127E+04  0.10100000352E+00 0.  1.
</event>
<event>
 5   0  0.2936607E-07  0.3449204E+04  0.7818609E-02  0.8125935E-01
       -1   -1    0    0    0  501  0.00000000000E+00  0.00000000000E+00  0.22258960825E+04  0.22258960825E+04  0.50400001928E-02 0.  1.
        1   -1    0    0  501    0  0.00000000000E+00  0.00000000000E+00 -0.13362040949E+04  0.13362040949E+04  0.50400001928E-02 0. -1.
    10030    2    1    2    0    0  0.00000000000E+00  0.00000000000E+00  0.88969198756E+03  0.35621001774E+04  0.34492036531E+04 0.  0.
        2    1    3    3  502    0  0.19132835527E+03  0.14625903427E+04 -0.47797569425E+03  0.15505604840E+04  0.25500000920E-02 0. -1.
       -2    1    3    3    0  502 -0.19132835527E+03 -0.14625903427E+04  0.13676676818E+04  0.20115396934E+04  0.25500000920E-02 0.  1.
</event>
<event>
 5   0  0.8950809E-07  0.3421528E+04  0.7818609E-02  0.8132643E-01
       -2   -1    0    0    0  501  0.00000000000E+00  0.00000000000E+00  0.13853108944E+04  0.13853108944E+04  0.25500000920E-02 0.  1.
        2   -1    0    0  501    0  0.00000000000E+00  0.00000000000E+00 -0.21126758482E+04  0.21126758482E+04  0.25500000920E-02 0. -1.
    10030    2    1    2    0    0  0.00000000000E+00  0.00000000000E+00 -0.72736495371E+03  0.34979867426E+04  0.34215276523E+04 0.  0.
        2    1    3    3  502    0  0.56734745105E+03 -0.15092876563E+04 -0.94819338153E+03  0.18705354978E+04  0.25500000920E-02 0. -1.
       -2    1    3    3    0  502 -0.56734745105E+03  0.15092876563E+04  0.22082842782E+03  0.16274512448E+04  0.25500000920E-02 0.  1.
</event>
<event>
 5   0  0.3061330E-07  0.3500278E+04  0.7818609E-02  0.8113724E-01
       -1   -1    0    0    0  501  0.00000000000E+00  0.00000000000E+00  0.17119404895E+04  0.17119404895E+04  0.50400001928E-02 0.  1.
        1   -1    0    0  501    0  0.00000000000E+00  0.00000000000E+00 -0.17891902812E+04  0.17891902812E+04  0.50400001928E-02 0. -1.
    10030    2    1    2    0    0  0.00000000000E+00  0.00000000000E+00 -0.77249791660E+02  0.35011307707E+04  0.35002784380E+04 0.  0.
        5    1    3    3  502    0 -0.47579008089E+03  0.11002050807E+04  0.12368866936E+04  0.17224221908E+04  0.46999998093E+01 0.  1.
       -5    1    3    3    0  502  0.47579008089E+03 -0.11002050807E+04 -0.13141364852E+04  0.17787085800E+04  0.46999998093E+01 0. -1.
</event>
<event>
 5   0  0.2933506E-07  0.3470524E+04  0.7818609E-02  0.8120811E-01
        1   -1    0    0  501    0  0.00000000000E+00  0.00000000000E+00  0.17001498024E+04  0.17001498024E+04  0.50400001928E-02 0. -1.
       -1   -1    0    0    0  501  0.00000000000E+00  0.00000000000E+00 -0.17710991334E+04  0.17710991334E+04  0.50400001928E-02 0.  1.
    10030    2    1    2    0    0  0.00000000000E+00  0.00000000000E+00 -0.70949331006E+02  0.34712489358E+04  0.34705237885E+04 0.  0.
        4    1    3    3  502    0  0.63318392470E+03  0.11027105773E+04  0.11455513408E+04  0.17114853161E+04  0.12699999809E+01 0. -1.
       -4    1    3    3    0  502 -0.63318392470E+03 -0.11027105773E+04 -0.12165006718E+04  0.17597636197E+04  0.12699999809E+01 0.  1.
</event>
<event>
 5   0  0.9311672E-07  0.3416715E+04  0.7818609E-02  0.8133816E-01
       -2   -1    0    0    0  501  0.00000000000E+00  0.00000000000E+00  0.15461839587E+04  0.15461839587E+04  0.25500000920E-02 0. -1.
        2   -1    0    0  501    0  0.00000000000E+00  0.00000000000E+00 -0.18875408968E+04  0.18875408968E+04  0.25500000920E-02 0.  1.
    10030    2    1    2    0    0  0.00000000000E+00  0.00000000000E+00 -0.34135693818E+03  0.34337248555E+04  0.34167150634E+04 0.  0.
        4    1    3    3  502    0  0.38385812595E+03  0.27312616209E+03 -0.18209677288E+04  0.18809226575E+04  0.12699999809E+01 0.  1.
       -4    1    3    3    0  502 -0.38385812595E+03 -0.27312616209E+03  0.14796107907E+04  0.15528021980E+04  0.12699999809E+01 0. -1.
</event>
<event>
 5   0  0.2933506E-07  0.3499353E+04  0.7818609E-02  0.8113943E-01
        1   -1    0    0  501    0  0.00000000000E+00  0.00000000000E+00  0.20864889774E+04  0.20864889774E+04  0.50400001928E-02 0. -1.
       -1   -1    0    0    0  501  0.00000000000E+00  0.00000000000E+00 -0.14672343404E+04  0.14672343404E+04  0.50400001928E-02 0.  1.
    10030    2    1    2    0    0  0.00000000000E+00  0.00000000000E+00  0.61925463709E+03  0.35537233178E+04  0.34993532422E+04 0.  0.
        4    1    3    3  502    0 -0.13801609508E+04  0.36552088059E+03  0.13367350647E+04  0.19558404869E+04  0.12699999809E+01 0. -1.
       -4    1    3    3    0  502  0.13801609508E+04 -0.36552088059E+03 -0.71748042761E+03  0.15978828309E+04  0.12699999809E+01 0.  1.
</event>
<event>
 5   0  0.9311672E-07  0.3533637E+04  0.7818609E-02  0.8105864E-01
        2   -1    0    0  501    0  0.00000000000E+00  0.00000000000E+00  0.22949627552E+04  0.22949627552E+04  0.25500000920E-02 0. -1.
       -2   -1    0    0    0  501  0.00000000000E+00  0.00000000000E+00 -0.13602174835E+04  0.13602174835E+04  0.25500000920E-02 0.  1.
    10030    2    1    2    0    0  0.00000000000E+00  0.00000000000E+00  0.93474527167E+03  0.36551802387E+04  0.35336374821E+04 0.  0.
        4    1    3    3  502    0 -0.12954297792E+04  0.71503273550E+03  0.14661068042E+04  0.20829980556E+04  0.12699999809E+01 0. -1.
       -4    1    3    3    0  502  0.12954297792E+04 -0.71503273550E+03 -0.53136153250E+03  0.15721821831E+04  0.12699999809E+01 0.  1.
</event>
<event>
 5   0  0.6188930E-07  0.3501970E+04  0.7818609E-02  0.8113323E-01
        2   -1    0    0  501    0  0.00000000000E+00  0.00000000000E+00  0.15628401708E+04  0.15628401708E+04  0.25500000920E-02 0.  1.
       -2   -1    0    0    0  501  0.00000000000E+00  0.00000000000E+00 -0.19617803130E+04  0.19617803130E+04  0.25500000920E-02 0. -1.
    10030    2    1    2    0    0  0.00000000000E+00  0.00000000000E+00 -0.39894014221E+03  0.35246204839E+04  0.35019703480E+04 0.  0.
        3    1    3    3  502    0 -0.87729648277E+03  0.12487529234E+04  0.66452032506E+03  0.16645180248E+04  0.10100000352E+00 0.  1.
       -3    1    3    3    0  502  0.87729648277E+03 -0.12487529234E+04 -0.10634604673E+04  0.18601024590E+04  0.10100000352E+00 0. -1.
</event>
<event>
 5   0  0.2933506E-07  0.3514990E+04  0.7818609E-02  0.8110247E-01
        1   -1    0    0  501    0  0.00000000000E+00  0.00000000000E+00  0.22674911223E+04  0.22674911223E+04  0.50400001928E-02 0. -1.
       -1   -1    0    0    0  501  0.00000000000E+00  0.00000000000E+00 -0.13622052176E+04  0.13622052176E+04  0.50400001928E-02 0.  1.
    10030    2    1    2    0    0  0.00000000000E+00  0.00000000000E+00  0.90528590467E+03  0.36296963399E+04  0.35149897512E+04 0.  0.
        4    1    3    3  502    0 -0.70471778056E+03 -0.27146504157E+03 -0.11861130457E+04  0.14061245283E+04  0.12699999809E+01 0.  1.
       -4    1    3    3    0  502  0.70471778056E+03  0.27146504157E+03  0.20913989503E+04  0.22235718116E+04  0.12699999809E+01 0. -1.
</event>
<event>
 5   0  0.8845195E-07  0.3497551E+04  0.7818609E-02  0.8114371E-01
        2   -1    0    0  501    0  0.00000000000E+00  0.00000000000E+00  0.17302527878E+04  0.17302527878E+04  0.25500000920E-02 0. -1.
       -2   -1    0    0    0  501  0.00000000000E+00  0.00000000000E+00 -0.17674961112E+04  0.17674961112E+04  0.25500000920E-02 0.  1.
    10030    2    1    2    0    0  0.00000000000E+00  0.00000000000E+00 -0.37243323343E+02  0.34977488990E+04  0.34975506137E+04 0.  0.
        5    1    3    3  502    0  0.32367759733E+03  0.12579068728E+04  0.11523828484E+04  0.17364058301E+04  0.46999998093E+01 0. -1.
       -5    1    3    3    0  502 -0.32367759733E+03 -0.12579068728E+04 -0.11896261717E+04  0.17613430688E+04  0.46999998093E+01 0.  1.
</event>
<event>
 5   0  0.8845195E-07  0.3396336E+04  0.7818609E-02  0.8138806E-01
        2   -1    0    0  501    0  0.00000000000E+00  0.00000000000E+00  0.21300307570E+04  0.21300307570E+04  0.25500000920E-02 0.  1.
       -2   -1    0    0    0  501  0.00000000000E+00  0.00000000000E+00 -0.13538648633E+04  0.13538648633E+04  0.25500000920E-02 0. -1.
    10030    2    1    2    0    0  0.00000000000E+00  0.00000000000E+00  0.77616589368E+03  0.34838956203E+04  0.33963355544E+04 0.  0.
        5    1    3    3  502    0  0.10725380021E+03  0.69368733633E+03  0.19742485514E+04  0.20953245407E+04  0.46999998093E+01 0.  1.
       -5    1    3    3    0  502 -0.10725380021E+03 -0.69368733633E+03 -0.11980826577E+04  0.13885710795E+04  0.46999998093E+01 0. -1.
</event>
<event>
 5   0  0.8950809E-07  0.3523807E+04  0.7818609E-02  0.8108171E-01
       -2   -1    0    0    0  501  0.00000000000E+00  0.00000000000E+00  0.13342310995E+04  0.13342310995E+04  0.25500000920E-02 0. -1.
        2   -1    0    0  501    0  0.00000000000E+00  0.00000000000E+00 -0.23266611246E+04  0.23266611246E+04  0.25500000920E-02 0.  1.
    10030    2    1    2    0    0  0.00000000000E+00  0.00000000000E+00 -0.99243002513E+03  0.36608922241E+04  0.35238068224E+04 0.  0.
        2    1    3    3  502    0 -0.10855592100E+04  0.11560060688E+04 -0.12938830830E+04  0.20466856774E+04  0.25500000920E-02 0.  1.
       -2    1    3    3    0  502  0.10855592100E+04 -0.11560060688E+04  0.30145305785E+03  0.16142065468E+04  0.25500000920E-02 0. -1.
</event>
<event>
 5   0  0.2972541E-07  0.3494101E+04  0.7818609E-02  0.8115189E-01
        1   -1    0    0  501    0  0.00000000000E+00  0.00000000000E+00  0.24584145755E+04  0.24584145755E+04  0.50400001928E-02 0. -1.
       -1   -1    0    0    0  501  0.00000000000E+00  0.00000000000E+00 -0.12415260448E+04  0.12415260448E+04  0.50400001928E-02 0.  1.
    10030    2    1    2    0    0  0.00000000000E+00  0.00000000000E+00  0.12168885307E+04  0.36999406203E+04  0.34941011573E+04 0.  0.
        3    1    3    3  502    0  0.89000041918E+02  0.17421112187E+04  0.71063439338E+03  0.18835800373E+04  0.10100000352E+00 0. -1.
       -3    1    3    3    0  502 -0.89000041918E+02 -0.17421112187E+04  0.50625413733E+03  0.18163605830E+04  0.10100000352E+00 0.  1.
</event>
</LesHouchesEvents>
