<LesHouchesEvents version="3.0">
<header>
<!--
#*********************************************************************
#                                                                    *
#                        MadGraph5_aMC@NLO                           *
#                                                                    *
#                           Going Beyond                             *
#                                                                    *
#                   http://madgraph.hep.uiuc.edu                     *
#                   http://madgraph.phys.ucl.ac.be                   *
#                   http://amcatnlo.cern.ch                          *
#                                                                    *
#                     The MadGraph5_aMC@NLO team                     *
#                                                                    *
#....................................................................*
#                                                                    *
# This file contains all the information necessary to reproduce      *
# the events generated:                                              *
#                                                                    *
# 1. software version                                                *
# 2. proc_card          : code generation info including model       *
# 3. param_card         : model primary parameters in the LH format  *
# 4. run_card           : running parameters (collider and cuts)     *
# 5. pythia_card        : present only if pythia has been run        *
# 6. pgs_card           : present only if pgs has been run           *
# 7. delphes_cards      : present only if delphes has been run       *
#                                                                    *
#                                                                    *
#*********************************************************************
-->
<MGVersion>
#5.2.2.3
</MGVersion>
<MG5ProcCard>
#************************************************************
#*                     MadGraph5_aMC@NLO                    *
#*                                                          *
#*                *                       *                 *
#*                  *        * *        *                   *
#*                    * * * * 5 * * * *                     *
#*                  *        * *        *                   *
#*                *                       *                 *
#*                                                          *
#*                                                          *
#*         VERSION 2.2.3                 2015-02-10         *
#*                                                          *
#*    The MadGraph5_aMC@NLO Development Team - Find us at   *
#*    https://server06.fynu.ucl.ac.be/projects/madgraph     *
#*                                                          *
#************************************************************
#*                                                          *
#*               Command File for MadGraph5_aMC@NLO         *
#*                                                          *
#*     run as ./bin/mg5_aMC  filename                       *
#*                                                          *
#************************************************************
set group_subprocesses Auto
set ignore_six_quark_processes False
set loop_optimized_output True
set gauge unitary
set complex_mass_scheme False
import model sm
define p = g u c d s u~ c~ d~ s~
define j = g u c d s u~ c~ d~ s~
define l+ = e+ mu+
define l- = e- mu-
define vl = ve vm vt
define vl~ = ve~ vm~ vt~
import model Zprime_UFO
generate p p > zph, zph > j j
add process p p > zph, zph > b b~
output Dijet_signal
</MG5ProcCard>
<MGProcCard>
#*********************************************************************
#                        MadGraph/MadEvent                           *
#                   http://madgraph.hep.uiuc.edu                     *
#                                                                    *
#                          proc_card.dat                             *
#*********************************************************************
#                                                                    *
#            This Files is generated by MADGRAPH 5                   *
#                                                                    *
# WARNING: This Files is generated for MADEVENT (compatibility issue)*
#          This files is NOT a valid MG4 proc_card.dat               *
#          Running this in MG4 will NEVER reproduce the result of MG5*
#                                                                    *
#*********************************************************************
#*********************************************************************
# Process(es) requested : mg2 input                                  *
#*********************************************************************
# Begin PROCESS # This is TAG. Do not modify this line
p p > zph , zph > j j           #Process
# Be carefull the coupling are here in MG5 convention
          
end_coup           # End the couplings input

done               # this tells MG there are no more procs
# End PROCESS  # This is TAG. Do not modify this line
#*********************************************************************
# Model information                                                  *
#*********************************************************************
# Begin MODEL  # This is TAG. Do not modify this line
Zprime_UFO
# End   MODEL  # This is TAG. Do not modify this line
#*********************************************************************
# Start multiparticle definitions                                    *
#*********************************************************************
# Begin MULTIPARTICLES # This is TAG. Do not modify this line

# End  MULTIPARTICLES # This is TAG. Do not modify this line
</MGProcCard>
<MGRunCard>
#*********************************************************************
#                       MadGraph5_aMC@NLO                            *
#                                                                    *
#                     run_card.dat MadEvent                          *
#                                                                    *
#  This file is used to set the parameters of the run.               *
#                                                                    *
#  Some notation/conventions:                                        *
#                                                                    *
#   Lines starting with a '# ' are info or comments                  *
#                                                                    *
#   mind the format:   value    = variable     ! comment             *
#*********************************************************************
#
#*******************                                                 
# Running parameters
#*******************                                                 
#                                                                    
#*********************************************************************
# Tag name for the run (one word)                                    *
#*********************************************************************
  tag_1     = run_tag ! name of the run 
#*********************************************************************
# Run to generate the grid pack                                      *
#*********************************************************************
  .false.     = gridpack  !True = setting up the grid pack
#*********************************************************************
# Number of events and rnd seed                                      *
# Warning: Do not generate more than 1M events in a single run       *
# If you want to run Pythia, avoid more than 50k events in a run.    *
#*********************************************************************
  2000 = nevents ! Number of unweighted events requested 
 1596 = iseed   ! rnd seed (0=assigned automatically=default))
#*********************************************************************
# Collider type and energy                                           *
# lpp: 0=No PDF, 1=proton, -1=antiproton, 2=photon from proton,      *
#                                         3=photon from electron     *
#*********************************************************************
        1     = lpp1    ! beam 1 type 
        1     = lpp2    ! beam 2 type
     4000     = ebeam1  ! beam 1 total energy in GeV
     4000     = ebeam2  ! beam 2 total energy in GeV
#*********************************************************************
# Beam polarization from -100 (left-handed) to 100 (right-handed)    *
#*********************************************************************
        0     = polbeam1 ! beam polarization for beam 1
        0     = polbeam2 ! beam polarization for beam 2
#*********************************************************************
# PDF CHOICE: this automatically fixes also alpha_s and its evol.    *
#*********************************************************************
 'nn23lo1'    = pdlabel     ! PDF set                                     
 230000    = lhaid     ! if pdlabel=lhapdf, this is the lhapdf number
#*********************************************************************
# Renormalization and factorization scales                           *
#*********************************************************************
 F        = fixed_ren_scale  ! if .true. use fixed ren scale
 F        = fixed_fac_scale  ! if .true. use fixed fac scale
 91.1880  = scale            ! fixed ren scale
 91.1880  = dsqrt_q2fact1    ! fixed fact scale for pdf1
 91.1880  = dsqrt_q2fact2    ! fixed fact scale for pdf2
 1        = scalefact        ! scale factor for event-by-event scales
#*********************************************************************
# Matching - Warning! ickkw > 1 is still beta
#*********************************************************************
 0        = ickkw            ! 0 no matching, 1 MLM, 2 CKKW matching
 1        = highestmult      ! for ickkw=2, highest mult group
 1        = ktscheme         ! for ickkw=1, 1 Durham kT, 2 Pythia pTE
 1        = alpsfact         ! scale factor for QCD emission vx
 F        = chcluster        ! cluster only according to channel diag
 T        = pdfwgt           ! for ickkw=1, perform pdf reweighting
 5        = asrwgtflavor     ! highest quark flavor for a_s reweight
 T        = clusinfo         ! include clustering tag in output
 3.0      = lhe_version       ! Change the way clustering information pass to shower.        
#*********************************************************************
#**********************************************************
#
#**********************************************************
# Automatic ptj and mjj cuts if xqcut > 0
# (turn off for VBF and single top processes)
#**********************************************************
   T  = auto_ptj_mjj  ! Automatic setting of ptj and mjj
#**********************************************************
#                                                                    
#**********************************
# BW cutoff (M+/-bwcutoff*Gamma)
#**********************************
  15  = bwcutoff      ! (M+/-bwcutoff*Gamma)
#**********************************************************
# Apply pt/E/eta/dr/mij cuts on decay products or not
# (note that etmiss/ptll/ptheavy/ht/sorted cuts always apply)
#**********************************************************
   T  = cut_decays    ! Cut decay products 
#*************************************************************
# Number of helicities to sum per event (0 = all helicities)
# 0 gives more stable result, but longer run time (needed for
# long decay chains e.g.).
# Use >=2 if most helicities contribute, e.g. pure QCD.
#*************************************************************
   0  = nhel          ! Number of helicities used per event
#*******************                                                 
# Standard Cuts
#*******************                                                 
#                                                                    
#*********************************************************************
# Minimum and maximum pt's (for max, -1 means no cut)                *
#*********************************************************************
 20  = ptj       ! minimum pt for the jets 
  0  = ptb       ! minimum pt for the b 
 10  = pta       ! minimum pt for the photons 
 10  = ptl       ! minimum pt for the charged leptons 
  0  = misset    ! minimum missing Et (sum of neutrino's momenta)
  0  = ptheavy   ! minimum pt for one heavy final state
 1.0 = ptonium   ! minimum pt for the quarkonium states
 -1  = ptjmax    ! maximum pt for the jets
 -1  = ptbmax    ! maximum pt for the b
 -1  = ptamax    ! maximum pt for the photons
 -1  = ptlmax    ! maximum pt for the charged leptons
 -1  = missetmax ! maximum missing Et (sum of neutrino's momenta)
#*********************************************************************
# Minimum and maximum E's (in the center of mass frame)              *
#*********************************************************************
  0  = ej     ! minimum E for the jets 
  0  = eb     ! minimum E for the b 
  0  = ea     ! minimum E for the photons 
  0  = el     ! minimum E for the charged leptons 
 -1   = ejmax ! maximum E for the jets
 -1   = ebmax ! maximum E for the b
 -1   = eamax ! maximum E for the photons
 -1   = elmax ! maximum E for the charged leptons
#*********************************************************************
# Maximum and minimum absolute rapidity (for max, -1 means no cut)   *
#*********************************************************************
   5  = etaj    ! max rap for the jets 
  -1  = etab    ! max rap for the b
 2.5  = etaa    ! max rap for the photons 
 2.5  = etal    ! max rap for the charged leptons 
 0.6  = etaonium ! max rap for the quarkonium states
   0  = etajmin ! min rap for the jets
   0  = etabmin ! min rap for the b
   0  = etaamin ! min rap for the photons
   0  = etalmin ! main rap for the charged leptons
#*********************************************************************
# Minimum and maximum DeltaR distance                                *
#*********************************************************************
 0.4 = drjj    ! min distance between jets 
 0   = drbb    ! min distance between b's 
 0.4 = drll    ! min distance between leptons 
 0.4 = draa    ! min distance between gammas 
 0   = drbj    ! min distance between b and jet 
 0.4 = draj    ! min distance between gamma and jet 
 0.4 = drjl    ! min distance between jet and lepton 
 0   = drab    ! min distance between gamma and b 
 0   = drbl    ! min distance between b and lepton 
 0.4 = dral    ! min distance between gamma and lepton 
 -1  = drjjmax ! max distance between jets
 -1  = drbbmax ! max distance between b's
 -1  = drllmax ! max distance between leptons
 -1  = draamax ! max distance between gammas
 -1  = drbjmax ! max distance between b and jet
 -1  = drajmax ! max distance between gamma and jet
 -1  = drjlmax ! max distance between jet and lepton
 -1  = drabmax ! max distance between gamma and b
 -1  = drblmax ! max distance between b and lepton
 -1  = dralmax ! maxdistance between gamma and lepton
#*********************************************************************
# Minimum and maximum invariant mass for pairs                       *
# WARNING: for four lepton final state mmll cut require to have      *
#          different lepton masses for each flavor!                  *           
#*********************************************************************
 0   = mmjj    ! min invariant mass of a jet pair 
 0   = mmbb    ! min invariant mass of a b pair 
 0   = mmaa    ! min invariant mass of gamma gamma pair
 0   = mmll    ! min invariant mass of l+l- (same flavour) lepton pair
 -1  = mmjjmax ! max invariant mass of a jet pair
 -1  = mmbbmax ! max invariant mass of a b pair
 -1  = mmaamax ! max invariant mass of gamma gamma pair
 -1  = mmllmax ! max invariant mass of l+l- (same flavour) lepton pair
#*********************************************************************
# Minimum and maximum invariant mass for all letpons                 *
#*********************************************************************
 0   = mmnl    ! min invariant mass for all letpons (l+- and vl) 
 -1  = mmnlmax ! max invariant mass for all letpons (l+- and vl) 
#*********************************************************************
# Minimum and maximum pt for 4-momenta sum of leptons                *
#*********************************************************************
 0   = ptllmin  ! Minimum pt for 4-momenta sum of leptons(l and vl)
 -1  = ptllmax  ! Maximum pt for 4-momenta sum of leptons(l and vl)
#*********************************************************************
# Inclusive cuts                                                     *
#*********************************************************************
 0  = xptj ! minimum pt for at least one jet  
 0  = xptb ! minimum pt for at least one b 
 0  = xpta ! minimum pt for at least one photon 
 0  = xptl ! minimum pt for at least one charged lepton 
#*********************************************************************
# Control the pt's of the jets sorted by pt                          *
#*********************************************************************
 0   = ptj1min ! minimum pt for the leading jet in pt
 0   = ptj2min ! minimum pt for the second jet in pt
 0   = ptj3min ! minimum pt for the third jet in pt
 0   = ptj4min ! minimum pt for the fourth jet in pt
 -1  = ptj1max ! maximum pt for the leading jet in pt 
 -1  = ptj2max ! maximum pt for the second jet in pt
 -1  = ptj3max ! maximum pt for the third jet in pt
 -1  = ptj4max ! maximum pt for the fourth jet in pt
 0   = cutuse  ! reject event if fails any (0) / all (1) jet pt cuts
#*********************************************************************
# Control the pt's of leptons sorted by pt                           *
#*********************************************************************
 0   = ptl1min ! minimum pt for the leading lepton in pt
 0   = ptl2min ! minimum pt for the second lepton in pt
 0   = ptl3min ! minimum pt for the third lepton in pt
 0   = ptl4min ! minimum pt for the fourth lepton in pt
 -1  = ptl1max ! maximum pt for the leading lepton in pt 
 -1  = ptl2max ! maximum pt for the second lepton in pt
 -1  = ptl3max ! maximum pt for the third lepton in pt
 -1  = ptl4max ! maximum pt for the fourth lepton in pt
#*********************************************************************
# Control the Ht(k)=Sum of k leading jets                            *
#*********************************************************************
 0   = htjmin ! minimum jet HT=Sum(jet pt)
 -1  = htjmax ! maximum jet HT=Sum(jet pt)
 0   = ihtmin  !inclusive Ht for all partons (including b)
 -1  = ihtmax  !inclusive Ht for all partons (including b)
 0   = ht2min ! minimum Ht for the two leading jets
 0   = ht3min ! minimum Ht for the three leading jets
 0   = ht4min ! minimum Ht for the four leading jets
 -1  = ht2max ! maximum Ht for the two leading jets
 -1  = ht3max ! maximum Ht for the three leading jets
 -1  = ht4max ! maximum Ht for the four leading jets
#***********************************************************************
# Photon-isolation cuts, according to hep-ph/9801442                   *
# When ptgmin=0, all the other parameters are ignored                  *
# When ptgmin>0, pta and draj are not going to be used                 *
#***********************************************************************
   0 = ptgmin ! Min photon transverse momentum
 0.4 = R0gamma ! Radius of isolation code
 1.0 = xn ! n parameter of eq.(3.4) in hep-ph/9801442
 1.0 = epsgamma ! epsilon_gamma parameter of eq.(3.4) in hep-ph/9801442
 .true. = isoEM ! isolate photons from EM energy (photons and leptons)
#*********************************************************************
# WBF cuts                                                           *
#*********************************************************************
 0   = xetamin ! minimum rapidity for two jets in the WBF case  
 0   = deltaeta ! minimum rapidity for two jets in the WBF case 
#*********************************************************************
# KT DURHAM CUT                                                      *
#*********************************************************************
 -1    =  ktdurham        
 0.4  =  dparameter 
#*********************************************************************
# maximal pdg code for quark to be considered as a light jet         *
# (otherwise b cuts are applied)                                     *
#*********************************************************************
 4 = maxjetflavor    ! Maximum jet pdg code
#*********************************************************************
# Jet measure cuts                                                   *
#*********************************************************************
 0   = xqcut   ! minimum kt jet measure between partons
#*********************************************************************
#
#*********************************************************************
# Store info for systematics studies                                 *
# WARNING: If use_syst is T, matched Pythia output is                *
#          meaningful ONLY if plotted taking matchscale              *
#          reweighting into account!                                 *
#*********************************************************************
   F  = use_syst      ! Enable systematics studies
#
#**************************************
# Parameter of the systematics study
#  will be used by SysCalc (if installed)
#**************************************                                  
#
0.5 1 2 = sys_scalefact  # factorization/renormalization scale factor
0.5 1 2 = sys_alpsfact  # \alpha_s emission scale factors
30 50 = sys_matchscale # variation of merging scale
# PDF sets and number of members (0 or none for all members).
CT10nlo.LHgrid = sys_pdf # matching scales
# MSTW2008nlo68cl.LHgrid 1  = sys_pdf
</MGRunCard>
<slha>
######################################################################
## PARAM_CARD AUTOMATICALY GENERATED BY MG5 FOLLOWING UFO MODEL   ####
######################################################################
##                                                                  ##
##  Width set on Auto will be computed following the information    ##
##        present in the decay.py files of the model.               ##
##        See  arXiv:1402.1178 for more details.                    ##
##                                                                  ##
######################################################################

###################################
## INFORMATION FOR CKMBLOCK
###################################
Block ckmblock 
    1 2.277360e-01 # cabi 

###################################
## INFORMATION FOR FRBLOCK
###################################
Block frblock 
    1 8.000000e-01 # gz 

###################################
## INFORMATION FOR MASS
###################################
Block mass 
    1 5.040000e-03 # MD 
    2 2.550000e-03 # MU 
    3 1.010000e-01 # MS 
    4 1.270000e+00 # MC 
    5 4.700000e+00 # MB 
    6 1.720000e+02 # MT 
   11 5.110000e-04 # Me 
   13 1.056600e-01 # MM 
   15 1.777000e+00 # MTA 
   23 9.118760e+01 # MZ 
   25 1.200000e+02 # MH 
  10030 1.900000e+03 # MZph 
  10031 3.000000e+02 # MZpl 
## Dependent parameters, given by model restrictions.
## Those values should be edited following the 
## analytical expression. MG5 ignores those values 
## but they are important for interfacing the output of MG5
## to external program such as Pythia.
  12 0.000000 # ve : 0.0 
  14 0.000000 # vm : 0.0 
  16 0.000000 # vt : 0.0 
  21 0.000000 # g : 0.0 
  22 0.000000 # a : 0.0 
  24 79.824360 # w+ : cmath.sqrt(MZ__exp__2/2. + cmath.sqrt(MZ__exp__4/4. - (aEW*cmath.pi*MZ__exp__2)/(Gf*sqrt__2))) 

###################################
## INFORMATION FOR SMINPUTS
###################################
Block sminputs 
    1 1.279000e+02 # aEWM1 
    2 1.166370e-05 # Gf 
    3 1.184000e-01 # aS 

###################################
## INFORMATION FOR YUKAWA
###################################
Block yukawa 
    1 5.040000e-03 # ymdo 
    2 2.550000e-03 # ymup 
    3 1.010000e-01 # yms 
    4 1.270000e+00 # ymc 
    5 4.700000e+00 # ymb 
    6 1.720000e+02 # ymt 
   11 5.110000e-04 # yme 
   13 1.056600e-01 # ymm 
   15 1.777000e+00 # ymtau 

###################################
## INFORMATION FOR DECAY
###################################
DECAY   6 1.508336e+00 # WT 
DECAY  23 2.495200e+00 # WZ 
DECAY  24 2.085000e+00 # WW 
DECAY  25 5.753088e-03 # WH 
## Dependent parameters, given by model restrictions.
## Those values should be edited following the 
## analytical expression. MG5 ignores those values 
## but they are important for interfacing the output of MG5
## to external program such as Pythia.
DECAY  1 0.000000 # d : 0.0 
DECAY  2 0.000000 # u : 0.0 
DECAY  3 0.000000 # s : 0.0 
DECAY  4 0.000000 # c : 0.0 
DECAY  5 0.000000 # b : 0.0 
DECAY  11 0.000000 # e- : 0.0 
DECAY  12 0.000000 # ve : 0.0 
DECAY  13 0.000000 # mu- : 0.0 
DECAY  14 0.000000 # vm : 0.0 
DECAY  15 0.000000 # ta- : 0.0 
DECAY  16 0.000000 # vt : 0.0 
DECAY  21 0.000000 # g : 0.0 
DECAY  22 0.000000 # a : 0.0 
DECAY  10030 0.308725 # zph : (gz__exp__2*MZph*(5 + cmath.sqrt(1 - (4*MT__exp__2)/MZph__exp__2)))/(144.*cmath.pi) 
DECAY  10031 0.132629 # zpl : (5*gz__exp__2*MZpl)/(144.*cmath.pi) 
#===========================================================
# QUANTUM NUMBERS OF NEW STATE(S) (NON SM PDG CODE)
#===========================================================

Block QNUMBERS 10030  # zph 
        1 0  # 3 times electric charge
        2 3  # number of spin states (2S+1)
        3 1  # colour rep (1: singlet, 3: triplet, 8: octet)
        4 0  # Particle/Antiparticle distinction (0=own anti)
Block QNUMBERS 10031  # zpl 
        1 0  # 3 times electric charge
        2 3  # number of spin states (2S+1)
        3 1  # colour rep (1: singlet, 3: triplet, 8: octet)
        4 0  # Particle/Antiparticle distinction (0=own anti)
</slha>
## END BANNER##
<MGGenerationInfo>
#  Number of Events        :         3878
#  Integrated weight (pb)  :  0.32489E-01
#  Max wgt                 :  0.11826E-04
#  Average wgt             :  0.83778E-05
</MGGenerationInfo>
</header>
<init>
     2212     2212  0.40000000000E+04  0.40000000000E+04 0 0  247000  247000 2   1
  0.32523845396E-01  0.62246689856E-04  0.11826300000E-04   0
</init>
<event>
 5   0  0.1118206E-04  0.1896415E+04  0.7818609E-02  0.8656643E-01
       -2   -1    0    0    0  501  0.00000000000E+00  0.00000000000E+00  0.82799986925E+03  0.82799986925E+03  0.25500000920E-02 0.  1.
        2   -1    0    0  501    0  0.00000000000E+00  0.00000000000E+00 -0.10858663823E+04  0.10858663823E+04  0.25500000920E-02 0. -1.
    10030    2    1    2    0    0  0.00000000000E+00  0.00000000000E+00 -0.25786651302E+03  0.19138662515E+04  0.18964147464E+04 0.  0.
        1    1    3    3  502    0  0.67979863719E+03 -0.65533435601E+03 -0.41487649146E+02  0.94515106219E+03  0.50400001928E-02 0.  1.
       -1    1    3    3    0  502 -0.67979863719E+03  0.65533435601E+03 -0.21637886387E+03  0.96871518934E+03  0.50400001928E-02 0. -1.
</event>
<event>
 5   0  0.1118206E-04  0.1903634E+04  0.7818609E-02  0.8653050E-01
       -2   -1    0    0    0  501  0.00000000000E+00  0.00000000000E+00  0.55946669548E+03  0.55946669548E+03  0.25500000920E-02 0. -1.
        2   -1    0    0  501    0  0.00000000000E+00  0.00000000000E+00 -0.16193192525E+04  0.16193192525E+04  0.25500000920E-02 0.  1.
    10030    2    1    2    0    0  0.00000000000E+00  0.00000000000E+00 -0.10598525570E+04  0.21787859479E+04  0.19036335688E+04 0.  0.
        1    1    3    3  502    0 -0.34969731779E+03 -0.86406307146E+03 -0.30958515867E+03  0.98220984317E+03  0.50400001928E-02 0.  1.
       -1    1    3    3    0  502  0.34969731779E+03  0.86406307146E+03 -0.75026739831E+03  0.11965761048E+04  0.50400001928E-02 0. -1.
</event>
<event>
 5   0  0.1133638E-04  0.1900414E+04  0.7818609E-02  0.8654651E-01
        2   -1    0    0  501    0  0.00000000000E+00  0.00000000000E+00  0.91469519017E+03  0.91469519017E+03  0.25500000920E-02 0. -1.
       -2   -1    0    0    0  501  0.00000000000E+00  0.00000000000E+00 -0.98709711165E+03  0.98709711165E+03  0.25500000920E-02 0.  1.
    10030    2    1    2    0    0  0.00000000000E+00  0.00000000000E+00 -0.72401921480E+02  0.19017923018E+04  0.19004136184E+04 0.  0.
        3    1    3    3  502    0 -0.19609676113E+03  0.87697092250E+02  0.89007749785E+03  0.91563239463E+03  0.10100000352E+00 0. -1.
       -3    1    3    3    0  502  0.19609676113E+03 -0.87697092250E+02 -0.96247941933E+03  0.98615990719E+03  0.10100000352E+00 0.  1.
</event>
<event>
 5   0  0.1118206E-04  0.1896186E+04  0.7818609E-02  0.8656757E-01
       -2   -1    0    0    0  501  0.00000000000E+00  0.00000000000E+00  0.70768899714E+03  0.70768899714E+03  0.25500000920E-02 0.  1.
        2   -1    0    0  501    0  0.00000000000E+00  0.00000000000E+00 -0.12701631759E+04  0.12701631759E+04  0.25500000920E-02 0. -1.
    10030    2    1    2    0    0  0.00000000000E+00  0.00000000000E+00 -0.56247417879E+03  0.19778521731E+04  0.18961861767E+04 0.  0.
        1    1    3    3  502    0 -0.58010263158E+03 -0.36365120495E+02  0.50004772987E+03  0.76673934119E+03  0.50400001928E-02 0.  1.
       -1    1    3    3    0  502  0.58010263158E+03  0.36365120495E+02 -0.10625219087E+04  0.12111128319E+04  0.50400001928E-02 0. -1.
</event>
<event>
 5   0  0.1133638E-04  0.1895834E+04  0.7818609E-02  0.8656933E-01
       -2   -1    0    0    0  501  0.00000000000E+00  0.00000000000E+00  0.69290140043E+03  0.69290140043E+03  0.25500000920E-02 0. -1.
        2   -1    0    0  501    0  0.00000000000E+00  0.00000000000E+00 -0.12967890790E+04  0.12967890790E+04  0.25500000920E-02 0.  1.
    10030    2    1    2    0    0  0.00000000000E+00  0.00000000000E+00 -0.60388767861E+03  0.19896904795E+04  0.18958343482E+04 0.  0.
        3    1    3    3  502    0 -0.66850649852E+03  0.48817526713E+03  0.18279971899E+03  0.84772152117E+03  0.10100000352E+00 0. -1.
       -3    1    3    3    0  502  0.66850649852E+03 -0.48817526713E+03 -0.78668739759E+03  0.11419689583E+04  0.10100000352E+00 0.  1.
</event>
<event>
 5   0  0.5841424E-05  0.1907384E+04  0.7818609E-02  0.8651190E-01
        1   -1    0    0  501    0  0.00000000000E+00  0.00000000000E+00  0.96650348638E+03  0.96650348639E+03  0.50400001928E-02 0. -1.
       -1   -1    0    0    0  501  0.00000000000E+00  0.00000000000E+00 -0.94105021818E+03  0.94105021820E+03  0.50400001928E-02 0.  1.
    10030    2    1    2    0    0  0.00000000000E+00  0.00000000000E+00  0.25453268197E+02  0.19075537046E+04  0.19073838804E+04 0.  0.
        1    1    3    3  502    0 -0.47260834723E+03  0.39820824264E+03 -0.71369873469E+03  0.94408386190E+03  0.50400001928E-02 0.  1.
       -1    1    3    3    0  502  0.47260834723E+03 -0.39820824264E+03  0.73915200289E+03  0.96346984269E+03  0.50400001928E-02 0. -1.
</event>
<event>
 5   0  0.5579109E-05  0.1903456E+04  0.7818609E-02  0.8653138E-01
        1   -1    0    0  501    0  0.00000000000E+00  0.00000000000E+00  0.73309580650E+03  0.73309580651E+03  0.50400001928E-02 0. -1.
       -1   -1    0    0    0  501  0.00000000000E+00  0.00000000000E+00 -0.12355633969E+04  0.12355633969E+04  0.50400001928E-02 0.  1.
    10030    2    1    2    0    0  0.00000000000E+00  0.00000000000E+00 -0.50246759037E+03  0.19686592034E+04  0.19034561670E+04 0.  0.
        3    1    3    3  502    0 -0.70500514838E+03  0.31014390818E+03  0.32699233951E+03  0.83674697689E+03  0.10100000352E+00 0. -1.
       -3    1    3    3    0  502  0.70500514838E+03 -0.31014390818E+03 -0.82945992988E+03  0.11319122265E+04  0.10100000352E+00 0.  1.
</event>
<event>
 5   0  0.1118206E-04  0.1896749E+04  0.7818609E-02  0.8656476E-01
        2   -1    0    0  501    0  0.00000000000E+00  0.00000000000E+00  0.17482888061E+04  0.17482888061E+04  0.25500000920E-02 0. -1.
       -2   -1    0    0    0  501  0.00000000000E+00  0.00000000000E+00 -0.51445403769E+03  0.51445403770E+03  0.25500000920E-02 0.  1.
    10030    2    1    2    0    0  0.00000000000E+00  0.00000000000E+00  0.12338347684E+04  0.22627428438E+04  0.18967490454E+04 0.  0.
        1    1    3    3  502    0 -0.53194408363E+03  0.75329198784E+03  0.35284232191E+03  0.98737583078E+03  0.50400001928E-02 0. -1.
       -1    1    3    3    0  502  0.53194408363E+03 -0.75329198784E+03  0.88099244645E+03  0.12753670130E+04  0.50400001928E-02 0.  1.
</event>
<event>
 5   0  0.5824956E-05  0.1890214E+04  0.7818609E-02  0.8659743E-01
        1   -1    0    0  501    0  0.00000000000E+00  0.00000000000E+00  0.77566837717E+03  0.77566837719E+03  0.50400001928E-02 0.  1.
       -1   -1    0    0    0  501  0.00000000000E+00  0.00000000000E+00 -0.11515582465E+04  0.11515582465E+04  0.50400001928E-02 0. -1.
    10030    2    1    2    0    0  0.00000000000E+00  0.00000000000E+00 -0.37588986932E+03  0.19272266237E+04  0.18902140792E+04 0.  0.
        2    1    3    3  502    0  0.58481864479E+03  0.74240386214E+03 -0.19522437766E+03  0.96503310796E+03  0.25500000920E-02 0. -1.
       -2    1    3    3    0  502 -0.58481864479E+03 -0.74240386214E+03 -0.18066549166E+03  0.96219351572E+03  0.25500000920E-02 0.  1.
</event>
<event>
 5   0  0.1118206E-04  0.1896651E+04  0.7818609E-02  0.8656525E-01
        2   -1    0    0  501    0  0.00000000000E+00  0.00000000000E+00  0.11180810914E+04  0.11180810914E+04  0.25500000920E-02 0. -1.
       -2   -1    0    0    0  501  0.00000000000E+00  0.00000000000E+00 -0.80434307511E+03  0.80434307511E+03  0.25500000920E-02 0.  1.
    10030    2    1    2    0    0  0.00000000000E+00  0.00000000000E+00  0.31373801634E+03  0.19224241666E+04  0.18966505037E+04 0.  0.
        1    1    3    3  502    0  0.38565821218E+03  0.46757333339E+03 -0.58240069366E+03  0.84056388616E+03  0.50400001928E-02 0.  1.
       -1    1    3    3    0  502 -0.38565821218E+03 -0.46757333339E+03  0.89613870999E+03  0.10818602804E+04  0.50400001928E-02 0. -1.
</event>
<event>
 5   0  0.4061125E-05  0.1894491E+04  0.7818609E-02  0.8657603E-01
       -4   -1    0    0    0  501  0.00000000000E+00  0.00000000000E+00  0.11988931797E+04  0.11988938524E+04  0.12699999809E+01 0. -1.
        4   -1    0    0  501    0  0.00000000000E+00  0.00000000000E+00 -0.74841752001E+03  0.74841859755E+03  0.12699999809E+01 0.  1.
    10030    2    1    2    0    0  0.00000000000E+00  0.00000000000E+00  0.45047565973E+03  0.19473124500E+04  0.18944913454E+04 0.  0.
        5    1    3    3  502    0 -0.77128052895E+03 -0.35563758318E+03 -0.20586074612E+03  0.87392933450E+03  0.46999998093E+01 0.  1.
       -5    1    3    3    0  502  0.77128052895E+03  0.35563758318E+03  0.65633640585E+03  0.10733831155E+04  0.46999998093E+01 0. -1.
</event>
<event>
 5   0  0.1182630E-04  0.1923217E+04  0.7818609E-02  0.8643386E-01
       -2   -1    0    0    0  501  0.00000000000E+00  0.00000000000E+00  0.95953378027E+03  0.95953378028E+03  0.25500000920E-02 0.  1.
        2   -1    0    0  501    0  0.00000000000E+00  0.00000000000E+00 -0.96368721913E+03  0.96368721913E+03  0.25500000920E-02 0. -1.
    10030    2    1    2    0    0  0.00000000000E+00  0.00000000000E+00 -0.41534388565E+01  0.19232209994E+04  0.19232165145E+04 0.  0.
        5    1    3    3  502    0 -0.28810198275E+03 -0.35203850251E+03  0.84511737769E+03  0.95978087696E+03  0.46999998093E+01 0.  1.
       -5    1    3    3    0  502  0.28810198275E+03  0.35203850251E+03 -0.84927081654E+03  0.96344012245E+03  0.46999998093E+01 0. -1.
</event>
<event>
 5   0  0.5628936E-05  0.1916684E+04  0.7818609E-02  0.8646596E-01
        1   -1    0    0  501    0  0.00000000000E+00  0.00000000000E+00  0.12522358302E+04  0.12522358302E+04  0.50400001928E-02 0. -1.
       -1   -1    0    0    0  501  0.00000000000E+00  0.00000000000E+00 -0.73342387949E+03  0.73342387951E+03  0.50400001928E-02 0.  1.
    10030    2    1    2    0    0  0.00000000000E+00  0.00000000000E+00  0.51881195074E+03  0.19856597098E+04  0.19166842835E+04 0.  0.
        5    1    3    3  502    0  0.31535062274E+03  0.90309446313E+03  0.19924781427E+03  0.97711176745E+03  0.46999998093E+01 0.  1.
       -5    1    3    3    0  502 -0.31535062274E+03 -0.90309446313E+03  0.31956413648E+03  0.10085479423E+04  0.46999998093E+01 0. -1.
</event>
<event>
 5   0  0.5841424E-05  0.1898195E+04  0.7818609E-02  0.8655756E-01
       -1   -1    0    0    0  501  0.00000000000E+00  0.00000000000E+00  0.71119641671E+03  0.71119641673E+03  0.50400001928E-02 0. -1.
        1   -1    0    0  501    0  0.00000000000E+00  0.00000000000E+00 -0.12665779973E+04  0.12665779973E+04  0.50400001928E-02 0.  1.
    10030    2    1    2    0    0  0.00000000000E+00  0.00000000000E+00 -0.55538158055E+03  0.19777744140E+04  0.18981946509E+04 0.  0.
        1    1    3    3  502    0 -0.14321820238E+03 -0.53608046079E+03  0.52458522949E+03  0.76359896343E+03  0.50400001928E-02 0. -1.
       -1    1    3    3    0  502  0.14321820238E+03  0.53608046079E+03 -0.10799668100E+04  0.12141754506E+04  0.50400001928E-02 0.  1.
</event>
<event>
 5   0  0.5579109E-05  0.1889150E+04  0.7818609E-02  0.8660276E-01
       -1   -1    0    0    0  501  0.00000000000E+00  0.00000000000E+00  0.97780781460E+03  0.97780781462E+03  0.50400001928E-02 0.  1.
        1   -1    0    0  501    0  0.00000000000E+00  0.00000000000E+00 -0.91247137712E+03  0.91247137714E+03  0.50400001928E-02 0. -1.
    10030    2    1    2    0    0  0.00000000000E+00  0.00000000000E+00  0.65336437479E+02  0.18902791918E+04  0.18891496957E+04 0.  0.
        3    1    3    3  502    0  0.53399779929E+03 -0.70264332448E+03  0.36955979705E+03  0.95678406387E+03  0.10100000352E+00 0. -1.
       -3    1    3    3    0  502 -0.53399779929E+03  0.70264332448E+03 -0.30422335957E+03  0.93349512789E+03  0.10100000352E+00 0.  1.
</event>
<event>
 5   0  0.5579109E-05  0.1890085E+04  0.7818609E-02  0.8659808E-01
       -1   -1    0    0    0  501  0.00000000000E+00  0.00000000000E+00  0.14879926004E+04  0.14879926004E+04  0.50400001928E-02 0.  1.
        1   -1    0    0  501    0  0.00000000000E+00  0.00000000000E+00 -0.60020790185E+03  0.60020790188E+03  0.50400001928E-02 0. -1.
    10030    2    1    2    0    0  0.00000000000E+00  0.00000000000E+00  0.88778469857E+03  0.20882005023E+04  0.18900845661E+04 0.  0.
        3    1    3    3  502    0  0.31829625714E+03 -0.30814364379E+03  0.13661610351E+04  0.14361967124E+04  0.10100000352E+00 0.  1.
       -3    1    3    3    0  502 -0.31829625714E+03  0.30814364379E+03 -0.47837633656E+03  0.65200378994E+03  0.10100000352E+00 0. -1.
</event>
<event>
 5   0  0.1118206E-04  0.1851996E+04  0.7818609E-02  0.8679127E-01
        2   -1    0    0  501    0  0.00000000000E+00  0.00000000000E+00  0.14751988560E+04  0.14751988560E+04  0.25500000920E-02 0.  1.
       -2   -1    0    0    0  501  0.00000000000E+00  0.00000000000E+00 -0.58125870115E+03  0.58125870115E+03  0.25500000920E-02 0. -1.
    10030    2    1    2    0    0  0.00000000000E+00  0.00000000000E+00  0.89394015488E+03  0.20564575572E+04  0.18519958650E+04 0.  0.
        1    1    3    3  502    0 -0.33506276822E+03  0.57196841662E+03 -0.27098556644E+03  0.71613413932E+03  0.50400001928E-02 0. -1.
       -1    1    3    3    0  502  0.33506276822E+03 -0.57196841662E+03  0.11649257213E+04  0.13403234179E+04  0.50400001928E-02 0.  1.
</event>
<event>
 5   0  0.5614989E-05  0.1821379E+04  0.7818609E-02  0.8695012E-01
       -1   -1    0    0    0  501  0.00000000000E+00  0.00000000000E+00  0.62861223891E+03  0.62861223893E+03  0.50400001928E-02 0.  1.
        1   -1    0    0  501    0  0.00000000000E+00  0.00000000000E+00 -0.13193433533E+04  0.13193433533E+04  0.50400001928E-02 0. -1.
    10030    2    1    2    0    0  0.00000000000E+00  0.00000000000E+00 -0.69073111439E+03  0.19479555922E+04  0.18213790152E+04 0.  0.
        4    1    3    3  502    0  0.72568054251E+02  0.66697628802E+03  0.31324732932E+03  0.74043837928E+03  0.12699999809E+01 0.  1.
       -4    1    3    3    0  502 -0.72568054251E+02 -0.66697628802E+03 -0.10039784437E+04  0.12075172130E+04  0.12699999809E+01 0. -1.
</event>
<event>
 5   0  0.5841424E-05  0.1871051E+04  0.7818609E-02  0.8669402E-01
       -1   -1    0    0    0  501  0.00000000000E+00  0.00000000000E+00  0.51015877418E+03  0.51015877420E+03  0.50400001928E-02 0. -1.
        1   -1    0    0  501    0  0.00000000000E+00  0.00000000000E+00 -0.17155598937E+04  0.17155598937E+04  0.50400001928E-02 0.  1.
    10030    2    1    2    0    0  0.00000000000E+00  0.00000000000E+00 -0.12054011195E+04  0.22257186679E+04  0.18710509693E+04 0.  0.
        1    1    3    3  502    0 -0.78186400182E+03  0.70988428918E+02 -0.12079227228E+04  0.14406345750E+04  0.50400001928E-02 0.  1.
       -1    1    3    3    0  502  0.78186400182E+03 -0.70988428918E+02  0.25216033187E+01  0.78508409288E+03  0.50400001928E-02 0. -1.
</event>
<event>
 5   0  0.1141890E-04  0.1875987E+04  0.7818609E-02  0.8666902E-01
       -2   -1    0    0    0  501  0.00000000000E+00  0.00000000000E+00  0.10311246711E+04  0.10311246711E+04  0.25500000920E-02 0.  1.
        2   -1    0    0  501    0  0.00000000000E+00  0.00000000000E+00 -0.85327374316E+03  0.85327374317E+03  0.25500000920E-02 0. -1.
    10030    2    1    2    0    0  0.00000000000E+00  0.00000000000E+00  0.17785092794E+03  0.18843984143E+04  0.18759867886E+04 0.  0.
        2    1    3    3  502    0 -0.68796182636E+03  0.59803700401E+03 -0.13318105278E+03  0.92123662841E+03  0.25500000920E-02 0. -1.
       -2    1    3    3    0  502  0.68796182636E+03 -0.59803700401E+03  0.31103198072E+03  0.96316178586E+03  0.25500000920E-02 0.  1.
</event>
<event>
 5   0  0.5579109E-05  0.1886814E+04  0.7818609E-02  0.8661448E-01
        1   -1    0    0  501    0  0.00000000000E+00  0.00000000000E+00  0.13749035745E+04  0.13749035745E+04  0.50400001928E-02 0.  1.
       -1   -1    0    0    0  501  0.00000000000E+00  0.00000000000E+00 -0.64733044650E+03  0.64733044652E+03  0.50400001928E-02 0. -1.
    10030    2    1    2    0    0  0.00000000000E+00  0.00000000000E+00  0.72757312796E+03  0.20222340210E+04  0.18868141878E+04 0.  0.
        3    1    3    3  502    0  0.55205259432E+03  0.51308014041E+03 -0.24439418328E+03  0.79230159939E+03  0.10100000352E+00 0. -1.
       -3    1    3    3    0  502 -0.55205259432E+03 -0.51308014041E+03  0.97196731124E+03  0.12299324216E+04  0.10100000352E+00 0.  1.
</event>
<event>
 5   0  0.1133638E-04  0.1854031E+04  0.7818609E-02  0.8678083E-01
        2   -1    0    0  501    0  0.00000000000E+00  0.00000000000E+00  0.13783361859E+04  0.13783361859E+04  0.25500000920E-02 0. -1.
       -2   -1    0    0    0  501  0.00000000000E+00  0.00000000000E+00 -0.62347448796E+03  0.62347448796E+03  0.25500000920E-02 0.  1.
    10030    2    1    2    0    0  0.00000000000E+00  0.00000000000E+00  0.75486169794E+03  0.20018106739E+04  0.18540306877E+04 0.  0.
        3    1    3    3  502    0 -0.45914553451E+03 -0.41337448917E+03  0.11236518991E+04  0.12822974267E+04  0.10100000352E+00 0. -1.
       -3    1    3    3    0  502  0.45914553451E+03  0.41337448917E+03 -0.36879020111E+03  0.71951324713E+03  0.10100000352E+00 0.  1.
</event>
<event>
 5   0  0.5841424E-05  0.1861143E+04  0.7818609E-02  0.8674443E-01
        1   -1    0    0  501    0  0.00000000000E+00  0.00000000000E+00  0.87660178513E+03  0.87660178515E+03  0.50400001928E-02 0. -1.
       -1   -1    0    0    0  501  0.00000000000E+00  0.00000000000E+00 -0.98786410740E+03  0.98786410741E+03  0.50400001928E-02 0.  1.
    10030    2    1    2    0    0  0.00000000000E+00  0.00000000000E+00 -0.11126232226E+03  0.18644658926E+04  0.18611431326E+04 0.  0.
        1    1    3    3  502    0  0.66784209357E+03 -0.63374226557E+03  0.79966021320E+02  0.92414116113E+03  0.50400001928E-02 0. -1.
       -1    1    3    3    0  502 -0.66784209357E+03  0.63374226557E+03 -0.19122834358E+03  0.94032473142E+03  0.50400001928E-02 0.  1.
</event>
<event>
 5   0  0.1141890E-04  0.1901413E+04  0.7818609E-02  0.8654154E-01
       -2   -1    0    0    0  501  0.00000000000E+00  0.00000000000E+00  0.67202014140E+03  0.67202014140E+03  0.25500000920E-02 0. -1.
        2   -1    0    0  501    0  0.00000000000E+00  0.00000000000E+00 -0.13449633649E+04  0.13449633649E+04  0.25500000920E-02 0.  1.
    10030    2    1    2    0    0  0.00000000000E+00  0.00000000000E+00 -0.67294322353E+03  0.20169835063E+04  0.19014126019E+04 0.  0.
        2    1    3    3  502    0 -0.78090522016E+03  0.39580893526E+01 -0.91165967814E+03  0.12003966003E+04  0.25500000920E-02 0.  1.
       -2    1    3    3    0  502  0.78090522016E+03 -0.39580893526E+01  0.23871645461E+03  0.81658690600E+03  0.25500000920E-02 0. -1.
</event>
<event>
 5   0  0.5824956E-05  0.1844266E+04  0.7818609E-02  0.8683107E-01
        1   -1    0    0  501    0  0.00000000000E+00  0.00000000000E+00  0.14348752840E+04  0.14348752840E+04  0.50400001928E-02 0.  1.
       -1   -1    0    0    0  501  0.00000000000E+00  0.00000000000E+00 -0.59261570304E+03  0.59261570306E+03  0.50400001928E-02 0. -1.
    10030    2    1    2    0    0  0.00000000000E+00  0.00000000000E+00  0.84225958098E+03  0.20274909871E+04  0.18442663856E+04 0.  0.
        2    1    3    3  502    0  0.23343249918E+03 -0.73886982417E+03  0.97070525939E+03  0.12420499383E+04  0.25500000920E-02 0.  1.
       -2    1    3    3    0  502 -0.23343249918E+03  0.73886982417E+03 -0.12844567841E+03  0.78544104874E+03  0.25500000920E-02 0. -1.
</event>
<event>
 5   0  0.1133638E-04  0.1898431E+04  0.7818609E-02  0.8655638E-01
        2   -1    0    0  501    0  0.00000000000E+00  0.00000000000E+00  0.13379357768E+04  0.13379357768E+04  0.25500000920E-02 0.  1.
       -2   -1    0    0    0  501  0.00000000000E+00  0.00000000000E+00 -0.67343330798E+03  0.67343330799E+03  0.25500000920E-02 0. -1.
    10030    2    1    2    0    0  0.00000000000E+00  0.00000000000E+00  0.66450246885E+03  0.20113690848E+04  0.18984314747E+04 0.  0.
        3    1    3    3  502    0  0.38496939969E+03  0.46689964143E+03 -0.44256398765E+03  0.74970634733E+03  0.10100000352E+00 0. -1.
       -3    1    3    3    0  502 -0.38496939969E+03 -0.46689964143E+03  0.11070664565E+04  0.12616627375E+04  0.10100000352E+00 0.  1.
</event>
<event>
 5   0  0.1182630E-04  0.1916461E+04  0.7818609E-02  0.8646706E-01
        2   -1    0    0  501    0  0.00000000000E+00  0.00000000000E+00  0.16477040403E+04  0.16477040403E+04  0.25500000920E-02 0. -1.
       -2   -1    0    0    0  501  0.00000000000E+00  0.00000000000E+00 -0.55726355850E+03  0.55726355851E+03  0.25500000920E-02 0.  1.
    10030    2    1    2    0    0  0.00000000000E+00  0.00000000000E+00  0.10904404818E+04  0.22049675988E+04  0.19164607137E+04 0.  0.
        5    1    3    3  502    0  0.62938194079E+03  0.58960891862E+03  0.10257321935E+04  0.13401152663E+04  0.46999998093E+01 0. -1.
       -5    1    3    3    0  502 -0.62938194079E+03 -0.58960891862E+03  0.64708288257E+02  0.86485233242E+03  0.46999998093E+01 0.  1.
</event>
<event>
 5   0  0.5824956E-05  0.1906130E+04  0.7818609E-02  0.8651811E-01
        1   -1    0    0  501    0  0.00000000000E+00  0.00000000000E+00  0.19239070702E+04  0.19239070702E+04  0.50400001928E-02 0. -1.
       -1   -1    0    0    0  501  0.00000000000E+00  0.00000000000E+00 -0.47212918675E+03  0.47212918678E+03  0.50400001928E-02 0.  1.
    10030    2    1    2    0    0  0.00000000000E+00  0.00000000000E+00  0.14517778834E+04  0.23960362570E+04  0.19061297757E+04 0.  0.
        2    1    3    3  502    0 -0.15699196277E+03 -0.62070786016E+03 -0.16153962211E+03  0.66031793370E+03  0.25500000920E-02 0.  1.
       -2    1    3    3    0  502  0.15699196277E+03  0.62070786016E+03  0.16133175055E+04  0.17357183233E+04  0.25500000920E-02 0. -1.
</event>
<event>
 5   0  0.1133638E-04  0.1897422E+04  0.7818609E-02  0.8656140E-01
       -2   -1    0    0    0  501  0.00000000000E+00  0.00000000000E+00  0.12271001463E+04  0.12271001463E+04  0.25500000920E-02 0.  1.
        2   -1    0    0  501    0  0.00000000000E+00  0.00000000000E+00 -0.73347964123E+03  0.73347964123E+03  0.25500000920E-02 0. -1.
    10030    2    1    2    0    0  0.00000000000E+00  0.00000000000E+00  0.49362050506E+03  0.19605797875E+04  0.18974224359E+04 0.  0.
        3    1    3    3  502    0 -0.60205660403E+03 -0.59715841791E+03  0.68639128237E+03  0.10909644051E+04  0.10100000352E+00 0.  1.
       -3    1    3    3    0  502  0.60205660403E+03  0.59715841791E+03 -0.19277077730E+03  0.86961538241E+03  0.10100000352E+00 0. -1.
</event>
<event>
 5   0  0.1118206E-04  0.1861120E+04  0.7818609E-02  0.8674455E-01
       -2   -1    0    0    0  501  0.00000000000E+00  0.00000000000E+00  0.67307572966E+03  0.67307572967E+03  0.25500000920E-02 0. -1.
        2   -1    0    0  501    0  0.00000000000E+00  0.00000000000E+00 -0.12865442815E+04  0.12865442815E+04  0.25500000920E-02 0.  1.
    10030    2    1    2    0    0  0.00000000000E+00  0.00000000000E+00 -0.61346855184E+03  0.19596200112E+04  0.18611198038E+04 0.  0.
        1    1    3    3  502    0 -0.79728303848E+03 -0.24732850146E+03 -0.73972870466E+03  0.11153610122E+04  0.50400001928E-02 0.  1.
       -1    1    3    3    0  502  0.79728303848E+03  0.24732850146E+03  0.12626015282E+03  0.84425899894E+03  0.50400001928E-02 0. -1.
</event>
<event>
 5   0  0.5628936E-05  0.1841410E+04  0.7818609E-02  0.8684583E-01
       -1   -1    0    0    0  501  0.00000000000E+00  0.00000000000E+00  0.72599990227E+03  0.72599990229E+03  0.50400001928E-02 0.  1.
        1   -1    0    0  501    0  0.00000000000E+00  0.00000000000E+00 -0.11676281768E+04  0.11676281768E+04  0.50400001928E-02 0. -1.
    10030    2    1    2    0    0  0.00000000000E+00  0.00000000000E+00 -0.44162827450E+03  0.18936280791E+04  0.18414102664E+04 0.  0.
        5    1    3    3  502    0  0.81273834164E+02 -0.84751744929E+03 -0.58115710878E+03  0.10308525297E+04  0.46999998093E+01 0. -1.
       -5    1    3    3    0  502 -0.81273834164E+02  0.84751744929E+03  0.13952883427E+03  0.86277554935E+03  0.46999998093E+01 0.  1.
</event>
<event>
 5   0  0.1133638E-04  0.1920048E+04  0.7818609E-02  0.8644941E-01
       -2   -1    0    0    0  501  0.00000000000E+00  0.00000000000E+00  0.13476822030E+04  0.13476822030E+04  0.25500000920E-02 0. -1.
        2   -1    0    0  501    0  0.00000000000E+00  0.00000000000E+00 -0.68387525377E+03  0.68387525378E+03  0.25500000920E-02 0.  1.
    10030    2    1    2    0    0  0.00000000000E+00  0.00000000000E+00  0.66380694924E+03  0.20315574568E+04  0.19200484459E+04 0.  0.
        3    1    3    3  502    0  0.44778008586E+03  0.62645610974E+03 -0.27470943083E+03  0.81756929022E+03  0.10100000352E+00 0.  1.
       -3    1    3    3    0  502 -0.44778008586E+03 -0.62645610974E+03  0.93851638008E+03  0.12139881666E+04  0.10100000352E+00 0. -1.
</event>
<event>
 5   0  0.5614989E-05  0.1902398E+04  0.7818609E-02  0.8653664E-01
       -1   -1    0    0    0  501  0.00000000000E+00  0.00000000000E+00  0.72278010391E+03  0.72278010393E+03  0.50400001928E-02 0.  1.
        1   -1    0    0  501    0  0.00000000000E+00  0.00000000000E+00 -0.12518049036E+04  0.12518049036E+04  0.50400001928E-02 0. -1.
    10030    2    1    2    0    0  0.00000000000E+00  0.00000000000E+00 -0.52902479966E+03  0.19745850075E+04  0.19023981479E+04 0.  0.
        4    1    3    3  502    0  0.86600158947E+03  0.33705587738E+03 -0.47522459932E+03  0.10437458743E+04  0.12699999809E+01 0. -1.
       -4    1    3    3    0  502 -0.86600158947E+03 -0.33705587738E+03 -0.53800200338E+02  0.93083913320E+03  0.12699999809E+01 0.  1.
</event>
<event>
 5   0  0.5841424E-05  0.1884708E+04  0.7818609E-02  0.8662506E-01
        1   -1    0    0  501    0  0.00000000000E+00  0.00000000000E+00  0.92929493522E+03  0.92929493523E+03  0.50400001928E-02 0. -1.
       -1   -1    0    0    0  501  0.00000000000E+00  0.00000000000E+00 -0.95559688351E+03  0.95559688352E+03  0.50400001928E-02 0.  1.
    10030    2    1    2    0    0  0.00000000000E+00  0.00000000000E+00 -0.26301948293E+02  0.18848918188E+04  0.18847083000E+04 0.  0.
        1    1    3    3  502    0 -0.36506806112E+03  0.69826300929E+03 -0.53010112662E+03  0.94965947784E+03  0.50400001928E-02 0.  1.
       -1    1    3    3    0  502  0.36506806112E+03 -0.69826300929E+03  0.50379917832E+03  0.93523234091E+03  0.50400001928E-02 0. -1.
</event>
<event>
 5   0  0.5628936E-05  0.1921519E+04  0.7818609E-02  0.8644219E-01
       -1   -1    0    0    0  501  0.00000000000E+00  0.00000000000E+00  0.11695869628E+04  0.11695869628E+04  0.50400001928E-02 0.  1.
        1   -1    0    0  501    0  0.00000000000E+00  0.00000000000E+00 -0.78921774225E+03  0.78921774226E+03  0.50400001928E-02 0. -1.
    10030    2    1    2    0    0  0.00000000000E+00  0.00000000000E+00  0.38036922055E+03  0.19588047051E+04  0.19215189639E+04 0.  0.
        5    1    3    3  502    0  0.51925300058E+02  0.79139639806E+03 -0.36258468047E+03  0.87206320651E+03  0.46999998093E+01 0. -1.
       -5    1    3    3    0  502 -0.51925300058E+02 -0.79139639806E+03  0.74295390102E+03  0.10867414986E+04  0.46999998093E+01 0.  1.
</event>
<event>
 5   0  0.1101678E-04  0.1894248E+04  0.7818609E-02  0.8657725E-01
        2   -1    0    0  501    0  0.00000000000E+00  0.00000000000E+00  0.11506666800E+04  0.11506666800E+04  0.25500000920E-02 0. -1.
       -2   -1    0    0    0  501  0.00000000000E+00  0.00000000000E+00 -0.77958610063E+03  0.77958610064E+03  0.25500000920E-02 0.  1.
    10030    2    1    2    0    0  0.00000000000E+00  0.00000000000E+00  0.37108057940E+03  0.19302527807E+04  0.18942478721E+04 0.  0.
        4    1    3    3  502    0 -0.81229990610E+02 -0.88100130481E+03  0.53001987981E+03  0.10313507145E+04  0.12699999809E+01 0.  1.
       -4    1    3    3    0  502  0.81229990610E+02  0.88100130481E+03 -0.15893930040E+03  0.89890206616E+03  0.12699999809E+01 0. -1.
</event>
<event>
 5   0  0.1101678E-04  0.1899238E+04  0.7818609E-02  0.8655236E-01
       -2   -1    0    0    0  501  0.00000000000E+00  0.00000000000E+00  0.61977553633E+03  0.61977553633E+03  0.25500000920E-02 0. -1.
        2   -1    0    0  501    0  0.00000000000E+00  0.00000000000E+00 -0.14550038533E+04  0.14550038533E+04  0.25500000920E-02 0.  1.
    10030    2    1    2    0    0  0.00000000000E+00  0.00000000000E+00 -0.83522831698E+03  0.20747793896E+04  0.18992375244E+04 0.  0.
        4    1    3    3  502    0 -0.48914585359E+03 -0.72645898544E+03 -0.81865241557E+03  0.11988326464E+04  0.12699999809E+01 0.  1.
       -4    1    3    3    0  502  0.48914585359E+03  0.72645898544E+03 -0.16575901404E+02  0.87594674325E+03  0.12699999809E+01 0. -1.
</event>
<event>
 5   0  0.5824956E-05  0.1893290E+04  0.7818609E-02  0.8658204E-01
        1   -1    0    0  501    0  0.00000000000E+00  0.00000000000E+00  0.20913710003E+04  0.20913710003E+04  0.50400001928E-02 0.  1.
       -1   -1    0    0    0  501  0.00000000000E+00  0.00000000000E+00 -0.42849247211E+03  0.42849247214E+03  0.50400001928E-02 0. -1.
    10030    2    1    2    0    0  0.00000000000E+00  0.00000000000E+00  0.16628785282E+04  0.25198634724E+04  0.18932899726E+04 0.  0.
        2    1    3    3  502    0 -0.38658010085E+03  0.86050979558E+03  0.93636839425E+03  0.13291753279E+04  0.25500000920E-02 0. -1.
       -2    1    3    3    0  502  0.38658010085E+03 -0.86050979558E+03  0.72651013390E+03  0.11906881445E+04  0.25500000920E-02 0.  1.
</event>
<event>
 5   0  0.5628936E-05  0.1932778E+04  0.7818609E-02  0.8638711E-01
        1   -1    0    0  501    0  0.00000000000E+00  0.00000000000E+00  0.58018985630E+03  0.58018985632E+03  0.50400001928E-02 0.  1.
       -1   -1    0    0    0  501  0.00000000000E+00  0.00000000000E+00 -0.16096586261E+04  0.16096586261E+04  0.50400001928E-02 0. -1.
    10030    2    1    2    0    0  0.00000000000E+00  0.00000000000E+00 -0.10294687698E+04  0.21898484824E+04  0.19327779045E+04 0.  0.
        5    1    3    3  502    0  0.14549098794E+03 -0.94994392159E+03 -0.62985822482E+03  0.11490450623E+04  0.46999998093E+01 0. -1.
       -5    1    3    3    0  502 -0.14549098794E+03  0.94994392159E+03 -0.39961054498E+03  0.10408034202E+04  0.46999998093E+01 0.  1.
</event>
<event>
 5   0  0.5628936E-05  0.1894070E+04  0.7818609E-02  0.8657814E-01
        1   -1    0    0  501    0  0.00000000000E+00  0.00000000000E+00  0.14325036151E+04  0.14325036151E+04  0.50400001928E-02 0.  1.
       -1   -1    0    0    0  501  0.00000000000E+00  0.00000000000E+00 -0.62608956845E+03  0.62608956847E+03  0.50400001928E-02 0. -1.
    10030    2    1    2    0    0  0.00000000000E+00  0.00000000000E+00  0.80641404662E+03  0.20585931835E+04  0.18940702946E+04 0.  0.
        5    1    3    3  502    0  0.54261784485E+03 -0.62968486438E+03  0.89640334410E+03  0.12224967073E+04  0.46999998093E+01 0.  1.
       -5    1    3    3    0  502 -0.54261784485E+03  0.62968486438E+03 -0.89989297482E+02  0.83609647627E+03  0.46999998093E+01 0. -1.
</event>
<event>
 5   0  0.1141890E-04  0.1895623E+04  0.7818609E-02  0.8657038E-01
        2   -1    0    0  501    0  0.00000000000E+00  0.00000000000E+00  0.17180175023E+04  0.17180175023E+04  0.25500000920E-02 0.  1.
       -2   -1    0    0    0  501  0.00000000000E+00  0.00000000000E+00 -0.52289737826E+03  0.52289737827E+03  0.25500000920E-02 0. -1.
    10030    2    1    2    0    0  0.00000000000E+00  0.00000000000E+00  0.11951201240E+04  0.22409148805E+04  0.18956232197E+04 0.  0.
        2    1    3    3  502    0  0.53832291652E+03  0.44598224095E+03  0.13541882861E+04  0.15239808516E+04  0.25500000920E-02 0.  1.
       -2    1    3    3    0  502 -0.53832291652E+03 -0.44598224095E+03 -0.15906816210E+03  0.71693402897E+03  0.25500000920E-02 0. -1.
</event>
<event>
 5   0  0.1133638E-04  0.1892795E+04  0.7818609E-02  0.8658451E-01
        2   -1    0    0  501    0  0.00000000000E+00  0.00000000000E+00  0.20953322587E+04  0.20953322587E+04  0.25500000920E-02 0.  1.
       -2   -1    0    0    0  501  0.00000000000E+00  0.00000000000E+00 -0.42745891778E+03  0.42745891779E+03  0.25500000920E-02 0. -1.
    10030    2    1    2    0    0  0.00000000000E+00  0.00000000000E+00  0.16678733409E+04  0.25227911765E+04  0.18927952448E+04 0.  0.
        3    1    3    3  502    0 -0.80995812193E+03 -0.15974217908E+03  0.21719258553E+03  0.85365236043E+03  0.10100000352E+00 0.  1.
       -3    1    3    3    0  502  0.80995812193E+03  0.15974217908E+03  0.14506807553E+04  0.16691388160E+04  0.10100000352E+00 0. -1.
</event>
<event>
 5   0  0.1118206E-04  0.1893836E+04  0.7818609E-02  0.8657931E-01
        2   -1    0    0  501    0  0.00000000000E+00  0.00000000000E+00  0.11207890824E+04  0.11207890824E+04  0.25500000920E-02 0. -1.
       -2   -1    0    0    0  501  0.00000000000E+00  0.00000000000E+00 -0.80001994416E+03  0.80001994416E+03  0.25500000920E-02 0.  1.
    10030    2    1    2    0    0  0.00000000000E+00  0.00000000000E+00  0.32076913826E+03  0.19208090266E+04  0.18938359160E+04 0.  0.
        1    1    3    3  502    0 -0.34509675883E+02  0.94627479465E+03  0.15514235838E+03  0.95952908039E+03  0.50400001928E-02 0.  1.
       -1    1    3    3    0  502  0.34509675883E+02 -0.94627479465E+03  0.16562677988E+03  0.96127994620E+03  0.50400001928E-02 0. -1.
</event>
<event>
 5   0  0.1141890E-04  0.1893554E+04  0.7818609E-02  0.8658072E-01
        2   -1    0    0  501    0  0.00000000000E+00  0.00000000000E+00  0.73418431285E+03  0.73418431285E+03  0.25500000920E-02 0.  1.
       -2   -1    0    0    0  501  0.00000000000E+00  0.00000000000E+00 -0.12209282987E+04  0.12209282987E+04  0.25500000920E-02 0. -1.
    10030    2    1    2    0    0  0.00000000000E+00  0.00000000000E+00 -0.48674398583E+03  0.19551126115E+04  0.18935537003E+04 0.  0.
        2    1    3    3  502    0 -0.63951993910E+03  0.22564821833E+03  0.43877517928E+03  0.80772924232E+03  0.25500000920E-02 0.  1.
       -2    1    3    3    0  502  0.63951993910E+03 -0.22564821833E+03 -0.92551916510E+03  0.11473833692E+04  0.25500000920E-02 0. -1.
</event>
<event>
 5   0  0.1133638E-04  0.1874145E+04  0.7818609E-02  0.8667834E-01
        2   -1    0    0  501    0  0.00000000000E+00  0.00000000000E+00  0.79786822581E+03  0.79786822581E+03  0.25500000920E-02 0.  1.
       -2   -1    0    0    0  501  0.00000000000E+00  0.00000000000E+00 -0.11005638782E+04  0.11005638782E+04  0.25500000920E-02 0. -1.
    10030    2    1    2    0    0  0.00000000000E+00  0.00000000000E+00 -0.30269565236E+03  0.18984321040E+04  0.18741450839E+04 0.  0.
        3    1    3    3  502    0 -0.70973060132E+03  0.42685862611E+03  0.29271556167E+03  0.87841233107E+03  0.10100000352E+00 0.  1.
       -3    1    3    3    0  502  0.70973060132E+03 -0.42685862611E+03 -0.59541121403E+03  0.10200197729E+04  0.10100000352E+00 0. -1.
</event>
<event>
 5   0  0.5628936E-05  0.1892391E+04  0.7818609E-02  0.8658653E-01
       -1   -1    0    0    0  501  0.00000000000E+00  0.00000000000E+00  0.75634513357E+03  0.75634513359E+03  0.50400001928E-02 0. -1.
        1   -1    0    0  501    0  0.00000000000E+00  0.00000000000E+00 -0.11837005328E+04  0.11837005328E+04  0.50400001928E-02 0.  1.
    10030    2    1    2    0    0  0.00000000000E+00  0.00000000000E+00 -0.42735539920E+03  0.19400456664E+04  0.18923912255E+04 0.  0.
        5    1    3    3  502    0  0.70831606440E+03  0.60580091856E+03 -0.46608716600E+02  0.93322069334E+03  0.46999998093E+01 0.  1.
       -5    1    3    3    0  502 -0.70831606440E+03 -0.60580091856E+03 -0.38074668260E+03  0.10068249730E+04  0.46999998093E+01 0. -1.
</event>
<event>
 5   0  0.1182630E-04  0.1881589E+04  0.7818609E-02  0.8664075E-01
        2   -1    0    0  501    0  0.00000000000E+00  0.00000000000E+00  0.14796644731E+04  0.14796644731E+04  0.25500000920E-02 0.  1.
       -2   -1    0    0    0  501  0.00000000000E+00  0.00000000000E+00 -0.59817246348E+03  0.59817246349E+03  0.25500000920E-02 0. -1.
    10030    2    1    2    0    0  0.00000000000E+00  0.00000000000E+00  0.88149200964E+03  0.20778369366E+04  0.18815892676E+04 0.  0.
        5    1    3    3  502    0  0.83925159166E+03 -0.42347065565E+03  0.48209197443E+03  0.10564588928E+04  0.46999998093E+01 0.  1.
       -5    1    3    3    0  502 -0.83925159166E+03  0.42347065565E+03  0.39940003521E+03  0.10213780438E+04  0.46999998093E+01 0. -1.
</event>
<event>
 5   0  0.5628936E-05  0.1887264E+04  0.7818609E-02  0.8661222E-01
        1   -1    0    0  501    0  0.00000000000E+00  0.00000000000E+00  0.23702025780E+04  0.23702025780E+04  0.50400001928E-02 0.  1.
       -1   -1    0    0    0  501  0.00000000000E+00  0.00000000000E+00 -0.37568168408E+03  0.37568168412E+03  0.50400001928E-02 0. -1.
    10030    2    1    2    0    0  0.00000000000E+00  0.00000000000E+00  0.19945208939E+04  0.27458842621E+04  0.18872643653E+04 0.  0.
        5    1    3    3  502    0 -0.38322252573E+03  0.10288749362E+02 -0.25725672549E+03  0.46170171691E+03  0.46999998093E+01 0. -1.
       -5    1    3    3    0  502  0.38322252573E+03 -0.10288749362E+02  0.22517776194E+04  0.22841825452E+04  0.46999998093E+01 0.  1.
</event>
<event>
 5   0  0.5579109E-05  0.1891633E+04  0.7818609E-02  0.8659033E-01
       -1   -1    0    0    0  501  0.00000000000E+00  0.00000000000E+00  0.56848253472E+03  0.56848253474E+03  0.50400001928E-02 0.  1.
        1   -1    0    0  501    0  0.00000000000E+00  0.00000000000E+00 -0.15736079290E+04  0.15736079291E+04  0.50400001928E-02 0. -1.
    10030    2    1    2    0    0  0.00000000000E+00  0.00000000000E+00 -0.10051253943E+04  0.21420904638E+04  0.18916327595E+04 0.  0.
        3    1    3    3  502    0 -0.11858180010E+03  0.29348443057E+02 -0.15646368955E+04  0.15693984833E+04  0.10100000352E+00 0. -1.
       -3    1    3    3    0  502  0.11858180010E+03 -0.29348443057E+02  0.55951150115E+03  0.57269198052E+03  0.10100000352E+00 0.  1.
</event>
<event>
 5   0  0.1133638E-04  0.1899595E+04  0.7818609E-02  0.8655058E-01
        2   -1    0    0  501    0  0.00000000000E+00  0.00000000000E+00  0.12040457764E+04  0.12040457764E+04  0.25500000920E-02 0.  1.
       -2   -1    0    0    0  501  0.00000000000E+00  0.00000000000E+00 -0.74923688786E+03  0.74923688787E+03  0.25500000920E-02 0. -1.
    10030    2    1    2    0    0  0.00000000000E+00  0.00000000000E+00  0.45480888852E+03  0.19532826643E+04  0.18995952309E+04 0.  0.
        3    1    3    3  502    0  0.55753614018E+03  0.11816268377E+03 -0.55387655251E+03  0.79472524376E+03  0.10100000352E+00 0. -1.
       -3    1    3    3    0  502 -0.55753614018E+03 -0.11816268377E+03  0.10086854410E+04  0.11585574205E+04  0.10100000352E+00 0.  1.
</event>
<event>
 5   0  0.5841424E-05  0.1899666E+04  0.7818609E-02  0.8655022E-01
        1   -1    0    0  501    0  0.00000000000E+00  0.00000000000E+00  0.76145335609E+03  0.76145335611E+03  0.50400001928E-02 0.  1.
       -1   -1    0    0    0  501  0.00000000000E+00  0.00000000000E+00 -0.11848172310E+04  0.11848172310E+04  0.50400001928E-02 0. -1.
    10030    2    1    2    0    0  0.00000000000E+00  0.00000000000E+00 -0.42336387490E+03  0.19462705871E+04  0.18996663464E+04 0.  0.
        1    1    3    3  502    0 -0.92089625291E+03  0.22063521894E+03 -0.13602416812E+03  0.95667778421E+03  0.50400001928E-02 0. -1.
       -1    1    3    3    0  502  0.92089625291E+03 -0.22063521894E+03 -0.28733970678E+03  0.98959280291E+03  0.50400001928E-02 0.  1.
</event>
<event>
 5   0  0.5628936E-05  0.1838867E+04  0.7818609E-02  0.8685899E-01
       -1   -1    0    0    0  501  0.00000000000E+00  0.00000000000E+00  0.64450217623E+03  0.64450217625E+03  0.50400001928E-02 0.  1.
        1   -1    0    0  501    0  0.00000000000E+00  0.00000000000E+00 -0.13116447859E+04  0.13116447859E+04  0.50400001928E-02 0. -1.
    10030    2    1    2    0    0  0.00000000000E+00  0.00000000000E+00 -0.66714260967E+03  0.19561469622E+04  0.18388669544E+04 0.  0.
        5    1    3    3  502    0 -0.59804009965E+02 -0.29954315629E+03 -0.12560783257E+04  0.12926938819E+04  0.46999998093E+01 0. -1.
       -5    1    3    3    0  502  0.59804009965E+02  0.29954315629E+03  0.58893571601E+03  0.66345308024E+03  0.46999998093E+01 0.  1.
</event>
<event>
 5   0  0.5614989E-05  0.1907176E+04  0.7818609E-02  0.8651293E-01
        1   -1    0    0  501    0  0.00000000000E+00  0.00000000000E+00  0.10175155613E+04  0.10175155614E+04  0.50400001928E-02 0. -1.
       -1   -1    0    0    0  501  0.00000000000E+00  0.00000000000E+00 -0.89367655950E+03  0.89367655951E+03  0.50400001928E-02 0.  1.
    10030    2    1    2    0    0  0.00000000000E+00  0.00000000000E+00  0.12383900184E+03  0.19111921209E+04  0.19071757193E+04 0.  0.
        4    1    3    3  502    0 -0.49373229475E+03 -0.72011661865E+03  0.44611791452E+03  0.98049086171E+03  0.12699999809E+01 0. -1.
       -4    1    3    3    0  502  0.49373229475E+03  0.72011661865E+03 -0.32227891268E+03  0.93070125915E+03  0.12699999809E+01 0.  1.
</event>
<event>
 5   0  0.5628936E-05  0.1899443E+04  0.7818609E-02  0.8655134E-01
       -1   -1    0    0    0  501  0.00000000000E+00  0.00000000000E+00  0.45045649242E+03  0.45045649245E+03  0.50400001928E-02 0. -1.
        1   -1    0    0  501    0  0.00000000000E+00  0.00000000000E+00 -0.20023484831E+04  0.20023484831E+04  0.50400001928E-02 0.  1.
    10030    2    1    2    0    0  0.00000000000E+00  0.00000000000E+00 -0.15518919907E+04  0.24528049756E+04  0.18994429440E+04 0.  0.
        5    1    3    3  502    0  0.18426315220E+03 -0.92148427141E+03 -0.59859334248E+03  0.11141912993E+04  0.46999998093E+01 0. -1.
       -5    1    3    3    0  502 -0.18426315220E+03  0.92148427141E+03 -0.95329864821E+03  0.13386136763E+04  0.46999998093E+01 0.  1.
</event>
<event>
 5   0  0.1101678E-04  0.1887182E+04  0.7818609E-02  0.8661263E-01
       -2   -1    0    0    0  501  0.00000000000E+00  0.00000000000E+00  0.37520230474E+03  0.37520230475E+03  0.25500000920E-02 0.  1.
        2   -1    0    0  501    0  0.00000000000E+00  0.00000000000E+00 -0.23730240801E+04  0.23730240801E+04  0.25500000920E-02 0. -1.
    10030    2    1    2    0    0  0.00000000000E+00  0.00000000000E+00 -0.19978217753E+04  0.27482263848E+04  0.18871821365E+04 0.  0.
        4    1    3    3  502    0  0.79106039558E+03  0.26208944223E+03 -0.16434517215E+04  0.18426618244E+04  0.12699999809E+01 0. -1.
       -4    1    3    3    0  502 -0.79106039558E+03 -0.26208944223E+03 -0.35437005379E+03  0.90556456043E+03  0.12699999809E+01 0.  1.
</event>
<event>
 5   0  0.1118206E-04  0.1860725E+04  0.7818609E-02  0.8674657E-01
       -2   -1    0    0    0  501  0.00000000000E+00  0.00000000000E+00  0.74894409681E+03  0.74894409682E+03  0.25500000920E-02 0. -1.
        2   -1    0    0  501    0  0.00000000000E+00  0.00000000000E+00 -0.11557262671E+04  0.11557262671E+04  0.25500000920E-02 0.  1.
    10030    2    1    2    0    0  0.00000000000E+00  0.00000000000E+00 -0.40678217025E+03  0.19046703639E+04  0.18607249826E+04 0.  0.
        1    1    3    3  502    0 -0.50453601832E+03 -0.77674820698E+03 -0.11368578833E+03  0.93317674067E+03  0.50400001928E-02 0. -1.
       -1    1    3    3    0  502  0.50453601832E+03  0.77674820698E+03 -0.29309638192E+03  0.97149362322E+03  0.50400001928E-02 0.  1.
</event>
<event>
 5   0  0.5614989E-05  0.1898812E+04  0.7818609E-02  0.8655448E-01
        1   -1    0    0  501    0  0.00000000000E+00  0.00000000000E+00  0.11231870657E+04  0.11231870657E+04  0.50400001928E-02 0. -1.
       -1   -1    0    0    0  501  0.00000000000E+00  0.00000000000E+00 -0.80251287941E+03  0.80251287943E+03  0.50400001928E-02 0.  1.
    10030    2    1    2    0    0  0.00000000000E+00  0.00000000000E+00  0.32067418627E+03  0.19256999451E+04  0.18988123511E+04 0.  0.
        4    1    3    3  502    0  0.51819817040E+03  0.55442557401E+03  0.73890053060E+03  0.10591943485E+04  0.12699999809E+01 0. -1.
       -4    1    3    3    0  502 -0.51819817040E+03 -0.55442557401E+03 -0.41822634433E+03  0.86650559659E+03  0.12699999809E+01 0.  1.
</event>
<event>
 5   0  0.1141890E-04  0.1915113E+04  0.7818609E-02  0.8647370E-01
        2   -1    0    0  501    0  0.00000000000E+00  0.00000000000E+00  0.26396627042E+04  0.26396627042E+04  0.25500000920E-02 0. -1.
       -2   -1    0    0    0  501  0.00000000000E+00  0.00000000000E+00 -0.34736047293E+03  0.34736047294E+03  0.25500000920E-02 0.  1.
    10030    2    1    2    0    0  0.00000000000E+00  0.00000000000E+00  0.22923022313E+04  0.29870231771E+04  0.19151130362E+04 0.  0.
        2    1    3    3  502    0  0.87046923572E+03 -0.33932283737E+03  0.14735337342E+04  0.17447516568E+04  0.25500000920E-02 0.  1.
       -2    1    3    3    0  502 -0.87046923572E+03  0.33932283737E+03  0.81876849709E+03  0.12422715203E+04  0.25500000920E-02 0. -1.
</event>
<event>
 5   0  0.5628936E-05  0.1904888E+04  0.7818609E-02  0.8652427E-01
       -1   -1    0    0    0  501  0.00000000000E+00  0.00000000000E+00  0.49520634237E+03  0.49520634239E+03  0.50400001928E-02 0. -1.
        1   -1    0    0  501    0  0.00000000000E+00  0.00000000000E+00 -0.18318609308E+04  0.18318609308E+04  0.50400001928E-02 0.  1.
    10030    2    1    2    0    0  0.00000000000E+00  0.00000000000E+00 -0.13366545884E+04  0.23270672732E+04  0.19048875571E+04 0.  0.
        5    1    3    3  502    0  0.89012084962E+03  0.12126217688E+03 -0.10548479657E+04  0.13855489754E+04  0.46999998093E+01 0.  1.
       -5    1    3    3    0  502 -0.89012084962E+03 -0.12126217688E+03 -0.28180662271E+03  0.94151829779E+03  0.46999998093E+01 0. -1.
</event>
<event>
 5   0  0.1141890E-04  0.1897557E+04  0.7818609E-02  0.8656073E-01
       -2   -1    0    0    0  501  0.00000000000E+00  0.00000000000E+00  0.10355273792E+04  0.10355273792E+04  0.25500000920E-02 0.  1.
        2   -1    0    0  501    0  0.00000000000E+00  0.00000000000E+00 -0.86929679250E+03  0.86929679250E+03  0.25500000920E-02 0. -1.
    10030    2    1    2    0    0  0.00000000000E+00  0.00000000000E+00  0.16623058668E+03  0.19048241717E+04  0.18975569865E+04 0.  0.
        2    1    3    3  502    0 -0.67264223064E+03  0.60058086879E+03 -0.21303265398E+03  0.92656778601E+03  0.25500000920E-02 0.  1.
       -2    1    3    3    0  502  0.67264223064E+03 -0.60058086879E+03  0.37926324066E+03  0.97825638568E+03  0.25500000920E-02 0. -1.
</event>
<event>
 5   0  0.5614989E-05  0.1901235E+04  0.7818609E-02  0.8654242E-01
       -1   -1    0    0    0  501  0.00000000000E+00  0.00000000000E+00  0.13608072663E+04  0.13608072663E+04  0.50400001928E-02 0.  1.
        1   -1    0    0  501    0  0.00000000000E+00  0.00000000000E+00 -0.66407189911E+03  0.66407189913E+03  0.50400001928E-02 0. -1.
    10030    2    1    2    0    0  0.00000000000E+00  0.00000000000E+00  0.69673536717E+03  0.20248791654E+04  0.19012352465E+04 0.  0.
        4    1    3    3  502    0 -0.65594135385E+03 -0.17530488505E+03  0.10569803115E+04  0.12562642454E+04  0.12699999809E+01 0.  1.
       -4    1    3    3    0  502  0.65594135385E+03  0.17530488505E+03 -0.36024494437E+03  0.76861492001E+03  0.12699999809E+01 0. -1.
</event>
<event>
 5   0  0.5614989E-05  0.1899729E+04  0.7818609E-02  0.8654992E-01
       -1   -1    0    0    0  501  0.00000000000E+00  0.00000000000E+00  0.83085518668E+03  0.83085518670E+03  0.50400001928E-02 0. -1.
        1   -1    0    0  501    0  0.00000000000E+00  0.00000000000E+00 -0.10859198019E+04  0.10859198019E+04  0.50400001928E-02 0.  1.
    10030    2    1    2    0    0  0.00000000000E+00  0.00000000000E+00 -0.25506461521E+03  0.19167749886E+04  0.18997285067E+04 0.  0.
        4    1    3    3  502    0 -0.86620150566E+03  0.38733639034E+03 -0.17158134162E+03  0.96424908472E+03  0.12699999809E+01 0. -1.
       -4    1    3    3    0  502  0.86620150566E+03 -0.38733639034E+03 -0.83483273593E+02  0.95252590388E+03  0.12699999809E+01 0.  1.
</event>
<event>
 5   0  0.5614989E-05  0.1908399E+04  0.7818609E-02  0.8650687E-01
       -1   -1    0    0    0  501  0.00000000000E+00  0.00000000000E+00  0.79050291541E+03  0.79050291543E+03  0.50400001928E-02 0. -1.
        1   -1    0    0  501    0  0.00000000000E+00  0.00000000000E+00 -0.11517944373E+04  0.11517944373E+04  0.50400001928E-02 0.  1.
    10030    2    1    2    0    0  0.00000000000E+00  0.00000000000E+00 -0.36129152187E+03  0.19422973527E+04  0.19083991833E+04 0.  0.
        4    1    3    3  502    0 -0.79222680481E+03 -0.46247119846E+03  0.86683745352E+02  0.92142205545E+03  0.12699999809E+01 0. -1.
       -4    1    3    3    0  502  0.79222680481E+03  0.46247119846E+03 -0.44797526723E+03  0.10208752973E+04  0.12699999809E+01 0.  1.
</event>
<event>
 5   0  0.1101678E-04  0.1925236E+04  0.7818609E-02  0.8642396E-01
       -2   -1    0    0    0  501  0.00000000000E+00  0.00000000000E+00  0.12582729580E+04  0.12582729580E+04  0.25500000920E-02 0.  1.
        2   -1    0    0  501    0  0.00000000000E+00  0.00000000000E+00 -0.73643244775E+03  0.73643244775E+03  0.25500000920E-02 0. -1.
    10030    2    1    2    0    0  0.00000000000E+00  0.00000000000E+00  0.52184051023E+03  0.19947054057E+04  0.19252356057E+04 0.  0.
        4    1    3    3  502    0 -0.47487742376E+03  0.66714522659E+03  0.78518285167E+03  0.11345065202E+04  0.12699999809E+01 0. -1.
       -4    1    3    3    0  502  0.47487742376E+03 -0.66714522659E+03 -0.26334234144E+03  0.86019888552E+03  0.12699999809E+01 0.  1.
</event>
<event>
 5   0  0.4061125E-05  0.1898903E+04  0.7818609E-02  0.8655402E-01
       -3   -1    0    0    0  501  0.00000000000E+00  0.00000000000E+00  0.15035370611E+04  0.15035370645E+04  0.10100000352E+00 0. -1.
        3   -1    0    0  501    0  0.00000000000E+00  0.00000000000E+00 -0.59955859672E+03  0.59955860523E+03  0.10100000352E+00 0.  1.
    10030    2    1    2    0    0  0.00000000000E+00  0.00000000000E+00  0.90397846436E+03  0.21030956697E+04  0.18989034551E+04 0.  0.
        5    1    3    3  502    0  0.59215398024E+03 -0.68842270220E+03  0.14493252029E+03  0.91956493988E+03  0.46999998093E+01 0.  1.
       -5    1    3    3    0  502 -0.59215398024E+03  0.68842270220E+03  0.75904594407E+03  0.11835307298E+04  0.46999998093E+01 0. -1.
</event>
<event>
 5   0  0.1182630E-04  0.1900668E+04  0.7818609E-02  0.8654524E-01
        2   -1    0    0  501    0  0.00000000000E+00  0.00000000000E+00  0.12751209681E+04  0.12751209681E+04  0.25500000920E-02 0.  1.
       -2   -1    0    0    0  501  0.00000000000E+00  0.00000000000E+00 -0.70827408400E+03  0.70827408400E+03  0.25500000920E-02 0. -1.
    10030    2    1    2    0    0  0.00000000000E+00  0.00000000000E+00  0.56684688406E+03  0.19833950521E+04  0.19006684463E+04 0.  0.
        5    1    3    3  502    0 -0.88329963525E+03  0.17615118828E+03  0.59970889763E+03  0.10820907257E+04  0.46999998093E+01 0.  1.
       -5    1    3    3    0  502  0.88329963525E+03 -0.17615118828E+03 -0.32862013566E+02  0.90130432636E+03  0.46999998093E+01 0. -1.
</event>
<event>
 5   0  0.1182630E-04  0.1906349E+04  0.7818609E-02  0.8651702E-01
       -2   -1    0    0    0  501  0.00000000000E+00  0.00000000000E+00  0.52640663263E+03  0.52640663264E+03  0.25500000920E-02 0.  1.
        2   -1    0    0  501    0  0.00000000000E+00  0.00000000000E+00 -0.17259319591E+04  0.17259319591E+04  0.25500000920E-02 0. -1.
    10030    2    1    2    0    0  0.00000000000E+00  0.00000000000E+00 -0.11995253265E+04  0.22523385918E+04  0.19063494231E+04 0.  0.
        5    1    3    3  502    0 -0.79825330447E+02  0.65787024968E+03 -0.14091971545E+04  0.15572488751E+04  0.46999998093E+01 0. -1.
       -5    1    3    3    0  502  0.79825330447E+02 -0.65787024968E+03  0.20967182798E+03  0.69508971668E+03  0.46999998093E+01 0.  1.
</event>
<event>
 5   0  0.1101678E-04  0.1896322E+04  0.7818609E-02  0.8656690E-01
        2   -1    0    0  501    0  0.00000000000E+00  0.00000000000E+00  0.13714089293E+04  0.13714089293E+04  0.25500000920E-02 0.  1.
       -2   -1    0    0    0  501  0.00000000000E+00  0.00000000000E+00 -0.65553668828E+03  0.65553668828E+03  0.25500000920E-02 0. -1.
    10030    2    1    2    0    0  0.00000000000E+00  0.00000000000E+00  0.71587224098E+03  0.20269456175E+04  0.18963215632E+04 0.  0.
        4    1    3    3  502    0  0.91544724152E+03 -0.21750248668E+03  0.23302641656E+03  0.96935747144E+03  0.12699999809E+01 0.  1.
       -4    1    3    3    0  502 -0.91544724152E+03  0.21750248668E+03  0.48284582442E+03  0.10575881461E+04  0.12699999809E+01 0. -1.
</event>
<event>
 5   0  0.5614989E-05  0.1895318E+04  0.7818609E-02  0.8657190E-01
       -1   -1    0    0    0  501  0.00000000000E+00  0.00000000000E+00  0.72484618557E+03  0.72484618558E+03  0.50400001928E-02 0.  1.
        1   -1    0    0  501    0  0.00000000000E+00  0.00000000000E+00 -0.12389627918E+04  0.12389627918E+04  0.50400001928E-02 0. -1.
    10030    2    1    2    0    0  0.00000000000E+00  0.00000000000E+00 -0.51411660623E+03  0.19638089774E+04  0.18953178664E+04 0.  0.
        4    1    3    3  502    0 -0.22998669014E+03  0.83739722608E+03 -0.65014613635E+03  0.10848131652E+04  0.12699999809E+01 0. -1.
       -4    1    3    3    0  502  0.22998669014E+03 -0.83739722608E+03  0.13602953012E+03  0.87899581219E+03  0.12699999809E+01 0.  1.
</event>
<event>
 5   0  0.5824956E-05  0.1868944E+04  0.7818609E-02  0.8670471E-01
       -1   -1    0    0    0  501  0.00000000000E+00  0.00000000000E+00  0.46306397974E+03  0.46306397976E+03  0.50400001928E-02 0. -1.
        1   -1    0    0  501    0  0.00000000000E+00  0.00000000000E+00 -0.18857830951E+04  0.18857830951E+04  0.50400001928E-02 0.  1.
    10030    2    1    2    0    0  0.00000000000E+00  0.00000000000E+00 -0.14227191154E+04  0.23488470749E+04  0.18689443277E+04 0.  0.
        2    1    3    3  502    0  0.37940449339E+02  0.58709226732E+03  0.20110017631E+03  0.62173795844E+03  0.25500000920E-02 0. -1.
       -2    1    3    3    0  502 -0.37940449339E+02 -0.58709226732E+03 -0.16238192917E+04  0.17271091164E+04  0.25500000920E-02 0.  1.
</event>
<event>
 5   0  0.1141890E-04  0.1899301E+04  0.7818609E-02  0.8655205E-01
       -2   -1    0    0    0  501  0.00000000000E+00  0.00000000000E+00  0.56475617239E+03  0.56475617239E+03  0.25500000920E-02 0.  1.
        2   -1    0    0  501    0  0.00000000000E+00  0.00000000000E+00 -0.15968583319E+04  0.15968583319E+04  0.25500000920E-02 0. -1.
    10030    2    1    2    0    0  0.00000000000E+00  0.00000000000E+00 -0.10321021595E+04  0.21616145043E+04  0.18993005022E+04 0.  0.
        2    1    3    3  502    0  0.58289121360E+03 -0.41278450515E+03  0.19623028621E+03  0.74071555932E+03  0.25500000920E-02 0.  1.
       -2    1    3    3    0  502 -0.58289121360E+03  0.41278450515E+03 -0.12283324457E+04  0.14208989450E+04  0.25500000920E-02 0. -1.
</event>
<event>
 5   0  0.5824956E-05  0.1901239E+04  0.7818609E-02  0.8654240E-01
       -1   -1    0    0    0  501  0.00000000000E+00  0.00000000000E+00  0.97104103445E+03  0.97104103446E+03  0.50400001928E-02 0. -1.
        1   -1    0    0  501    0  0.00000000000E+00  0.00000000000E+00 -0.93062715064E+03  0.93062715066E+03  0.50400001928E-02 0.  1.
    10030    2    1    2    0    0  0.00000000000E+00  0.00000000000E+00  0.40413883802E+02  0.19016681851E+04  0.19012387026E+04 0.  0.
        2    1    3    3  502    0  0.95665007017E+02 -0.40047253866E+03 -0.83681045743E+03  0.93262092484E+03  0.25500000920E-02 0.  1.
       -2    1    3    3    0  502 -0.95665007017E+02  0.40047253866E+03  0.87722434123E+03  0.96904726027E+03  0.25500000920E-02 0. -1.
</event>
<event>
 5   0  0.1133638E-04  0.1894008E+04  0.7818609E-02  0.8657845E-01
       -2   -1    0    0    0  501  0.00000000000E+00  0.00000000000E+00  0.97049451596E+03  0.97049451596E+03  0.25500000920E-02 0. -1.
        2   -1    0    0  501    0  0.00000000000E+00  0.00000000000E+00 -0.92408246422E+03  0.92408246423E+03  0.25500000920E-02 0.  1.
    10030    2    1    2    0    0  0.00000000000E+00  0.00000000000E+00  0.46412051738E+02  0.18945769802E+04  0.18940084095E+04 0.  0.
        3    1    3    3  502    0  0.51259331810E+02  0.80900231521E+03 -0.46653740300E+03  0.93529109036E+03  0.10100000352E+00 0.  1.
       -3    1    3    3    0  502 -0.51259331810E+02 -0.80900231521E+03  0.51294945474E+03  0.95928588983E+03  0.10100000352E+00 0. -1.
</event>
<event>
 5   0  0.1182630E-04  0.1888901E+04  0.7818609E-02  0.8660401E-01
       -2   -1    0    0    0  501  0.00000000000E+00  0.00000000000E+00  0.66884574283E+03  0.66884574283E+03  0.25500000920E-02 0.  1.
        2   -1    0    0  501    0  0.00000000000E+00  0.00000000000E+00 -0.13336214736E+04  0.13336214736E+04  0.25500000920E-02 0. -1.
    10030    2    1    2    0    0  0.00000000000E+00  0.00000000000E+00 -0.66477573073E+03  0.20024672164E+04  0.18889013157E+04 0.  0.
        5    1    3    3  502    0 -0.35863397398E+03  0.57643565659E+03  0.36364431748E+03  0.77016600360E+03  0.46999998093E+01 0.  1.
       -5    1    3    3    0  502  0.35863397398E+03 -0.57643565659E+03 -0.10284200482E+04  0.12323012128E+04  0.46999998093E+01 0. -1.
</event>
<event>
 5   0  0.5628936E-05  0.1970087E+04  0.7818609E-02  0.8620735E-01
       -1   -1    0    0    0  501  0.00000000000E+00  0.00000000000E+00  0.92707345839E+03  0.92707345841E+03  0.50400001928E-02 0.  1.
        1   -1    0    0  501    0  0.00000000000E+00  0.00000000000E+00 -0.10466384048E+04  0.10466384049E+04  0.50400001928E-02 0. -1.
    10030    2    1    2    0    0  0.00000000000E+00  0.00000000000E+00 -0.11956494645E+03  0.19737118633E+04  0.19700869886E+04 0.  0.
        5    1    3    3  502    0 -0.50093842013E+03 -0.23382906952E+03  0.75699255783E+03  0.93737674236E+03  0.46999998093E+01 0.  1.
       -5    1    3    3    0  502  0.50093842013E+03  0.23382906952E+03 -0.87655750428E+03  0.10363351209E+04  0.46999998093E+01 0. -1.
</event>
<event>
 5   0  0.5579109E-05  0.1899494E+04  0.7818609E-02  0.8655108E-01
        1   -1    0    0  501    0  0.00000000000E+00  0.00000000000E+00  0.97802169601E+03  0.97802169602E+03  0.50400001928E-02 0. -1.
       -1   -1    0    0    0  501  0.00000000000E+00  0.00000000000E+00 -0.92228972494E+03  0.92228972496E+03  0.50400001928E-02 0.  1.
    10030    2    1    2    0    0  0.00000000000E+00  0.00000000000E+00  0.55731971067E+02  0.19003114210E+04  0.18994939969E+04 0.  0.
        3    1    3    3  502    0 -0.60883508518E+03 -0.48882555248E+03  0.56882853060E+03  0.96602095688E+03  0.10100000352E+00 0. -1.
       -3    1    3    3    0  502  0.60883508518E+03  0.48882555248E+03 -0.51309655953E+03  0.93429046410E+03  0.10100000352E+00 0.  1.
</event>
<event>
 5   0  0.1133638E-04  0.1915042E+04  0.7818609E-02  0.8647405E-01
       -2   -1    0    0    0  501  0.00000000000E+00  0.00000000000E+00  0.45283899359E+03  0.45283899360E+03  0.25500000920E-02 0.  1.
        2   -1    0    0  501    0  0.00000000000E+00  0.00000000000E+00 -0.20246636429E+04  0.20246636429E+04  0.25500000920E-02 0. -1.
    10030    2    1    2    0    0  0.00000000000E+00  0.00000000000E+00 -0.15718246493E+04  0.24775026365E+04  0.19150421890E+04 0.  0.
        3    1    3    3  502    0  0.10550147155E+03 -0.39261726416E+03  0.33564080115E+03  0.52719411436E+03  0.10100000352E+00 0.  1.
       -3    1    3    3    0  502 -0.10550147155E+03  0.39261726416E+03 -0.19074654505E+04  0.19503085221E+04  0.10100000352E+00 0. -1.
</event>
<event>
 5   0  0.1118206E-04  0.1900291E+04  0.7818609E-02  0.8654711E-01
        2   -1    0    0  501    0  0.00000000000E+00  0.00000000000E+00  0.16711229070E+04  0.16711229070E+04  0.25500000920E-02 0. -1.
       -2   -1    0    0    0  501  0.00000000000E+00  0.00000000000E+00 -0.54022166293E+03  0.54022166294E+03  0.25500000920E-02 0.  1.
    10030    2    1    2    0    0  0.00000000000E+00  0.00000000000E+00  0.11309012441E+04  0.22113445700E+04  0.19002913417E+04 0.  0.
        1    1    3    3  502    0 -0.42730548276E+03 -0.22464894688E+03 -0.38686905357E+03  0.61864754874E+03  0.50400001928E-02 0.  1.
       -1    1    3    3    0  502  0.42730548276E+03  0.22464894688E+03  0.15177702977E+04  0.15926970212E+04  0.50400001928E-02 0. -1.
</event>
<event>
 5   0  0.1118206E-04  0.1902162E+04  0.7818609E-02  0.8653781E-01
        2   -1    0    0  501    0  0.00000000000E+00  0.00000000000E+00  0.38528480437E+03  0.38528480438E+03  0.25500000920E-02 0.  1.
       -2   -1    0    0    0  501  0.00000000000E+00  0.00000000000E+00 -0.23477575196E+04  0.23477575196E+04  0.25500000920E-02 0. -1.
    10030    2    1    2    0    0  0.00000000000E+00  0.00000000000E+00 -0.19624727152E+04  0.27330423240E+04  0.19021622399E+04 0.  0.
        1    1    3    3  502    0 -0.14504435859E+03 -0.37858953455E+03 -0.22173820039E+04  0.22541408236E+04  0.50400001928E-02 0. -1.
       -1    1    3    3    0  502  0.14504435859E+03  0.37858953455E+03  0.25490928861E+03  0.47890150039E+03  0.50400001928E-02 0.  1.
</event>
<event>
 5   0  0.1141890E-04  0.1872682E+04  0.7818609E-02  0.8668575E-01
       -2   -1    0    0    0  501  0.00000000000E+00  0.00000000000E+00  0.54809845550E+03  0.54809845551E+03  0.25500000920E-02 0. -1.
        2   -1    0    0  501    0  0.00000000000E+00  0.00000000000E+00 -0.15995937857E+04  0.15995937857E+04  0.25500000920E-02 0.  1.
    10030    2    1    2    0    0  0.00000000000E+00  0.00000000000E+00 -0.10514953302E+04  0.21476922412E+04  0.18726824433E+04 0.  0.
        2    1    3    3  502    0 -0.68554529413E+03 -0.63298342760E+03 -0.61527948838E+03  0.11176802847E+04  0.25500000920E-02 0. -1.
       -2    1    3    3    0  502  0.68554529413E+03  0.63298342760E+03 -0.43621584180E+03  0.10300119565E+04  0.25500000920E-02 0.  1.
</event>
<event>
 5   0  0.5841424E-05  0.1887973E+04  0.7818609E-02  0.8660866E-01
       -1   -1    0    0    0  501  0.00000000000E+00  0.00000000000E+00  0.76547086997E+03  0.76547086998E+03  0.50400001928E-02 0. -1.
        1   -1    0    0  501    0  0.00000000000E+00  0.00000000000E+00 -0.11641340747E+04  0.11641340747E+04  0.50400001928E-02 0.  1.
    10030    2    1    2    0    0  0.00000000000E+00  0.00000000000E+00 -0.39866320469E+03  0.19296049446E+04  0.18879732232E+04 0.  0.
        1    1    3    3  502    0  0.42392646290E+03  0.21909703092E+03 -0.10317816856E+04  0.11367896031E+04  0.50400001928E-02 0.  1.
       -1    1    3    3    0  502 -0.42392646290E+03 -0.21909703092E+03  0.63311848092E+03  0.79281534156E+03  0.50400001928E-02 0. -1.
</event>
<event>
 5   0  0.1118206E-04  0.1909393E+04  0.7818609E-02  0.8650195E-01
       -2   -1    0    0    0  501  0.00000000000E+00  0.00000000000E+00  0.46445536974E+03  0.46445536975E+03  0.25500000920E-02 0.  1.
        2   -1    0    0  501    0  0.00000000000E+00  0.00000000000E+00 -0.19623953652E+04  0.19623953652E+04  0.25500000920E-02 0. -1.
    10030    2    1    2    0    0  0.00000000000E+00  0.00000000000E+00 -0.14979399955E+04  0.24268507350E+04  0.19093926416E+04 0.  0.
        1    1    3    3  502    0  0.52363076597E+03 -0.12964738696E+03 -0.17501226906E+04  0.18313729976E+04  0.50400001928E-02 0. -1.
       -1    1    3    3    0  502 -0.52363076597E+03  0.12964738696E+03  0.25218269511E+03  0.59547773742E+03  0.50400001928E-02 0.  1.
</event>
<event>
 5   0  0.1101678E-04  0.1899146E+04  0.7818609E-02  0.8655282E-01
       -2   -1    0    0    0  501  0.00000000000E+00  0.00000000000E+00  0.63915249624E+03  0.63915249624E+03  0.25500000920E-02 0.  1.
        2   -1    0    0  501    0  0.00000000000E+00  0.00000000000E+00 -0.14107563294E+04  0.14107563294E+04  0.25500000920E-02 0. -1.
    10030    2    1    2    0    0  0.00000000000E+00  0.00000000000E+00 -0.77160383315E+03  0.20499088256E+04  0.18991455231E+04 0.  0.
        4    1    3    3  502    0 -0.19272184330E+03  0.80947807291E+03  0.10799788465E+03  0.83908379522E+03  0.12699999809E+01 0.  1.
       -4    1    3    3    0  502  0.19272184330E+03 -0.80947807291E+03 -0.87960171780E+03  0.12108250304E+04  0.12699999809E+01 0. -1.
</event>
<event>
 5   0  0.1133638E-04  0.1900102E+04  0.7818609E-02  0.8654806E-01
       -2   -1    0    0    0  501  0.00000000000E+00  0.00000000000E+00  0.85791784585E+03  0.85791784585E+03  0.25500000920E-02 0. -1.
        2   -1    0    0  501    0  0.00000000000E+00  0.00000000000E+00 -0.10520784438E+04  0.10520784438E+04  0.25500000920E-02 0.  1.
    10030    2    1    2    0    0  0.00000000000E+00  0.00000000000E+00 -0.19416059798E+03  0.19099962897E+04  0.19001019680E+04 0.  0.
        3    1    3    3  502    0  0.48119249144E+03  0.77577272810E+03 -0.36156124110E+03  0.98188394464E+03  0.10100000352E+00 0. -1.
       -3    1    3    3    0  502 -0.48119249144E+03 -0.77577272810E+03  0.16740064312E+03  0.92811234503E+03  0.10100000352E+00 0.  1.
</event>
<event>
 5   0  0.5628936E-05  0.1898053E+04  0.7818609E-02  0.8655826E-01
       -1   -1    0    0    0  501  0.00000000000E+00  0.00000000000E+00  0.99365462351E+03  0.99365462352E+03  0.50400001928E-02 0. -1.
        1   -1    0    0  501    0  0.00000000000E+00  0.00000000000E+00 -0.90640237268E+03  0.90640237269E+03  0.50400001928E-02 0.  1.
    10030    2    1    2    0    0  0.00000000000E+00  0.00000000000E+00  0.87252250835E+02  0.19000569962E+04  0.18980525898E+04 0.  0.
        5    1    3    3  502    0 -0.69574485264E+03  0.37411985399E+03  0.57011141870E+03  0.97420515542E+03  0.46999998093E+01 0. -1.
       -5    1    3    3    0  502  0.69574485264E+03 -0.37411985399E+03 -0.48285916786E+03  0.92585184080E+03  0.46999998093E+01 0.  1.
</event>
<event>
 5   0  0.5824956E-05  0.1908699E+04  0.7818609E-02  0.8650539E-01
       -1   -1    0    0    0  501  0.00000000000E+00  0.00000000000E+00  0.37004740125E+03  0.37004740128E+03  0.50400001928E-02 0. -1.
        1   -1    0    0  501    0  0.00000000000E+00  0.00000000000E+00 -0.24612593428E+04  0.24612593428E+04  0.50400001928E-02 0.  1.
    10030    2    1    2    0    0  0.00000000000E+00  0.00000000000E+00 -0.20912119416E+04  0.28313067441E+04  0.19086986390E+04 0.  0.
        2    1    3    3  502    0 -0.18817544895E+02 -0.53594007422E+03  0.12540820681E+03  0.55073866896E+03  0.25500000920E-02 0. -1.
       -2    1    3    3    0  502  0.18817544895E+02  0.53594007422E+03 -0.22166201484E+04  0.22805680752E+04  0.25500000920E-02 0.  1.
</event>
<event>
 5   0  0.1118206E-04  0.1901199E+04  0.7818609E-02  0.8654260E-01
       -2   -1    0    0    0  501  0.00000000000E+00  0.00000000000E+00  0.86863803843E+03  0.86863803843E+03  0.25500000920E-02 0. -1.
        2   -1    0    0  501    0  0.00000000000E+00  0.00000000000E+00 -0.10402948843E+04  0.10402948843E+04  0.25500000920E-02 0.  1.
    10030    2    1    2    0    0  0.00000000000E+00  0.00000000000E+00 -0.17165684585E+03  0.19089329227E+04  0.19011993138E+04 0.  0.
        1    1    3    3  502    0 -0.35197623951E+03  0.81364047018E+03  0.25870235305E+03  0.92348524373E+03  0.50400001928E-02 0. -1.
       -1    1    3    3    0  502  0.35197623951E+03 -0.81364047018E+03 -0.43035919890E+03  0.98544767898E+03  0.50400001928E-02 0.  1.
</event>
<event>
 5   0  0.1101678E-04  0.1897405E+04  0.7818609E-02  0.8656149E-01
       -2   -1    0    0    0  501  0.00000000000E+00  0.00000000000E+00  0.38314855412E+03  0.38314855413E+03  0.25500000920E-02 0.  1.
        2   -1    0    0  501    0  0.00000000000E+00  0.00000000000E+00 -0.23490522611E+04  0.23490522611E+04  0.25500000920E-02 0. -1.
    10030    2    1    2    0    0  0.00000000000E+00  0.00000000000E+00 -0.19659037070E+04  0.27322008152E+04  0.18974045192E+04 0.  0.
        4    1    3    3  502    0 -0.17800430183E+03  0.77525426855E+02  0.35423349542E+03  0.40395384075E+03  0.12699999809E+01 0.  1.
       -4    1    3    3    0  502  0.17800430183E+03 -0.77525426855E+02 -0.23201372024E+04  0.23282469745E+04  0.12699999809E+01 0. -1.
</event>
<event>
 5   0  0.1133638E-04  0.1712048E+04  0.7818609E-02  0.8754523E-01
        2   -1    0    0  501    0  0.00000000000E+00  0.00000000000E+00  0.16355140000E+04  0.16355140000E+04  0.25500000920E-02 0.  1.
       -2   -1    0    0    0  501  0.00000000000E+00  0.00000000000E+00 -0.44804078758E+03  0.44804078759E+03  0.25500000920E-02 0. -1.
    10030    2    1    2    0    0  0.00000000000E+00  0.00000000000E+00  0.11874732124E+04  0.20835547876E+04  0.17120478740E+04 0.  0.
        3    1    3    3  502    0 -0.78490213259E+03 -0.34054065760E+03  0.62679037910E+03  0.10606156169E+04  0.10100000352E+00 0. -1.
       -3    1    3    3    0  502  0.78490213259E+03  0.34054065760E+03  0.56068283332E+03  0.10229391707E+04  0.10100000352E+00 0.  1.
</event>
<event>
 5   0  0.5579109E-05  0.1908973E+04  0.7818609E-02  0.8650403E-01
        1   -1    0    0  501    0  0.00000000000E+00  0.00000000000E+00  0.15365405234E+04  0.15365405234E+04  0.50400001928E-02 0. -1.
       -1   -1    0    0    0  501  0.00000000000E+00  0.00000000000E+00 -0.59291910495E+03  0.59291910497E+03  0.50400001928E-02 0.  1.
    10030    2    1    2    0    0  0.00000000000E+00  0.00000000000E+00  0.94362141847E+03  0.21294596284E+04  0.19089727415E+04 0.  0.
        3    1    3    3  502    0 -0.69728116840E+03 -0.36398317714E+03 -0.13134333607E+03  0.79745586911E+03  0.10100000352E+00 0.  1.
       -3    1    3    3    0  502  0.69728116840E+03  0.36398317714E+03  0.10749647545E+04  0.13320037593E+04  0.10100000352E+00 0. -1.
</event>
<event>
 5   0  0.1141890E-04  0.1895677E+04  0.7818609E-02  0.8657011E-01
        2   -1    0    0  501    0  0.00000000000E+00  0.00000000000E+00  0.24356887995E+04  0.24356887995E+04  0.25500000920E-02 0. -1.
       -2   -1    0    0    0  501  0.00000000000E+00  0.00000000000E+00 -0.36884743130E+03  0.36884743131E+03  0.25500000920E-02 0.  1.
    10030    2    1    2    0    0  0.00000000000E+00  0.00000000000E+00  0.20668413682E+04  0.28045362308E+04  0.18956767205E+04 0.  0.
        2    1    3    3  502    0  0.58765982728E+03 -0.30829833392E+03  0.32194537602E+02  0.66440080039E+03  0.25500000920E-02 0.  1.
       -2    1    3    3    0  502 -0.58765982728E+03  0.30829833392E+03  0.20346468306E+04  0.21401354304E+04  0.25500000920E-02 0. -1.
</event>
<event>
 5   0  0.5841424E-05  0.1892530E+04  0.7818609E-02  0.8658584E-01
        1   -1    0    0  501    0  0.00000000000E+00  0.00000000000E+00  0.21175550263E+04  0.21175550263E+04  0.50400001928E-02 0. -1.
       -1   -1    0    0    0  501  0.00000000000E+00  0.00000000000E+00 -0.42285441948E+03  0.42285441951E+03  0.50400001928E-02 0.  1.
    10030    2    1    2    0    0  0.00000000000E+00  0.00000000000E+00  0.16947006068E+04  0.25404094458E+04  0.18925300541E+04 0.  0.
        1    1    3    3  502    0 -0.61930769100E+03  0.52476582540E+03  0.15001397456E+04  0.17056788807E+04  0.50400001928E-02 0. -1.
       -1    1    3    3    0  502  0.61930769100E+03 -0.52476582540E+03  0.19456086123E+03  0.83473056514E+03  0.50400001928E-02 0.  1.
</event>
<event>
 5   0  0.5824956E-05  0.1894812E+04  0.7818609E-02  0.8657443E-01
       -1   -1    0    0    0  501  0.00000000000E+00  0.00000000000E+00  0.41753709479E+03  0.41753709482E+03  0.50400001928E-02 0.  1.
        1   -1    0    0  501    0  0.00000000000E+00  0.00000000000E+00 -0.21496960383E+04  0.21496960383E+04  0.50400001928E-02 0. -1.
    10030    2    1    2    0    0  0.00000000000E+00  0.00000000000E+00 -0.17321589435E+04  0.25672331331E+04  0.18948116936E+04 0.  0.
        2    1    3    3  502    0 -0.55882626769E+02  0.76509517964E+02 -0.21432612575E+04  0.21453543745E+04  0.25500000920E-02 0. -1.
       -2    1    3    3    0  502  0.55882626769E+02 -0.76509517964E+02  0.41110231404E+03  0.42187875857E+03  0.25500000920E-02 0.  1.
</event>
<event>
 5   0  0.1182630E-04  0.1910051E+04  0.7818609E-02  0.8649870E-01
       -2   -1    0    0    0  501  0.00000000000E+00  0.00000000000E+00  0.12472386129E+04  0.12472386129E+04  0.25500000920E-02 0. -1.
        2   -1    0    0  501    0  0.00000000000E+00  0.00000000000E+00 -0.73127430299E+03  0.73127430300E+03  0.25500000920E-02 0.  1.
    10030    2    1    2    0    0  0.00000000000E+00  0.00000000000E+00  0.51596430989E+03  0.19785129159E+04  0.19100508342E+04 0.  0.
        5    1    3    3  502    0 -0.48986576428E+03 -0.67221089744E+03 -0.22810920923E+03  0.86249165734E+03  0.46999998093E+01 0. -1.
       -5    1    3    3    0  502  0.48986576428E+03  0.67221089744E+03  0.74407351912E+03  0.11160212585E+04  0.46999998093E+01 0.  1.
</event>
<event>
 5   0  0.5841424E-05  0.1885051E+04  0.7818609E-02  0.8662333E-01
       -1   -1    0    0    0  501  0.00000000000E+00  0.00000000000E+00  0.10383835286E+04  0.10383835287E+04  0.50400001928E-02 0.  1.
        1   -1    0    0  501    0  0.00000000000E+00  0.00000000000E+00 -0.85551682466E+03  0.85551682468E+03  0.50400001928E-02 0. -1.
    10030    2    1    2    0    0  0.00000000000E+00  0.00000000000E+00  0.18286670398E+03  0.18939003533E+04  0.18850512770E+04 0.  0.
        1    1    3    3  502    0  0.12970410944E+03  0.23198854512E+03  0.99995302997E+03  0.10346728484E+04  0.50400001928E-02 0.  1.
       -1    1    3    3    0  502 -0.12970410944E+03 -0.23198854512E+03 -0.81708632598E+03  0.85922750492E+03  0.50400001928E-02 0. -1.
</event>
<event>
 5   0  0.1101678E-04  0.1894919E+04  0.7818609E-02  0.8657390E-01
        2   -1    0    0  501    0  0.00000000000E+00  0.00000000000E+00  0.13052653895E+04  0.13052653895E+04  0.25500000920E-02 0. -1.
       -2   -1    0    0    0  501  0.00000000000E+00  0.00000000000E+00 -0.68773705269E+03  0.68773705269E+03  0.25500000920E-02 0.  1.
    10030    2    1    2    0    0  0.00000000000E+00  0.00000000000E+00  0.61752833682E+03  0.19930024422E+04  0.18949188605E+04 0.  0.
        4    1    3    3  502    0 -0.11564295109E+03  0.93765579360E+03  0.23360862751E+03  0.97321440760E+03  0.12699999809E+01 0.  1.
       -4    1    3    3    0  502  0.11564295109E+03 -0.93765579360E+03  0.38391970931E+03  0.10197880346E+04  0.12699999809E+01 0. -1.
</event>
<event>
 5   0  0.4061125E-05  0.1920820E+04  0.7818609E-02  0.8644562E-01
        3   -1    0    0  501    0  0.00000000000E+00  0.00000000000E+00  0.92357599561E+03  0.92357600113E+03  0.10100000352E+00 0.  1.
       -3   -1    0    0    0  501  0.00000000000E+00  0.00000000000E+00 -0.99871305833E+03  0.99871306344E+03  0.10100000352E+00 0. -1.
    10030    2    1    2    0    0  0.00000000000E+00  0.00000000000E+00 -0.75137062728E+02  0.19222890646E+04  0.19208200513E+04 0.  0.
        5    1    3    3  502    0 -0.53277641495E+03  0.79070837239E+03 -0.15296017799E+03  0.96565487860E+03  0.46999998093E+01 0.  1.
       -5    1    3    3    0  502  0.53277641495E+03 -0.79070837239E+03  0.77823115264E+02  0.95663418597E+03  0.46999998093E+01 0. -1.
</event>
<event>
 5   0  0.1133638E-04  0.1900206E+04  0.7818609E-02  0.8654754E-01
       -2   -1    0    0    0  501  0.00000000000E+00  0.00000000000E+00  0.61246652039E+03  0.61246652039E+03  0.25500000920E-02 0. -1.
        2   -1    0    0  501    0  0.00000000000E+00  0.00000000000E+00 -0.14738692168E+04  0.14738692168E+04  0.25500000920E-02 0.  1.
    10030    2    1    2    0    0  0.00000000000E+00  0.00000000000E+00 -0.86140269641E+03  0.20863357372E+04  0.19002058317E+04 0.  0.
        3    1    3    3  502    0 -0.51650226658E+03 -0.21495430028E+03  0.41244867852E+03  0.69504954155E+03  0.10100000352E+00 0. -1.
       -3    1    3    3    0  502  0.51650226658E+03  0.21495430028E+03 -0.12738513749E+04  0.13912861957E+04  0.10100000352E+00 0.  1.
</event>
<event>
 5   0  0.1133638E-04  0.1880936E+04  0.7818609E-02  0.8664404E-01
        2   -1    0    0  501    0  0.00000000000E+00  0.00000000000E+00  0.68488781458E+03  0.68488781458E+03  0.25500000920E-02 0. -1.
       -2   -1    0    0    0  501  0.00000000000E+00  0.00000000000E+00 -0.12914238774E+04  0.12914238774E+04  0.25500000920E-02 0.  1.
    10030    2    1    2    0    0  0.00000000000E+00  0.00000000000E+00 -0.60653606283E+03  0.19763116920E+04  0.18809364445E+04 0.  0.
        3    1    3    3  502    0  0.27339527478E+03 -0.89975631328E+03 -0.31713048041E+03  0.99241027371E+03  0.10100000352E+00 0.  1.
       -3    1    3    3    0  502 -0.27339527478E+03  0.89975631328E+03 -0.28940558242E+03  0.98390141828E+03  0.10100000352E+00 0. -1.
</event>
<event>
 5   0  0.5628936E-05  0.1903052E+04  0.7818609E-02  0.8653339E-01
        1   -1    0    0  501    0  0.00000000000E+00  0.00000000000E+00  0.63157426888E+03  0.63157426890E+03  0.50400001928E-02 0. -1.
       -1   -1    0    0    0  501  0.00000000000E+00  0.00000000000E+00 -0.14335630116E+04  0.14335630117E+04  0.50400001928E-02 0.  1.
    10030    2    1    2    0    0  0.00000000000E+00  0.00000000000E+00 -0.80198874277E+03  0.20651372806E+04  0.19030517712E+04 0.  0.
        5    1    3    3  502    0  0.24589774287E+03 -0.85189250073E+03 -0.77564243775E+03  0.11780618889E+04  0.46999998093E+01 0.  1.
       -5    1    3    3    0  502 -0.24589774287E+03  0.85189250073E+03 -0.26346305020E+02  0.88707539169E+03  0.46999998093E+01 0. -1.
</event>
<event>
 5   0  0.1141890E-04  0.1895795E+04  0.7818609E-02  0.8656952E-01
        2   -1    0    0  501    0  0.00000000000E+00  0.00000000000E+00  0.10510820369E+04  0.10510820369E+04  0.25500000920E-02 0. -1.
       -2   -1    0    0    0  501  0.00000000000E+00  0.00000000000E+00 -0.85484280831E+03  0.85484280831E+03  0.25500000920E-02 0.  1.
    10030    2    1    2    0    0  0.00000000000E+00  0.00000000000E+00  0.19623922855E+03  0.19059248452E+04  0.18957952634E+04 0.  0.
        2    1    3    3  502    0  0.33489491182E+03  0.24644051112E+03  0.95450584488E+03  0.10411382883E+04  0.25500000920E-02 0. -1.
       -2    1    3    3    0  502 -0.33489491182E+03 -0.24644051112E+03 -0.75826661633E+03  0.86478655686E+03  0.25500000920E-02 0.  1.
</event>
<event>
 5   0  0.1101678E-04  0.1888732E+04  0.7818609E-02  0.8660485E-01
        2   -1    0    0  501    0  0.00000000000E+00  0.00000000000E+00  0.93919292022E+03  0.93919292022E+03  0.25500000920E-02 0.  1.
       -2   -1    0    0    0  501  0.00000000000E+00  0.00000000000E+00 -0.94956788437E+03  0.94956788438E+03  0.25500000920E-02 0. -1.
    10030    2    1    2    0    0  0.00000000000E+00  0.00000000000E+00 -0.10374964158E+02  0.18887608046E+04  0.18887323095E+04 0.  0.
        4    1    3    3  502    0  0.29605955917E+03  0.17607138903E+03 -0.88450355408E+03  0.94921048598E+03  0.12699999809E+01 0. -1.
       -4    1    3    3    0  502 -0.29605955917E+03 -0.17607138903E+03  0.87412858992E+03  0.93955031862E+03  0.12699999809E+01 0.  1.
</event>
<event>
 5   0  0.1101678E-04  0.1905582E+04  0.7818609E-02  0.8652083E-01
        2   -1    0    0  501    0  0.00000000000E+00  0.00000000000E+00  0.11150679573E+04  0.11150679573E+04  0.25500000920E-02 0. -1.
       -2   -1    0    0    0  501  0.00000000000E+00  0.00000000000E+00 -0.81413019984E+03  0.81413019985E+03  0.25500000920E-02 0.  1.
    10030    2    1    2    0    0  0.00000000000E+00  0.00000000000E+00  0.30093775742E+03  0.19291981571E+04  0.19055817998E+04 0.  0.
        4    1    3    3  502    0  0.74574569624E+03 -0.68701068166E+02  0.74679549476E+03  0.10576207279E+04  0.12699999809E+01 0.  1.
       -4    1    3    3    0  502 -0.74574569624E+03  0.68701068166E+02 -0.44585773734E+03  0.87157742919E+03  0.12699999809E+01 0. -1.
</event>
<event>
 5   0  0.5614989E-05  0.1905867E+04  0.7818609E-02  0.8651941E-01
       -1   -1    0    0    0  501  0.00000000000E+00  0.00000000000E+00  0.16826305451E+04  0.16826305451E+04  0.50400001928E-02 0. -1.
        1   -1    0    0  501    0  0.00000000000E+00  0.00000000000E+00 -0.53968030668E+03  0.53968030671E+03  0.50400001928E-02 0.  1.
    10030    2    1    2    0    0  0.00000000000E+00  0.00000000000E+00  0.11429502384E+04  0.22223108518E+04  0.19058673287E+04 0.  0.
        4    1    3    3  502    0 -0.59728053172E+03 -0.74250958491E+03  0.57620274807E+03  0.11135868790E+04  0.12699999809E+01 0. -1.
       -4    1    3    3    0  502  0.59728053172E+03  0.74250958491E+03  0.56674749037E+03  0.11087239729E+04  0.12699999809E+01 0.  1.
</event>
<event>
 5   0  0.5628936E-05  0.1882726E+04  0.7818609E-02  0.8663503E-01
       -1   -1    0    0    0  501  0.00000000000E+00  0.00000000000E+00  0.91101633653E+03  0.91101633654E+03  0.50400001928E-02 0.  1.
        1   -1    0    0  501    0  0.00000000000E+00  0.00000000000E+00 -0.97272026650E+03  0.97272026652E+03  0.50400001928E-02 0. -1.
    10030    2    1    2    0    0  0.00000000000E+00  0.00000000000E+00 -0.61703929974E+02  0.18837366031E+04  0.18827257407E+04 0.  0.
        5    1    3    3  502    0  0.52570808728E+03 -0.55125584528E+03  0.52251818713E+03  0.92374203427E+03  0.46999998093E+01 0.  1.
       -5    1    3    3    0  502 -0.52570808728E+03  0.55125584528E+03 -0.58422211711E+03  0.95999456879E+03  0.46999998093E+01 0. -1.
</event>
<event>
 5   0  0.5841424E-05  0.1894878E+04  0.7818609E-02  0.8657410E-01
       -1   -1    0    0    0  501  0.00000000000E+00  0.00000000000E+00  0.11218733377E+04  0.11218733377E+04  0.50400001928E-02 0. -1.
        1   -1    0    0  501    0  0.00000000000E+00  0.00000000000E+00 -0.80012673194E+03  0.80012673196E+03  0.50400001928E-02 0.  1.
    10030    2    1    2    0    0  0.00000000000E+00  0.00000000000E+00  0.32174660577E+03  0.19220000697E+04  0.18948781991E+04 0.  0.
        1    1    3    3  502    0 -0.75155654658E+03 -0.50751457372E+03 -0.11733816397E+03  0.91442688609E+03  0.50400001928E-02 0. -1.
       -1    1    3    3    0  502  0.75155654658E+03  0.50751457372E+03  0.43908476974E+03  0.10075731836E+04  0.50400001928E-02 0.  1.
</event>
<event>
 5   0  0.5614989E-05  0.1898940E+04  0.7818609E-02  0.8655384E-01
        1   -1    0    0  501    0  0.00000000000E+00  0.00000000000E+00  0.79375551283E+03  0.79375551284E+03  0.50400001928E-02 0. -1.
       -1   -1    0    0    0  501  0.00000000000E+00  0.00000000000E+00 -0.11357320384E+04  0.11357320384E+04  0.50400001928E-02 0.  1.
    10030    2    1    2    0    0  0.00000000000E+00  0.00000000000E+00 -0.34197652560E+03  0.19294875513E+04  0.18989403009E+04 0.  0.
        4    1    3    3  502    0  0.93681881747E+03 -0.11114109030E+03 -0.61977218302E+02  0.94542298851E+03  0.12699999809E+01 0. -1.
       -4    1    3    3    0  502 -0.93681881747E+03  0.11114109030E+03 -0.27999930730E+03  0.98406456277E+03  0.12699999809E+01 0.  1.
</event>
<event>
 5   0  0.5841424E-05  0.1888323E+04  0.7818609E-02  0.8660691E-01
        1   -1    0    0  501    0  0.00000000000E+00  0.00000000000E+00  0.64429049499E+03  0.64429049501E+03  0.50400001928E-02 0.  1.
       -1   -1    0    0    0  501  0.00000000000E+00  0.00000000000E+00 -0.13836006816E+04  0.13836006816E+04  0.50400001928E-02 0. -1.
    10030    2    1    2    0    0  0.00000000000E+00  0.00000000000E+00 -0.73931018662E+03  0.20278911766E+04  0.18883228199E+04 0.  0.
        1    1    3    3  502    0 -0.62371825001E+03 -0.70196338455E+03 -0.47522510243E+03  0.10524333455E+04  0.50400001928E-02 0. -1.
       -1    1    3    3    0  502  0.62371825001E+03  0.70196338455E+03 -0.26408508419E+03  0.97545783116E+03  0.50400001928E-02 0.  1.
</event>
<event>
 5   0  0.1141890E-04  0.1878076E+04  0.7818609E-02  0.8665847E-01
       -2   -1    0    0    0  501  0.00000000000E+00  0.00000000000E+00  0.87865143566E+03  0.87865143567E+03  0.25500000920E-02 0. -1.
        2   -1    0    0  501    0  0.00000000000E+00  0.00000000000E+00 -0.10035747255E+04  0.10035747255E+04  0.25500000920E-02 0.  1.
    10030    2    1    2    0    0  0.00000000000E+00  0.00000000000E+00 -0.12492328985E+03  0.18822261612E+04  0.18780760084E+04 0.  0.
        2    1    3    3  502    0 -0.33347966365E+01 -0.47261478253E+03 -0.87568342210E+03  0.99508658381E+03  0.25500000920E-02 0.  1.
       -2    1    3    3    0  502  0.33347966365E+01  0.47261478253E+03  0.75076013226E+03  0.88713957736E+03  0.25500000920E-02 0. -1.
</event>
<event>
 5   0  0.5614989E-05  0.1898277E+04  0.7818609E-02  0.8655714E-01
       -1   -1    0    0    0  501  0.00000000000E+00  0.00000000000E+00  0.73989820807E+03  0.73989820808E+03  0.50400001928E-02 0. -1.
        1   -1    0    0  501    0  0.00000000000E+00  0.00000000000E+00 -0.12175514591E+04  0.12175514591E+04  0.50400001928E-02 0.  1.
    10030    2    1    2    0    0  0.00000000000E+00  0.00000000000E+00 -0.47765325099E+03  0.19574496672E+04  0.18982772641E+04 0.  0.
        4    1    3    3  502    0  0.67290933746E+03 -0.31543107442E+03  0.36996543167E+03  0.83016852066E+03  0.12699999809E+01 0. -1.
       -4    1    3    3    0  502 -0.67290933746E+03  0.31543107442E+03 -0.84761868266E+03  0.11272811465E+04  0.12699999809E+01 0.  1.
</event>
<event>
 5   0  0.1101678E-04  0.1902082E+04  0.7818609E-02  0.8653821E-01
        2   -1    0    0  501    0  0.00000000000E+00  0.00000000000E+00  0.12628960179E+04  0.12628960179E+04  0.25500000920E-02 0.  1.
       -2   -1    0    0    0  501  0.00000000000E+00  0.00000000000E+00 -0.71619460983E+03  0.71619460984E+03  0.25500000920E-02 0. -1.
    10030    2    1    2    0    0  0.00000000000E+00  0.00000000000E+00  0.54670140810E+03  0.19790906278E+04  0.19020823545E+04 0.  0.
        4    1    3    3  502    0  0.40167324008E+03 -0.37703051336E+03 -0.53326733783E+03  0.76672620035E+03  0.12699999809E+01 0. -1.
       -4    1    3    3    0  502 -0.40167324008E+03  0.37703051336E+03  0.10799687459E+04  0.12123644274E+04  0.12699999809E+01 0.  1.
</event>
<event>
 5   0  0.5841424E-05  0.1903847E+04  0.7818609E-02  0.8652944E-01
       -1   -1    0    0    0  501  0.00000000000E+00  0.00000000000E+00  0.10652408432E+04  0.10652408432E+04  0.50400001928E-02 0. -1.
        1   -1    0    0  501    0  0.00000000000E+00  0.00000000000E+00 -0.85066024902E+03  0.85066024904E+03  0.50400001928E-02 0.  1.
    10030    2    1    2    0    0  0.00000000000E+00  0.00000000000E+00  0.21458059414E+03  0.19159010922E+04  0.19038466755E+04 0.  0.
        1    1    3    3  502    0 -0.61077917286E+03  0.33790449388E+03 -0.54405382175E+03  0.88500011637E+03  0.50400001928E-02 0.  1.
       -1    1    3    3    0  502  0.61077917286E+03 -0.33790449388E+03  0.75863441589E+03  0.10309009758E+04  0.50400001928E-02 0. -1.
</event>
<event>
 5   0  0.5628936E-05  0.1859991E+04  0.7818609E-02  0.8675032E-01
       -1   -1    0    0    0  501  0.00000000000E+00  0.00000000000E+00  0.93566371320E+03  0.93566371321E+03  0.50400001928E-02 0. -1.
        1   -1    0    0  501    0  0.00000000000E+00  0.00000000000E+00 -0.92436166558E+03  0.92436166559E+03  0.50400001928E-02 0.  1.
    10030    2    1    2    0    0  0.00000000000E+00  0.00000000000E+00  0.11302047622E+02  0.18600253788E+04  0.18599910412E+04 0.  0.
        5    1    3    3  502    0 -0.49800907021E+03 -0.22261034016E+03 -0.74755686719E+03  0.92543598225E+03  0.46999998093E+01 0.  1.
       -5    1    3    3    0  502  0.49800907021E+03  0.22261034016E+03  0.75885891481E+03  0.93458939655E+03  0.46999998093E+01 0. -1.
</event>
<event>
 5   0  0.1141890E-04  0.1703606E+04  0.7818609E-02  0.8759310E-01
       -2   -1    0    0    0  501  0.00000000000E+00  0.00000000000E+00  0.46662600290E+03  0.46662600291E+03  0.25500000920E-02 0. -1.
        2   -1    0    0  501    0  0.00000000000E+00  0.00000000000E+00 -0.15549248236E+04  0.15549248236E+04  0.25500000920E-02 0.  1.
    10030    2    1    2    0    0  0.00000000000E+00  0.00000000000E+00 -0.10882988207E+04  0.20215508265E+04  0.17036060052E+04 0.  0.
        2    1    3    3  502    0 -0.50288549086E+03  0.11359452052E+03 -0.13487608568E+04  0.14439367648E+04  0.25500000920E-02 0.  1.
       -2    1    3    3    0  502  0.50288549086E+03 -0.11359452052E+03  0.26046203609E+03  0.57761406169E+03  0.25500000920E-02 0. -1.
</event>
<event>
 5   0  0.1118206E-04  0.1906321E+04  0.7818609E-02  0.8651717E-01
       -2   -1    0    0    0  501  0.00000000000E+00  0.00000000000E+00  0.66020202860E+03  0.66020202860E+03  0.25500000920E-02 0.  1.
        2   -1    0    0  501    0  0.00000000000E+00  0.00000000000E+00 -0.13761161322E+04  0.13761161322E+04  0.25500000920E-02 0. -1.
    10030    2    1    2    0    0  0.00000000000E+00  0.00000000000E+00 -0.71591410362E+03  0.20363181608E+04  0.19063207097E+04 0.  0.
        1    1    3    3  502    0 -0.34543391774E+03  0.85857496394E+02  0.58654445886E+03  0.68609802758E+03  0.50400001928E-02 0.  1.
       -1    1    3    3    0  502  0.34543391774E+03 -0.85857496394E+02 -0.13024585625E+04  0.13502201332E+04  0.50400001928E-02 0. -1.
</event>
<event>
 5   0  0.1182630E-04  0.1890564E+04  0.7818609E-02  0.8659568E-01
       -2   -1    0    0    0  501  0.00000000000E+00  0.00000000000E+00  0.11187130064E+04  0.11187130064E+04  0.25500000920E-02 0.  1.
        2   -1    0    0  501    0  0.00000000000E+00  0.00000000000E+00 -0.79873726487E+03  0.79873726488E+03  0.25500000920E-02 0. -1.
    10030    2    1    2    0    0  0.00000000000E+00  0.00000000000E+00  0.31997574156E+03  0.19174502713E+04  0.18905636905E+04 0.  0.
        5    1    3    3  502    0 -0.17760675138E+03 -0.48508262136E+03  0.96288133203E+03  0.10927084960E+04  0.46999998093E+01 0.  1.
       -5    1    3    3    0  502  0.17760675138E+03  0.48508262136E+03 -0.64290559047E+03  0.82474177531E+03  0.46999998093E+01 0. -1.
</event>
<event>
 5   0  0.5614989E-05  0.1845305E+04  0.7818609E-02  0.8682571E-01
        1   -1    0    0  501    0  0.00000000000E+00  0.00000000000E+00  0.82454344137E+03  0.82454344139E+03  0.50400001928E-02 0. -1.
       -1   -1    0    0    0  501  0.00000000000E+00  0.00000000000E+00 -0.10324355162E+04  0.10324355162E+04  0.50400001928E-02 0.  1.
    10030    2    1    2    0    0  0.00000000000E+00  0.00000000000E+00 -0.20789207479E+03  0.18569789576E+04  0.18453053227E+04 0.  0.
        4    1    3    3  502    0  0.10742845129E+03 -0.28232474360E+03 -0.98126285568E+03  0.10267066464E+04  0.12699999809E+01 0.  1.
       -4    1    3    3    0  502 -0.10742845129E+03  0.28232474360E+03  0.77337078088E+03  0.83027231113E+03  0.12699999809E+01 0. -1.
</event>
<event>
 5   0  0.5841424E-05  0.1944693E+04  0.7818609E-02  0.8632924E-01
       -1   -1    0    0    0  501  0.00000000000E+00  0.00000000000E+00  0.12599950015E+04  0.12599950015E+04  0.50400001928E-02 0. -1.
        1   -1    0    0  501    0  0.00000000000E+00  0.00000000000E+00 -0.75036651900E+03  0.75036651901E+03  0.50400001928E-02 0.  1.
    10030    2    1    2    0    0  0.00000000000E+00  0.00000000000E+00  0.50962848254E+03  0.20103615206E+04  0.19446933571E+04 0.  0.
        1    1    3    3  502    0 -0.52965383304E+03 -0.80622811370E+03  0.38109104628E+03  0.10371920457E+04  0.50400001928E-02 0.  1.
       -1    1    3    3    0  502  0.52965383304E+03  0.80622811370E+03  0.12853743626E+03  0.97316947482E+03  0.50400001928E-02 0. -1.
</event>
<event>
 5   0  0.5628936E-05  0.1910283E+04  0.7818609E-02  0.8649755E-01
        1   -1    0    0  501    0  0.00000000000E+00  0.00000000000E+00  0.48512275692E+03  0.48512275695E+03  0.50400001928E-02 0. -1.
       -1   -1    0    0    0  501  0.00000000000E+00  0.00000000000E+00 -0.18805451050E+04  0.18805451050E+04  0.50400001928E-02 0.  1.
    10030    2    1    2    0    0  0.00000000000E+00  0.00000000000E+00 -0.13954223480E+04  0.23656678619E+04  0.19102829381E+04 0.  0.
        5    1    3    3  502    0  0.43015149762E+03 -0.10085788313E+03  0.35095438541E+03  0.56426385152E+03  0.46999998093E+01 0. -1.
       -5    1    3    3    0  502 -0.43015149762E+03  0.10085788313E+03 -0.17463767334E+04  0.18014040104E+04  0.46999998093E+01 0.  1.
</event>
<event>
 5   0  0.1133638E-04  0.1886040E+04  0.7818609E-02  0.8661837E-01
        2   -1    0    0  501    0  0.00000000000E+00  0.00000000000E+00  0.10678683557E+04  0.10678683557E+04  0.25500000920E-02 0. -1.
       -2   -1    0    0    0  501  0.00000000000E+00  0.00000000000E+00 -0.83276795898E+03  0.83276795899E+03  0.25500000920E-02 0.  1.
    10030    2    1    2    0    0  0.00000000000E+00  0.00000000000E+00  0.23510039671E+03  0.19006363147E+04  0.18860398204E+04 0.  0.
        3    1    3    3  502    0 -0.44734169752E+03  0.27571524876E+03 -0.67155083266E+03  0.85270981218E+03  0.10100000352E+00 0.  1.
       -3    1    3    3    0  502  0.44734169752E+03 -0.27571524876E+03  0.90665122937E+03  0.10479265025E+04  0.10100000352E+00 0. -1.
</event>
<event>
 5   0  0.1141890E-04  0.1879906E+04  0.7818609E-02  0.8664924E-01
        2   -1    0    0  501    0  0.00000000000E+00  0.00000000000E+00  0.19113495203E+04  0.19113495203E+04  0.25500000920E-02 0.  1.
       -2   -1    0    0    0  501  0.00000000000E+00  0.00000000000E+00 -0.46224484664E+03  0.46224484664E+03  0.25500000920E-02 0. -1.
    10030    2    1    2    0    0  0.00000000000E+00  0.00000000000E+00  0.14491046737E+04  0.23735943670E+04  0.18799058124E+04 0.  0.
        2    1    3    3  502    0  0.66202007174E+03 -0.50691080322E+02  0.15646138676E+04  0.16996637067E+04  0.25500000920E-02 0.  1.
       -2    1    3    3    0  502 -0.66202007174E+03  0.50691080322E+02 -0.11550919393E+03  0.67393066030E+03  0.25500000920E-02 0. -1.
</event>
<event>
 5   0  0.5824956E-05  0.1905330E+04  0.7818609E-02  0.8652208E-01
       -1   -1    0    0    0  501  0.00000000000E+00  0.00000000000E+00  0.45984717179E+03  0.45984717182E+03  0.50400001928E-02 0. -1.
        1   -1    0    0  501    0  0.00000000000E+00  0.00000000000E+00 -0.19736355378E+04  0.19736355378E+04  0.50400001928E-02 0.  1.
    10030    2    1    2    0    0  0.00000000000E+00  0.00000000000E+00 -0.15137883660E+04  0.24334827096E+04  0.19053301239E+04 0.  0.
        2    1    3    3  502    0 -0.82979219962E+03  0.23751728179E+03 -0.24187920520E+03  0.89636772789E+03  0.25500000920E-02 0. -1.
       -2    1    3    3    0  502  0.82979219962E+03 -0.23751728179E+03 -0.12719091608E+04  0.15371149817E+04  0.25500000920E-02 0.  1.
</event>
<event>
 5   0  0.5824956E-05  0.1883543E+04  0.7818609E-02  0.8663092E-01
        1   -1    0    0  501    0  0.00000000000E+00  0.00000000000E+00  0.97267572098E+03  0.97267572099E+03  0.50400001928E-02 0.  1.
       -1   -1    0    0    0  501  0.00000000000E+00  0.00000000000E+00 -0.91184899284E+03  0.91184899285E+03  0.50400001928E-02 0. -1.
    10030    2    1    2    0    0  0.00000000000E+00  0.00000000000E+00  0.60826728139E+02  0.18845247138E+04  0.18835428071E+04 0.  0.
        2    1    3    3  502    0 -0.89685407488E+03 -0.83717620400E+02 -0.24464358254E+03  0.93338435496E+03  0.25500000920E-02 0.  1.
       -2    1    3    3    0  502  0.89685407488E+03  0.83717620400E+02  0.30547031068E+03  0.95114035889E+03  0.25500000920E-02 0. -1.
</event>
<event>
 5   0  0.1101678E-04  0.1906537E+04  0.7818609E-02  0.8651609E-01
        2   -1    0    0  501    0  0.00000000000E+00  0.00000000000E+00  0.14782478422E+04  0.14782478422E+04  0.25500000920E-02 0.  1.
       -2   -1    0    0    0  501  0.00000000000E+00  0.00000000000E+00 -0.61472834446E+03  0.61472834446E+03  0.25500000920E-02 0. -1.
    10030    2    1    2    0    0  0.00000000000E+00  0.00000000000E+00  0.86351949772E+03  0.20929761866E+04  0.19065370164E+04 0.  0.
        4    1    3    3  502    0  0.58252572345E+03  0.30700861143E+03  0.11884614169E+04  0.13586878443E+04  0.12699999809E+01 0.  1.
       -4    1    3    3    0  502 -0.58252572345E+03 -0.30700861143E+03 -0.32494191915E+03  0.73428834234E+03  0.12699999809E+01 0. -1.
</event>
<event>
 5   0  0.5579109E-05  0.1900868E+04  0.7818609E-02  0.8654425E-01
       -1   -1    0    0    0  501  0.00000000000E+00  0.00000000000E+00  0.93823818635E+03  0.93823818636E+03  0.50400001928E-02 0.  1.
        1   -1    0    0  501    0  0.00000000000E+00  0.00000000000E+00 -0.96278790354E+03  0.96278790355E+03  0.50400001928E-02 0. -1.
    10030    2    1    2    0    0  0.00000000000E+00  0.00000000000E+00 -0.24549717188E+02  0.19010260899E+04  0.19008675666E+04 0.  0.
        3    1    3    3  502    0 -0.73730023754E+03  0.29060105411E+02  0.58683122097E+03  0.94277623119E+03  0.10100000352E+00 0.  1.
       -3    1    3    3    0  502  0.73730023754E+03 -0.29060105411E+02 -0.61138093816E+03  0.95824985872E+03  0.10100000352E+00 0. -1.
</event>
<event>
 5   0  0.1118206E-04  0.1917585E+04  0.7818609E-02  0.8646152E-01
       -2   -1    0    0    0  501  0.00000000000E+00  0.00000000000E+00  0.10527078741E+04  0.10527078741E+04  0.25500000920E-02 0.  1.
        2   -1    0    0  501    0  0.00000000000E+00  0.00000000000E+00 -0.87325550255E+03  0.87325550255E+03  0.25500000920E-02 0. -1.
    10030    2    1    2    0    0  0.00000000000E+00  0.00000000000E+00  0.17945237153E+03  0.19259633766E+04  0.19175848806E+04 0.  0.
        1    1    3    3  502    0 -0.11626986957E+03  0.75514730721E+03 -0.49204280206E+03  0.90877514118E+03  0.50400001928E-02 0. -1.
       -1    1    3    3    0  502  0.11626986957E+03 -0.75514730721E+03  0.67149517359E+03  0.10171882354E+04  0.50400001928E-02 0.  1.
</event>
<event>
 5   0  0.5824956E-05  0.1856714E+04  0.7818609E-02  0.8676707E-01
        1   -1    0    0  501    0  0.00000000000E+00  0.00000000000E+00  0.18806507019E+04  0.18806507019E+04  0.50400001928E-02 0.  1.
       -1   -1    0    0    0  501  0.00000000000E+00  0.00000000000E+00 -0.45827070973E+03  0.45827070976E+03  0.50400001928E-02 0. -1.
    10030    2    1    2    0    0  0.00000000000E+00  0.00000000000E+00  0.14223799922E+04  0.23389214117E+04  0.18567144443E+04 0.  0.
        2    1    3    3  502    0  0.17089093732E+03 -0.12450557681E+03 -0.42753596509E+03  0.47696158395E+03  0.25500000920E-02 0. -1.
       -2    1    3    3    0  502 -0.17089093732E+03  0.12450557681E+03  0.18499159573E+04  0.18619598277E+04  0.25500000920E-02 0.  1.
</event>
<event>
 5   0  0.5614989E-05  0.1900963E+04  0.7818609E-02  0.8654377E-01
       -1   -1    0    0    0  501  0.00000000000E+00  0.00000000000E+00  0.67501502373E+03  0.67501502374E+03  0.50400001928E-02 0.  1.
        1   -1    0    0  501    0  0.00000000000E+00  0.00000000000E+00 -0.13383633364E+04  0.13383633365E+04  0.50400001928E-02 0. -1.
    10030    2    1    2    0    0  0.00000000000E+00  0.00000000000E+00 -0.66334831272E+03  0.20133783602E+04  0.19009632919E+04 0.  0.
        4    1    3    3  502    0  0.63141462165E+03 -0.34191493635E+03 -0.99125605068E+03  0.12240018052E+04  0.12699999809E+01 0. -1.
       -4    1    3    3    0  502 -0.63141462165E+03  0.34191493635E+03  0.32790773796E+03  0.78937655504E+03  0.12699999809E+01 0.  1.
</event>
<event>
 5   0  0.1101678E-04  0.1904300E+04  0.7818609E-02  0.8652719E-01
        2   -1    0    0  501    0  0.00000000000E+00  0.00000000000E+00  0.16962667177E+04  0.16962667177E+04  0.25500000920E-02 0. -1.
       -2   -1    0    0    0  501  0.00000000000E+00  0.00000000000E+00 -0.53446149595E+03  0.53446149595E+03  0.25500000920E-02 0.  1.
    10030    2    1    2    0    0  0.00000000000E+00  0.00000000000E+00  0.11618052217E+04  0.22307282136E+04  0.19042996061E+04 0.  0.
        4    1    3    3  502    0 -0.31466059096E+03  0.49507338658E+03  0.14594484351E+04  0.15729273007E+04  0.12699999809E+01 0. -1.
       -4    1    3    3    0  502  0.31466059096E+03 -0.49507338658E+03 -0.29764321343E+03  0.65780091290E+03  0.12699999809E+01 0.  1.
</event>
<event>
 5   0  0.1141890E-04  0.1901094E+04  0.7818609E-02  0.8654312E-01
        2   -1    0    0  501    0  0.00000000000E+00  0.00000000000E+00  0.21226151384E+04  0.21226151384E+04  0.25500000920E-02 0. -1.
       -2   -1    0    0    0  501  0.00000000000E+00  0.00000000000E+00 -0.42567276322E+03  0.42567276322E+03  0.25500000920E-02 0.  1.
    10030    2    1    2    0    0  0.00000000000E+00  0.00000000000E+00  0.16969423752E+04  0.25482879017E+04  0.19010938443E+04 0.  0.
        2    1    3    3  502    0 -0.16934107362E+03 -0.74257079216E+03  0.16108128170E+04  0.17817984488E+04  0.25500000920E-02 0. -1.
       -2    1    3    3    0  502  0.16934107362E+03  0.74257079216E+03  0.86129558214E+02  0.76648945289E+03  0.25500000920E-02 0.  1.
</event>
<event>
 5   0  0.5628936E-05  0.1910874E+04  0.7818609E-02  0.8649462E-01
        1   -1    0    0  501    0  0.00000000000E+00  0.00000000000E+00  0.11121288071E+04  0.11121288071E+04  0.50400001928E-02 0. -1.
       -1   -1    0    0    0  501  0.00000000000E+00  0.00000000000E+00 -0.82082238602E+03  0.82082238604E+03  0.50400001928E-02 0.  1.
    10030    2    1    2    0    0  0.00000000000E+00  0.00000000000E+00  0.29130642110E+03  0.19329511932E+04  0.19108743769E+04 0.  0.
        5    1    3    3  502    0 -0.88166654052E+03 -0.31143518403E+03  0.34416101619E+03  0.99639181931E+03  0.46999998093E+01 0.  1.
       -5    1    3    3    0  502  0.88166654052E+03  0.31143518403E+03 -0.52854595091E+02  0.93655937385E+03  0.46999998093E+01 0. -1.
</event>
<event>
 5   0  0.1182630E-04  0.1897962E+04  0.7818609E-02  0.8655872E-01
        2   -1    0    0  501    0  0.00000000000E+00  0.00000000000E+00  0.46539008815E+03  0.46539008816E+03  0.25500000920E-02 0. -1.
       -2   -1    0    0    0  501  0.00000000000E+00  0.00000000000E+00 -0.19350750621E+04  0.19350750621E+04  0.25500000920E-02 0.  1.
    10030    2    1    2    0    0  0.00000000000E+00  0.00000000000E+00 -0.14696849739E+04  0.24004651502E+04  0.18979618054E+04 0.  0.
        5    1    3    3  502    0  0.10640712690E+03 -0.75498134280E+03 -0.20255228038E+02  0.76272647056E+03  0.46999998093E+01 0. -1.
       -5    1    3    3    0  502 -0.10640712690E+03  0.75498134280E+03 -0.14494297459E+04  0.16377386797E+04  0.46999998093E+01 0.  1.
</event>
<event>
 5   0  0.1141890E-04  0.1890066E+04  0.7818609E-02  0.8659817E-01
        2   -1    0    0  501    0  0.00000000000E+00  0.00000000000E+00  0.10769134376E+04  0.10769134376E+04  0.25500000920E-02 0. -1.
       -2   -1    0    0    0  501  0.00000000000E+00  0.00000000000E+00 -0.82930283689E+03  0.82930283689E+03  0.25500000920E-02 0.  1.
    10030    2    1    2    0    0  0.00000000000E+00  0.00000000000E+00  0.24761060071E+03  0.19062162745E+04  0.18900659977E+04 0.  0.
        2    1    3    3  502    0 -0.90297325716E+03 -0.24759376506E+03 -0.54458992639E+01  0.93631887382E+03  0.25500000920E-02 0.  1.
       -2    1    3    3    0  502  0.90297325716E+03  0.24759376506E+03  0.25305649997E+03  0.96989740067E+03  0.25500000920E-02 0. -1.
</event>
<event>
 5   0  0.4061125E-05  0.1891407E+04  0.7818609E-02  0.8659146E-01
       -4   -1    0    0    0  501  0.00000000000E+00  0.00000000000E+00  0.49664670960E+03  0.49664833339E+03  0.12699999809E+01 0. -1.
        4   -1    0    0  501    0  0.00000000000E+00  0.00000000000E+00 -0.18007820883E+04  0.18007825361E+04  0.12699999809E+01 0.  1.
    10030    2    1    2    0    0  0.00000000000E+00  0.00000000000E+00 -0.13041353787E+04  0.22974308695E+04  0.18914067553E+04 0.  0.
        1    1    3    3  502    0  0.33189173211E+03  0.26779684043E+03 -0.16773563972E+04  0.17307200100E+04  0.50400001928E-02 0.  1.
       -1    1    3    3    0  502 -0.33189173211E+03 -0.26779684043E+03  0.37322101855E+03  0.56671085952E+03  0.50400001928E-02 0. -1.
</event>
<event>
 5   0  0.5579109E-05  0.1959334E+04  0.7818609E-02  0.8625873E-01
       -1   -1    0    0    0  501  0.00000000000E+00  0.00000000000E+00  0.53984595005E+03  0.53984595007E+03  0.50400001928E-02 0.  1.
        1   -1    0    0  501    0  0.00000000000E+00  0.00000000000E+00 -0.17778176908E+04  0.17778176909E+04  0.50400001928E-02 0. -1.
    10030    2    1    2    0    0  0.00000000000E+00  0.00000000000E+00 -0.12379717408E+04  0.23176636409E+04  0.19593342547E+04 0.  0.
        3    1    3    3  502    0 -0.48865985560E+03 -0.97487574295E+02  0.37875029135E+03  0.62589461974E+03  0.10100000352E+00 0.  1.
       -3    1    3    3    0  502  0.48865985560E+03  0.97487574295E+02 -0.16167220321E+04  0.16917690212E+04  0.10100000352E+00 0. -1.
</event>
<event>
 5   0  0.1118206E-04  0.1904519E+04  0.7818609E-02  0.8652610E-01
       -2   -1    0    0    0  501  0.00000000000E+00  0.00000000000E+00  0.56331451950E+03  0.56331451950E+03  0.25500000920E-02 0.  1.
        2   -1    0    0  501    0  0.00000000000E+00  0.00000000000E+00 -0.16097552099E+04  0.16097552099E+04  0.25500000920E-02 0. -1.
    10030    2    1    2    0    0  0.00000000000E+00  0.00000000000E+00 -0.10464406904E+04  0.21730697294E+04  0.19045193436E+04 0.  0.
        1    1    3    3  502    0  0.43995390242E+03 -0.82698344044E+03 -0.71865399747E+03  0.11806458466E+04  0.50400001928E-02 0. -1.
       -1    1    3    3    0  502 -0.43995390242E+03  0.82698344044E+03 -0.32778669290E+03  0.99242388276E+03  0.50400001928E-02 0.  1.
</event>
<event>
 5   0  0.5579109E-05  0.1877406E+04  0.7818609E-02  0.8666185E-01
        1   -1    0    0  501    0  0.00000000000E+00  0.00000000000E+00  0.73081938552E+03  0.73081938554E+03  0.50400001928E-02 0.  1.
       -1   -1    0    0    0  501  0.00000000000E+00  0.00000000000E+00 -0.12057196579E+04  0.12057196579E+04  0.50400001928E-02 0. -1.
    10030    2    1    2    0    0  0.00000000000E+00  0.00000000000E+00 -0.47490027234E+03  0.19365390434E+04  0.18774059758E+04 0.  0.
        3    1    3    3  502    0 -0.46481528031E+03  0.81483527400E+03 -0.27248341318E+03  0.97686078293E+03  0.10100000352E+00 0. -1.
       -3    1    3    3    0  502  0.46481528031E+03 -0.81483527400E+03 -0.20241685916E+03  0.95967826048E+03  0.10100000352E+00 0.  1.
</event>
<event>
 5   0  0.1141890E-04  0.1823975E+04  0.7818609E-02  0.8693653E-01
        2   -1    0    0  501    0  0.00000000000E+00  0.00000000000E+00  0.74287570596E+03  0.74287570596E+03  0.25500000920E-02 0.  1.
       -2   -1    0    0    0  501  0.00000000000E+00  0.00000000000E+00 -0.11195965465E+04  0.11195965465E+04  0.25500000920E-02 0. -1.
    10030    2    1    2    0    0  0.00000000000E+00  0.00000000000E+00 -0.37672084053E+03  0.18624722525E+04  0.18239748626E+04 0.  0.
        2    1    3    3  502    0 -0.76768689403E+03 -0.66799947556E+02  0.30970052710E+03  0.83049371867E+03  0.25500000920E-02 0.  1.
       -2    1    3    3    0  502  0.76768689403E+03  0.66799947556E+02 -0.68642136763E+03  0.10319785338E+04  0.25500000920E-02 0. -1.
</event>
<event>
 5   0  0.1133638E-04  0.1841058E+04  0.7818609E-02  0.8684765E-01
        2   -1    0    0  501    0  0.00000000000E+00  0.00000000000E+00  0.10353989135E+04  0.10353989135E+04  0.25500000920E-02 0.  1.
       -2   -1    0    0    0  501  0.00000000000E+00  0.00000000000E+00 -0.81840268392E+03  0.81840268393E+03  0.25500000920E-02 0. -1.
    10030    2    1    2    0    0  0.00000000000E+00  0.00000000000E+00  0.21699622960E+03  0.18538015974E+04  0.18410575762E+04 0.  0.
        3    1    3    3  502    0  0.38229586149E+03 -0.38339499234E+03 -0.64112236409E+03  0.83915418238E+03  0.10100000352E+00 0. -1.
       -3    1    3    3    0  502 -0.38229586149E+03  0.38339499234E+03  0.85811859369E+03  0.10146474151E+04  0.10100000352E+00 0.  1.
</event>
<event>
 5   0  0.1118206E-04  0.1854095E+04  0.7818609E-02  0.8678050E-01
       -2   -1    0    0    0  501  0.00000000000E+00  0.00000000000E+00  0.89019783931E+03  0.89019783931E+03  0.25500000920E-02 0. -1.
        2   -1    0    0  501    0  0.00000000000E+00  0.00000000000E+00 -0.96542229452E+03  0.96542229453E+03  0.25500000920E-02 0.  1.
    10030    2    1    2    0    0  0.00000000000E+00  0.00000000000E+00 -0.75224455216E+02  0.18556201338E+04  0.18540947555E+04 0.  0.
        1    1    3    3  502    0 -0.79377438032E+03 -0.38127799023E+03  0.25239533088E+03  0.91605353324E+03  0.50400001928E-02 0. -1.
       -1    1    3    3    0  502  0.79377438032E+03  0.38127799023E+03 -0.32761978609E+03  0.93956660060E+03  0.50400001928E-02 0.  1.
</event>
<event>
 5   0  0.1182630E-04  0.1911696E+04  0.7818609E-02  0.8649056E-01
       -2   -1    0    0    0  501  0.00000000000E+00  0.00000000000E+00  0.75434922967E+03  0.75434922968E+03  0.25500000920E-02 0.  1.
        2   -1    0    0  501    0  0.00000000000E+00  0.00000000000E+00 -0.12111704323E+04  0.12111704323E+04  0.25500000920E-02 0. -1.
    10030    2    1    2    0    0  0.00000000000E+00  0.00000000000E+00 -0.45682120263E+03  0.19655196620E+04  0.19116960874E+04 0.  0.
        5    1    3    3  502    0  0.55517807659E+03  0.71731918724E+03  0.81495609264E+02  0.91073219853E+03  0.46999998093E+01 0.  1.
       -5    1    3    3    0  502 -0.55517807659E+03 -0.71731918724E+03 -0.53831681190E+03  0.10547874635E+04  0.46999998093E+01 0. -1.
</event>
<event>
 5   0  0.5614989E-05  0.1898908E+04  0.7818609E-02  0.8655400E-01
        1   -1    0    0  501    0  0.00000000000E+00  0.00000000000E+00  0.12036795452E+04  0.12036795452E+04  0.50400001928E-02 0.  1.
       -1   -1    0    0    0  501  0.00000000000E+00  0.00000000000E+00 -0.74892252876E+03  0.74892252877E+03  0.50400001928E-02 0. -1.
    10030    2    1    2    0    0  0.00000000000E+00  0.00000000000E+00  0.45475701647E+03  0.19526020740E+04  0.18989078217E+04 0.  0.
        4    1    3    3  502    0  0.12104134327E+03 -0.36853287330E+03 -0.66372466391E+03  0.76876493668E+03  0.12699999809E+01 0. -1.
       -4    1    3    3    0  502 -0.12104134327E+03  0.36853287330E+03  0.11184816804E+04  0.11838371373E+04  0.12699999809E+01 0.  1.
</event>
<event>
 5   0  0.5628936E-05  0.1885292E+04  0.7818609E-02  0.8662212E-01
       -1   -1    0    0    0  501  0.00000000000E+00  0.00000000000E+00  0.85927384557E+03  0.85927384558E+03  0.50400001928E-02 0. -1.
        1   -1    0    0  501    0  0.00000000000E+00  0.00000000000E+00 -0.10341073045E+04  0.10341073045E+04  0.50400001928E-02 0.  1.
    10030    2    1    2    0    0  0.00000000000E+00  0.00000000000E+00 -0.17483345890E+03  0.18933811501E+04  0.18852918716E+04 0.  0.
        5    1    3    3  502    0 -0.67151112548E+03 -0.52174812240E+03 -0.49586928281E+03  0.98440679117E+03  0.46999998093E+01 0.  1.
       -5    1    3    3    0  502  0.67151112548E+03  0.52174812240E+03  0.32103582392E+03  0.90897435888E+03  0.46999998093E+01 0. -1.
</event>
<event>
 5   0  0.1101678E-04  0.1905226E+04  0.7818609E-02  0.8652259E-01
       -2   -1    0    0    0  501  0.00000000000E+00  0.00000000000E+00  0.12431130898E+04  0.12431130898E+04  0.25500000920E-02 0.  1.
        2   -1    0    0  501    0  0.00000000000E+00  0.00000000000E+00 -0.72999941397E+03  0.72999941397E+03  0.25500000920E-02 0. -1.
    10030    2    1    2    0    0  0.00000000000E+00  0.00000000000E+00  0.51311367585E+03  0.19731125038E+04  0.19052263142E+04 0.  0.
        4    1    3    3  502    0 -0.14667496797E+03  0.90995696286E+03  0.72835399867E+01  0.92173200191E+03  0.12699999809E+01 0.  1.
       -4    1    3    3    0  502  0.14667496797E+03 -0.90995696286E+03  0.50583013586E+03  0.10513805019E+04  0.12699999809E+01 0. -1.
</event>
<event>
 5   0  0.5614989E-05  0.1853790E+04  0.7818609E-02  0.8678206E-01
        1   -1    0    0  501    0  0.00000000000E+00  0.00000000000E+00  0.72079749437E+03  0.72079749439E+03  0.50400001928E-02 0.  1.
       -1   -1    0    0    0  501  0.00000000000E+00  0.00000000000E+00 -0.11919213231E+04  0.11919213231E+04  0.50400001928E-02 0. -1.
    10030    2    1    2    0    0  0.00000000000E+00  0.00000000000E+00 -0.47112382873E+03  0.19127188175E+04  0.18537895277E+04 0.  0.
        4    1    3    3  502    0  0.90240606419E+03 -0.21058584949E+03 -0.25742964036E+03  0.96174567186E+03  0.12699999809E+01 0.  1.
       -4    1    3    3    0  502 -0.90240606419E+03  0.21058584949E+03 -0.21369418837E+03  0.95097314565E+03  0.12699999809E+01 0. -1.
</event>
<event>
 5   0  0.5579109E-05  0.1914059E+04  0.7818609E-02  0.8647890E-01
       -1   -1    0    0    0  501  0.00000000000E+00  0.00000000000E+00  0.62553398231E+03  0.62553398233E+03  0.50400001928E-02 0. -1.
        1   -1    0    0  501    0  0.00000000000E+00  0.00000000000E+00 -0.14641980921E+04  0.14641980922E+04  0.50400001928E-02 0.  1.
    10030    2    1    2    0    0  0.00000000000E+00  0.00000000000E+00 -0.83866410984E+03  0.20897320745E+04  0.19140592086E+04 0.  0.
        3    1    3    3  502    0  0.43986099590E+03  0.60091275988E+03  0.23694669248E+03  0.78148421992E+03  0.10100000352E+00 0. -1.
       -3    1    3    3    0  502 -0.43986099590E+03 -0.60091275988E+03 -0.10756108023E+04  0.13082478546E+04  0.10100000352E+00 0.  1.
</event>
<event>
 5   0  0.1118206E-04  0.1818419E+04  0.7818609E-02  0.8696565E-01
        2   -1    0    0  501    0  0.00000000000E+00  0.00000000000E+00  0.97278464563E+03  0.97278464563E+03  0.25500000920E-02 0. -1.
       -2   -1    0    0    0  501  0.00000000000E+00  0.00000000000E+00 -0.84978923588E+03  0.84978923589E+03  0.25500000920E-02 0.  1.
    10030    2    1    2    0    0  0.00000000000E+00  0.00000000000E+00  0.12299540975E+03  0.18225738815E+04  0.18184190064E+04 0.  0.
        1    1    3    3  502    0  0.77318538898E+03  0.46066523600E+03 -0.67769130644E+02  0.90256343848E+03  0.50400001928E-02 0. -1.
       -1    1    3    3    0  502 -0.77318538898E+03 -0.46066523600E+03  0.19076454039E+03  0.92001044303E+03  0.50400001928E-02 0.  1.
</event>
<event>
 5   0  0.5628936E-05  0.1902540E+04  0.7818609E-02  0.8653593E-01
       -1   -1    0    0    0  501  0.00000000000E+00  0.00000000000E+00  0.59092093271E+03  0.59092093274E+03  0.50400001928E-02 0.  1.
        1   -1    0    0  501    0  0.00000000000E+00  0.00000000000E+00 -0.15313627171E+04  0.15313627171E+04  0.50400001928E-02 0. -1.
    10030    2    1    2    0    0  0.00000000000E+00  0.00000000000E+00 -0.94044178437E+03  0.21222836498E+04  0.19025396554E+04 0.  0.
        5    1    3    3  502    0 -0.64759721632E+03 -0.13723659138E+03 -0.12322604524E+04  0.13988223436E+04  0.46999998093E+01 0. -1.
       -5    1    3    3    0  502  0.64759721632E+03  0.13723659138E+03  0.29181866798E+03  0.72346130620E+03  0.46999998093E+01 0.  1.
</event>
<event>
 5   0  0.1101678E-04  0.1907746E+04  0.7818609E-02  0.8651010E-01
       -2   -1    0    0    0  501  0.00000000000E+00  0.00000000000E+00  0.95389359610E+03  0.95389359611E+03  0.25500000920E-02 0.  1.
        2   -1    0    0  501    0  0.00000000000E+00  0.00000000000E+00 -0.95385261575E+03  0.95385261575E+03  0.25500000920E-02 0. -1.
    10030    2    1    2    0    0  0.00000000000E+00  0.00000000000E+00  0.40980353558E-01  0.19077462119E+04  0.19077462114E+04 0.  0.
        4    1    3    3  502    0  0.41607913504E+03 -0.60311521969E+03  0.61075977517E+03  0.95388622524E+03  0.12699999809E+01 0.  1.
       -4    1    3    3    0  502 -0.41607913504E+03  0.60311521969E+03 -0.61071879481E+03  0.95385998662E+03  0.12699999809E+01 0. -1.
</event>
<event>
 5   0  0.1118206E-04  0.1902307E+04  0.7818609E-02  0.8653709E-01
       -2   -1    0    0    0  501  0.00000000000E+00  0.00000000000E+00  0.48051471530E+03  0.48051471531E+03  0.25500000920E-02 0. -1.
        2   -1    0    0  501    0  0.00000000000E+00  0.00000000000E+00 -0.18827581585E+04  0.18827581585E+04  0.25500000920E-02 0.  1.
    10030    2    1    2    0    0  0.00000000000E+00  0.00000000000E+00 -0.14022434432E+04  0.23632728738E+04  0.19023070210E+04 0.  0.
        1    1    3    3  502    0 -0.69707695539E+03 -0.46588019827E+03 -0.12591048191E+04  0.15127146415E+04  0.50400001928E-02 0.  1.
       -1    1    3    3    0  502  0.69707695539E+03  0.46588019827E+03 -0.14313862405E+03  0.85055823234E+03  0.50400001928E-02 0. -1.
</event>
<event>
 5   0  0.1133638E-04  0.1895917E+04  0.7818609E-02  0.8656892E-01
       -2   -1    0    0    0  501  0.00000000000E+00  0.00000000000E+00  0.12303212571E+04  0.12303212571E+04  0.25500000920E-02 0. -1.
        2   -1    0    0  501    0  0.00000000000E+00  0.00000000000E+00 -0.73039871542E+03  0.73039871542E+03  0.25500000920E-02 0.  1.
    10030    2    1    2    0    0  0.00000000000E+00  0.00000000000E+00  0.49992254167E+03  0.19607199725E+04  0.18959167342E+04 0.  0.
        3    1    3    3  502    0 -0.84357148778E+03  0.20874716757E+03  0.64163697952E+03  0.10802250963E+04  0.10100000352E+00 0. -1.
       -3    1    3    3    0  502  0.84357148778E+03 -0.20874716757E+03 -0.14171443785E+03  0.88049487623E+03  0.10100000352E+00 0.  1.
</event>
<event>
 5   0  0.1141890E-04  0.1902279E+04  0.7818609E-02  0.8653723E-01
       -2   -1    0    0    0  501  0.00000000000E+00  0.00000000000E+00  0.46593393844E+03  0.46593393844E+03  0.25500000920E-02 0. -1.
        2   -1    0    0  501    0  0.00000000000E+00  0.00000000000E+00 -0.19416187827E+04  0.19416187827E+04  0.25500000920E-02 0.  1.
    10030    2    1    2    0    0  0.00000000000E+00  0.00000000000E+00 -0.14756848443E+04  0.24075527212E+04  0.19022787245E+04 0.  0.
        2    1    3    3  502    0 -0.38084569596E+02  0.82619772666E+03 -0.14338989920E+03  0.83941275972E+03  0.25500000920E-02 0. -1.
       -2    1    3    3    0  502  0.38084569596E+02 -0.82619772666E+03 -0.13322949451E+04  0.15681399615E+04  0.25500000920E-02 0.  1.
</event>
<event>
 5   0  0.1118206E-04  0.1888398E+04  0.7818609E-02  0.8660653E-01
       -2   -1    0    0    0  501  0.00000000000E+00  0.00000000000E+00  0.13239056872E+04  0.13239056872E+04  0.25500000920E-02 0.  1.
        2   -1    0    0  501    0  0.00000000000E+00  0.00000000000E+00 -0.67339531485E+03  0.67339531485E+03  0.25500000920E-02 0. -1.
    10030    2    1    2    0    0  0.00000000000E+00  0.00000000000E+00  0.65051037233E+03  0.19973010020E+04  0.18883981435E+04 0.  0.
        1    1    3    3  502    0 -0.24139572518E+03  0.76241390598E+03 -0.20565381337E+03  0.82573624793E+03  0.50400001928E-02 0.  1.
       -1    1    3    3    0  502  0.24139572518E+03 -0.76241390598E+03  0.85616418570E+03  0.11715647541E+04  0.50400001928E-02 0. -1.
</event>
<event>
 5   0  0.1182630E-04  0.1925108E+04  0.7818609E-02  0.8642459E-01
        2   -1    0    0  501    0  0.00000000000E+00  0.00000000000E+00  0.77120900848E+03  0.77120900848E+03  0.25500000920E-02 0.  1.
       -2   -1    0    0    0  501  0.00000000000E+00  0.00000000000E+00 -0.12013731834E+04  0.12013731834E+04  0.25500000920E-02 0. -1.
    10030    2    1    2    0    0  0.00000000000E+00  0.00000000000E+00 -0.43016417487E+03  0.19725821918E+04  0.19251076038E+04 0.  0.
        5    1    3    3  502    0  0.38388284272E+03  0.22440474764E+03 -0.10898112685E+04  0.11770446969E+04  0.46999998093E+01 0. -1.
       -5    1    3    3    0  502 -0.38388284272E+03 -0.22440474764E+03  0.65964709360E+03  0.79553749490E+03  0.46999998093E+01 0.  1.
</event>
<event>
 5   0  0.1141890E-04  0.1852451E+04  0.7818609E-02  0.8678894E-01
       -2   -1    0    0    0  501  0.00000000000E+00  0.00000000000E+00  0.10073353083E+04  0.10073353083E+04  0.25500000920E-02 0. -1.
        2   -1    0    0  501    0  0.00000000000E+00  0.00000000000E+00 -0.85164613176E+03  0.85164613177E+03  0.25500000920E-02 0.  1.
    10030    2    1    2    0    0  0.00000000000E+00  0.00000000000E+00  0.15568917657E+03  0.18589814401E+04  0.18524505054E+04 0.  0.
        2    1    3    3  502    0 -0.44920709832E+03  0.56407710827E+03 -0.50551649911E+03  0.88063439186E+03  0.25500000920E-02 0.  1.
       -2    1    3    3    0  502  0.44920709832E+03 -0.56407710827E+03  0.66120567567E+03  0.97834704824E+03  0.25500000920E-02 0. -1.
</event>
<event>
 5   0  0.5579109E-05  0.1880718E+04  0.7818609E-02  0.8664514E-01
        1   -1    0    0  501    0  0.00000000000E+00  0.00000000000E+00  0.11070682171E+04  0.11070682171E+04  0.50400001928E-02 0. -1.
       -1   -1    0    0    0  501  0.00000000000E+00  0.00000000000E+00 -0.79875354379E+03  0.79875354381E+03  0.50400001928E-02 0.  1.
    10030    2    1    2    0    0  0.00000000000E+00  0.00000000000E+00  0.30831467332E+03  0.19058217609E+04  0.18807175882E+04 0.  0.
        3    1    3    3  502    0 -0.25558252599E+03  0.54933679602E+03 -0.57459524401E+03  0.83501679485E+03  0.10100000352E+00 0.  1.
       -3    1    3    3    0  502  0.25558252599E+03 -0.54933679602E+03  0.88290991733E+03  0.10708049661E+04  0.10100000352E+00 0. -1.
</event>
<event>
 5   0  0.5841424E-05  0.1925981E+04  0.7818609E-02  0.8642031E-01
        1   -1    0    0  501    0  0.00000000000E+00  0.00000000000E+00  0.12970230423E+04  0.12970230424E+04  0.50400001928E-02 0. -1.
       -1   -1    0    0    0  501  0.00000000000E+00  0.00000000000E+00 -0.71498390818E+03  0.71498390819E+03  0.50400001928E-02 0.  1.
    10030    2    1    2    0    0  0.00000000000E+00  0.00000000000E+00  0.58203913417E+03  0.20120069506E+04  0.19259808969E+04 0.  0.
        1    1    3    3  502    0  0.71766254221E+03  0.64056638490E+03  0.24446699221E+03  0.99253661306E+03  0.50400001928E-02 0. -1.
       -1    1    3    3    0  502 -0.71766254221E+03 -0.64056638490E+03  0.33757214196E+03  0.10194703375E+04  0.50400001928E-02 0.  1.
</event>
<event>
 5   0  0.1101678E-04  0.1899581E+04  0.7818609E-02  0.8655065E-01
        2   -1    0    0  501    0  0.00000000000E+00  0.00000000000E+00  0.10456760759E+04  0.10456760759E+04  0.25500000920E-02 0.  1.
       -2   -1    0    0    0  501  0.00000000000E+00  0.00000000000E+00 -0.86269756325E+03  0.86269756325E+03  0.25500000920E-02 0. -1.
    10030    2    1    2    0    0  0.00000000000E+00  0.00000000000E+00  0.18297851264E+03  0.19083736392E+04  0.18995812198E+04 0.  0.
        4    1    3    3  502    0  0.10980799885E+03  0.73537305541E+03  0.68521478819E+03  0.10111143586E+04  0.12699999809E+01 0.  1.
       -4    1    3    3    0  502 -0.10980799885E+03 -0.73537305541E+03 -0.50223627555E+03  0.89725928059E+03  0.12699999809E+01 0. -1.
</event>
<event>
 5   0  0.1182630E-04  0.1814363E+04  0.7818609E-02  0.8698699E-01
       -2   -1    0    0    0  501  0.00000000000E+00  0.00000000000E+00  0.10763906583E+04  0.10763906583E+04  0.25500000920E-02 0. -1.
        2   -1    0    0  501    0  0.00000000000E+00  0.00000000000E+00 -0.76457183423E+03  0.76457183423E+03  0.25500000920E-02 0.  1.
    10030    2    1    2    0    0  0.00000000000E+00  0.00000000000E+00  0.31181882405E+03  0.18409624925E+04  0.18143626759E+04 0.  0.
        5    1    3    3  502    0 -0.29770371294E+03  0.70583039136E+03 -0.33714871314E+03  0.83696797241E+03  0.46999998093E+01 0.  1.
       -5    1    3    3    0  502  0.29770371294E+03 -0.70583039136E+03  0.64896753718E+03  0.10039945201E+04  0.46999998093E+01 0. -1.
</event>
<event>
 5   0  0.1182630E-04  0.1910524E+04  0.7818609E-02  0.8649635E-01
        2   -1    0    0  501    0  0.00000000000E+00  0.00000000000E+00  0.12424316974E+04  0.12424316974E+04  0.25500000920E-02 0. -1.
       -2   -1    0    0    0  501  0.00000000000E+00  0.00000000000E+00 -0.73446758673E+03  0.73446758674E+03  0.25500000920E-02 0.  1.
    10030    2    1    2    0    0  0.00000000000E+00  0.00000000000E+00  0.50796411070E+03  0.19768992842E+04  0.19105243369E+04 0.  0.
        5    1    3    3  502    0 -0.21401353732E+03 -0.65630621782E+03 -0.42923283253E+03  0.81289763207E+03  0.46999998093E+01 0.  1.
       -5    1    3    3    0  502  0.21401353732E+03  0.65630621782E+03  0.93719694323E+03  0.11640016521E+04  0.46999998093E+01 0. -1.
</event>
<event>
 5   0  0.5614989E-05  0.1900372E+04  0.7818609E-02  0.8654671E-01
       -1   -1    0    0    0  501  0.00000000000E+00  0.00000000000E+00  0.48065920232E+03  0.48065920235E+03  0.50400001928E-02 0.  1.
        1   -1    0    0  501    0  0.00000000000E+00  0.00000000000E+00 -0.18783649504E+04  0.18783649504E+04  0.50400001928E-02 0. -1.
    10030    2    1    2    0    0  0.00000000000E+00  0.00000000000E+00 -0.13977057481E+04  0.23590241528E+04  0.19003719623E+04 0.  0.
        4    1    3    3  502    0 -0.52139174695E+02  0.47902933676E+03  0.31773829101E+03  0.57718873299E+03  0.12699999809E+01 0.  1.
       -4    1    3    3    0  502  0.52139174695E+02 -0.47902933676E+03 -0.17154440391E+04  0.17818354198E+04  0.12699999809E+01 0. -1.
</event>
<event>
 5   0  0.4061125E-05  0.1897363E+04  0.7818609E-02  0.8656170E-01
       -3   -1    0    0    0  501  0.00000000000E+00  0.00000000000E+00  0.12965473217E+04  0.12965473256E+04  0.10100000352E+00 0.  1.
        3   -1    0    0  501    0  0.00000000000E+00  0.00000000000E+00 -0.69414868407E+03  0.69414869142E+03  0.10100000352E+00 0. -1.
    10030    2    1    2    0    0  0.00000000000E+00  0.00000000000E+00  0.60239863760E+03  0.19906960170E+04  0.18973630421E+04 0.  0.
        4    1    3    3  502    0 -0.85796546613E+03  0.31870709050E+03  0.39287847000E+02  0.91609175219E+03  0.12699999809E+01 0. -1.
       -4    1    3    3    0  502  0.85796546613E+03 -0.31870709050E+03  0.56311079060E+03  0.10746042648E+04  0.12699999809E+01 0.  1.
</event>
<event>
 5   0  0.1118206E-04  0.1899008E+04  0.7818609E-02  0.8655350E-01
        2   -1    0    0  501    0  0.00000000000E+00  0.00000000000E+00  0.11391761974E+04  0.11391761974E+04  0.25500000920E-02 0. -1.
       -2   -1    0    0    0  501  0.00000000000E+00  0.00000000000E+00 -0.79141249473E+03  0.79141249474E+03  0.25500000920E-02 0.  1.
    10030    2    1    2    0    0  0.00000000000E+00  0.00000000000E+00  0.34776370264E+03  0.19305886921E+04  0.18990084532E+04 0.  0.
        1    1    3    3  502    0  0.43229555488E+03 -0.67228912861E+03  0.69495415019E+03  0.10591569242E+04  0.50400001928E-02 0. -1.
       -1    1    3    3    0  502 -0.43229555488E+03  0.67228912861E+03 -0.34719044754E+03  0.87143176790E+03  0.50400001928E-02 0.  1.
</event>
<event>
 5   0  0.1101678E-04  0.1889660E+04  0.7818609E-02  0.8660020E-01
       -2   -1    0    0    0  501  0.00000000000E+00  0.00000000000E+00  0.75092680029E+03  0.75092680029E+03  0.25500000920E-02 0.  1.
        2   -1    0    0  501    0  0.00000000000E+00  0.00000000000E+00 -0.11888024948E+04  0.11888024948E+04  0.25500000920E-02 0. -1.
    10030    2    1    2    0    0  0.00000000000E+00  0.00000000000E+00 -0.43787569453E+03  0.19397292951E+04  0.18896599203E+04 0.  0.
        4    1    3    3  502    0  0.56428216583E+03  0.30530379017E+03  0.49303739765E+03  0.80914291404E+03  0.12699999809E+01 0.  1.
       -4    1    3    3    0  502 -0.56428216583E+03 -0.30530379017E+03 -0.93091309218E+03  0.11305863811E+04  0.12699999809E+01 0. -1.
</event>
<event>
 5   0  0.1141890E-04  0.1885386E+04  0.7818609E-02  0.8662165E-01
        2   -1    0    0  501    0  0.00000000000E+00  0.00000000000E+00  0.12911381835E+04  0.12911381835E+04  0.25500000920E-02 0.  1.
       -2   -1    0    0    0  501  0.00000000000E+00  0.00000000000E+00 -0.68828398133E+03  0.68828398133E+03  0.25500000920E-02 0. -1.
    10030    2    1    2    0    0  0.00000000000E+00  0.00000000000E+00  0.60285420217E+03  0.19794221648E+04  0.18853856151E+04 0.  0.
        2    1    3    3  502    0  0.39428943660E+03  0.46306054440E+03 -0.45476138821E+03  0.75940578600E+03  0.25500000920E-02 0. -1.
       -2    1    3    3    0  502 -0.39428943660E+03 -0.46306054440E+03  0.10576155904E+04  0.12200163788E+04  0.25500000920E-02 0.  1.
</event>
<event>
 5   0  0.1141890E-04  0.1901776E+04  0.7818609E-02  0.8653973E-01
        2   -1    0    0  501    0  0.00000000000E+00  0.00000000000E+00  0.10056878422E+04  0.10056878422E+04  0.25500000920E-02 0.  1.
       -2   -1    0    0    0  501  0.00000000000E+00  0.00000000000E+00 -0.89907391320E+03  0.89907391320E+03  0.25500000920E-02 0. -1.
    10030    2    1    2    0    0  0.00000000000E+00  0.00000000000E+00  0.10661392903E+03  0.19047617554E+04  0.19017757005E+04 0.  0.
        2    1    3    3  502    0  0.74100057340E+03 -0.40648391359E+03  0.48973956664E+03  0.97680902172E+03  0.25500000920E-02 0.  1.
       -2    1    3    3    0  502 -0.74100057340E+03  0.40648391359E+03 -0.38312563761E+03  0.92795273370E+03  0.25500000920E-02 0. -1.
</event>
<event>
 5   0  0.5824956E-05  0.1903465E+04  0.7818609E-02  0.8653134E-01
       -1   -1    0    0    0  501  0.00000000000E+00  0.00000000000E+00  0.89980400610E+03  0.89980400612E+03  0.50400001928E-02 0. -1.
        1   -1    0    0  501    0  0.00000000000E+00  0.00000000000E+00 -0.10066575641E+04  0.10066575641E+04  0.50400001928E-02 0.  1.
    10030    2    1    2    0    0  0.00000000000E+00  0.00000000000E+00 -0.10685355797E+03  0.19064615702E+04  0.19034647451E+04 0.  0.
        2    1    3    3  502    0 -0.69435932466E+03  0.32997391177E+03  0.50850632001E+03  0.92173549985E+03  0.25500000920E-02 0. -1.
       -2    1    3    3    0  502  0.69435932466E+03 -0.32997391177E+03 -0.61535987797E+03  0.98472607035E+03  0.25500000920E-02 0.  1.
</event>
<event>
 5   0  0.5579109E-05  0.1896897E+04  0.7818609E-02  0.8656403E-01
       -1   -1    0    0    0  501  0.00000000000E+00  0.00000000000E+00  0.66495909839E+03  0.66495909841E+03  0.50400001928E-02 0. -1.
        1   -1    0    0  501    0  0.00000000000E+00  0.00000000000E+00 -0.13527962792E+04  0.13527962792E+04  0.50400001928E-02 0.  1.
    10030    2    1    2    0    0  0.00000000000E+00  0.00000000000E+00 -0.68783718084E+03  0.20177553776E+04  0.18968966173E+04 0.  0.
        3    1    3    3  502    0 -0.35071533234E+03 -0.12639528052E+03  0.58375778058E+03  0.69263999875E+03  0.10100000352E+00 0. -1.
       -3    1    3    3    0  502  0.35071533234E+03  0.12639528052E+03 -0.12715949614E+04  0.13251153789E+04  0.10100000352E+00 0.  1.
</event>
<event>
 5   0  0.1182630E-04  0.1865120E+04  0.7818609E-02  0.8672416E-01
        2   -1    0    0  501    0  0.00000000000E+00  0.00000000000E+00  0.22554836875E+04  0.22554836875E+04  0.25500000920E-02 0. -1.
       -2   -1    0    0    0  501  0.00000000000E+00  0.00000000000E+00 -0.38557938756E+03  0.38557938757E+03  0.25500000920E-02 0.  1.
    10030    2    1    2    0    0  0.00000000000E+00  0.00000000000E+00  0.18699042999E+04  0.26410630751E+04  0.18651198555E+04 0.  0.
        5    1    3    3  502    0  0.11868189604E+03 -0.30981181659E+03  0.21690738272E+04  0.21943044711E+04  0.46999998093E+01 0. -1.
       -5    1    3    3    0  502 -0.11868189604E+03  0.30981181659E+03 -0.29916952727E+03  0.44675860394E+03  0.46999998093E+01 0.  1.
</event>
<event>
 5   0  0.1118206E-04  0.1911920E+04  0.7818609E-02  0.8648946E-01
       -2   -1    0    0    0  501  0.00000000000E+00  0.00000000000E+00  0.69957445294E+03  0.69957445295E+03  0.25500000920E-02 0. -1.
        2   -1    0    0  501    0  0.00000000000E+00  0.00000000000E+00 -0.13063078178E+04  0.13063078178E+04  0.25500000920E-02 0.  1.
    10030    2    1    2    0    0  0.00000000000E+00  0.00000000000E+00 -0.60673336485E+03  0.20058822707E+04  0.19119200580E+04 0.  0.
        1    1    3    3  502    0 -0.89525157667E+03 -0.14061248433E+03 -0.62264549082E+03  0.10995156495E+04  0.50400001928E-02 0.  1.
       -1    1    3    3    0  502  0.89525157667E+03  0.14061248433E+03  0.15912125975E+02  0.90636662122E+03  0.50400001928E-02 0. -1.
</event>
<event>
 5   0  0.5614989E-05  0.1903981E+04  0.7818609E-02  0.8652877E-01
       -1   -1    0    0    0  501  0.00000000000E+00  0.00000000000E+00  0.11688878033E+04  0.11688878033E+04  0.50400001928E-02 0.  1.
        1   -1    0    0  501    0  0.00000000000E+00  0.00000000000E+00 -0.77534060312E+03  0.77534060314E+03  0.50400001928E-02 0. -1.
    10030    2    1    2    0    0  0.00000000000E+00  0.00000000000E+00  0.39354720015E+03  0.19442284064E+04  0.19039812755E+04 0.  0.
        4    1    3    3  502    0  0.64947789928E+02 -0.55763773702E+03  0.98186004448E+03  0.11310299824E+04  0.12699999809E+01 0.  1.
       -4    1    3    3    0  502 -0.64947789928E+02  0.55763773702E+03 -0.58831284433E+03  0.81319842405E+03  0.12699999809E+01 0. -1.
</event>
<event>
 5   0  0.5579109E-05  0.1799283E+04  0.7818609E-02  0.8706681E-01
       -1   -1    0    0    0  501  0.00000000000E+00  0.00000000000E+00  0.96104703788E+03  0.96104703790E+03  0.50400001928E-02 0. -1.
        1   -1    0    0  501    0  0.00000000000E+00  0.00000000000E+00 -0.84215979812E+03  0.84215979814E+03  0.50400001928E-02 0.  1.
    10030    2    1    2    0    0  0.00000000000E+00  0.00000000000E+00  0.11888723976E+03  0.18032068360E+04  0.17992833901E+04 0.  0.
        3    1    3    3  502    0  0.74030269798E+03  0.48865775160E+03 -0.90952553301E+02  0.89168764710E+03  0.10100000352E+00 0. -1.
       -3    1    3    3    0  502 -0.74030269798E+03 -0.48865775160E+03  0.20983979306E+03  0.91151918893E+03  0.10100000352E+00 0.  1.
</event>
<event>
 5   0  0.1182630E-04  0.1901095E+04  0.7818609E-02  0.8654311E-01
       -2   -1    0    0    0  501  0.00000000000E+00  0.00000000000E+00  0.52886250497E+03  0.52886250497E+03  0.25500000920E-02 0. -1.
        2   -1    0    0  501    0  0.00000000000E+00  0.00000000000E+00 -0.17084608010E+04  0.17084608010E+04  0.25500000920E-02 0.  1.
    10030    2    1    2    0    0  0.00000000000E+00  0.00000000000E+00 -0.11795982961E+04  0.22373233060E+04  0.19010953252E+04 0.  0.
        5    1    3    3  502    0  0.45982735550E+03  0.35901460652E+03 -0.14729823707E+04  0.15843080000E+04  0.46999998093E+01 0.  1.
       -5    1    3    3    0  502 -0.45982735550E+03 -0.35901460652E+03  0.29338407465E+03  0.65301530596E+03  0.46999998093E+01 0. -1.
</event>
<event>
 5   0  0.4061125E-05  0.1842479E+04  0.7818609E-02  0.8684030E-01
       -4   -1    0    0    0  501  0.00000000000E+00  0.00000000000E+00  0.86679773688E+03  0.86679866725E+03  0.12699999809E+01 0.  1.
        4   -1    0    0  501    0  0.00000000000E+00  0.00000000000E+00 -0.97909846341E+03  0.97909928708E+03  0.12699999809E+01 0. -1.
    10030    2    1    2    0    0  0.00000000000E+00  0.00000000000E+00 -0.11230072653E+03  0.18458979543E+04  0.18424787121E+04 0.  0.
        2    1    3    3  502    0 -0.72322671036E+02 -0.88804127359E+02  0.85963855554E+03  0.86723421748E+03  0.25500000920E-02 0.  1.
       -2    1    3    3    0  502  0.72322671036E+02  0.88804127359E+02 -0.97193928208E+03  0.97866373685E+03  0.25500000920E-02 0. -1.
</event>
<event>
 5   0  0.1141890E-04  0.1761292E+04  0.7818609E-02  0.8727159E-01
       -2   -1    0    0    0  501  0.00000000000E+00  0.00000000000E+00  0.15250794555E+04  0.15250794555E+04  0.25500000920E-02 0.  1.
        2   -1    0    0  501    0  0.00000000000E+00  0.00000000000E+00 -0.50852270135E+03  0.50852270136E+03  0.25500000920E-02 0. -1.
    10030    2    1    2    0    0  0.00000000000E+00  0.00000000000E+00  0.10165567541E+04  0.20336021568E+04  0.17612921671E+04 0.  0.
        2    1    3    3  502    0 -0.71724440734E+03 -0.26482316578E+03  0.10128390346E+04  0.12690207874E+04  0.25500000920E-02 0.  1.
       -2    1    3    3    0  502  0.71724440734E+03  0.26482316578E+03  0.37177195502E+01  0.76458136940E+03  0.25500000920E-02 0. -1.
</event>
<event>
 5   0  0.1101678E-04  0.1960582E+04  0.7818609E-02  0.8625275E-01
       -2   -1    0    0    0  501  0.00000000000E+00  0.00000000000E+00  0.11266950771E+04  0.11266950771E+04  0.25500000920E-02 0. -1.
        2   -1    0    0  501    0  0.00000000000E+00  0.00000000000E+00 -0.85291072843E+03  0.85291072843E+03  0.25500000920E-02 0.  1.
    10030    2    1    2    0    0  0.00000000000E+00  0.00000000000E+00  0.27378434866E+03  0.19796058055E+04  0.19605818717E+04 0.  0.
        4    1    3    3  502    0  0.23843466025E+03  0.66287605579E+03  0.82520541711E+03  0.10849983161E+04  0.12699999809E+01 0. -1.
       -4    1    3    3    0  502 -0.23843466025E+03 -0.66287605579E+03 -0.55142106845E+03  0.89460748945E+03  0.12699999809E+01 0.  1.
</event>
<event>
 5   0  0.5841424E-05  0.1892142E+04  0.7818609E-02  0.8658778E-01
        1   -1    0    0  501    0  0.00000000000E+00  0.00000000000E+00  0.14390031488E+04  0.14390031488E+04  0.50400001928E-02 0.  1.
       -1   -1    0    0    0  501  0.00000000000E+00  0.00000000000E+00 -0.62199344142E+03  0.62199344144E+03  0.50400001928E-02 0. -1.
    10030    2    1    2    0    0  0.00000000000E+00  0.00000000000E+00  0.81700970738E+03  0.20609965903E+04  0.18921421942E+04 0.  0.
        1    1    3    3  502    0 -0.74581880501E+03  0.22420775017E+03  0.99359568455E+03  0.12624370042E+04  0.50400001928E-02 0.  1.
       -1    1    3    3    0  502  0.74581880501E+03 -0.22420775017E+03 -0.17658597717E+03  0.79855958607E+03  0.50400001928E-02 0. -1.
</event>
<event>
 5   0  0.5841424E-05  0.1894872E+04  0.7818609E-02  0.8657413E-01
       -1   -1    0    0    0  501  0.00000000000E+00  0.00000000000E+00  0.68488052019E+03  0.68488052021E+03  0.50400001928E-02 0. -1.
        1   -1    0    0  501    0  0.00000000000E+00  0.00000000000E+00 -0.13106439522E+04  0.13106439522E+04  0.50400001928E-02 0.  1.
    10030    2    1    2    0    0  0.00000000000E+00  0.00000000000E+00 -0.62576343196E+03  0.19955244724E+04  0.18948715120E+04 0.  0.
        1    1    3    3  502    0  0.14908992252E+03  0.91345618657E+03 -0.52613369112E+03  0.10646345245E+04  0.50400001928E-02 0.  1.
       -1    1    3    3    0  502 -0.14908992252E+03 -0.91345618657E+03 -0.99629740843E+02  0.93088994788E+03  0.50400001928E-02 0. -1.
</event>
<event>
 5   0  0.5628936E-05  0.1898879E+04  0.7818609E-02  0.8655414E-01
        1   -1    0    0  501    0  0.00000000000E+00  0.00000000000E+00  0.10032824137E+04  0.10032824137E+04  0.50400001928E-02 0. -1.
       -1   -1    0    0    0  501  0.00000000000E+00  0.00000000000E+00 -0.89848660722E+03  0.89848660723E+03  0.50400001928E-02 0.  1.
    10030    2    1    2    0    0  0.00000000000E+00  0.00000000000E+00  0.10479580651E+03  0.19017690210E+04  0.18988794717E+04 0.  0.
        5    1    3    3  502    0  0.37110091635E+03 -0.68376948574E+03 -0.49263341716E+03  0.92085089643E+03  0.46999998093E+01 0.  1.
       -5    1    3    3    0  502 -0.37110091635E+03  0.68376948574E+03  0.59742922367E+03  0.98091812454E+03  0.46999998093E+01 0. -1.
</event>
<event>
 5   0  0.1118206E-04  0.1914862E+04  0.7818609E-02  0.8647494E-01
       -2   -1    0    0    0  501  0.00000000000E+00  0.00000000000E+00  0.97316788061E+03  0.97316788061E+03  0.25500000920E-02 0. -1.
        2   -1    0    0  501    0  0.00000000000E+00  0.00000000000E+00 -0.94194834947E+03  0.94194834947E+03  0.25500000920E-02 0.  1.
    10030    2    1    2    0    0  0.00000000000E+00  0.00000000000E+00  0.31219531139E+02  0.19151162301E+04  0.19148617484E+04 0.  0.
        1    1    3    3  502    0 -0.12671782898E+03 -0.77338169515E+03  0.56568033586E+03  0.96652516625E+03  0.50400001928E-02 0. -1.
       -1    1    3    3    0  502  0.12671782898E+03  0.77338169515E+03 -0.53446080473E+03  0.94859106384E+03  0.50400001928E-02 0.  1.
</event>
<event>
 5   0  0.1101678E-04  0.1904069E+04  0.7818609E-02  0.8652833E-01
       -2   -1    0    0    0  501  0.00000000000E+00  0.00000000000E+00  0.13358482013E+04  0.13358482013E+04  0.25500000920E-02 0.  1.
        2   -1    0    0  501    0  0.00000000000E+00  0.00000000000E+00 -0.67849777378E+03  0.67849777378E+03  0.25500000920E-02 0. -1.
    10030    2    1    2    0    0  0.00000000000E+00  0.00000000000E+00  0.65735042752E+03  0.20143459751E+04  0.19040693587E+04 0.  0.
        4    1    3    3  502    0  0.15503173873E+03  0.14848663049E+03 -0.65255870332E+03  0.68696258532E+03  0.12699999809E+01 0. -1.
       -4    1    3    3    0  502 -0.15503173873E+03 -0.14848663049E+03  0.13099091308E+04  0.13273833898E+04  0.12699999809E+01 0.  1.
</event>
<event>
 5   0  0.5614989E-05  0.1912107E+04  0.7818609E-02  0.8648853E-01
       -1   -1    0    0    0  501  0.00000000000E+00  0.00000000000E+00  0.73209215669E+03  0.73209215671E+03  0.50400001928E-02 0.  1.
        1   -1    0    0  501    0  0.00000000000E+00  0.00000000000E+00 -0.12485286762E+04  0.12485286762E+04  0.50400001928E-02 0. -1.
    10030    2    1    2    0    0  0.00000000000E+00  0.00000000000E+00 -0.51643651952E+03  0.19806208329E+04  0.19121067452E+04 0.  0.
        4    1    3    3  502    0 -0.88054660446E+03 -0.37037236884E+03 -0.29831477154E+03  0.10007653721E+04  0.12699999809E+01 0.  1.
       -4    1    3    3    0  502  0.88054660446E+03  0.37037236884E+03 -0.21812174798E+03  0.97985546080E+03  0.12699999809E+01 0. -1.
</event>
<event>
 5   0  0.4061125E-05  0.1889813E+04  0.7818609E-02  0.8659944E-01
        3   -1    0    0  501    0  0.00000000000E+00  0.00000000000E+00  0.78652155384E+03  0.78652156033E+03  0.10100000352E+00 0. -1.
       -3   -1    0    0    0  501  0.00000000000E+00  0.00000000000E+00 -0.11351864638E+04  0.11351864683E+04  0.10100000352E+00 0.  1.
    10030    2    1    2    0    0  0.00000000000E+00  0.00000000000E+00 -0.34866490995E+03  0.19217080286E+04  0.18898133579E+04 0.  0.
        2    1    3    3  502    0 -0.11162168510E+03 -0.78115704531E+03 -0.70289626109E+03  0.10567539372E+04  0.25500000920E-02 0.  1.
       -2    1    3    3    0  502  0.11162168510E+03  0.78115704531E+03  0.35423135114E+03  0.86495409136E+03  0.25500000920E-02 0. -1.
</event>
<event>
 5   0  0.1118206E-04  0.1897701E+04  0.7818609E-02  0.8656002E-01
        2   -1    0    0  501    0  0.00000000000E+00  0.00000000000E+00  0.19957959773E+04  0.19957959773E+04  0.25500000920E-02 0.  1.
       -2   -1    0    0    0  501  0.00000000000E+00  0.00000000000E+00 -0.45110679951E+03  0.45110679952E+03  0.25500000920E-02 0. -1.
    10030    2    1    2    0    0  0.00000000000E+00  0.00000000000E+00  0.15446891778E+04  0.24469027768E+04  0.18977008571E+04 0.  0.
        1    1    3    3  502    0 -0.61795110037E+03 -0.54406872350E+03  0.13804769774E+04  0.16073552885E+04  0.50400001928E-02 0.  1.
       -1    1    3    3    0  502  0.61795110037E+03  0.54406872350E+03  0.16421220039E+03  0.83954748831E+03  0.50400001928E-02 0. -1.
</event>
<event>
 5   0  0.5579109E-05  0.1981692E+04  0.7818609E-02  0.8615228E-01
        1   -1    0    0  501    0  0.00000000000E+00  0.00000000000E+00  0.19932999232E+04  0.19932999232E+04  0.50400001928E-02 0. -1.
       -1   -1    0    0    0  501  0.00000000000E+00  0.00000000000E+00 -0.49253811538E+03  0.49253811541E+03  0.50400001928E-02 0.  1.
    10030    2    1    2    0    0  0.00000000000E+00  0.00000000000E+00  0.15007618078E+04  0.24858380386E+04  0.19816923955E+04 0.  0.
        3    1    3    3  502    0  0.92642473147E+02 -0.52769373097E+03 -0.29517079481E+03  0.61169364051E+03  0.10100000352E+00 0.  1.
       -3    1    3    3    0  502 -0.92642473147E+02  0.52769373097E+03  0.17959326026E+04  0.18741443981E+04  0.10100000352E+00 0. -1.
</event>
<event>
 5   0  0.1141890E-04  0.1890560E+04  0.7818609E-02  0.8659569E-01
       -2   -1    0    0    0  501  0.00000000000E+00  0.00000000000E+00  0.44551204165E+03  0.44551204165E+03  0.25500000920E-02 0.  1.
        2   -1    0    0  501    0  0.00000000000E+00  0.00000000000E+00 -0.20056802436E+04  0.20056802436E+04  0.25500000920E-02 0. -1.
    10030    2    1    2    0    0  0.00000000000E+00  0.00000000000E+00 -0.15601682020E+04  0.24511922853E+04  0.18905604463E+04 0.  0.
        2    1    3    3  502    0  0.74217822917E+03 -0.52718916825E+03 -0.45004393194E+03  0.10155276873E+04  0.25500000920E-02 0.  1.
       -2    1    3    3    0  502 -0.74217822917E+03  0.52718916825E+03 -0.11101242701E+04  0.14356645980E+04  0.25500000920E-02 0. -1.
</event>
<event>
 5   0  0.1141890E-04  0.1909172E+04  0.7818609E-02  0.8650304E-01
       -2   -1    0    0    0  501  0.00000000000E+00  0.00000000000E+00  0.44361078794E+03  0.44361078795E+03  0.25500000920E-02 0. -1.
        2   -1    0    0  501    0  0.00000000000E+00  0.00000000000E+00 -0.20541307755E+04  0.20541307755E+04  0.25500000920E-02 0.  1.
    10030    2    1    2    0    0  0.00000000000E+00  0.00000000000E+00 -0.16105199875E+04  0.24977415634E+04  0.19091721471E+04 0.  0.
        2    1    3    3  502    0  0.21917592059E+03 -0.28022614560E+03 -0.19641597687E+04  0.19961183266E+04  0.25500000920E-02 0.  1.
       -2    1    3    3    0  502 -0.21917592059E+03  0.28022614560E+03  0.35363978119E+03  0.50162323679E+03  0.25500000920E-02 0. -1.
</event>
<event>
 5   0  0.1101678E-04  0.1905837E+04  0.7818609E-02  0.8651956E-01
        2   -1    0    0  501    0  0.00000000000E+00  0.00000000000E+00  0.10779080255E+04  0.10779080255E+04  0.25500000920E-02 0.  1.
       -2   -1    0    0    0  501  0.00000000000E+00  0.00000000000E+00 -0.84242201983E+03  0.84242201983E+03  0.25500000920E-02 0. -1.
    10030    2    1    2    0    0  0.00000000000E+00  0.00000000000E+00  0.23548600569E+03  0.19203300453E+04  0.19058367779E+04 0.  0.
        4    1    3    3  502    0  0.70948420730E+03 -0.85592532990E+01 -0.52318445528E+03  0.88156944614E+03  0.12699999809E+01 0. -1.
       -4    1    3    3    0  502 -0.70948420730E+03  0.85592532990E+01  0.75867046096E+03  0.10387605992E+04  0.12699999809E+01 0.  1.
</event>
<event>
 5   0  0.1133638E-04  0.1916829E+04  0.7818609E-02  0.8646525E-01
        2   -1    0    0  501    0  0.00000000000E+00  0.00000000000E+00  0.15759100296E+04  0.15759100296E+04  0.25500000920E-02 0. -1.
       -2   -1    0    0    0  501  0.00000000000E+00  0.00000000000E+00 -0.58287469990E+03  0.58287469991E+03  0.25500000920E-02 0.  1.
    10030    2    1    2    0    0  0.00000000000E+00  0.00000000000E+00  0.99303532972E+03  0.21587847295E+04  0.19168287202E+04 0.  0.
        3    1    3    3  502    0 -0.31520718841E+03  0.21707018051E+03  0.14861139036E+04  0.15346040465E+04  0.10100000352E+00 0. -1.
       -3    1    3    3    0  502  0.31520718841E+03 -0.21707018051E+03 -0.49307857386E+03  0.62418068305E+03  0.10100000352E+00 0.  1.
</event>
<event>
 5   0  0.1118206E-04  0.1925547E+04  0.7818609E-02  0.8642243E-01
        2   -1    0    0  501    0  0.00000000000E+00  0.00000000000E+00  0.20345606443E+04  0.20345606443E+04  0.25500000920E-02 0.  1.
       -2   -1    0    0    0  501  0.00000000000E+00  0.00000000000E+00 -0.45559359211E+03  0.45559359211E+03  0.25500000920E-02 0. -1.
    10030    2    1    2    0    0  0.00000000000E+00  0.00000000000E+00  0.15789670522E+04  0.24901542365E+04  0.19255469792E+04 0.  0.
        1    1    3    3  502    0  0.35388893777E+03 -0.62203150402E+03 -0.43385975382E+02  0.71696786201E+03  0.50400001928E-02 0. -1.
       -1    1    3    3    0  502 -0.35388893777E+03  0.62203150402E+03  0.16223530276E+04  0.17731863744E+04  0.50400001928E-02 0.  1.
</event>
<event>
 5   0  0.1182630E-04  0.1898610E+04  0.7818609E-02  0.8655548E-01
        2   -1    0    0  501    0  0.00000000000E+00  0.00000000000E+00  0.98914024309E+03  0.98914024309E+03  0.25500000920E-02 0. -1.
       -2   -1    0    0    0  501  0.00000000000E+00  0.00000000000E+00 -0.91107445399E+03  0.91107445400E+03  0.25500000920E-02 0.  1.
    10030    2    1    2    0    0  0.00000000000E+00  0.00000000000E+00  0.78065789095E+02  0.19002146971E+04  0.18986104465E+04 0.  0.
        5    1    3    3  502    0  0.38133160272E+03 -0.42271620841E+03 -0.72125068605E+03  0.91887291080E+03  0.46999998093E+01 0.  1.
       -5    1    3    3    0  502 -0.38133160272E+03  0.42271620841E+03  0.79931647514E+03  0.98134178629E+03  0.46999998093E+01 0. -1.
</event>
<event>
 5   0  0.5614989E-05  0.1904855E+04  0.7818609E-02  0.8652444E-01
        1   -1    0    0  501    0  0.00000000000E+00  0.00000000000E+00  0.41632275187E+03  0.41632275190E+03  0.50400001928E-02 0. -1.
       -1   -1    0    0    0  501  0.00000000000E+00  0.00000000000E+00 -0.21788813837E+04  0.21788813837E+04  0.50400001928E-02 0.  1.
    10030    2    1    2    0    0  0.00000000000E+00  0.00000000000E+00 -0.17625586318E+04  0.25952041356E+04  0.19048547385E+04 0.  0.
        4    1    3    3  502    0 -0.13434131518E+03 -0.85961337725E+03 -0.35338314112E+03  0.93907614422E+03  0.12699999809E+01 0. -1.
       -4    1    3    3    0  502  0.13434131518E+03  0.85961337725E+03 -0.14091754907E+04  0.16561279913E+04  0.12699999809E+01 0.  1.
</event>
<event>
 5   0  0.5628936E-05  0.1904087E+04  0.7818609E-02  0.8652825E-01
       -1   -1    0    0    0  501  0.00000000000E+00  0.00000000000E+00  0.48317752525E+03  0.48317752528E+03  0.50400001928E-02 0.  1.
        1   -1    0    0  501    0  0.00000000000E+00  0.00000000000E+00 -0.18758880184E+04  0.18758880184E+04  0.50400001928E-02 0. -1.
    10030    2    1    2    0    0  0.00000000000E+00  0.00000000000E+00 -0.13927104931E+04  0.23590655437E+04  0.19040871098E+04 0.  0.
        5    1    3    3  502    0 -0.52215950734E+03  0.21058813538E+03  0.25478832031E+03  0.61801059217E+03  0.46999998093E+01 0.  1.
       -5    1    3    3    0  502  0.52215950734E+03 -0.21058813538E+03 -0.16474988134E+04  0.17410549515E+04  0.46999998093E+01 0. -1.
</event>
<event>
 5   0  0.1101678E-04  0.1897150E+04  0.7818609E-02  0.8656276E-01
        2   -1    0    0  501    0  0.00000000000E+00  0.00000000000E+00  0.12996129527E+04  0.12996129527E+04  0.25500000920E-02 0.  1.
       -2   -1    0    0    0  501  0.00000000000E+00  0.00000000000E+00 -0.69235568687E+03  0.69235568688E+03  0.25500000920E-02 0. -1.
    10030    2    1    2    0    0  0.00000000000E+00  0.00000000000E+00  0.60725726583E+03  0.19919686396E+04  0.18971498818E+04 0.  0.
        4    1    3    3  502    0  0.39952192879E+03 -0.32415261626E+03 -0.53313336765E+03  0.74089506059E+03  0.12699999809E+01 0. -1.
       -4    1    3    3    0  502 -0.39952192879E+03  0.32415261626E+03  0.11403906335E+04  0.12510735790E+04  0.12699999809E+01 0.  1.
</event>
<event>
 5   0  0.1141890E-04  0.1910225E+04  0.7818609E-02  0.8649784E-01
        2   -1    0    0  501    0  0.00000000000E+00  0.00000000000E+00  0.18017725255E+04  0.18017725255E+04  0.25500000920E-02 0. -1.
       -2   -1    0    0    0  501  0.00000000000E+00  0.00000000000E+00 -0.50630122320E+03  0.50630122320E+03  0.25500000920E-02 0.  1.
    10030    2    1    2    0    0  0.00000000000E+00  0.00000000000E+00  0.12954713023E+04  0.23080737487E+04  0.19102247340E+04 0.  0.
        2    1    3    3  502    0 -0.57098630675E+03  0.49267524448E+03 -0.60404700433E+02  0.75657318672E+03  0.25500000920E-02 0.  1.
       -2    1    3    3    0  502  0.57098630675E+03 -0.49267524448E+03  0.13558760027E+04  0.15515005620E+04  0.25500000920E-02 0. -1.
</event>
<event>
 5   0  0.5628936E-05  0.1905024E+04  0.7818609E-02  0.8652360E-01
        1   -1    0    0  501    0  0.00000000000E+00  0.00000000000E+00  0.12686447909E+04  0.12686447909E+04  0.50400001928E-02 0. -1.
       -1   -1    0    0    0  501  0.00000000000E+00  0.00000000000E+00 -0.71515594151E+03  0.71515594152E+03  0.50400001928E-02 0.  1.
    10030    2    1    2    0    0  0.00000000000E+00  0.00000000000E+00  0.55348884940E+03  0.19838007324E+04  0.19050237373E+04 0.  0.
        5    1    3    3  502    0  0.80380578667E+03  0.42360462111E+03 -0.20929627478E+02  0.90884803846E+03  0.46999998093E+01 0. -1.
       -5    1    3    3    0  502 -0.80380578667E+03 -0.42360462111E+03  0.57441847688E+03  0.10749526940E+04  0.46999998093E+01 0.  1.
</event>
<event>
 5   0  0.5614989E-05  0.1917819E+04  0.7818609E-02  0.8646037E-01
       -1   -1    0    0    0  501  0.00000000000E+00  0.00000000000E+00  0.76543395530E+03  0.76543395532E+03  0.50400001928E-02 0.  1.
        1   -1    0    0  501    0  0.00000000000E+00  0.00000000000E+00 -0.12012888304E+04  0.12012888304E+04  0.50400001928E-02 0. -1.
    10030    2    1    2    0    0  0.00000000000E+00  0.00000000000E+00 -0.43585487514E+03  0.19667227858E+04  0.19178188246E+04 0.  0.
        4    1    3    3  502    0 -0.77024238917E+03  0.39806021104E+03  0.20212756087E+03  0.89027098878E+03  0.12699999809E+01 0.  1.
       -4    1    3    3    0  502  0.77024238917E+03 -0.39806021104E+03 -0.63798243601E+03  0.10764517970E+04  0.12699999809E+01 0. -1.
</event>
<event>
 5   0  0.1182630E-04  0.1916864E+04  0.7818609E-02  0.8646508E-01
        2   -1    0    0  501    0  0.00000000000E+00  0.00000000000E+00  0.11081310121E+04  0.11081310121E+04  0.25500000920E-02 0. -1.
       -2   -1    0    0    0  501  0.00000000000E+00  0.00000000000E+00 -0.82895564507E+03  0.82895564507E+03  0.25500000920E-02 0.  1.
    10030    2    1    2    0    0  0.00000000000E+00  0.00000000000E+00  0.27917536706E+03  0.19370866572E+04  0.19168635403E+04 0.  0.
        5    1    3    3  502    0 -0.95006348912E+03 -0.11467568898E+03  0.19304397878E+03  0.97624751715E+03  0.46999998093E+01 0.  1.
       -5    1    3    3    0  502  0.95006348912E+03  0.11467568898E+03  0.86131388272E+02  0.96083914005E+03  0.46999998093E+01 0. -1.
</event>
<event>
 5   0  0.5824956E-05  0.1900846E+04  0.7818609E-02  0.8654435E-01
       -1   -1    0    0    0  501  0.00000000000E+00  0.00000000000E+00  0.87698226118E+03  0.87698226120E+03  0.50400001928E-02 0.  1.
        1   -1    0    0  501    0  0.00000000000E+00  0.00000000000E+00 -0.10300141264E+04  0.10300141264E+04  0.50400001928E-02 0. -1.
    10030    2    1    2    0    0  0.00000000000E+00  0.00000000000E+00 -0.15303186520E+03  0.19069963876E+04  0.19008462512E+04 0.  0.
        2    1    3    3  502    0 -0.87572844644E+02 -0.17621028105E+03  0.85632316660E+03  0.87864010376E+03  0.25500000920E-02 0.  1.
       -2    1    3    3    0  502  0.87572844644E+02  0.17621028105E+03 -0.10093550318E+04  0.10283562838E+04  0.25500000920E-02 0. -1.
</event>
<event>
 5   0  0.5579109E-05  0.1882573E+04  0.7818609E-02  0.8663580E-01
        1   -1    0    0  501    0  0.00000000000E+00  0.00000000000E+00  0.13740466649E+04  0.13740466649E+04  0.50400001928E-02 0.  1.
       -1   -1    0    0    0  501  0.00000000000E+00  0.00000000000E+00 -0.64482540644E+03  0.64482540646E+03  0.50400001928E-02 0. -1.
    10030    2    1    2    0    0  0.00000000000E+00  0.00000000000E+00  0.72922125849E+03  0.20188720714E+04  0.18825729194E+04 0.  0.
        3    1    3    3  502    0  0.17546651293E+03 -0.74725946389E+03 -0.21966064699E+03  0.79839590028E+03  0.10100000352E+00 0. -1.
       -3    1    3    3    0  502 -0.17546651293E+03  0.74725946389E+03  0.94888190548E+03  0.12204761711E+04  0.10100000352E+00 0.  1.
</event>
<event>
 5   0  0.5841424E-05  0.1893989E+04  0.7818609E-02  0.8657854E-01
        1   -1    0    0  501    0  0.00000000000E+00  0.00000000000E+00  0.17202235966E+04  0.17202235967E+04  0.50400001928E-02 0.  1.
       -1   -1    0    0    0  501  0.00000000000E+00  0.00000000000E+00 -0.52132679545E+03  0.52132679548E+03  0.50400001928E-02 0. -1.
    10030    2    1    2    0    0  0.00000000000E+00  0.00000000000E+00  0.11988968012E+04  0.22415503921E+04  0.18939890761E+04 0.  0.
        1    1    3    3  502    0  0.13667260324E+02 -0.37397623805E+03 -0.43010361827E+03  0.57011765724E+03  0.50400001928E-02 0. -1.
       -1    1    3    3    0  502 -0.13667260324E+02  0.37397623805E+03  0.16290004195E+04  0.16714327349E+04  0.50400001928E-02 0.  1.
</event>
<event>
 5   0  0.1118206E-04  0.1903277E+04  0.7818609E-02  0.8653227E-01
       -2   -1    0    0    0  501  0.00000000000E+00  0.00000000000E+00  0.56027191696E+03  0.56027191696E+03  0.25500000920E-02 0.  1.
        2   -1    0    0  501    0  0.00000000000E+00  0.00000000000E+00 -0.16163865596E+04  0.16163865596E+04  0.25500000920E-02 0. -1.
    10030    2    1    2    0    0  0.00000000000E+00  0.00000000000E+00 -0.10561146426E+04  0.21766584766E+04  0.19032771698E+04 0.  0.
        1    1    3    3  502    0  0.85291278467E+03 -0.35958435304E+03 -0.27527762371E+03  0.96568053482E+03  0.50400001928E-02 0.  1.
       -1    1    3    3    0  502 -0.85291278467E+03  0.35958435304E+03 -0.78083701892E+03  0.12109779417E+04  0.50400001928E-02 0. -1.
</event>
<event>
 5   0  0.1133638E-04  0.1903508E+04  0.7818609E-02  0.8653112E-01
        2   -1    0    0  501    0  0.00000000000E+00  0.00000000000E+00  0.15912935207E+04  0.15912935207E+04  0.25500000920E-02 0. -1.
       -2   -1    0    0    0  501  0.00000000000E+00  0.00000000000E+00 -0.56924502167E+03  0.56924502168E+03  0.25500000920E-02 0.  1.
    10030    2    1    2    0    0  0.00000000000E+00  0.00000000000E+00  0.10220484991E+04  0.21605385424E+04  0.19035082503E+04 0.  0.
        3    1    3    3  502    0 -0.20274710367E+03 -0.82735182644E+03  0.99286874938E+03  0.13082070923E+04  0.10100000352E+00 0.  1.
       -3    1    3    3    0  502  0.20274710367E+03  0.82735182644E+03  0.29179749669E+02  0.85233145006E+03  0.10100000352E+00 0. -1.
</event>
<event>
 5   0  0.1182630E-04  0.1924463E+04  0.7818609E-02  0.8642774E-01
       -2   -1    0    0    0  501  0.00000000000E+00  0.00000000000E+00  0.71412292330E+03  0.71412292330E+03  0.25500000920E-02 0.  1.
        2   -1    0    0  501    0  0.00000000000E+00  0.00000000000E+00 -0.12965412210E+04  0.12965412210E+04  0.25500000920E-02 0. -1.
    10030    2    1    2    0    0  0.00000000000E+00  0.00000000000E+00 -0.58241829767E+03  0.20106641443E+04  0.19244633609E+04 0.  0.
        5    1    3    3  502    0 -0.46808789404E+03  0.17622363486E+03 -0.11500426746E+04  0.12541057729E+04  0.46999998093E+01 0. -1.
       -5    1    3    3    0  502  0.46808789404E+03 -0.17622363486E+03  0.56762437697E+03  0.75655837141E+03  0.46999998093E+01 0.  1.
</event>
<event>
 5   0  0.1101678E-04  0.1899815E+04  0.7818609E-02  0.8654949E-01
       -2   -1    0    0    0  501  0.00000000000E+00  0.00000000000E+00  0.97045490870E+03  0.97045490870E+03  0.25500000920E-02 0.  1.
        2   -1    0    0  501    0  0.00000000000E+00  0.00000000000E+00 -0.92979504601E+03  0.92979504602E+03  0.25500000920E-02 0. -1.
    10030    2    1    2    0    0  0.00000000000E+00  0.00000000000E+00  0.40659862687E+02  0.19002499547E+04  0.18998149031E+04 0.  0.
        4    1    3    3  502    0 -0.29135469711E+03 -0.17790962188E+03  0.90697703446E+03  0.96909666547E+03  0.12699999809E+01 0.  1.
       -4    1    3    3    0  502  0.29135469711E+03  0.17790962188E+03 -0.86631717177E+03  0.93115328925E+03  0.12699999809E+01 0. -1.
</event>
<event>
 5   0  0.1118206E-04  0.1901327E+04  0.7818609E-02  0.8654196E-01
        2   -1    0    0  501    0  0.00000000000E+00  0.00000000000E+00  0.17505869988E+04  0.17505869988E+04  0.25500000920E-02 0.  1.
       -2   -1    0    0    0  501  0.00000000000E+00  0.00000000000E+00 -0.51626191269E+03  0.51626191270E+03  0.25500000920E-02 0. -1.
    10030    2    1    2    0    0  0.00000000000E+00  0.00000000000E+00  0.12343250861E+04  0.22668489115E+04  0.19013273178E+04 0.  0.
        1    1    3    3  502    0 -0.16676796177E+03 -0.83727228914E+03  0.11158076592E+04  0.14049424086E+04  0.50400001928E-02 0.  1.
       -1    1    3    3    0  502  0.16676796177E+03  0.83727228914E+03  0.11851742696E+03  0.86190650291E+03  0.50400001928E-02 0. -1.
</event>
<event>
 5   0  0.5824956E-05  0.1890649E+04  0.7818609E-02  0.8659525E-01
        1   -1    0    0  501    0  0.00000000000E+00  0.00000000000E+00  0.86397537255E+03  0.86397537256E+03  0.50400001928E-02 0.  1.
       -1   -1    0    0    0  501  0.00000000000E+00  0.00000000000E+00 -0.10343328775E+04  0.10343328775E+04  0.50400001928E-02 0. -1.
    10030    2    1    2    0    0  0.00000000000E+00  0.00000000000E+00 -0.17035750495E+03  0.18983082501E+04  0.18906487069E+04 0.  0.
        2    1    3    3  502    0 -0.14111475747E+03  0.59527933821E+03 -0.80876979334E+03  0.10140904515E+04  0.25500000920E-02 0. -1.
       -2    1    3    3    0  502  0.14111475747E+03 -0.59527933821E+03  0.63841228838E+03  0.88421779853E+03  0.25500000920E-02 0.  1.
</event>
<event>
 5   0  0.5579109E-05  0.1895363E+04  0.7818609E-02  0.8657168E-01
        1   -1    0    0  501    0  0.00000000000E+00  0.00000000000E+00  0.15281653718E+04  0.15281653718E+04  0.50400001928E-02 0.  1.
       -1   -1    0    0    0  501  0.00000000000E+00  0.00000000000E+00 -0.58769831044E+03  0.58769831047E+03  0.50400001928E-02 0. -1.
    10030    2    1    2    0    0  0.00000000000E+00  0.00000000000E+00  0.94046706139E+03  0.21158636823E+04  0.18953629807E+04 0.  0.
        3    1    3    3  502    0 -0.89472641560E+02 -0.37321420936E+03 -0.49706194565E+03  0.62798470338E+03  0.10100000352E+00 0. -1.
       -3    1    3    3    0  502  0.89472641560E+02  0.37321420936E+03  0.14375290070E+04  0.14878789789E+04  0.10100000352E+00 0.  1.
</event>
<event>
 5   0  0.1133638E-04  0.1908879E+04  0.7818609E-02  0.8650449E-01
       -2   -1    0    0    0  501  0.00000000000E+00  0.00000000000E+00  0.51580852546E+03  0.51580852547E+03  0.25500000920E-02 0. -1.
        2   -1    0    0  501    0  0.00000000000E+00  0.00000000000E+00 -0.17660713610E+04  0.17660713610E+04  0.25500000920E-02 0.  1.
    10030    2    1    2    0    0  0.00000000000E+00  0.00000000000E+00 -0.12502628356E+04  0.22818798865E+04  0.19088789009E+04 0.  0.
        3    1    3    3  502    0  0.59680208879E+03 -0.30109970700E+03 -0.14395167813E+04  0.15871491236E+04  0.10100000352E+00 0.  1.
       -3    1    3    3    0  502 -0.59680208879E+03  0.30109970700E+03  0.18925394573E+03  0.69473076289E+03  0.10100000352E+00 0. -1.
</event>
<event>
 5   0  0.1133638E-04  0.1907427E+04  0.7818609E-02  0.8651168E-01
        2   -1    0    0  501    0  0.00000000000E+00  0.00000000000E+00  0.14674341955E+04  0.14674341955E+04  0.25500000920E-02 0.  1.
       -2   -1    0    0    0  501  0.00000000000E+00  0.00000000000E+00 -0.61983658398E+03  0.61983658399E+03  0.25500000920E-02 0. -1.
    10030    2    1    2    0    0  0.00000000000E+00  0.00000000000E+00  0.84759761150E+03  0.20872707795E+04  0.19074269569E+04 0.  0.
        3    1    3    3  502    0  0.93993857832E+03  0.77522320734E+02  0.57884469279E+03  0.11065963265E+04  0.10100000352E+00 0.  1.
       -3    1    3    3    0  502 -0.93993857832E+03 -0.77522320734E+02  0.26875291871E+03  0.98067445298E+03  0.10100000352E+00 0. -1.
</event>
<event>
 5   0  0.5614989E-05  0.1901414E+04  0.7818609E-02  0.8654153E-01
        1   -1    0    0  501    0  0.00000000000E+00  0.00000000000E+00  0.91240635542E+03  0.91240635543E+03  0.50400001928E-02 0.  1.
       -1   -1    0    0    0  501  0.00000000000E+00  0.00000000000E+00 -0.99061510519E+03  0.99061510520E+03  0.50400001928E-02 0. -1.
    10030    2    1    2    0    0  0.00000000000E+00  0.00000000000E+00 -0.78208749773E+02  0.19030214606E+04  0.19014137033E+04 0.  0.
        4    1    3    3  502    0 -0.65264235991E+03 -0.60408224519E+03 -0.37552025867E+03  0.96533646283E+03  0.12699999809E+01 0. -1.
       -4    1    3    3    0  502  0.65264235991E+03  0.60408224519E+03  0.29731150889E+03  0.93768499781E+03  0.12699999809E+01 0.  1.
</event>
<event>
 5   0  0.5841424E-05  0.1897098E+04  0.7818609E-02  0.8656302E-01
        1   -1    0    0  501    0  0.00000000000E+00  0.00000000000E+00  0.88364187105E+03  0.88364187106E+03  0.50400001928E-02 0.  1.
       -1   -1    0    0    0  501  0.00000000000E+00  0.00000000000E+00 -0.10182239450E+04  0.10182239450E+04  0.50400001928E-02 0. -1.
    10030    2    1    2    0    0  0.00000000000E+00  0.00000000000E+00 -0.13458207396E+03  0.19018658161E+04  0.18970981123E+04 0.  0.
        1    1    3    3  502    0  0.60799222143E+03  0.10978034608E+03  0.65426709938E+03  0.89987315943E+03  0.50400001928E-02 0.  1.
       -1    1    3    3    0  502 -0.60799222143E+03 -0.10978034608E+03 -0.78884917334E+03  0.10019926567E+04  0.50400001928E-02 0. -1.
</event>
<event>
 5   0  0.1182630E-04  0.1901560E+04  0.7818609E-02  0.8654080E-01
        2   -1    0    0  501    0  0.00000000000E+00  0.00000000000E+00  0.10146362698E+04  0.10146362698E+04  0.25500000920E-02 0. -1.
       -2   -1    0    0    0  501  0.00000000000E+00  0.00000000000E+00 -0.89094290910E+03  0.89094290910E+03  0.25500000920E-02 0.  1.
    10030    2    1    2    0    0  0.00000000000E+00  0.00000000000E+00  0.12369336073E+03  0.19055791789E+04  0.19015604013E+04 0.  0.
        5    1    3    3  502    0 -0.33586950494E+03  0.14817550035E+03  0.94073876053E+03  0.10098394966E+04  0.46999998093E+01 0. -1.
       -5    1    3    3    0  502  0.33586950494E+03 -0.14817550035E+03 -0.81704539980E+03  0.89573968238E+03  0.46999998093E+01 0.  1.
</event>
<event>
 5   0  0.5841424E-05  0.1905202E+04  0.7818609E-02  0.8652271E-01
       -1   -1    0    0    0  501  0.00000000000E+00  0.00000000000E+00  0.60853950536E+03  0.60853950538E+03  0.50400001928E-02 0. -1.
        1   -1    0    0  501    0  0.00000000000E+00  0.00000000000E+00 -0.14911915675E+04  0.14911915675E+04  0.50400001928E-02 0.  1.
    10030    2    1    2    0    0  0.00000000000E+00  0.00000000000E+00 -0.88265206216E+03  0.20997310729E+04  0.19052023293E+04 0.  0.
        1    1    3    3  502    0  0.70614903822E+03 -0.42220047457E+03  0.87855222625E+02  0.82741660913E+03  0.50400001928E-02 0. -1.
       -1    1    3    3    0  502 -0.70614903822E+03  0.42220047457E+03 -0.97050728478E+03  0.12723144638E+04  0.50400001928E-02 0.  1.
</event>
<event>
 5   0  0.5841424E-05  0.1729331E+04  0.7818609E-02  0.8744810E-01
        1   -1    0    0  501    0  0.00000000000E+00  0.00000000000E+00  0.16743234682E+04  0.16743234682E+04  0.50400001928E-02 0.  1.
       -1   -1    0    0    0  501  0.00000000000E+00  0.00000000000E+00 -0.44653660916E+03  0.44653660919E+03  0.50400001928E-02 0. -1.
    10030    2    1    2    0    0  0.00000000000E+00  0.00000000000E+00  0.12277868590E+04  0.21208600774E+04  0.17293313438E+04 0.  0.
        1    1    3    3  502    0 -0.46898793451E+03 -0.65712652387E+03  0.99364697061E+03  0.12802731167E+04  0.50400001928E-02 0.  1.
       -1    1    3    3    0  502  0.46898793451E+03  0.65712652387E+03  0.23413988840E+03  0.84058696068E+03  0.50400001928E-02 0. -1.
</event>
<event>
 5   0  0.1101678E-04  0.1901576E+04  0.7818609E-02  0.8654072E-01
       -2   -1    0    0    0  501  0.00000000000E+00  0.00000000000E+00  0.17945511394E+04  0.17945511394E+04  0.25500000920E-02 0.  1.
        2   -1    0    0  501    0  0.00000000000E+00  0.00000000000E+00 -0.50374571289E+03  0.50374571290E+03  0.25500000920E-02 0. -1.
    10030    2    1    2    0    0  0.00000000000E+00  0.00000000000E+00  0.12908054266E+04  0.22982968523E+04  0.19015756026E+04 0.  0.
        4    1    3    3  502    0 -0.49963065946E+03 -0.24725728739E+03  0.15763040715E+04  0.16719758075E+04  0.12699999809E+01 0.  1.
       -4    1    3    3    0  502  0.49963065946E+03  0.24725728739E+03 -0.28549864497E+03  0.62632104485E+03  0.12699999809E+01 0. -1.
</event>
<event>
 5   0  0.5579109E-05  0.1908894E+04  0.7818609E-02  0.8650442E-01
        1   -1    0    0  501    0  0.00000000000E+00  0.00000000000E+00  0.10072875868E+04  0.10072875868E+04  0.50400001928E-02 0.  1.
       -1   -1    0    0    0  501  0.00000000000E+00  0.00000000000E+00 -0.90437846801E+03  0.90437846803E+03  0.50400001928E-02 0. -1.
    10030    2    1    2    0    0  0.00000000000E+00  0.00000000000E+00  0.10290911879E+03  0.19116660548E+04  0.19088941350E+04 0.  0.
        3    1    3    3  502    0 -0.78952737183E+03  0.47003964111E+03 -0.20714213150E+03  0.94191220819E+03  0.10100000352E+00 0. -1.
       -3    1    3    3    0  502  0.78952737183E+03 -0.47003964111E+03  0.31005125029E+03  0.96975384665E+03  0.10100000352E+00 0.  1.
</event>
<event>
 5   0  0.5579109E-05  0.1874689E+04  0.7818609E-02  0.8667559E-01
        1   -1    0    0  501    0  0.00000000000E+00  0.00000000000E+00  0.16423484055E+04  0.16423484055E+04  0.50400001928E-02 0.  1.
       -1   -1    0    0    0  501  0.00000000000E+00  0.00000000000E+00 -0.53497457528E+03  0.53497457531E+03  0.50400001928E-02 0. -1.
    10030    2    1    2    0    0  0.00000000000E+00  0.00000000000E+00  0.11073738302E+04  0.21773229808E+04  0.18746889243E+04 0.  0.
        3    1    3    3  502    0  0.12141866506E+03 -0.65738426438E+03  0.13168085301E+04  0.14767807144E+04  0.10100000352E+00 0.  1.
       -3    1    3    3    0  502 -0.12141866506E+03  0.65738426438E+03 -0.20943469991E+03  0.70054226639E+03  0.10100000352E+00 0. -1.
</event>
<event>
 5   0  0.5841424E-05  0.1904506E+04  0.7818609E-02  0.8652617E-01
        1   -1    0    0  501    0  0.00000000000E+00  0.00000000000E+00  0.11995243815E+04  0.11995243815E+04  0.50400001928E-02 0. -1.
       -1   -1    0    0    0  501  0.00000000000E+00  0.00000000000E+00 -0.75595425368E+03  0.75595425370E+03  0.50400001928E-02 0.  1.
    10030    2    1    2    0    0  0.00000000000E+00  0.00000000000E+00  0.44357012779E+03  0.19554786352E+04  0.19045057717E+04 0.  0.
        1    1    3    3  502    0 -0.70127270575E+03 -0.16062806580E+03  0.86234184122E+03  0.11230397297E+04  0.50400001928E-02 0. -1.
       -1    1    3    3    0  502  0.70127270575E+03  0.16062806580E+03 -0.41877171343E+03  0.83243890548E+03  0.50400001928E-02 0.  1.
</event>
<event>
 5   0  0.5628936E-05  0.1869243E+04  0.7818609E-02  0.8670319E-01
       -1   -1    0    0    0  501  0.00000000000E+00  0.00000000000E+00  0.52264616354E+03  0.52264616356E+03  0.50400001928E-02 0. -1.
        1   -1    0    0  501    0  0.00000000000E+00  0.00000000000E+00 -0.16713360249E+04  0.16713360249E+04  0.50400001928E-02 0.  1.
    10030    2    1    2    0    0  0.00000000000E+00  0.00000000000E+00 -0.11486898614E+04  0.21939821885E+04  0.18692430141E+04 0.  0.
        5    1    3    3  502    0 -0.33418430235E+03 -0.79928753574E+03 -0.98591275510E+03  0.13124731477E+04  0.46999998093E+01 0.  1.
       -5    1    3    3    0  502  0.33418430235E+03  0.79928753574E+03 -0.16277710630E+03  0.88150904082E+03  0.46999998093E+01 0. -1.
</event>
<event>
 5   0  0.5628936E-05  0.1891043E+04  0.7818609E-02  0.8659328E-01
        1   -1    0    0  501    0  0.00000000000E+00  0.00000000000E+00  0.98414967384E+03  0.98414967385E+03  0.50400001928E-02 0. -1.
       -1   -1    0    0    0  501  0.00000000000E+00  0.00000000000E+00 -0.90840923308E+03  0.90840923309E+03  0.50400001928E-02 0.  1.
    10030    2    1    2    0    0  0.00000000000E+00  0.00000000000E+00  0.75740440763E+02  0.18925589069E+04  0.18910427287E+04 0.  0.
        5    1    3    3  502    0  0.15687196207E+03  0.20595651967E+03  0.94797365130E+03  0.98270190497E+03  0.46999998093E+01 0. -1.
       -5    1    3    3    0  502 -0.15687196207E+03 -0.20595651967E+03 -0.87223321054E+03  0.90985700197E+03  0.46999998093E+01 0.  1.
</event>
<event>
 5   0  0.5824956E-05  0.1912332E+04  0.7818609E-02  0.8648742E-01
        1   -1    0    0  501    0  0.00000000000E+00  0.00000000000E+00  0.10727036196E+04  0.10727036197E+04  0.50400001928E-02 0.  1.
       -1   -1    0    0    0  501  0.00000000000E+00  0.00000000000E+00 -0.85228860369E+03  0.85228860371E+03  0.50400001928E-02 0. -1.
    10030    2    1    2    0    0  0.00000000000E+00  0.00000000000E+00  0.22041501595E+03  0.19249922234E+04  0.19123316346E+04 0.  0.
        2    1    3    3  502    0  0.11444531390E+02  0.25780339548E+03  0.10369871543E+04  0.10686140212E+04  0.25500000920E-02 0.  1.
       -2    1    3    3    0  502 -0.11444531390E+02 -0.25780339548E+03 -0.81657213837E+03  0.85637820219E+03  0.25500000920E-02 0. -1.
</event>
<event>
 5   0  0.5824956E-05  0.1899264E+04  0.7818609E-02  0.8655223E-01
        1   -1    0    0  501    0  0.00000000000E+00  0.00000000000E+00  0.14549100649E+04  0.14549100649E+04  0.50400001928E-02 0. -1.
       -1   -1    0    0    0  501  0.00000000000E+00  0.00000000000E+00 -0.61983284365E+03  0.61983284367E+03  0.50400001928E-02 0.  1.
    10030    2    1    2    0    0  0.00000000000E+00  0.00000000000E+00  0.83507722128E+03  0.20747429086E+04  0.18992641131E+04 0.  0.
        2    1    3    3  502    0  0.32035417507E+03 -0.49005026045E+03  0.12342987544E+04  0.13661147355E+04  0.25500000920E-02 0. -1.
       -2    1    3    3    0  502 -0.32035417507E+03  0.49005026045E+03 -0.39922153315E+03  0.70862817315E+03  0.25500000920E-02 0.  1.
</event>
<event>
 5   0  0.5824956E-05  0.1909716E+04  0.7818609E-02  0.8650035E-01
        1   -1    0    0  501    0  0.00000000000E+00  0.00000000000E+00  0.85196485000E+03  0.85196485002E+03  0.50400001928E-02 0.  1.
       -1   -1    0    0    0  501  0.00000000000E+00  0.00000000000E+00 -0.10701772179E+04  0.10701772179E+04  0.50400001928E-02 0. -1.
    10030    2    1    2    0    0  0.00000000000E+00  0.00000000000E+00 -0.21821236785E+03  0.19221420679E+04  0.19097155525E+04 0.  0.
        2    1    3    3  502    0  0.43060910870E+03  0.41339954771E+02 -0.96589149065E+03  0.10583381161E+04  0.25500000920E-02 0. -1.
       -2    1    3    3    0  502 -0.43060910870E+03 -0.41339954771E+02  0.74767912280E+03  0.86380395174E+03  0.25500000920E-02 0.  1.
</event>
<event>
 5   0  0.1182630E-04  0.1970939E+04  0.7818609E-02  0.8620329E-01
        2   -1    0    0  501    0  0.00000000000E+00  0.00000000000E+00  0.10277422845E+04  0.10277422845E+04  0.25500000920E-02 0.  1.
       -2   -1    0    0    0  501  0.00000000000E+00  0.00000000000E+00 -0.94493590281E+03  0.94493590281E+03  0.25500000920E-02 0. -1.
    10030    2    1    2    0    0  0.00000000000E+00  0.00000000000E+00  0.82806381684E+02  0.19726781873E+04  0.19709394546E+04 0.  0.
        5    1    3    3  502    0  0.67333524784E+03 -0.60767592062E+03  0.42707169975E+03  0.10025281578E+04  0.46999998093E+01 0.  1.
       -5    1    3    3    0  502 -0.67333524784E+03  0.60767592062E+03 -0.34426531807E+03  0.97015002949E+03  0.46999998093E+01 0. -1.
</event>
<event>
 5   0  0.5841424E-05  0.1893435E+04  0.7818609E-02  0.8658131E-01
        1   -1    0    0  501    0  0.00000000000E+00  0.00000000000E+00  0.11282638305E+04  0.11282638305E+04  0.50400001928E-02 0.  1.
       -1   -1    0    0    0  501  0.00000000000E+00  0.00000000000E+00 -0.79438316353E+03  0.79438316355E+03  0.50400001928E-02 0. -1.
    10030    2    1    2    0    0  0.00000000000E+00  0.00000000000E+00  0.33388066698E+03  0.19226469941E+04  0.18934347530E+04 0.  0.
        1    1    3    3  502    0 -0.18637690347E+03 -0.96698925723E+02  0.11043223126E+04  0.11241062238E+04  0.50400001928E-02 0.  1.
       -1    1    3    3    0  502  0.18637690347E+03  0.96698925723E+02 -0.77044164561E+03  0.79854077022E+03  0.50400001928E-02 0. -1.
</event>
<event>
 5   0  0.1133638E-04  0.1871781E+04  0.7818609E-02  0.8669032E-01
        2   -1    0    0  501    0  0.00000000000E+00  0.00000000000E+00  0.65674951995E+03  0.65674951995E+03  0.25500000920E-02 0. -1.
       -2   -1    0    0    0  501  0.00000000000E+00  0.00000000000E+00 -0.13336760458E+04  0.13336760458E+04  0.25500000920E-02 0.  1.
    10030    2    1    2    0    0  0.00000000000E+00  0.00000000000E+00 -0.67692652580E+03  0.19904255657E+04  0.18717810800E+04 0.  0.
        3    1    3    3  502    0 -0.27751808808E+02 -0.92916237933E+03 -0.45386979685E+03  0.10344615473E+04  0.10100000352E+00 0.  1.
       -3    1    3    3    0  502  0.27751808808E+02  0.92916237933E+03 -0.22305672895E+03  0.95596401846E+03  0.10100000352E+00 0. -1.
</event>
<event>
 5   0  0.5614989E-05  0.1903351E+04  0.7818609E-02  0.8653190E-01
       -1   -1    0    0    0  501  0.00000000000E+00  0.00000000000E+00  0.94354648759E+03  0.94354648760E+03  0.50400001928E-02 0. -1.
        1   -1    0    0  501    0  0.00000000000E+00  0.00000000000E+00 -0.95987444423E+03  0.95987444425E+03  0.50400001928E-02 0.  1.
    10030    2    1    2    0    0  0.00000000000E+00  0.00000000000E+00 -0.16327956647E+02  0.19034209318E+04  0.19033508982E+04 0.  0.
        4    1    3    3  502    0  0.32599374036E+03  0.65328972196E+03  0.60228879616E+03  0.94647386992E+03  0.12699999809E+01 0. -1.
       -4    1    3    3    0  502 -0.32599374036E+03 -0.65328972196E+03 -0.61861675280E+03  0.95694706192E+03  0.12699999809E+01 0.  1.
</event>
<event>
 5   0  0.1101678E-04  0.1900920E+04  0.7818609E-02  0.8654399E-01
        2   -1    0    0  501    0  0.00000000000E+00  0.00000000000E+00  0.12186794262E+04  0.12186794262E+04  0.25500000920E-02 0.  1.
       -2   -1    0    0    0  501  0.00000000000E+00  0.00000000000E+00 -0.74127307053E+03  0.74127307053E+03  0.25500000920E-02 0. -1.
    10030    2    1    2    0    0  0.00000000000E+00  0.00000000000E+00  0.47740635566E+03  0.19599524967E+04  0.19009200301E+04 0.  0.
        4    1    3    3  502    0 -0.17074947969E+03 -0.50399211969E+03 -0.57328703711E+03  0.78219120511E+03  0.12699999809E+01 0. -1.
       -4    1    3    3    0  502  0.17074947969E+03  0.50399211969E+03  0.10506933928E+04  0.11777612916E+04  0.12699999809E+01 0.  1.
</event>
<event>
 5   0  0.1118206E-04  0.1896534E+04  0.7818609E-02  0.8656583E-01
       -2   -1    0    0    0  501  0.00000000000E+00  0.00000000000E+00  0.52254916226E+03  0.52254916227E+03  0.25500000920E-02 0. -1.
        2   -1    0    0  501    0  0.00000000000E+00  0.00000000000E+00 -0.17208153667E+04  0.17208153667E+04  0.25500000920E-02 0.  1.
    10030    2    1    2    0    0  0.00000000000E+00  0.00000000000E+00 -0.11982662044E+04  0.22433645289E+04  0.18965343427E+04 0.  0.
        1    1    3    3  502    0 -0.34825623961E+03 -0.11388071050E+02 -0.16423453970E+04  0.16789015754E+04  0.50400001928E-02 0.  1.
       -1    1    3    3    0  502  0.34825623961E+03  0.11388071050E+02  0.44407919263E+03  0.56446295356E+03  0.50400001928E-02 0. -1.
</event>
<event>
 5   0  0.5579109E-05  0.1891067E+04  0.7818609E-02  0.8659316E-01
       -1   -1    0    0    0  501  0.00000000000E+00  0.00000000000E+00  0.84125751978E+03  0.84125751980E+03  0.50400001928E-02 0. -1.
        1   -1    0    0  501    0  0.00000000000E+00  0.00000000000E+00 -0.10627352048E+04  0.10627352048E+04  0.50400001928E-02 0.  1.
    10030    2    1    2    0    0  0.00000000000E+00  0.00000000000E+00 -0.22147768505E+03  0.19039927246E+04  0.18910674051E+04 0.  0.
        3    1    3    3  502    0 -0.78779532600E+03 -0.52288784380E+03 -0.11163914382E+03  0.95210108785E+03  0.10100000352E+00 0.  1.
       -3    1    3    3    0  502  0.78779532600E+03  0.52288784380E+03 -0.10983854123E+03  0.95189163679E+03  0.10100000352E+00 0. -1.
</event>
<event>
 5   0  0.1133638E-04  0.1881355E+04  0.7818609E-02  0.8664193E-01
       -2   -1    0    0    0  501  0.00000000000E+00  0.00000000000E+00  0.49857563368E+03  0.49857563368E+03  0.25500000920E-02 0. -1.
        2   -1    0    0  501    0  0.00000000000E+00  0.00000000000E+00 -0.17748034369E+04  0.17748034369E+04  0.25500000920E-02 0.  1.
    10030    2    1    2    0    0  0.00000000000E+00  0.00000000000E+00 -0.12762278032E+04  0.22733790706E+04  0.18813545633E+04 0.  0.
        3    1    3    3  502    0 -0.16716976565E+03 -0.35244109768E+03  0.39623781084E+03  0.55602596237E+03  0.10100000352E+00 0. -1.
       -3    1    3    3    0  502  0.16716976565E+03  0.35244109768E+03 -0.16724656141E+04  0.17173531082E+04  0.10100000352E+00 0.  1.
</event>
<event>
 5   0  0.5614989E-05  0.1899229E+04  0.7818609E-02  0.8655240E-01
        1   -1    0    0  501    0  0.00000000000E+00  0.00000000000E+00  0.15094202732E+04  0.15094202732E+04  0.50400001928E-02 0.  1.
       -1   -1    0    0    0  501  0.00000000000E+00  0.00000000000E+00 -0.59742682707E+03  0.59742682709E+03  0.50400001928E-02 0. -1.
    10030    2    1    2    0    0  0.00000000000E+00  0.00000000000E+00  0.91199344610E+03  0.21068471003E+04  0.18992294907E+04 0.  0.
        4    1    3    3  502    0 -0.75003474376E+03  0.52620422055E+03  0.17905928142E+03  0.93354530567E+03  0.12699999809E+01 0. -1.
       -4    1    3    3    0  502  0.75003474376E+03 -0.52620422055E+03  0.73293416468E+03  0.11733017946E+04  0.12699999809E+01 0.  1.
</event>
<event>
 5   0  0.1141890E-04  0.1837027E+04  0.7818609E-02  0.8686853E-01
       -2   -1    0    0    0  501  0.00000000000E+00  0.00000000000E+00  0.79274623138E+03  0.79274623139E+03  0.25500000920E-02 0. -1.
        2   -1    0    0  501    0  0.00000000000E+00  0.00000000000E+00 -0.10642338056E+04  0.10642338056E+04  0.25500000920E-02 0.  1.
    10030    2    1    2    0    0  0.00000000000E+00  0.00000000000E+00 -0.27148757422E+03  0.18569800370E+04  0.18370273147E+04 0.  0.
        2    1    3    3  502    0 -0.44877652731E+03 -0.72189815193E+03  0.21607378354E+03  0.87705484045E+03  0.25500000920E-02 0. -1.
       -2    1    3    3    0  502  0.44877652731E+03  0.72189815193E+03 -0.48756135776E+03  0.97992519654E+03  0.25500000920E-02 0.  1.
</event>
<event>
 5   0  0.5614989E-05  0.1991612E+04  0.7818609E-02  0.8610552E-01
       -1   -1    0    0    0  501  0.00000000000E+00  0.00000000000E+00  0.51489345770E+03  0.51489345773E+03  0.50400001928E-02 0.  1.
        1   -1    0    0  501    0  0.00000000000E+00  0.00000000000E+00 -0.19258934975E+04  0.19258934975E+04  0.50400001928E-02 0. -1.
    10030    2    1    2    0    0  0.00000000000E+00  0.00000000000E+00 -0.14110000398E+04  0.24407869552E+04  0.19916123741E+04 0.  0.
        4    1    3    3  502    0 -0.94049221522E+03 -0.25796015879E+02 -0.30567313033E+03  0.98925664862E+03  0.12699999809E+01 0.  1.
       -4    1    3    3    0  502  0.94049221522E+03  0.25796015879E+02 -0.11053269094E+04  0.14515303066E+04  0.12699999809E+01 0. -1.
</event>
<event>
 5   0  0.5614989E-05  0.1895306E+04  0.7818609E-02  0.8657196E-01
       -1   -1    0    0    0  501  0.00000000000E+00  0.00000000000E+00  0.89958908894E+03  0.89958908896E+03  0.50400001928E-02 0. -1.
        1   -1    0    0  501    0  0.00000000000E+00  0.00000000000E+00 -0.99828514805E+03  0.99828514806E+03  0.50400001928E-02 0.  1.
    10030    2    1    2    0    0  0.00000000000E+00  0.00000000000E+00 -0.98696059110E+02  0.18978742370E+04  0.18953062305E+04 0.  0.
        4    1    3    3  502    0 -0.19004526377E+03 -0.58581771826E+03 -0.77056359474E+03  0.98644283552E+03  0.12699999809E+01 0.  1.
       -4    1    3    3    0  502  0.19004526377E+03  0.58581771826E+03  0.67186753563E+03  0.91143140150E+03  0.12699999809E+01 0. -1.
</event>
<event>
 5   0  0.5824956E-05  0.1889032E+04  0.7818609E-02  0.8660335E-01
       -1   -1    0    0    0  501  0.00000000000E+00  0.00000000000E+00  0.39434602039E+03  0.39434602043E+03  0.50400001928E-02 0.  1.
        1   -1    0    0  501    0  0.00000000000E+00  0.00000000000E+00 -0.22622530846E+04  0.22622530846E+04  0.50400001928E-02 0. -1.
    10030    2    1    2    0    0  0.00000000000E+00  0.00000000000E+00 -0.18679070642E+04  0.26565991051E+04  0.18890320284E+04 0.  0.
        2    1    3    3  502    0 -0.52630790618E+03 -0.42516529566E+03 -0.71149716808E+01  0.67662113739E+03  0.25500000920E-02 0. -1.
       -2    1    3    3    0  502  0.52630790618E+03  0.42516529566E+03 -0.18607920926E+04  0.19799779677E+04  0.25500000920E-02 0.  1.
</event>
<event>
 5   0  0.1141890E-04  0.1889308E+04  0.7818609E-02  0.8660197E-01
        2   -1    0    0  501    0  0.00000000000E+00  0.00000000000E+00  0.14828961439E+04  0.14828961440E+04  0.25500000920E-02 0.  1.
       -2   -1    0    0    0  501  0.00000000000E+00  0.00000000000E+00 -0.60177579774E+03  0.60177579774E+03  0.25500000920E-02 0. -1.
    10030    2    1    2    0    0  0.00000000000E+00  0.00000000000E+00  0.88112034621E+03  0.20846719417E+04  0.18893078203E+04 0.  0.
        2    1    3    3  502    0  0.34622062159E+03 -0.19397383163E+03  0.13864535011E+04  0.14421330996E+04  0.25500000920E-02 0.  1.
       -2    1    3    3    0  502 -0.34622062159E+03  0.19397383163E+03 -0.50533315490E+03  0.64253884211E+03  0.25500000920E-02 0. -1.
</event>
<event>
 5   0  0.1118206E-04  0.1895893E+04  0.7818609E-02  0.8656903E-01
        2   -1    0    0  501    0  0.00000000000E+00  0.00000000000E+00  0.11173308576E+04  0.11173308576E+04  0.25500000920E-02 0.  1.
       -2   -1    0    0    0  501  0.00000000000E+00  0.00000000000E+00 -0.80424021998E+03  0.80424021999E+03  0.25500000920E-02 0. -1.
    10030    2    1    2    0    0  0.00000000000E+00  0.00000000000E+00  0.31309063765E+03  0.19215710776E+04  0.18958928395E+04 0.  0.
        1    1    3    3  502    0 -0.53371002772E+03 -0.57821799546E+03 -0.37921604132E+03  0.87349141380E+03  0.50400001928E-02 0. -1.
       -1    1    3    3    0  502  0.53371002772E+03  0.57821799546E+03  0.69230667896E+03  0.10480796638E+04  0.50400001928E-02 0.  1.
</event>
<event>
 5   0  0.4061125E-05  0.1909454E+04  0.7818609E-02  0.8650165E-01
       -4   -1    0    0    0  501  0.00000000000E+00  0.00000000000E+00  0.10455135749E+04  0.10455143463E+04  0.12699999809E+01 0.  1.
        4   -1    0    0  501    0  0.00000000000E+00  0.00000000000E+00 -0.87182229151E+03  0.87182321652E+03  0.12699999809E+01 0. -1.
    10030    2    1    2    0    0  0.00000000000E+00  0.00000000000E+00  0.17369128341E+03  0.19173375628E+04  0.19094540235E+04 0.  0.
        4    1    3    3  502    0 -0.35527735237E+03  0.71624154098E+03  0.61080275421E+03  0.10061339670E+04  0.12699999809E+01 0.  1.
       -4    1    3    3    0  502  0.35527735237E+03 -0.71624154098E+03 -0.43711147081E+03  0.91120359577E+03  0.12699999809E+01 0. -1.
</event>
<event>
 5   0  0.1118206E-04  0.1915568E+04  0.7818609E-02  0.8647146E-01
        2   -1    0    0  501    0  0.00000000000E+00  0.00000000000E+00  0.85905771633E+03  0.85905771634E+03  0.25500000920E-02 0. -1.
       -2   -1    0    0    0  501  0.00000000000E+00  0.00000000000E+00 -0.10678563272E+04  0.10678563272E+04  0.25500000920E-02 0.  1.
    10030    2    1    2    0    0  0.00000000000E+00  0.00000000000E+00 -0.20879861085E+03  0.19269140435E+04  0.19155680283E+04 0.  0.
        1    1    3    3  502    0  0.65058705893E+03  0.16026744025E+03  0.58405273163E+03  0.88885700031E+03  0.50400001928E-02 0. -1.
       -1    1    3    3    0  502 -0.65058705893E+03 -0.16026744025E+03 -0.79285134248E+03  0.10380570432E+04  0.50400001928E-02 0.  1.
</event>
<event>
 5   0  0.5841424E-05  0.1902030E+04  0.7818609E-02  0.8653846E-01
        1   -1    0    0  501    0  0.00000000000E+00  0.00000000000E+00  0.11465103645E+04  0.11465103645E+04  0.50400001928E-02 0.  1.
       -1   -1    0    0    0  501  0.00000000000E+00  0.00000000000E+00 -0.78885443362E+03  0.78885443363E+03  0.50400001928E-02 0. -1.
    10030    2    1    2    0    0  0.00000000000E+00  0.00000000000E+00  0.35765593089E+03  0.19353647982E+04  0.19020302671E+04 0.  0.
        1    1    3    3  502    0  0.46070886674E+03  0.50871583846E+03  0.84868560098E+03  0.10914722688E+04  0.50400001928E-02 0.  1.
       -1    1    3    3    0  502 -0.46070886674E+03 -0.50871583846E+03 -0.49102967008E+03  0.84389252937E+03  0.50400001928E-02 0. -1.
</event>
<event>
 5   0  0.1182630E-04  0.1853822E+04  0.7818609E-02  0.8678190E-01
       -2   -1    0    0    0  501  0.00000000000E+00  0.00000000000E+00  0.49297205511E+03  0.49297205512E+03  0.25500000920E-02 0.  1.
        2   -1    0    0  501    0  0.00000000000E+00  0.00000000000E+00 -0.17428256567E+04  0.17428256568E+04  0.25500000920E-02 0. -1.
    10030    2    1    2    0    0  0.00000000000E+00  0.00000000000E+00 -0.12498536016E+04  0.22357977119E+04  0.18538223709E+04 0.  0.
        5    1    3    3  502    0 -0.17682182988E+03  0.25275755654E+03  0.42923724859E+03  0.52860102864E+03  0.46999998093E+01 0.  1.
       -5    1    3    3    0  502  0.17682182988E+03 -0.25275755654E+03 -0.16790908502E+04  0.17071966832E+04  0.46999998093E+01 0. -1.
</event>
<event>
 5   0  0.1101678E-04  0.1900271E+04  0.7818609E-02  0.8654721E-01
        2   -1    0    0  501    0  0.00000000000E+00  0.00000000000E+00  0.14740471951E+04  0.14740471951E+04  0.25500000920E-02 0.  1.
       -2   -1    0    0    0  501  0.00000000000E+00  0.00000000000E+00 -0.61243479742E+03  0.61243479742E+03  0.25500000920E-02 0. -1.
    10030    2    1    2    0    0  0.00000000000E+00  0.00000000000E+00  0.86161239765E+03  0.20864819925E+04  0.19002713441E+04 0.  0.
        4    1    3    3  502    0 -0.43620173987E+03  0.80471732924E+03  0.15105688805E+03  0.92771856410E+03  0.12699999809E+01 0. -1.
       -4    1    3    3    0  502  0.43620173987E+03 -0.80471732924E+03  0.71055550960E+03  0.11587634284E+04  0.12699999809E+01 0.  1.
</event>
<event>
 5   0  0.1101678E-04  0.1878232E+04  0.7818609E-02  0.8665768E-01
        2   -1    0    0  501    0  0.00000000000E+00  0.00000000000E+00  0.21304362180E+04  0.21304362180E+04  0.25500000920E-02 0.  1.
       -2   -1    0    0    0  501  0.00000000000E+00  0.00000000000E+00 -0.41397089441E+03  0.41397089442E+03  0.25500000920E-02 0. -1.
    10030    2    1    2    0    0  0.00000000000E+00  0.00000000000E+00  0.17164653236E+04  0.25444071124E+04  0.18782317074E+04 0.  0.
        4    1    3    3  502    0 -0.79006862641E+03 -0.50744626087E+03  0.83782988556E+03  0.12584397769E+04  0.12699999809E+01 0. -1.
       -4    1    3    3    0  502  0.79006862641E+03  0.50744626087E+03  0.87863543803E+03  0.12859673355E+04  0.12699999809E+01 0.  1.
</event>
<event>
 5   0  0.5824956E-05  0.1899194E+04  0.7818609E-02  0.8655258E-01
       -1   -1    0    0    0  501  0.00000000000E+00  0.00000000000E+00  0.72186396109E+03  0.72186396111E+03  0.50400001928E-02 0.  1.
        1   -1    0    0  501    0  0.00000000000E+00  0.00000000000E+00 -0.12491747515E+04  0.12491747515E+04  0.50400001928E-02 0. -1.
    10030    2    1    2    0    0  0.00000000000E+00  0.00000000000E+00 -0.52731079036E+03  0.19710387126E+04  0.18991937597E+04 0.  0.
        2    1    3    3  502    0  0.12618289676E+03  0.83697304243E+03  0.18307942481E+03  0.86600466106E+03  0.25500000920E-02 0.  1.
       -2    1    3    3    0  502 -0.12618289676E+03 -0.83697304243E+03 -0.71039021517E+03  0.11050340515E+04  0.25500000920E-02 0. -1.
</event>
<event>
 5   0  0.5579109E-05  0.1803515E+04  0.7818609E-02  0.8704433E-01
       -1   -1    0    0    0  501  0.00000000000E+00  0.00000000000E+00  0.85359534257E+03  0.85359534259E+03  0.50400001928E-02 0.  1.
        1   -1    0    0  501    0  0.00000000000E+00  0.00000000000E+00 -0.95263661096E+03  0.95263661097E+03  0.50400001928E-02 0. -1.
    10030    2    1    2    0    0  0.00000000000E+00  0.00000000000E+00 -0.99041268390E+02  0.18062319536E+04  0.18035145403E+04 0.  0.
        3    1    3    3  502    0  0.78381560548E+03  0.35412980388E+03 -0.32083718642E+03  0.91799310007E+03  0.10100000352E+00 0.  1.
       -3    1    3    3    0  502 -0.78381560548E+03 -0.35412980388E+03  0.22179591803E+03  0.88823885349E+03  0.10100000352E+00 0. -1.
</event>
<event>
 5   0  0.5628936E-05  0.1904380E+04  0.7818609E-02  0.8652679E-01
       -1   -1    0    0    0  501  0.00000000000E+00  0.00000000000E+00  0.12079752184E+04  0.12079752185E+04  0.50400001928E-02 0.  1.
        1   -1    0    0  501    0  0.00000000000E+00  0.00000000000E+00 -0.75056692224E+03  0.75056692225E+03  0.50400001928E-02 0. -1.
    10030    2    1    2    0    0  0.00000000000E+00  0.00000000000E+00  0.45740829621E+03  0.19585421407E+04  0.19043804682E+04 0.  0.
        5    1    3    3  502    0  0.14394705447E+02 -0.53808778695E+03 -0.57906274842E+03  0.79062091461E+03  0.46999998093E+01 0. -1.
       -5    1    3    3    0  502 -0.14394705447E+02  0.53808778695E+03  0.10364710446E+04  0.11679212261E+04  0.46999998093E+01 0.  1.
</event>
<event>
 5   0  0.1101678E-04  0.1889719E+04  0.7818609E-02  0.8659991E-01
       -2   -1    0    0    0  501  0.00000000000E+00  0.00000000000E+00  0.60315721081E+03  0.60315721081E+03  0.25500000920E-02 0. -1.
        2   -1    0    0  501    0  0.00000000000E+00  0.00000000000E+00 -0.14801440765E+04  0.14801440765E+04  0.25500000920E-02 0.  1.
    10030    2    1    2    0    0  0.00000000000E+00  0.00000000000E+00 -0.87698686573E+03  0.20833012874E+04  0.18897191038E+04 0.  0.
        4    1    3    3  502    0 -0.72469442275E+03  0.60613223160E+03 -0.45327070439E+03  0.10478712864E+04  0.12699999809E+01 0.  1.
       -4    1    3    3    0  502  0.72469442275E+03 -0.60613223160E+03 -0.42371616134E+03  0.10354300009E+04  0.12699999809E+01 0. -1.
</event>
<event>
 5   0  0.1182630E-04  0.1899147E+04  0.7818609E-02  0.8655281E-01
       -2   -1    0    0    0  501  0.00000000000E+00  0.00000000000E+00  0.59893084243E+03  0.59893084244E+03  0.25500000920E-02 0.  1.
        2   -1    0    0  501    0  0.00000000000E+00  0.00000000000E+00 -0.15054985183E+04  0.15054985183E+04  0.25500000920E-02 0. -1.
    10030    2    1    2    0    0  0.00000000000E+00  0.00000000000E+00 -0.90656767587E+03  0.21044293607E+04  0.18991466461E+04 0.  0.
        5    1    3    3  502    0 -0.17616050774E+03 -0.66005391793E+03 -0.11840902717E+04  0.13670389755E+04  0.46999998093E+01 0. -1.
       -5    1    3    3    0  502  0.17616050774E+03  0.66005391793E+03  0.27752259581E+03  0.73739038524E+03  0.46999998093E+01 0.  1.
</event>
<event>
 5   0  0.1118206E-04  0.1899966E+04  0.7818609E-02  0.8654873E-01
        2   -1    0    0  501    0  0.00000000000E+00  0.00000000000E+00  0.80883831960E+03  0.80883831961E+03  0.25500000920E-02 0.  1.
       -2   -1    0    0    0  501  0.00000000000E+00  0.00000000000E+00 -0.11157584140E+04  0.11157584140E+04  0.25500000920E-02 0. -1.
    10030    2    1    2    0    0  0.00000000000E+00  0.00000000000E+00 -0.30692009437E+03  0.19245967336E+04  0.18999664846E+04 0.  0.
        1    1    3    3  502    0  0.26245682253E+03 -0.66066761160E+02  0.76895977189E+03  0.81519784803E+03  0.50400001928E-02 0.  1.
       -1    1    3    3    0  502 -0.26245682253E+03  0.66066761160E+02 -0.10758798663E+04  0.11093988856E+04  0.50400001928E-02 0. -1.
</event>
<event>
 5   0  0.1118206E-04  0.1898869E+04  0.7818609E-02  0.8655420E-01
        2   -1    0    0  501    0  0.00000000000E+00  0.00000000000E+00  0.15621816155E+04  0.15621816155E+04  0.25500000920E-02 0.  1.
       -2   -1    0    0    0  501  0.00000000000E+00  0.00000000000E+00 -0.57703010257E+03  0.57703010258E+03  0.25500000920E-02 0. -1.
    10030    2    1    2    0    0  0.00000000000E+00  0.00000000000E+00  0.98515151288E+03  0.21392117180E+04  0.18988689453E+04 0.  0.
        1    1    3    3  502    0 -0.80999588987E+02  0.94250073360E+03  0.58380198038E+03  0.11116174335E+04  0.50400001928E-02 0. -1.
       -1    1    3    3    0  502  0.80999588987E+02 -0.94250073360E+03  0.40134953250E+03  0.10275942845E+04  0.50400001928E-02 0.  1.
</event>
<event>
 5   0  0.4061125E-05  0.1901656E+04  0.7818609E-02  0.8654032E-01
        3   -1    0    0  501    0  0.00000000000E+00  0.00000000000E+00  0.27488895077E+04  0.27488895096E+04  0.10100000352E+00 0. -1.
       -3   -1    0    0    0  501  0.00000000000E+00  0.00000000000E+00 -0.32888710165E+03  0.32888711715E+03  0.10100000352E+00 0.  1.
    10030    2    1    2    0    0  0.00000000000E+00  0.00000000000E+00  0.24200024061E+04  0.30777766267E+04  0.19016564670E+04 0.  0.
        3    1    3    3  502    0 -0.67502593299E+03 -0.63543775069E+03  0.86807379062E+03  0.12700367165E+04  0.10100000352E+00 0.  1.
       -3    1    3    3    0  502  0.67502593299E+03  0.63543775069E+03  0.15519286155E+04  0.18077399102E+04  0.10100000352E+00 0. -1.
</event>
<event>
 5   0  0.4061125E-05  0.1891470E+04  0.7818609E-02  0.8659114E-01
       -3   -1    0    0    0  501  0.00000000000E+00  0.00000000000E+00  0.79120753164E+03  0.79120753808E+03  0.10100000352E+00 0. -1.
        3   -1    0    0  501    0  0.00000000000E+00  0.00000000000E+00 -0.11304429729E+04  0.11304429774E+04  0.10100000352E+00 0.  1.
    10030    2    1    2    0    0  0.00000000000E+00  0.00000000000E+00 -0.33923544123E+03  0.19216505155E+04  0.18914703326E+04 0.  0.
        3    1    3    3  502    0 -0.89437635187E+03 -0.19681008506E+03  0.70310822064E+02  0.91846986356E+03  0.10100000352E+00 0. -1.
       -3    1    3    3    0  502  0.89437635187E+03  0.19681008506E+03 -0.40954626329E+03  0.10031806519E+04  0.10100000352E+00 0.  1.
</event>
<event>
 5   0  0.1101678E-04  0.1891950E+04  0.7818609E-02  0.8658874E-01
        2   -1    0    0  501    0  0.00000000000E+00  0.00000000000E+00  0.15457054890E+04  0.15457054890E+04  0.25500000920E-02 0. -1.
       -2   -1    0    0    0  501  0.00000000000E+00  0.00000000000E+00 -0.57893838433E+03  0.57893838434E+03  0.25500000920E-02 0.  1.
    10030    2    1    2    0    0  0.00000000000E+00  0.00000000000E+00  0.96676710469E+03  0.21246438734E+04  0.18919495115E+04 0.  0.
        4    1    3    3  502    0  0.65409739122E+02  0.29846724398E+03 -0.52199555271E+03  0.60484882380E+03  0.12699999809E+01 0.  1.
       -4    1    3    3    0  502 -0.65409739122E+02 -0.29846724398E+03  0.14887626574E+04  0.15197950496E+04  0.12699999809E+01 0. -1.
</event>
<event>
 5   0  0.5614989E-05  0.1969279E+04  0.7818609E-02  0.8621120E-01
       -1   -1    0    0    0  501  0.00000000000E+00  0.00000000000E+00  0.35941005291E+03  0.35941005295E+03  0.50400001928E-02 0.  1.
        1   -1    0    0  501    0  0.00000000000E+00  0.00000000000E+00 -0.26975174965E+04  0.26975174965E+04  0.50400001928E-02 0. -1.
    10030    2    1    2    0    0  0.00000000000E+00  0.00000000000E+00 -0.23381074436E+04  0.30569275495E+04  0.19692789607E+04 0.  0.
        4    1    3    3  502    0 -0.38645769838E+03 -0.63109280482E+02  0.23334379578E+03  0.45583250635E+03  0.12699999809E+01 0.  1.
       -4    1    3    3    0  502  0.38645769838E+03  0.63109280482E+02 -0.25714512394E+04  0.26010950431E+04  0.12699999809E+01 0. -1.
</event>
<event>
 5   0  0.1101678E-04  0.1917366E+04  0.7818609E-02  0.8646260E-01
       -2   -1    0    0    0  501  0.00000000000E+00  0.00000000000E+00  0.73153987131E+03  0.73153987132E+03  0.25500000920E-02 0.  1.
        2   -1    0    0  501    0  0.00000000000E+00  0.00000000000E+00 -0.12563543216E+04  0.12563543216E+04  0.25500000920E-02 0. -1.
    10030    2    1    2    0    0  0.00000000000E+00  0.00000000000E+00 -0.52481445027E+03  0.19878941929E+04  0.19173661922E+04 0.  0.
        4    1    3    3  502    0 -0.39473585836E+02 -0.43642716852E+03  0.62162642083E+03  0.76055759635E+03  0.12699999809E+01 0.  1.
       -4    1    3    3    0  502  0.39473585836E+02  0.43642716852E+03 -0.11464408711E+04  0.12273365965E+04  0.12699999809E+01 0. -1.
</event>
<event>
 5   0  0.5579109E-05  0.2052035E+04  0.7818609E-02  0.8582672E-01
       -1   -1    0    0    0  501  0.00000000000E+00  0.00000000000E+00  0.68593654760E+03  0.68593654762E+03  0.50400001928E-02 0. -1.
        1   -1    0    0  501    0  0.00000000000E+00  0.00000000000E+00 -0.15347073651E+04  0.15347073651E+04  0.50400001928E-02 0.  1.
    10030    2    1    2    0    0  0.00000000000E+00  0.00000000000E+00 -0.84877081745E+03  0.22206439127E+04  0.20520349623E+04 0.  0.
        3    1    3    3  502    0 -0.76308637159E+03  0.12758987321E+02  0.31770661884E+03  0.82668077764E+03  0.10100000352E+00 0. -1.
       -3    1    3    3    0  502  0.76308637159E+03 -0.12758987321E+02 -0.11664774363E+04  0.13939631350E+04  0.10100000352E+00 0.  1.
</event>
<event>
 5   0  0.5614989E-05  0.1826725E+04  0.7818609E-02  0.8692215E-01
        1   -1    0    0  501    0  0.00000000000E+00  0.00000000000E+00  0.11715491684E+04  0.11715491685E+04  0.50400001928E-02 0.  1.
       -1   -1    0    0    0  501  0.00000000000E+00  0.00000000000E+00 -0.71207548217E+03  0.71207548219E+03  0.50400001928E-02 0. -1.
    10030    2    1    2    0    0  0.00000000000E+00  0.00000000000E+00  0.45947368627E+03  0.18836246506E+04  0.18267254189E+04 0.  0.
        4    1    3    3  502    0 -0.37010134517E+03  0.77819119898E+03 -0.82470040577E+02  0.86565551367E+03  0.12699999809E+01 0. -1.
       -4    1    3    3    0  502  0.37010134517E+03 -0.77819119898E+03  0.54194372685E+03  0.10179691370E+04  0.12699999809E+01 0.  1.
</event>
<event>
 5   0  0.5824956E-05  0.1839792E+04  0.7818609E-02  0.8685420E-01
        1   -1    0    0  501    0  0.00000000000E+00  0.00000000000E+00  0.25170107655E+04  0.25170107655E+04  0.50400001928E-02 0. -1.
       -1   -1    0    0    0  501  0.00000000000E+00  0.00000000000E+00 -0.33619588828E+03  0.33619588831E+03  0.50400001928E-02 0.  1.
    10030    2    1    2    0    0  0.00000000000E+00  0.00000000000E+00  0.21808148773E+04  0.28532066539E+04  0.18397920211E+04 0.  0.
        2    1    3    3  502    0 -0.26926231580E+03  0.27989746025E+03  0.23836219323E+04  0.24150565830E+04  0.25500000920E-02 0. -1.
       -2    1    3    3    0  502  0.26926231580E+03 -0.27989746025E+03 -0.20280705507E+03  0.43815007082E+03  0.25500000920E-02 0.  1.
</event>
<event>
 5   0  0.1118206E-04  0.1897973E+04  0.7818609E-02  0.8655866E-01
       -2   -1    0    0    0  501  0.00000000000E+00  0.00000000000E+00  0.91501726355E+03  0.91501726355E+03  0.25500000920E-02 0.  1.
        2   -1    0    0  501    0  0.00000000000E+00  0.00000000000E+00 -0.98421717707E+03  0.98421717708E+03  0.25500000920E-02 0. -1.
    10030    2    1    2    0    0  0.00000000000E+00  0.00000000000E+00 -0.69199913528E+02  0.18992344406E+04  0.18979733487E+04 0.  0.
        1    1    3    3  502    0  0.13160313868E+03 -0.73665011030E+03  0.54939979380E+03  0.92833878761E+03  0.50400001928E-02 0.  1.
       -1    1    3    3    0  502 -0.13160313868E+03  0.73665011030E+03 -0.61859970733E+03  0.97089565302E+03  0.50400001928E-02 0. -1.
</event>
<event>
 5   0  0.5579109E-05  0.1868221E+04  0.7818609E-02  0.8670839E-01
        1   -1    0    0  501    0  0.00000000000E+00  0.00000000000E+00  0.20002162961E+04  0.20002162961E+04  0.50400001928E-02 0. -1.
       -1   -1    0    0    0  501  0.00000000000E+00  0.00000000000E+00 -0.43623400301E+03  0.43623400304E+03  0.50400001928E-02 0.  1.
    10030    2    1    2    0    0  0.00000000000E+00  0.00000000000E+00  0.15639822931E+04  0.24364502992E+04  0.18682209310E+04 0.  0.
        3    1    3    3  502    0 -0.83326555136E+03 -0.38600022728E+03  0.55900462024E+03  0.10750878244E+04  0.10100000352E+00 0. -1.
       -3    1    3    3    0  502  0.83326555136E+03  0.38600022728E+03  0.10049776729E+04  0.13613624748E+04  0.10100000352E+00 0.  1.
</event>
<event>
 5   0  0.1118206E-04  0.1912713E+04  0.7818609E-02  0.8648554E-01
        2   -1    0    0  501    0  0.00000000000E+00  0.00000000000E+00  0.10844034055E+04  0.10844034055E+04  0.25500000920E-02 0. -1.
       -2   -1    0    0    0  501  0.00000000000E+00  0.00000000000E+00 -0.84342975173E+03  0.84342975174E+03  0.25500000920E-02 0.  1.
    10030    2    1    2    0    0  0.00000000000E+00  0.00000000000E+00  0.24097365372E+03  0.19278331572E+04  0.19127133555E+04 0.  0.
        1    1    3    3  502    0 -0.12000062969E+03  0.43923868873E+02  0.10757598388E+04  0.10833229842E+04  0.50400001928E-02 0. -1.
       -1    1    3    3    0  502  0.12000062969E+03 -0.43923868873E+02 -0.83478618508E+03  0.84451017295E+03  0.50400001928E-02 0.  1.
</event>
<event>
 5   0  0.1141890E-04  0.1906781E+04  0.7818609E-02  0.8651488E-01
        2   -1    0    0  501    0  0.00000000000E+00  0.00000000000E+00  0.17347371056E+04  0.17347371056E+04  0.25500000920E-02 0. -1.
       -2   -1    0    0    0  501  0.00000000000E+00  0.00000000000E+00 -0.52397201159E+03  0.52397201159E+03  0.25500000920E-02 0.  1.
    10030    2    1    2    0    0  0.00000000000E+00  0.00000000000E+00  0.12107650941E+04  0.22587091172E+04  0.19067812573E+04 0.  0.
        2    1    3    3  502    0 -0.85627131312E+03 -0.16603706418E+03  0.14938627453E+03  0.88492097239E+03  0.25500000920E-02 0.  1.
       -2    1    3    3    0  502  0.85627131312E+03  0.16603706418E+03  0.10613788195E+04  0.13737881448E+04  0.25500000920E-02 0. -1.
</event>
<event>
 5   0  0.1101678E-04  0.1905691E+04  0.7818609E-02  0.8652029E-01
        2   -1    0    0  501    0  0.00000000000E+00  0.00000000000E+00  0.14553180675E+04  0.14553180675E+04  0.25500000920E-02 0. -1.
       -2   -1    0    0    0  501  0.00000000000E+00  0.00000000000E+00 -0.62386009757E+03  0.62386009757E+03  0.25500000920E-02 0.  1.
    10030    2    1    2    0    0  0.00000000000E+00  0.00000000000E+00  0.83145796992E+03  0.20791781651E+04  0.19056913408E+04 0.  0.
        4    1    3    3  502    0  0.78347411455E+03 -0.52697856048E+03  0.55534396486E+03  0.10954207518E+04  0.12699999809E+01 0. -1.
       -4    1    3    3    0  502 -0.78347411455E+03  0.52697856048E+03  0.27611400506E+03  0.98375741322E+03  0.12699999809E+01 0.  1.
</event>
<event>
 5   0  0.5614989E-05  0.1899139E+04  0.7818609E-02  0.8655285E-01
        1   -1    0    0  501    0  0.00000000000E+00  0.00000000000E+00  0.12523649488E+04  0.12523649488E+04  0.50400001928E-02 0.  1.
       -1   -1    0    0    0  501  0.00000000000E+00  0.00000000000E+00 -0.71998396186E+03  0.71998396188E+03  0.50400001928E-02 0. -1.
    10030    2    1    2    0    0  0.00000000000E+00  0.00000000000E+00  0.53238098697E+03  0.19723489107E+04  0.18991394658E+04 0.  0.
        4    1    3    3  502    0  0.36340655080E+03 -0.78550793422E+03  0.67188175708E+03  0.10956795810E+04  0.12699999809E+01 0.  1.
       -4    1    3    3    0  502 -0.36340655080E+03  0.78550793422E+03 -0.13950077010E+03  0.87666932970E+03  0.12699999809E+01 0. -1.
</event>
<event>
 5   0  0.5841424E-05  0.1900791E+04  0.7818609E-02  0.8654463E-01
       -1   -1    0    0    0  501  0.00000000000E+00  0.00000000000E+00  0.91898298875E+03  0.91898298877E+03  0.50400001928E-02 0. -1.
        1   -1    0    0  501    0  0.00000000000E+00  0.00000000000E+00 -0.98288141498E+03  0.98288141499E+03  0.50400001928E-02 0.  1.
    10030    2    1    2    0    0  0.00000000000E+00  0.00000000000E+00 -0.63898426225E+02  0.19018644038E+04  0.19007906780E+04 0.  0.
        1    1    3    3  502    0 -0.38273656303E+03  0.40896141154E+03 -0.80018146320E+03  0.97674310178E+03  0.50400001928E-02 0.  1.
       -1    1    3    3    0  502  0.38273656303E+03 -0.40896141154E+03  0.73628303697E+03  0.92512130197E+03  0.50400001928E-02 0. -1.
</event>
<event>
 5   0  0.1101678E-04  0.1897559E+04  0.7818609E-02  0.8656072E-01
        2   -1    0    0  501    0  0.00000000000E+00  0.00000000000E+00  0.19669135072E+04  0.19669135072E+04  0.25500000920E-02 0.  1.
       -2   -1    0    0    0  501  0.00000000000E+00  0.00000000000E+00 -0.45766268708E+03  0.45766268709E+03  0.25500000920E-02 0. -1.
    10030    2    1    2    0    0  0.00000000000E+00  0.00000000000E+00  0.15092508201E+04  0.24245761943E+04  0.18975594019E+04 0.  0.
        4    1    3    3  502    0  0.55038342635E+03  0.50817985815E+03  0.14985833648E+04  0.16753872383E+04  0.12699999809E+01 0.  1.
       -4    1    3    3    0  502 -0.55038342635E+03 -0.50817985815E+03  0.10667455324E+02  0.74918895596E+03  0.12699999809E+01 0. -1.
</event>
<event>
 5   0  0.1182630E-04  0.1908599E+04  0.7818609E-02  0.8650588E-01
       -2   -1    0    0    0  501  0.00000000000E+00  0.00000000000E+00  0.52447318433E+03  0.52447318434E+03  0.25500000920E-02 0.  1.
        2   -1    0    0  501    0  0.00000000000E+00  0.00000000000E+00 -0.17363848361E+04  0.17363848361E+04  0.25500000920E-02 0. -1.
    10030    2    1    2    0    0  0.00000000000E+00  0.00000000000E+00 -0.12119116517E+04  0.22608580204E+04  0.19085987365E+04 0.  0.
        5    1    3    3  502    0 -0.18414470799E+03 -0.46471243918E+03  0.35697060256E+03  0.61426136595E+03  0.46999998093E+01 0.  1.
       -5    1    3    3    0  502  0.18414470799E+03  0.46471243918E+03 -0.15688822543E+04  0.16465966545E+04  0.46999998093E+01 0. -1.
</event>
<event>
 5   0  0.5824956E-05  0.1833680E+04  0.7818609E-02  0.8688591E-01
       -1   -1    0    0    0  501  0.00000000000E+00  0.00000000000E+00  0.55032407760E+03  0.55032407762E+03  0.50400001928E-02 0. -1.
        1   -1    0    0  501    0  0.00000000000E+00  0.00000000000E+00 -0.15274561352E+04  0.15274561352E+04  0.50400001928E-02 0.  1.
    10030    2    1    2    0    0  0.00000000000E+00  0.00000000000E+00 -0.97713205761E+03  0.20777802128E+04  0.18336803306E+04 0.  0.
        2    1    3    3  502    0 -0.48987961145E+03  0.15735799228E+03  0.37130148026E+03  0.63451427147E+03  0.25500000920E-02 0. -1.
       -2    1    3    3    0  502  0.48987961145E+03 -0.15735799228E+03 -0.13484335379E+04  0.14432659414E+04  0.25500000920E-02 0.  1.
</event>
<event>
 5   0  0.5579109E-05  0.1902362E+04  0.7818609E-02  0.8653681E-01
        1   -1    0    0  501    0  0.00000000000E+00  0.00000000000E+00  0.13228610810E+04  0.13228610810E+04  0.50400001928E-02 0. -1.
       -1   -1    0    0    0  501  0.00000000000E+00  0.00000000000E+00 -0.68393099209E+03  0.68393099211E+03  0.50400001928E-02 0.  1.
    10030    2    1    2    0    0  0.00000000000E+00  0.00000000000E+00  0.63893008893E+03  0.20067920731E+04  0.19023624172E+04 0.  0.
        3    1    3    3  502    0  0.65164168514E+03 -0.31489050871E+02 -0.41071509533E+03  0.77091850793E+03  0.10100000352E+00 0.  1.
       -3    1    3    3    0  502 -0.65164168514E+03  0.31489050871E+02  0.10496451843E+04  0.12358735652E+04  0.10100000352E+00 0. -1.
</event>
<event>
 5   0  0.1141890E-04  0.1902430E+04  0.7818609E-02  0.8653648E-01
        2   -1    0    0  501    0  0.00000000000E+00  0.00000000000E+00  0.20493088911E+04  0.20493088911E+04  0.25500000920E-02 0. -1.
       -2   -1    0    0    0  501  0.00000000000E+00  0.00000000000E+00 -0.44151960644E+03  0.44151960645E+03  0.25500000920E-02 0.  1.
    10030    2    1    2    0    0  0.00000000000E+00  0.00000000000E+00  0.16077892846E+04  0.24908284975E+04  0.19024300829E+04 0.  0.
        2    1    3    3  502    0  0.68320191220E+03 -0.64910258747E+03  0.63464148787E+03  0.11361640903E+04  0.25500000920E-02 0.  1.
       -2    1    3    3    0  502 -0.68320191220E+03  0.64910258747E+03  0.97314779677E+03  0.13546644072E+04  0.25500000920E-02 0. -1.
</event>
<event>
 5   0  0.1101678E-04  0.1888885E+04  0.7818609E-02  0.8660409E-01
       -2   -1    0    0    0  501  0.00000000000E+00  0.00000000000E+00  0.76685697219E+03  0.76685697219E+03  0.25500000920E-02 0. -1.
        2   -1    0    0  501    0  0.00000000000E+00  0.00000000000E+00 -0.11631525462E+04  0.11631525462E+04  0.25500000920E-02 0.  1.
    10030    2    1    2    0    0  0.00000000000E+00  0.00000000000E+00 -0.39629557404E+03  0.19300095184E+04  0.18888850042E+04 0.  0.
        4    1    3    3  502    0  0.21315817633E+03  0.63453895712E+03  0.48261143858E+03  0.82522209725E+03  0.12699999809E+01 0. -1.
       -4    1    3    3    0  502 -0.21315817633E+03 -0.63453895712E+03 -0.87890701262E+03  0.11047874212E+04  0.12699999809E+01 0.  1.
</event>
<event>
 5   0  0.5841424E-05  0.1891667E+04  0.7818609E-02  0.8659015E-01
        1   -1    0    0  501    0  0.00000000000E+00  0.00000000000E+00  0.14332010761E+04  0.14332010761E+04  0.50400001928E-02 0. -1.
       -1   -1    0    0    0  501  0.00000000000E+00  0.00000000000E+00 -0.62419780089E+03  0.62419780091E+03  0.50400001928E-02 0.  1.
    10030    2    1    2    0    0  0.00000000000E+00  0.00000000000E+00  0.80900327521E+03  0.20573988770E+04  0.18916669474E+04 0.  0.
        1    1    3    3  502    0 -0.79040008592E+03  0.51862763843E+03  0.43702171076E+03  0.10414868693E+04  0.50400001928E-02 0. -1.
       -1    1    3    3    0  502  0.79040008592E+03 -0.51862763843E+03  0.37198156445E+03  0.10159120077E+04  0.50400001928E-02 0.  1.
</event>
<event>
 5   0  0.5841424E-05  0.1907409E+04  0.7818609E-02  0.8651177E-01
        1   -1    0    0  501    0  0.00000000000E+00  0.00000000000E+00  0.11687032669E+04  0.11687032669E+04  0.50400001928E-02 0.  1.
       -1   -1    0    0    0  501  0.00000000000E+00  0.00000000000E+00 -0.77825741114E+03  0.77825741116E+03  0.50400001928E-02 0. -1.
    10030    2    1    2    0    0  0.00000000000E+00  0.00000000000E+00  0.39044585572E+03  0.19469606780E+04  0.19074086913E+04 0.  0.
        1    1    3    3  502    0  0.75441174522E+03 -0.41331742576E+03 -0.22512155575E+03  0.88918394647E+03  0.50400001928E-02 0. -1.
       -1    1    3    3    0  502 -0.75441174522E+03  0.41331742576E+03  0.61556741147E+03  0.10577767316E+04  0.50400001928E-02 0.  1.
</event>
<event>
 5   0  0.1133638E-04  0.1979166E+04  0.7818609E-02  0.8616424E-01
        2   -1    0    0  501    0  0.00000000000E+00  0.00000000000E+00  0.58460250569E+03  0.58460250570E+03  0.25500000920E-02 0. -1.
       -2   -1    0    0    0  501  0.00000000000E+00  0.00000000000E+00 -0.16751111908E+04  0.16751111908E+04  0.25500000920E-02 0.  1.
    10030    2    1    2    0    0  0.00000000000E+00  0.00000000000E+00 -0.10905086851E+04  0.22597136965E+04  0.19791656823E+04 0.  0.
        3    1    3    3  502    0 -0.45576396169E+02 -0.22067795752E+02  0.58312228473E+03  0.58531684124E+03  0.10100000352E+00 0. -1.
       -3    1    3    3    0  502  0.45576396169E+02  0.22067795752E+02 -0.16736309699E+04  0.16743968553E+04  0.10100000352E+00 0.  1.
</event>
<event>
 5   0  0.5614989E-05  0.1909131E+04  0.7818609E-02  0.8650324E-01
       -1   -1    0    0    0  501  0.00000000000E+00  0.00000000000E+00  0.13983761951E+04  0.13983761951E+04  0.50400001928E-02 0. -1.
        1   -1    0    0  501    0  0.00000000000E+00  0.00000000000E+00 -0.65160984706E+03  0.65160984708E+03  0.50400001928E-02 0.  1.
    10030    2    1    2    0    0  0.00000000000E+00  0.00000000000E+00  0.74676634801E+03  0.20499860422E+04  0.19091314241E+04 0.  0.
        4    1    3    3  502    0  0.45312926988E+03  0.78734699110E+03  0.58575903347E+02  0.91031542279E+03  0.12699999809E+01 0.  1.
       -4    1    3    3    0  502 -0.45312926988E+03 -0.78734699110E+03  0.68819044466E+03  0.11396706194E+04  0.12699999809E+01 0. -1.
</event>
<event>
 5   0  0.5579109E-05  0.1899094E+04  0.7818609E-02  0.8655307E-01
       -1   -1    0    0    0  501  0.00000000000E+00  0.00000000000E+00  0.74634161334E+03  0.74634161336E+03  0.50400001928E-02 0.  1.
        1   -1    0    0  501    0  0.00000000000E+00  0.00000000000E+00 -0.12080792159E+04  0.12080792159E+04  0.50400001928E-02 0. -1.
    10030    2    1    2    0    0  0.00000000000E+00  0.00000000000E+00 -0.46173760257E+03  0.19544208293E+04  0.18990943010E+04 0.  0.
        3    1    3    3  502    0 -0.55334091519E+03 -0.17722624291E+03 -0.10037775537E+04  0.11598123543E+04  0.10100000352E+00 0. -1.
       -3    1    3    3    0  502  0.55334091519E+03  0.17722624291E+03  0.54203995118E+03  0.79460847496E+03  0.10100000352E+00 0.  1.
</event>
<event>
 5   0  0.5841424E-05  0.1903201E+04  0.7818609E-02  0.8653265E-01
       -1   -1    0    0    0  501  0.00000000000E+00  0.00000000000E+00  0.11170788883E+04  0.11170788883E+04  0.50400001928E-02 0.  1.
        1   -1    0    0  501    0  0.00000000000E+00  0.00000000000E+00 -0.81063523400E+03  0.81063523402E+03  0.50400001928E-02 0. -1.
    10030    2    1    2    0    0  0.00000000000E+00  0.00000000000E+00  0.30644365432E+03  0.19277141223E+04  0.19032009942E+04 0.  0.
        1    1    3    3  502    0  0.30799672468E+03  0.89087676635E+03  0.21080347837E+02  0.94285087704E+03  0.50400001928E-02 0.  1.
       -1    1    3    3    0  502 -0.30799672468E+03 -0.89087676635E+03  0.28536330648E+03  0.98486324530E+03  0.50400001928E-02 0. -1.
</event>
<event>
 5   0  0.5579109E-05  0.1903388E+04  0.7818609E-02  0.8653172E-01
        1   -1    0    0  501    0  0.00000000000E+00  0.00000000000E+00  0.11951806888E+04  0.11951806888E+04  0.50400001928E-02 0.  1.
       -1   -1    0    0    0  501  0.00000000000E+00  0.00000000000E+00 -0.75781095449E+03  0.75781095451E+03  0.50400001928E-02 0. -1.
    10030    2    1    2    0    0  0.00000000000E+00  0.00000000000E+00  0.43736973433E+03  0.19529916433E+04  0.19033875261E+04 0.  0.
        3    1    3    3  502    0  0.41723216926E+03 -0.71913560036E+03  0.69387663576E+03  0.10829143505E+04  0.10100000352E+00 0. -1.
       -3    1    3    3    0  502 -0.41723216926E+03  0.71913560036E+03 -0.25650690143E+03  0.87007729280E+03  0.10100000352E+00 0.  1.
</event>
<event>
 5   0  0.1182630E-04  0.1897281E+04  0.7818609E-02  0.8656211E-01
        2   -1    0    0  501    0  0.00000000000E+00  0.00000000000E+00  0.16384925599E+04  0.16384925599E+04  0.25500000920E-02 0.  1.
       -2   -1    0    0    0  501  0.00000000000E+00  0.00000000000E+00 -0.54923580955E+03  0.54923580955E+03  0.25500000920E-02 0. -1.
    10030    2    1    2    0    0  0.00000000000E+00  0.00000000000E+00  0.10892567504E+04  0.21877283695E+04  0.18972809888E+04 0.  0.
        5    1    3    3  502    0  0.26636899368E+03 -0.82765236650E+03  0.10716048439E+03  0.87605156240E+03  0.46999998093E+01 0. -1.
       -5    1    3    3    0  502 -0.26636899368E+03  0.82765236650E+03  0.98209626596E+03  0.13116768071E+04  0.46999998093E+01 0.  1.
</event>
<event>
 5   0  0.5614989E-05  0.1842269E+04  0.7818609E-02  0.8684139E-01
       -1   -1    0    0    0  501  0.00000000000E+00  0.00000000000E+00  0.77608012960E+03  0.77608012961E+03  0.50400001928E-02 0.  1.
        1   -1    0    0  501    0  0.00000000000E+00  0.00000000000E+00 -0.10933001721E+04  0.10933001721E+04  0.50400001928E-02 0. -1.
    10030    2    1    2    0    0  0.00000000000E+00  0.00000000000E+00 -0.31722004252E+03  0.18693803017E+04  0.18422687527E+04 0.  0.
        4    1    3    3  502    0 -0.78030861624E+03  0.41790563821E+03  0.10001383198E+03  0.89080359144E+03  0.12699999809E+01 0.  1.
       -4    1    3    3    0  502  0.78030861624E+03 -0.41790563821E+03 -0.41723387449E+03  0.97857671031E+03  0.12699999809E+01 0. -1.
</event>
<event>
 5   0  0.5841424E-05  0.1896447E+04  0.7818609E-02  0.8656627E-01
        1   -1    0    0  501    0  0.00000000000E+00  0.00000000000E+00  0.13264454946E+04  0.13264454946E+04  0.50400001928E-02 0. -1.
       -1   -1    0    0    0  501  0.00000000000E+00  0.00000000000E+00 -0.67784752305E+03  0.67784752307E+03  0.50400001928E-02 0.  1.
    10030    2    1    2    0    0  0.00000000000E+00  0.00000000000E+00  0.64859797151E+03  0.20042930176E+04  0.18964469863E+04 0.  0.
        1    1    3    3  502    0 -0.36779626384E+03 -0.33390195406E+03 -0.52932228677E+03  0.72591093801E+03  0.50400001928E-02 0.  1.
       -1    1    3    3    0  502  0.36779626384E+03  0.33390195406E+03  0.11779202583E+04  0.12783820796E+04  0.50400001928E-02 0. -1.
</event>
<event>
 5   0  0.5579109E-05  0.1897834E+04  0.7818609E-02  0.8655936E-01
       -1   -1    0    0    0  501  0.00000000000E+00  0.00000000000E+00  0.94352023073E+03  0.94352023074E+03  0.50400001928E-02 0. -1.
        1   -1    0    0  501    0  0.00000000000E+00  0.00000000000E+00 -0.95434419262E+03  0.95434419264E+03  0.50400001928E-02 0.  1.
    10030    2    1    2    0    0  0.00000000000E+00  0.00000000000E+00 -0.10823961892E+02  0.18978644234E+04  0.18978335573E+04 0.  0.
        3    1    3    3  502    0  0.51030151821E+03 -0.58452629893E+03  0.54082433622E+03  0.94581689902E+03  0.10100000352E+00 0. -1.
       -3    1    3    3    0  502 -0.51030151821E+03  0.58452629893E+03 -0.55164829811E+03  0.95204752436E+03  0.10100000352E+00 0.  1.
</event>
<event>
 5   0  0.1182630E-04  0.1909258E+04  0.7818609E-02  0.8650262E-01
       -2   -1    0    0    0  501  0.00000000000E+00  0.00000000000E+00  0.11274895923E+04  0.11274895923E+04  0.25500000920E-02 0. -1.
        2   -1    0    0  501    0  0.00000000000E+00  0.00000000000E+00 -0.80827046116E+03  0.80827046116E+03  0.25500000920E-02 0.  1.
    10030    2    1    2    0    0  0.00000000000E+00  0.00000000000E+00  0.31921913114E+03  0.19357600535E+04  0.19092580053E+04 0.  0.
        5    1    3    3  502    0  0.22880723957E+03 -0.86365525954E+03 -0.18127351139E+03  0.91166624163E+03  0.46999998093E+01 0.  1.
       -5    1    3    3    0  502 -0.22880723957E+03  0.86365525954E+03  0.50049264253E+03  0.10240938118E+04  0.46999998093E+01 0. -1.
</event>
<event>
 5   0  0.1101678E-04  0.1886183E+04  0.7818609E-02  0.8661765E-01
       -2   -1    0    0    0  501  0.00000000000E+00  0.00000000000E+00  0.90852329111E+03  0.90852329112E+03  0.25500000920E-02 0.  1.
        2   -1    0    0  501    0  0.00000000000E+00  0.00000000000E+00 -0.97897500235E+03  0.97897500236E+03  0.25500000920E-02 0. -1.
    10030    2    1    2    0    0  0.00000000000E+00  0.00000000000E+00 -0.70451711240E+02  0.18874982935E+04  0.18861830145E+04 0.  0.
        4    1    3    3  502    0 -0.80181358178E+03  0.23213379487E+03  0.40397523987E+03  0.92735577098E+03  0.12699999809E+01 0.  1.
       -4    1    3    3    0  502  0.80181358178E+03 -0.23213379487E+03 -0.47442695111E+03  0.96014252249E+03  0.12699999809E+01 0. -1.
</event>
<event>
 5   0  0.4061125E-05  0.1867489E+04  0.7818609E-02  0.8671211E-01
        3   -1    0    0  501    0  0.00000000000E+00  0.00000000000E+00  0.75774676247E+03  0.75774676920E+03  0.10100000352E+00 0.  1.
       -3   -1    0    0    0  501  0.00000000000E+00  0.00000000000E+00 -0.11506197289E+04  0.11506197333E+04  0.10100000352E+00 0. -1.
    10030    2    1    2    0    0  0.00000000000E+00  0.00000000000E+00 -0.39287296644E+03  0.19083665025E+04  0.18674885650E+04 0.  0.
        2    1    3    3  502    0 -0.18009787398E+03 -0.23650105599E+02  0.73951802580E+03  0.76149949586E+03  0.25500000920E-02 0.  1.
       -2    1    3    3    0  502  0.18009787398E+03  0.23650105599E+02 -0.11323909922E+04  0.11468670067E+04  0.25500000920E-02 0. -1.
</event>
<event>
 5   0  0.1101678E-04  0.1917293E+04  0.7818609E-02  0.8646296E-01
       -2   -1    0    0    0  501  0.00000000000E+00  0.00000000000E+00  0.10045783212E+04  0.10045783212E+04  0.25500000920E-02 0.  1.
        2   -1    0    0  501    0  0.00000000000E+00  0.00000000000E+00 -0.91481475840E+03  0.91481475841E+03  0.25500000920E-02 0. -1.
    10030    2    1    2    0    0  0.00000000000E+00  0.00000000000E+00  0.89763562776E+02  0.19193930796E+04  0.19172929606E+04 0.  0.
        4    1    3    3  502    0  0.17516355292E+03  0.23033068774E+03  0.95981226912E+03  0.10024847634E+04  0.12699999809E+01 0.  1.
       -4    1    3    3    0  502 -0.17516355292E+03 -0.23033068774E+03 -0.87004870635E+03  0.91690831619E+03  0.12699999809E+01 0. -1.
</event>
<event>
 5   0  0.5628936E-05  0.1896253E+04  0.7818609E-02  0.8656724E-01
       -1   -1    0    0    0  501  0.00000000000E+00  0.00000000000E+00  0.12838664096E+04  0.12838664096E+04  0.50400001928E-02 0.  1.
        1   -1    0    0  501    0  0.00000000000E+00  0.00000000000E+00 -0.70018475111E+03  0.70018475113E+03  0.50400001928E-02 0. -1.
    10030    2    1    2    0    0  0.00000000000E+00  0.00000000000E+00  0.58368165853E+03  0.19840511608E+04  0.18962528128E+04 0.  0.
        5    1    3    3  502    0 -0.26136057562E+03 -0.29026635107E+03  0.11957611170E+04  0.12579469957E+04  0.46999998093E+01 0.  1.
       -5    1    3    3    0  502  0.26136057562E+03  0.29026635107E+03 -0.61207945847E+03  0.72610416507E+03  0.46999998093E+01 0. -1.
</event>
<event>
 5   0  0.1141890E-04  0.1886057E+04  0.7818609E-02  0.8661828E-01
       -2   -1    0    0    0  501  0.00000000000E+00  0.00000000000E+00  0.54437452018E+03  0.54437452018E+03  0.25500000920E-02 0.  1.
        2   -1    0    0  501    0  0.00000000000E+00  0.00000000000E+00 -0.16336226388E+04  0.16336226388E+04  0.25500000920E-02 0. -1.
    10030    2    1    2    0    0  0.00000000000E+00  0.00000000000E+00 -0.10892481186E+04  0.21779971590E+04  0.18860567755E+04 0.  0.
        2    1    3    3  502    0  0.72970101230E+03  0.68897884132E+02 -0.12298450510E+04  0.14316875830E+04  0.25500000920E-02 0. -1.
       -2    1    3    3    0  502 -0.72970101230E+03 -0.68897884132E+02  0.14059693240E+03  0.74630957598E+03  0.25500000920E-02 0.  1.
</event>
<event>
 5   0  0.1118206E-04  0.1910470E+04  0.7818609E-02  0.8649662E-01
       -2   -1    0    0    0  501  0.00000000000E+00  0.00000000000E+00  0.46967409637E+03  0.46967409638E+03  0.25500000920E-02 0. -1.
        2   -1    0    0  501    0  0.00000000000E+00  0.00000000000E+00 -0.19427815864E+04  0.19427815864E+04  0.25500000920E-02 0.  1.
    10030    2    1    2    0    0  0.00000000000E+00  0.00000000000E+00 -0.14731074900E+04  0.24124556828E+04  0.19104702940E+04 0.  0.
        1    1    3    3  502    0 -0.90527807737E+03 -0.28883024741E+03 -0.85977996829E+03  0.12814729428E+04  0.50400001928E-02 0. -1.
       -1    1    3    3    0  502  0.90527807737E+03  0.28883024741E+03 -0.61332752171E+03  0.11309827400E+04  0.50400001928E-02 0.  1.
</event>
<event>
 5   0  0.5614989E-05  0.1898902E+04  0.7818609E-02  0.8655403E-01
       -1   -1    0    0    0  501  0.00000000000E+00  0.00000000000E+00  0.90481043095E+03  0.90481043096E+03  0.50400001928E-02 0. -1.
        1   -1    0    0  501    0  0.00000000000E+00  0.00000000000E+00 -0.99629451762E+03  0.99629451763E+03  0.50400001928E-02 0.  1.
    10030    2    1    2    0    0  0.00000000000E+00  0.00000000000E+00 -0.91484086668E+02  0.19011049486E+04  0.18989024955E+04 0.  0.
        4    1    3    3  502    0  0.66454660624E+03 -0.62551395951E+03 -0.30789714915E+03  0.96316778017E+03  0.12699999809E+01 0. -1.
       -4    1    3    3    0  502 -0.66454660624E+03  0.62551395951E+03  0.21641306248E+03  0.93793716843E+03  0.12699999809E+01 0.  1.
</event>
<event>
 5   0  0.1118206E-04  0.1910263E+04  0.7818609E-02  0.8649765E-01
       -2   -1    0    0    0  501  0.00000000000E+00  0.00000000000E+00  0.60611540624E+03  0.60611540625E+03  0.25500000920E-02 0.  1.
        2   -1    0    0  501    0  0.00000000000E+00  0.00000000000E+00 -0.15051194660E+04  0.15051194660E+04  0.25500000920E-02 0. -1.
    10030    2    1    2    0    0  0.00000000000E+00  0.00000000000E+00 -0.89900405977E+03  0.21112348723E+04  0.19102629103E+04 0.  0.
        1    1    3    3  502    0  0.47593469666E+03  0.19592805032E+02 -0.13644757249E+04  0.14452306797E+04  0.50400001928E-02 0. -1.
       -1    1    3    3    0  502 -0.47593469666E+03 -0.19592805032E+02  0.46547166515E+03  0.66600419261E+03  0.50400001928E-02 0.  1.
</event>
<event>
 5   0  0.5824956E-05  0.1899907E+04  0.7818609E-02  0.8654903E-01
        1   -1    0    0  501    0  0.00000000000E+00  0.00000000000E+00  0.12331281576E+04  0.12331281576E+04  0.50400001928E-02 0. -1.
       -1   -1    0    0    0  501  0.00000000000E+00  0.00000000000E+00 -0.73180664109E+03  0.73180664110E+03  0.50400001928E-02 0.  1.
    10030    2    1    2    0    0  0.00000000000E+00  0.00000000000E+00  0.50132151654E+03  0.19649347987E+04  0.18999067083E+04 0.  0.
        2    1    3    3  502    0 -0.10291985640E+03 -0.22108032741E+03 -0.69888261894E+03  0.74020667592E+03  0.25500000920E-02 0.  1.
       -2    1    3    3    0  502  0.10291985640E+03  0.22108032741E+03  0.12002041355E+04  0.12247281228E+04  0.25500000920E-02 0. -1.
</event>
<event>
 5   0  0.1101678E-04  0.1883607E+04  0.7818609E-02  0.8663060E-01
       -2   -1    0    0    0  501  0.00000000000E+00  0.00000000000E+00  0.13775148431E+04  0.13775148431E+04  0.25500000920E-02 0. -1.
        2   -1    0    0  501    0  0.00000000000E+00  0.00000000000E+00 -0.64390860059E+03  0.64390860060E+03  0.25500000920E-02 0.  1.
    10030    2    1    2    0    0  0.00000000000E+00  0.00000000000E+00  0.73360624254E+03  0.20214234437E+04  0.18836068114E+04 0.  0.
        4    1    3    3  502    0  0.42052246644E+03 -0.48439638547E+03  0.11068313068E+04  0.12792795463E+04  0.12699999809E+01 0. -1.
       -4    1    3    3    0  502 -0.42052246644E+03  0.48439638547E+03 -0.37322506423E+03  0.74214389744E+03  0.12699999809E+01 0.  1.
</event>
<event>
 5   0  0.1133638E-04  0.1904670E+04  0.7818609E-02  0.8652535E-01
        2   -1    0    0  501    0  0.00000000000E+00  0.00000000000E+00  0.91087465482E+03  0.91087465482E+03  0.25500000920E-02 0.  1.
       -2   -1    0    0    0  501  0.00000000000E+00  0.00000000000E+00 -0.99568286919E+03  0.99568286919E+03  0.25500000920E-02 0. -1.
    10030    2    1    2    0    0  0.00000000000E+00  0.00000000000E+00 -0.84808214372E+02  0.19065575240E+04  0.19046703545E+04 0.  0.
        3    1    3    3  502    0 -0.44414594022E+03  0.17230978396E+03  0.78302556599E+03  0.91656168644E+03  0.10100000352E+00 0.  1.
       -3    1    3    3    0  502  0.44414594022E+03 -0.17230978396E+03 -0.86783378036E+03  0.98999583757E+03  0.10100000352E+00 0. -1.
</event>
<event>
 5   0  0.5824956E-05  0.1910924E+04  0.7818609E-02  0.8649438E-01
       -1   -1    0    0    0  501  0.00000000000E+00  0.00000000000E+00  0.59224357196E+03  0.59224357198E+03  0.50400001928E-02 0.  1.
        1   -1    0    0  501    0  0.00000000000E+00  0.00000000000E+00 -0.15414398184E+04  0.15414398184E+04  0.50400001928E-02 0. -1.
    10030    2    1    2    0    0  0.00000000000E+00  0.00000000000E+00 -0.94919624642E+03  0.21336833904E+04  0.19109241995E+04 0.  0.
        2    1    3    3  502    0  0.10914217099E+03 -0.88366752865E+03 -0.86159526059E+03  0.12390023034E+04  0.25500000920E-02 0.  1.
       -2    1    3    3    0  502 -0.10914217099E+03  0.88366752865E+03 -0.87600985823E+02  0.89468108699E+03  0.25500000920E-02 0. -1.
</event>
<event>
 5   0  0.5614989E-05  0.1804607E+04  0.7818609E-02  0.8703853E-01
        1   -1    0    0  501    0  0.00000000000E+00  0.00000000000E+00  0.50511700931E+03  0.50511700933E+03  0.50400001928E-02 0.  1.
       -1   -1    0    0    0  501  0.00000000000E+00  0.00000000000E+00 -0.16118087641E+04  0.16118087641E+04  0.50400001928E-02 0. -1.
    10030    2    1    2    0    0  0.00000000000E+00  0.00000000000E+00 -0.11066917548E+04  0.21169257734E+04  0.18046074615E+04 0.  0.
        4    1    3    3  502    0 -0.11139666208E+03  0.89445998300E+03 -0.50522821045E+03  0.10333078123E+04  0.12699999809E+01 0. -1.
       -4    1    3    3    0  502  0.11139666208E+03 -0.89445998300E+03 -0.60146354433E+03  0.10836179611E+04  0.12699999809E+01 0.  1.
</event>
<event>
 5   0  0.5628936E-05  0.1861742E+04  0.7818609E-02  0.8674138E-01
        1   -1    0    0  501    0  0.00000000000E+00  0.00000000000E+00  0.17073671371E+04  0.17073671371E+04  0.50400001928E-02 0. -1.
       -1   -1    0    0    0  501  0.00000000000E+00  0.00000000000E+00 -0.50751860451E+03  0.50751860453E+03  0.50400001928E-02 0.  1.
    10030    2    1    2    0    0  0.00000000000E+00  0.00000000000E+00  0.11998485326E+04  0.22148857417E+04  0.18617417510E+04 0.  0.
        5    1    3    3  502    0  0.22899597285E+03 -0.39234934184E+03 -0.36666901896E+03  0.58381968200E+03  0.46999998093E+01 0.  1.
       -5    1    3    3    0  502 -0.22899597285E+03  0.39234934184E+03  0.15665175516E+04  0.16310660597E+04  0.46999998093E+01 0. -1.
</event>
<event>
 5   0  0.5579109E-05  0.1901907E+04  0.7818609E-02  0.8653908E-01
       -1   -1    0    0    0  501  0.00000000000E+00  0.00000000000E+00  0.10077024075E+04  0.10077024075E+04  0.50400001928E-02 0.  1.
        1   -1    0    0  501    0  0.00000000000E+00  0.00000000000E+00 -0.89740018335E+03  0.89740018337E+03  0.50400001928E-02 0. -1.
    10030    2    1    2    0    0  0.00000000000E+00  0.00000000000E+00  0.11030222414E+03  0.19051025909E+04  0.19019067540E+04 0.  0.
        3    1    3    3  502    0 -0.12467878423E+03 -0.21816713297E+03  0.97384577658E+03  0.10057421657E+04  0.10100000352E+00 0.  1.
       -3    1    3    3    0  502  0.12467878423E+03  0.21816713297E+03 -0.86354355244E+03  0.89936042514E+03  0.10100000352E+00 0. -1.
</event>
<event>
 5   0  0.1118206E-04  0.1901864E+04  0.7818609E-02  0.8653929E-01
        2   -1    0    0  501    0  0.00000000000E+00  0.00000000000E+00  0.14706260362E+04  0.14706260362E+04  0.25500000920E-02 0. -1.
       -2   -1    0    0    0  501  0.00000000000E+00  0.00000000000E+00 -0.61488869735E+03  0.61488869735E+03  0.25500000920E-02 0.  1.
    10030    2    1    2    0    0  0.00000000000E+00  0.00000000000E+00  0.85573733886E+03  0.20855147336E+04  0.19018636415E+04 0.  0.
        1    1    3    3  502    0 -0.46860153593E+03  0.75504427589E+03  0.79907140496E+03  0.11950708633E+04  0.50400001928E-02 0. -1.
       -1    1    3    3    0  502  0.46860153593E+03 -0.75504427589E+03  0.56665933909E+02  0.89044387028E+03  0.50400001928E-02 0.  1.
</event>
<event>
 5   0  0.1182630E-04  0.1900415E+04  0.7818609E-02  0.8654650E-01
        2   -1    0    0  501    0  0.00000000000E+00  0.00000000000E+00  0.26152178008E+04  0.26152178008E+04  0.25500000920E-02 0. -1.
       -2   -1    0    0    0  501  0.00000000000E+00  0.00000000000E+00 -0.34524632574E+03  0.34524632575E+03  0.25500000920E-02 0.  1.
    10030    2    1    2    0    0  0.00000000000E+00  0.00000000000E+00  0.22699714751E+04  0.29604641266E+04  0.19004150460E+04 0.  0.
        5    1    3    3  502    0  0.94214522077E+03  0.12272891324E+03  0.11554305386E+04  0.14959083604E+04  0.46999998093E+01 0.  1.
       -5    1    3    3    0  502 -0.94214522077E+03 -0.12272891324E+03  0.11145409365E+04  0.14645557662E+04  0.46999998093E+01 0. -1.
</event>
<event>
 5   0  0.1141890E-04  0.1903697E+04  0.7818609E-02  0.8653018E-01
        2   -1    0    0  501    0  0.00000000000E+00  0.00000000000E+00  0.13869127889E+04  0.13869127889E+04  0.25500000920E-02 0.  1.
       -2   -1    0    0    0  501  0.00000000000E+00  0.00000000000E+00 -0.65326082443E+03  0.65326082444E+03  0.25500000920E-02 0. -1.
    10030    2    1    2    0    0  0.00000000000E+00  0.00000000000E+00  0.73365196447E+03  0.20401736133E+04  0.19036972363E+04 0.  0.
        2    1    3    3  502    0 -0.69540386556E+03 -0.81262617431E+02 -0.32424853746E+03  0.77157453514E+03  0.25500000920E-02 0. -1.
       -2    1    3    3    0  502  0.69540386556E+03  0.81262617431E+02  0.10579005019E+04  0.12685990782E+04  0.25500000920E-02 0.  1.
</event>
<event>
 5   0  0.5579109E-05  0.1905145E+04  0.7818609E-02  0.8652300E-01
       -1   -1    0    0    0  501  0.00000000000E+00  0.00000000000E+00  0.42751756212E+03  0.42751756215E+03  0.50400001928E-02 0. -1.
        1   -1    0    0  501    0  0.00000000000E+00  0.00000000000E+00 -0.21224730300E+04  0.21224730300E+04  0.50400001928E-02 0.  1.
    10030    2    1    2    0    0  0.00000000000E+00  0.00000000000E+00 -0.16949554678E+04  0.25499905921E+04  0.19051451341E+04 0.  0.
        3    1    3    3  502    0  0.82187917387E+03 -0.25678142629E+03 -0.30218657069E+03  0.91254523780E+03  0.10100000352E+00 0. -1.
       -3    1    3    3    0  502 -0.82187917387E+03  0.25678142629E+03 -0.13927688971E+04  0.16374453543E+04  0.10100000352E+00 0.  1.
</event>
<event>
 5   0  0.1141890E-04  0.1896182E+04  0.7818609E-02  0.8656759E-01
        2   -1    0    0  501    0  0.00000000000E+00  0.00000000000E+00  0.74468017986E+03  0.74468017986E+03  0.25500000920E-02 0. -1.
       -2   -1    0    0    0  501  0.00000000000E+00  0.00000000000E+00 -0.12070638481E+04  0.12070638481E+04  0.25500000920E-02 0.  1.
    10030    2    1    2    0    0  0.00000000000E+00  0.00000000000E+00 -0.46238366823E+03  0.19517440279E+04  0.18961819781E+04 0.  0.
        2    1    3    3  502    0  0.11437642442E+03  0.79330827110E+03  0.29006256993E+03  0.85238270392E+03  0.25500000920E-02 0. -1.
       -2    1    3    3    0  502 -0.11437642442E+03 -0.79330827110E+03 -0.75244623816E+03  0.10993613240E+04  0.25500000920E-02 0.  1.
</event>
<event>
 5   0  0.5841424E-05  0.1915250E+04  0.7818609E-02  0.8647302E-01
       -1   -1    0    0    0  501  0.00000000000E+00  0.00000000000E+00  0.10601700162E+04  0.10601700162E+04  0.50400001928E-02 0.  1.
        1   -1    0    0  501    0  0.00000000000E+00  0.00000000000E+00 -0.86499890549E+03  0.86499890551E+03  0.50400001928E-02 0. -1.
    10030    2    1    2    0    0  0.00000000000E+00  0.00000000000E+00  0.19517111068E+03  0.19251689217E+04  0.19152502747E+04 0.  0.
        1    1    3    3  502    0  0.56435829267E+01  0.77849924452E+03 -0.46293387300E+03  0.90575973334E+03  0.50400001928E-02 0. -1.
       -1    1    3    3    0  502 -0.56435829267E+01 -0.77849924452E+03  0.65810498368E+03  0.10194091884E+04  0.50400001928E-02 0.  1.
</event>
<event>
 5   0  0.4061125E-05  0.1900047E+04  0.7818609E-02  0.8654833E-01
        3   -1    0    0  501    0  0.00000000000E+00  0.00000000000E+00  0.74276241743E+03  0.74276242430E+03  0.10100000352E+00 0.  1.
       -3   -1    0    0    0  501  0.00000000000E+00  0.00000000000E+00 -0.12151192699E+04  0.12151192741E+04  0.10100000352E+00 0. -1.
    10030    2    1    2    0    0  0.00000000000E+00  0.00000000000E+00 -0.47235685248E+03  0.19578816984E+04  0.19000473017E+04 0.  0.
        2    1    3    3  502    0  0.66187744908E+03  0.66392526183E+03 -0.39470000011E+03  0.10171856276E+04  0.25500000920E-02 0.  1.
       -2    1    3    3    0  502 -0.66187744908E+03 -0.66392526183E+03 -0.77656852366E+02  0.94069607081E+03  0.25500000920E-02 0. -1.
</event>
<event>
 5   0  0.1101678E-04  0.1917007E+04  0.7818609E-02  0.8646437E-01
        2   -1    0    0  501    0  0.00000000000E+00  0.00000000000E+00  0.19165326648E+04  0.19165326648E+04  0.25500000920E-02 0. -1.
       -2   -1    0    0    0  501  0.00000000000E+00  0.00000000000E+00 -0.47937016327E+03  0.47937016327E+03  0.25500000920E-02 0.  1.
    10030    2    1    2    0    0  0.00000000000E+00  0.00000000000E+00  0.14371625015E+04  0.23959028281E+04  0.19170066003E+04 0.  0.
        4    1    3    3  502    0 -0.50286712423E+02 -0.69862491522E+03  0.15363473065E+04  0.16884816211E+04  0.12699999809E+01 0. -1.
       -4    1    3    3    0  502  0.50286712423E+02  0.69862491522E+03 -0.99184805011E+02  0.70742120696E+03  0.12699999809E+01 0.  1.
</event>
<event>
 5   0  0.5579109E-05  0.1900846E+04  0.7818609E-02  0.8654435E-01
       -1   -1    0    0    0  501  0.00000000000E+00  0.00000000000E+00  0.62879555443E+03  0.62879555445E+03  0.50400001928E-02 0.  1.
        1   -1    0    0  501    0  0.00000000000E+00  0.00000000000E+00 -0.14365620399E+04  0.14365620400E+04  0.50400001928E-02 0. -1.
    10030    2    1    2    0    0  0.00000000000E+00  0.00000000000E+00 -0.80776648551E+03  0.20653575944E+04  0.19008459426E+04 0.  0.
        3    1    3    3  502    0  0.33299381969E+02  0.34404597155E+03  0.55808013398E+03  0.65645253105E+03  0.10100000352E+00 0.  1.
       -3    1    3    3    0  502 -0.33299381969E+02 -0.34404597155E+03 -0.13658466195E+04  0.14089050634E+04  0.10100000352E+00 0. -1.
</event>
<event>
 5   0  0.5841424E-05  0.1897677E+04  0.7818609E-02  0.8656014E-01
       -1   -1    0    0    0  501  0.00000000000E+00  0.00000000000E+00  0.73258651079E+03  0.73258651081E+03  0.50400001928E-02 0.  1.
        1   -1    0    0  501    0  0.00000000000E+00  0.00000000000E+00 -0.12289253119E+04  0.12289253119E+04  0.50400001928E-02 0. -1.
    10030    2    1    2    0    0  0.00000000000E+00  0.00000000000E+00 -0.49633880111E+03  0.19615118227E+04  0.18976765860E+04 0.  0.
        1    1    3    3  502    0 -0.50033830209E+03 -0.63983013440E+02 -0.10788585767E+04  0.11909525898E+04  0.50400001928E-02 0. -1.
       -1    1    3    3    0  502  0.50033830209E+03  0.63983013440E+02  0.58251977556E+03  0.77055923296E+03  0.50400001928E-02 0.  1.
</event>
<event>
 5   0  0.5824956E-05  0.1893813E+04  0.7818609E-02  0.8657942E-01
       -1   -1    0    0    0  501  0.00000000000E+00  0.00000000000E+00  0.79965840002E+03  0.79965840003E+03  0.50400001928E-02 0.  1.
        1   -1    0    0  501    0  0.00000000000E+00  0.00000000000E+00 -0.11212692407E+04  0.11212692407E+04  0.50400001928E-02 0. -1.
    10030    2    1    2    0    0  0.00000000000E+00  0.00000000000E+00 -0.32161084071E+03  0.19209276408E+04  0.18938134724E+04 0.  0.
        2    1    3    3  502    0  0.27050084466E+03  0.20689437187E+03 -0.10570029871E+04  0.11105094789E+04  0.25500000920E-02 0. -1.
       -2    1    3    3    0  502 -0.27050084466E+03 -0.20689437187E+03  0.73539214638E+03  0.81041816184E+03  0.25500000920E-02 0.  1.
</event>
<event>
 5   0  0.5614989E-05  0.1913665E+04  0.7818609E-02  0.8648084E-01
        1   -1    0    0  501    0  0.00000000000E+00  0.00000000000E+00  0.16527798730E+04  0.16527798730E+04  0.50400001928E-02 0. -1.
       -1   -1    0    0    0  501  0.00000000000E+00  0.00000000000E+00 -0.55393240805E+03  0.55393240807E+03  0.50400001928E-02 0.  1.
    10030    2    1    2    0    0  0.00000000000E+00  0.00000000000E+00  0.10988474649E+04  0.22067122811E+04  0.19136648976E+04 0.  0.
        4    1    3    3  502    0 -0.66722658030E+03  0.27281577157E+03  0.12749888475E+04  0.14646562494E+04  0.12699999809E+01 0. -1.
       -4    1    3    3    0  502  0.66722658030E+03 -0.27281577157E+03 -0.17614138253E+03  0.74205603173E+03  0.12699999809E+01 0.  1.
</event>
<event>
 5   0  0.4061125E-05  0.1881184E+04  0.7818609E-02  0.8664280E-01
       -3   -1    0    0    0  501  0.00000000000E+00  0.00000000000E+00  0.10597145529E+04  0.10597145577E+04  0.10100000352E+00 0. -1.
        3   -1    0    0  501    0  0.00000000000E+00  0.00000000000E+00 -0.83485970746E+03  0.83485971357E+03  0.10100000352E+00 0.  1.
    10030    2    1    2    0    0  0.00000000000E+00  0.00000000000E+00  0.22485484547E+03  0.18945742713E+04  0.18811836614E+04 0.  0.
        3    1    3    3  502    0  0.45839963286E+03 -0.57249642596E+03  0.70554274166E+03  0.10176801814E+04  0.10100000352E+00 0. -1.
       -3    1    3    3    0  502 -0.45839963286E+03  0.57249642596E+03 -0.48068789619E+03  0.87689408989E+03  0.10100000352E+00 0.  1.
</event>
<event>
 5   0  0.1118206E-04  0.1890957E+04  0.7818609E-02  0.8659371E-01
       -2   -1    0    0    0  501  0.00000000000E+00  0.00000000000E+00  0.12510485969E+04  0.12510485969E+04  0.25500000920E-02 0.  1.
        2   -1    0    0  501    0  0.00000000000E+00  0.00000000000E+00 -0.71454403569E+03  0.71454403570E+03  0.25500000920E-02 0. -1.
    10030    2    1    2    0    0  0.00000000000E+00  0.00000000000E+00  0.53650456124E+03  0.19655926326E+04  0.18909567032E+04 0.  0.
        1    1    3    3  502    0 -0.52782696629E+03 -0.10133727382E+03 -0.54030484453E+03  0.76210227297E+03  0.50400001928E-02 0. -1.
       -1    1    3    3    0  502  0.52782696629E+03  0.10133727382E+03  0.10768094058E+04  0.12034903597E+04  0.50400001928E-02 0.  1.
</event>
<event>
 5   0  0.5824956E-05  0.1936629E+04  0.7818609E-02  0.8636835E-01
       -1   -1    0    0    0  501  0.00000000000E+00  0.00000000000E+00  0.11898731748E+04  0.11898731748E+04  0.50400001928E-02 0.  1.
        1   -1    0    0  501    0  0.00000000000E+00  0.00000000000E+00 -0.78801101815E+03  0.78801101816E+03  0.50400001928E-02 0. -1.
    10030    2    1    2    0    0  0.00000000000E+00  0.00000000000E+00  0.40186215667E+03  0.19778841930E+04  0.19366292076E+04 0.  0.
        2    1    3    3  502    0 -0.79127753931E+03  0.11381869026E+03  0.75897576978E+03  0.11023243885E+04  0.25500000920E-02 0.  1.
       -2    1    3    3    0  502  0.79127753931E+03 -0.11381869026E+03 -0.35711361311E+03  0.87555980444E+03  0.25500000920E-02 0. -1.
</event>
<event>
 5   0  0.1133638E-04  0.1896440E+04  0.7818609E-02  0.8656631E-01
        2   -1    0    0  501    0  0.00000000000E+00  0.00000000000E+00  0.10812848911E+04  0.10812848911E+04  0.25500000920E-02 0. -1.
       -2   -1    0    0    0  501  0.00000000000E+00  0.00000000000E+00 -0.83153015798E+03  0.83153015799E+03  0.25500000920E-02 0.  1.
    10030    2    1    2    0    0  0.00000000000E+00  0.00000000000E+00  0.24975473307E+03  0.19128150490E+04  0.18964398185E+04 0.  0.
        3    1    3    3  502    0 -0.81187239575E+03 -0.15876432471E+03  0.59232062510E+03  0.10174412174E+04  0.10100000352E+00 0. -1.
       -3    1    3    3    0  502  0.81187239575E+03  0.15876432471E+03 -0.34256589203E+03  0.89537383163E+03  0.10100000352E+00 0.  1.
</event>
<event>
 5   0  0.5614989E-05  0.1906940E+04  0.7818609E-02  0.8651410E-01
        1   -1    0    0  501    0  0.00000000000E+00  0.00000000000E+00  0.69204324939E+03  0.69204324941E+03  0.50400001928E-02 0. -1.
       -1   -1    0    0    0  501  0.00000000000E+00  0.00000000000E+00 -0.13136535967E+04  0.13136535967E+04  0.50400001928E-02 0.  1.
    10030    2    1    2    0    0  0.00000000000E+00  0.00000000000E+00 -0.62161034735E+03  0.20056968462E+04  0.19069400658E+04 0.  0.
        4    1    3    3  502    0 -0.68512020037E+03 -0.64538446809E+03 -0.47098352205E+03  0.10524912786E+04  0.12699999809E+01 0.  1.
       -4    1    3    3    0  502  0.68512020037E+03  0.64538446809E+03 -0.15062682530E+03  0.95320556755E+03  0.12699999809E+01 0. -1.
</event>
<event>
 5   0  0.1118206E-04  0.1904124E+04  0.7818609E-02  0.8652806E-01
        2   -1    0    0  501    0  0.00000000000E+00  0.00000000000E+00  0.11401244616E+04  0.11401244616E+04  0.25500000920E-02 0. -1.
       -2   -1    0    0    0  501  0.00000000000E+00  0.00000000000E+00 -0.79502019384E+03  0.79502019384E+03  0.25500000920E-02 0.  1.
    10030    2    1    2    0    0  0.00000000000E+00  0.00000000000E+00  0.34510426771E+03  0.19351446554E+04  0.19041239145E+04 0.  0.
        1    1    3    3  502    0 -0.42828833043E+02  0.89527947507E+03  0.49881540854E+03  0.10257565302E+04  0.50400001928E-02 0.  1.
       -1    1    3    3    0  502  0.42828833043E+02 -0.89527947507E+03 -0.15371114082E+03  0.90938812520E+03  0.50400001928E-02 0. -1.
</event>
<event>
 5   0  0.5579109E-05  0.1887012E+04  0.7818609E-02  0.8661348E-01
       -1   -1    0    0    0  501  0.00000000000E+00  0.00000000000E+00  0.46289393164E+03  0.46289393167E+03  0.50400001928E-02 0. -1.
        1   -1    0    0  501    0  0.00000000000E+00  0.00000000000E+00 -0.19231264420E+04  0.19231264420E+04  0.50400001928E-02 0.  1.
    10030    2    1    2    0    0  0.00000000000E+00  0.00000000000E+00 -0.14602325103E+04  0.23860203736E+04  0.18870119870E+04 0.  0.
        3    1    3    3  502    0  0.71279902798E+03 -0.41433250465E+02  0.49753797745E+02  0.71573362302E+03  0.10100000352E+00 0. -1.
       -3    1    3    3    0  502 -0.71279902798E+03  0.41433250465E+02 -0.15099863081E+04  0.16702867506E+04  0.10100000352E+00 0.  1.
</event>
<event>
 5   0  0.1101678E-04  0.1898602E+04  0.7818609E-02  0.8655553E-01
       -2   -1    0    0    0  501  0.00000000000E+00  0.00000000000E+00  0.78014047075E+03  0.78014047076E+03  0.25500000920E-02 0. -1.
        2   -1    0    0  501    0  0.00000000000E+00  0.00000000000E+00 -0.11551408081E+04  0.11551408081E+04  0.25500000920E-02 0.  1.
    10030    2    1    2    0    0  0.00000000000E+00  0.00000000000E+00 -0.37500033738E+03  0.19352812789E+04  0.18986016895E+04 0.  0.
        4    1    3    3  502    0 -0.72480770022E+03  0.98894822495E+02  0.42920407046E+03  0.84814157734E+03  0.12699999809E+01 0. -1.
       -4    1    3    3    0  502  0.72480770022E+03 -0.98894822495E+02 -0.80420440785E+03  0.10871397016E+04  0.12699999809E+01 0.  1.
</event>
<event>
 5   0  0.1101678E-04  0.1877438E+04  0.7818609E-02  0.8666169E-01
        2   -1    0    0  501    0  0.00000000000E+00  0.00000000000E+00  0.33107742239E+03  0.33107742240E+03  0.25500000920E-02 0.  1.
       -2   -1    0    0    0  501  0.00000000000E+00  0.00000000000E+00 -0.26615931608E+04  0.26615931608E+04  0.25500000920E-02 0. -1.
    10030    2    1    2    0    0  0.00000000000E+00  0.00000000000E+00 -0.23305157384E+04  0.29926705832E+04  0.18774380450E+04 0.  0.
        4    1    3    3  502    0  0.87374917661E+02  0.85338833853E+02 -0.26488725262E+04  0.26516870792E+04  0.12699999809E+01 0. -1.
       -4    1    3    3    0  502 -0.87374917661E+02 -0.85338833853E+02  0.31835678780E+03  0.34098350405E+03  0.12699999809E+01 0.  1.
</event>
<event>
 5   0  0.1182630E-04  0.1904324E+04  0.7818609E-02  0.8652707E-01
        2   -1    0    0  501    0  0.00000000000E+00  0.00000000000E+00  0.90819009257E+03  0.90819009257E+03  0.25500000920E-02 0. -1.
       -2   -1    0    0    0  501  0.00000000000E+00  0.00000000000E+00 -0.99826314118E+03  0.99826314118E+03  0.25500000920E-02 0.  1.
    10030    2    1    2    0    0  0.00000000000E+00  0.00000000000E+00 -0.90073048607E+02  0.19064532338E+04  0.19043242314E+04 0.  0.
        5    1    3    3  502    0 -0.54141560700E+02  0.90233705196E+03  0.25437498724E+03  0.93908050138E+03  0.46999998093E+01 0. -1.
       -5    1    3    3    0  502  0.54141560700E+02 -0.90233705196E+03 -0.34444803585E+03  0.96737273237E+03  0.46999998093E+01 0.  1.
</event>
<event>
 5   0  0.1141890E-04  0.1900180E+04  0.7818609E-02  0.8654767E-01
       -2   -1    0    0    0  501  0.00000000000E+00  0.00000000000E+00  0.41555068134E+03  0.41555068135E+03  0.25500000920E-02 0. -1.
        2   -1    0    0  501    0  0.00000000000E+00  0.00000000000E+00 -0.21722280384E+04  0.21722280384E+04  0.25500000920E-02 0.  1.
    10030    2    1    2    0    0  0.00000000000E+00  0.00000000000E+00 -0.17566773571E+04  0.25877787198E+04  0.19001798246E+04 0.  0.
        2    1    3    3  502    0 -0.17655426054E+03 -0.32446428655E+03  0.31375351963E+03  0.48465425949E+03  0.25500000920E-02 0. -1.
       -2    1    3    3    0  502  0.17655426054E+03  0.32446428655E+03 -0.20704308767E+04  0.21031244603E+04  0.25500000920E-02 0.  1.
</event>
<event>
 5   0  0.1133638E-04  0.1901806E+04  0.7818609E-02  0.8653958E-01
        2   -1    0    0  501    0  0.00000000000E+00  0.00000000000E+00  0.17909093837E+04  0.17909093837E+04  0.25500000920E-02 0. -1.
       -2   -1    0    0    0  501  0.00000000000E+00  0.00000000000E+00 -0.50489232908E+03  0.50489232909E+03  0.25500000920E-02 0.  1.
    10030    2    1    2    0    0  0.00000000000E+00  0.00000000000E+00  0.12860170547E+04  0.22958017128E+04  0.19018058891E+04 0.  0.
        3    1    3    3  502    0 -0.53405156800E+03  0.75667502123E+03  0.38284117688E+03  0.10021654264E+04  0.10100000352E+00 0.  1.
       -3    1    3    3    0  502  0.53405156800E+03 -0.75667502123E+03  0.90317587777E+03  0.12936362864E+04  0.10100000352E+00 0. -1.
</event>
<event>
 5   0  0.1133638E-04  0.1952212E+04  0.7818609E-02  0.8629295E-01
       -2   -1    0    0    0  501  0.00000000000E+00  0.00000000000E+00  0.10690880481E+04  0.10690880481E+04  0.25500000920E-02 0.  1.
        2   -1    0    0  501    0  0.00000000000E+00  0.00000000000E+00 -0.89121126483E+03  0.89121126483E+03  0.25500000920E-02 0. -1.
    10030    2    1    2    0    0  0.00000000000E+00  0.00000000000E+00  0.17787678324E+03  0.19602993129E+04  0.19522123978E+04 0.  0.
        3    1    3    3  502    0  0.32891866989E+03  0.34877144726E+03 -0.76485097182E+03  0.90267714778E+03  0.10100000352E+00 0. -1.
       -3    1    3    3    0  502 -0.32891866989E+03 -0.34877144726E+03  0.94272775506E+03  0.10576221651E+04  0.10100000352E+00 0.  1.
</event>
<event>
 5   0  0.1141890E-04  0.1883302E+04  0.7818609E-02  0.8663213E-01
       -2   -1    0    0    0  501  0.00000000000E+00  0.00000000000E+00  0.13869908036E+04  0.13869908036E+04  0.25500000920E-02 0.  1.
        2   -1    0    0  501    0  0.00000000000E+00  0.00000000000E+00 -0.63930244356E+03  0.63930244356E+03  0.25500000920E-02 0. -1.
    10030    2    1    2    0    0  0.00000000000E+00  0.00000000000E+00  0.74768836003E+03  0.20262932472E+04  0.18833020044E+04 0.  0.
        2    1    3    3  502    0  0.63560940556E+03  0.48901039682E+03 -0.15716213659E+03  0.81720892177E+03  0.25500000920E-02 0. -1.
       -2    1    3    3    0  502 -0.63560940556E+03 -0.48901039682E+03  0.90485049662E+03  0.12090843254E+04  0.25500000920E-02 0.  1.
</event>
<event>
 5   0  0.4061125E-05  0.1916141E+04  0.7818609E-02  0.8646863E-01
        4   -1    0    0  501    0  0.00000000000E+00  0.00000000000E+00  0.74836719146E+03  0.74836826907E+03  0.12699999809E+01 0.  1.
       -4   -1    0    0    0  501  0.00000000000E+00  0.00000000000E+00 -0.12265334139E+04  0.12265340714E+04  0.12699999809E+01 0. -1.
    10030    2    1    2    0    0  0.00000000000E+00  0.00000000000E+00 -0.47816622248E+03  0.19749023405E+04  0.19161409964E+04 0.  0.
        4    1    3    3  502    0 -0.27480785249E+03  0.87770090122E+03 -0.51567690126E+03  0.10544204603E+04  0.12699999809E+01 0. -1.
       -4    1    3    3    0  502  0.27480785249E+03 -0.87770090122E+03  0.37510678784E+02  0.92048188017E+03  0.12699999809E+01 0.  1.
</event>
<event>
 5   0  0.1133638E-04  0.1890571E+04  0.7818609E-02  0.8659564E-01
       -2   -1    0    0    0  501  0.00000000000E+00  0.00000000000E+00  0.43474241826E+03  0.43474241827E+03  0.25500000920E-02 0. -1.
        2   -1    0    0  501    0  0.00000000000E+00  0.00000000000E+00 -0.20553889418E+04  0.20553889418E+04  0.25500000920E-02 0.  1.
    10030    2    1    2    0    0  0.00000000000E+00  0.00000000000E+00 -0.16206465235E+04  0.24901313600E+04  0.18905710873E+04 0.  0.
        3    1    3    3  502    0  0.53557553901E+03 -0.76979486150E+03 -0.65370381382E+03  0.11431334013E+04  0.10100000352E+00 0. -1.
       -3    1    3    3    0  502 -0.53557553901E+03  0.76979486150E+03 -0.96694270968E+03  0.13469979587E+04  0.10100000352E+00 0.  1.
</event>
<event>
 5   0  0.5841424E-05  0.1912644E+04  0.7818609E-02  0.8648588E-01
        1   -1    0    0  501    0  0.00000000000E+00  0.00000000000E+00  0.17307372186E+04  0.17307372187E+04  0.50400001928E-02 0. -1.
       -1   -1    0    0    0  501  0.00000000000E+00  0.00000000000E+00 -0.52841722648E+03  0.52841722650E+03  0.50400001928E-02 0.  1.
    10030    2    1    2    0    0  0.00000000000E+00  0.00000000000E+00  0.12023199922E+04  0.22591544452E+04  0.19126435746E+04 0.  0.
        1    1    3    3  502    0  0.16787133178E+02 -0.25750359334E+03 -0.48651696952E+03  0.55071650609E+03  0.50400001928E-02 0.  1.
       -1    1    3    3    0  502 -0.16787133178E+02  0.25750359334E+03  0.16888369617E+04  0.17084379391E+04  0.50400001928E-02 0. -1.
</event>
<event>
 5   0  0.1118206E-04  0.1900138E+04  0.7818609E-02  0.8654788E-01
        2   -1    0    0  501    0  0.00000000000E+00  0.00000000000E+00  0.79989975622E+03  0.79989975622E+03  0.25500000920E-02 0. -1.
       -2   -1    0    0    0  501  0.00000000000E+00  0.00000000000E+00 -0.11284299518E+04  0.11284299518E+04  0.25500000920E-02 0.  1.
    10030    2    1    2    0    0  0.00000000000E+00  0.00000000000E+00 -0.32853019560E+03  0.19283297080E+04  0.19001377249E+04 0.  0.
        1    1    3    3  502    0 -0.66062596898E+02  0.93325109693E+03 -0.33197119244E+03  0.99273699904E+03  0.50400001928E-02 0. -1.
       -1    1    3    3    0  502  0.66062596898E+02 -0.93325109693E+03  0.34409968419E+01  0.93559270899E+03  0.50400001928E-02 0.  1.
</event>
<event>
 5   0  0.1141890E-04  0.1873786E+04  0.7818609E-02  0.8668016E-01
        2   -1    0    0  501    0  0.00000000000E+00  0.00000000000E+00  0.15635373973E+04  0.15635373973E+04  0.25500000920E-02 0. -1.
       -2   -1    0    0    0  501  0.00000000000E+00  0.00000000000E+00 -0.56139928574E+03  0.56139928575E+03  0.25500000920E-02 0.  1.
    10030    2    1    2    0    0  0.00000000000E+00  0.00000000000E+00  0.10021381116E+04  0.21249366831E+04  0.18737863038E+04 0.  0.
        2    1    3    3  502    0 -0.53157262784E+02 -0.12458880935E+02  0.15617317824E+04  0.15626858541E+04  0.25500000920E-02 0. -1.
       -2    1    3    3    0  502  0.53157262784E+02  0.12458880935E+02 -0.55959367082E+03  0.56225082902E+03  0.25500000920E-02 0.  1.
</event>
<event>
 5   0  0.5824956E-05  0.1895736E+04  0.7818609E-02  0.8656982E-01
       -1   -1    0    0    0  501  0.00000000000E+00  0.00000000000E+00  0.55107570598E+03  0.55107570601E+03  0.50400001928E-02 0.  1.
        1   -1    0    0  501    0  0.00000000000E+00  0.00000000000E+00 -0.16303639825E+04  0.16303639826E+04  0.50400001928E-02 0. -1.
    10030    2    1    2    0    0  0.00000000000E+00  0.00000000000E+00 -0.10792882766E+04  0.21814396886E+04  0.18957362504E+04 0.  0.
        2    1    3    3  502    0 -0.51012631928E+03  0.71900284999E+03 -0.94034854477E+03  0.12889722051E+04  0.25500000920E-02 0.  1.
       -2    1    3    3    0  502  0.51012631928E+03 -0.71900284999E+03 -0.13893973179E+03  0.89246748344E+03  0.25500000920E-02 0. -1.
</event>
<event>
 5   0  0.1182630E-04  0.1891018E+04  0.7818609E-02  0.8659340E-01
        2   -1    0    0  501    0  0.00000000000E+00  0.00000000000E+00  0.62223585782E+03  0.62223585782E+03  0.25500000920E-02 0.  1.
       -2   -1    0    0    0  501  0.00000000000E+00  0.00000000000E+00 -0.14367340794E+04  0.14367340794E+04  0.25500000920E-02 0. -1.
    10030    2    1    2    0    0  0.00000000000E+00  0.00000000000E+00 -0.81449822159E+03  0.20589699372E+04  0.18910182044E+04 0.  0.
        5    1    3    3  502    0 -0.46258289822E+03  0.61265201541E+03 -0.10082120888E+04  0.12672170831E+04  0.46999998093E+01 0. -1.
       -5    1    3    3    0  502  0.46258289822E+03 -0.61265201541E+03  0.19371386719E+03  0.79175285415E+03  0.46999998093E+01 0.  1.
</event>
<event>
 5   0  0.5579109E-05  0.1891428E+04  0.7818609E-02  0.8659135E-01
       -1   -1    0    0    0  501  0.00000000000E+00  0.00000000000E+00  0.63924145803E+03  0.63924145805E+03  0.50400001928E-02 0. -1.
        1   -1    0    0  501    0  0.00000000000E+00  0.00000000000E+00 -0.13991196756E+04  0.13991196757E+04  0.50400001928E-02 0.  1.
    10030    2    1    2    0    0  0.00000000000E+00  0.00000000000E+00 -0.75987821762E+03  0.20383611337E+04  0.18914283507E+04 0.  0.
        3    1    3    3  502    0 -0.13762993071E+03 -0.92203191842E+03 -0.20855546046E+03  0.95529066085E+03  0.10100000352E+00 0. -1.
       -3    1    3    3    0  502  0.13762993071E+03  0.92203191842E+03 -0.55132275716E+03  0.10830704729E+04  0.10100000352E+00 0.  1.
</event>
<event>
 5   0  0.5628936E-05  0.1918563E+04  0.7818609E-02  0.8645671E-01
        1   -1    0    0  501    0  0.00000000000E+00  0.00000000000E+00  0.16731143161E+04  0.16731143161E+04  0.50400001928E-02 0.  1.
       -1   -1    0    0    0  501  0.00000000000E+00  0.00000000000E+00 -0.55000513799E+03  0.55000513802E+03  0.50400001928E-02 0. -1.
    10030    2    1    2    0    0  0.00000000000E+00  0.00000000000E+00  0.11231091781E+04  0.22231194541E+04  0.19185634942E+04 0.  0.
        5    1    3    3  502    0 -0.26280750458E+03  0.80872594472E+03  0.47128174317E+02  0.85167399452E+03  0.46999998093E+01 0.  1.
       -5    1    3    3    0  502  0.26280750458E+03 -0.80872594472E+03  0.10759810037E+04  0.13714454596E+04  0.46999998093E+01 0. -1.
</event>
<event>
 5   0  0.5614989E-05  0.1913950E+04  0.7818609E-02  0.8647944E-01
       -1   -1    0    0    0  501  0.00000000000E+00  0.00000000000E+00  0.60634489239E+03  0.60634489241E+03  0.50400001928E-02 0.  1.
        1   -1    0    0  501    0  0.00000000000E+00  0.00000000000E+00 -0.15103634058E+04  0.15103634058E+04  0.50400001928E-02 0. -1.
    10030    2    1    2    0    0  0.00000000000E+00  0.00000000000E+00 -0.90401851344E+03  0.21167082982E+04  0.19139499856E+04 0.  0.
        4    1    3    3  502    0 -0.78374717917E+03  0.16783284195E+03  0.12622984829E+03  0.81139576730E+03  0.12699999809E+01 0.  1.
       -4    1    3    3    0  502  0.78374717917E+03 -0.16783284195E+03 -0.10302483617E+04  0.13053125309E+04  0.12699999809E+01 0. -1.
</event>
<event>
 5   0  0.1101678E-04  0.1904559E+04  0.7818609E-02  0.8652590E-01
        2   -1    0    0  501    0  0.00000000000E+00  0.00000000000E+00  0.86899859799E+03  0.86899859799E+03  0.25500000920E-02 0.  1.
       -2   -1    0    0    0  501  0.00000000000E+00  0.00000000000E+00 -0.10435420265E+04  0.10435420265E+04  0.25500000920E-02 0. -1.
    10030    2    1    2    0    0  0.00000000000E+00  0.00000000000E+00 -0.17454342852E+03  0.19125406245E+04  0.19045593275E+04 0.  0.
        4    1    3    3  502    0 -0.43741109519E+03 -0.14274120329E+03 -0.92451105146E+03  0.10326789503E+04  0.12699999809E+01 0. -1.
       -4    1    3    3    0  502  0.43741109519E+03  0.14274120329E+03  0.74996762294E+03  0.87986167417E+03  0.12699999809E+01 0.  1.
</event>
<event>
 5   0  0.1141890E-04  0.1908908E+04  0.7818609E-02  0.8650435E-01
        2   -1    0    0  501    0  0.00000000000E+00  0.00000000000E+00  0.86986303447E+03  0.86986303447E+03  0.25500000920E-02 0.  1.
       -2   -1    0    0    0  501  0.00000000000E+00  0.00000000000E+00 -0.10472711670E+04  0.10472711670E+04  0.25500000920E-02 0. -1.
    10030    2    1    2    0    0  0.00000000000E+00  0.00000000000E+00 -0.17740813256E+03  0.19171342015E+04  0.19089080389E+04 0.  0.
        2    1    3    3  502    0  0.58875957656E+03  0.73755271995E+03 -0.23200962084E+03  0.97182833765E+03  0.25500000920E-02 0.  1.
       -2    1    3    3    0  502 -0.58875957656E+03 -0.73755271995E+03  0.54601488283E+02  0.94530586385E+03  0.25500000920E-02 0. -1.
</event>
<event>
 5   0  0.1101678E-04  0.1901495E+04  0.7818609E-02  0.8654113E-01
       -2   -1    0    0    0  501  0.00000000000E+00  0.00000000000E+00  0.67529676611E+03  0.67529676611E+03  0.25500000920E-02 0. -1.
        2   -1    0    0  501    0  0.00000000000E+00  0.00000000000E+00 -0.13385534709E+04  0.13385534709E+04  0.25500000920E-02 0.  1.
    10030    2    1    2    0    0  0.00000000000E+00  0.00000000000E+00 -0.66325670476E+03  0.20138502370E+04  0.19014950225E+04 0.  0.
        4    1    3    3  502    0 -0.40135597678E+03  0.34792830751E+03  0.50349345497E+03  0.73187977111E+03  0.12699999809E+01 0. -1.
       -4    1    3    3    0  502  0.40135597678E+03 -0.34792830751E+03 -0.11667501597E+04  0.12819704659E+04  0.12699999809E+01 0.  1.
</event>
<event>
 5   0  0.1118206E-04  0.1901882E+04  0.7818609E-02  0.8653920E-01
        2   -1    0    0  501    0  0.00000000000E+00  0.00000000000E+00  0.13766277398E+04  0.13766277398E+04  0.25500000920E-02 0.  1.
       -2   -1    0    0    0  501  0.00000000000E+00  0.00000000000E+00 -0.65688707954E+03  0.65688707954E+03  0.25500000920E-02 0. -1.
    10030    2    1    2    0    0  0.00000000000E+00  0.00000000000E+00  0.71974066021E+03  0.20335148193E+04  0.19018821999E+04 0.  0.
        1    1    3    3  502    0 -0.72068552573E+03  0.48145478628E+03 -0.58494399296E+02  0.86868172134E+03  0.50400001928E-02 0. -1.
       -1    1    3    3    0  502  0.72068552573E+03 -0.48145478628E+03  0.77823505951E+03  0.11648330980E+04  0.50400001928E-02 0.  1.
</event>
<event>
 5   0  0.1133638E-04  0.1906433E+04  0.7818609E-02  0.8651661E-01
        2   -1    0    0  501    0  0.00000000000E+00  0.00000000000E+00  0.15387866688E+04  0.15387866688E+04  0.25500000920E-02 0. -1.
       -2   -1    0    0    0  501  0.00000000000E+00  0.00000000000E+00 -0.59047906322E+03  0.59047906323E+03  0.25500000920E-02 0.  1.
    10030    2    1    2    0    0  0.00000000000E+00  0.00000000000E+00  0.94830760562E+03  0.21292657321E+04  0.19064325960E+04 0.  0.
        3    1    3    3  502    0  0.43154209659E+03 -0.25674478417E+03 -0.43078133377E+03  0.66160338048E+03  0.10100000352E+00 0.  1.
       -3    1    3    3    0  502 -0.43154209659E+03  0.25674478417E+03  0.13790889394E+04  0.14676623516E+04  0.10100000352E+00 0. -1.
</event>
<event>
 5   0  0.5841424E-05  0.1900027E+04  0.7818609E-02  0.8654843E-01
        1   -1    0    0  501    0  0.00000000000E+00  0.00000000000E+00  0.14666924121E+04  0.14666924121E+04  0.50400001928E-02 0. -1.
       -1   -1    0    0    0  501  0.00000000000E+00  0.00000000000E+00 -0.61534753605E+03  0.61534753607E+03  0.50400001928E-02 0.  1.
    10030    2    1    2    0    0  0.00000000000E+00  0.00000000000E+00  0.85134487609E+03  0.20820399482E+04  0.19000269072E+04 0.  0.
        1    1    3    3  502    0  0.30139991278E+03  0.19549792397E+03  0.13893892160E+04  0.14350831820E+04  0.50400001928E-02 0. -1.
       -1    1    3    3    0  502 -0.30139991278E+03 -0.19549792397E+03 -0.53804433987E+03  0.64695676625E+03  0.50400001928E-02 0.  1.
</event>
<event>
 5   0  0.1141890E-04  0.1907179E+04  0.7818609E-02  0.8651291E-01
        2   -1    0    0  501    0  0.00000000000E+00  0.00000000000E+00  0.21888194696E+04  0.21888194696E+04  0.25500000920E-02 0.  1.
       -2   -1    0    0    0  501  0.00000000000E+00  0.00000000000E+00 -0.41544452135E+03  0.41544452136E+03  0.25500000920E-02 0. -1.
    10030    2    1    2    0    0  0.00000000000E+00  0.00000000000E+00  0.17733749482E+04  0.26042639909E+04  0.19071791283E+04 0.  0.
        2    1    3    3  502    0 -0.50654119159E+03 -0.69993192358E+03  0.14377233929E+04  0.16773601971E+04  0.25500000920E-02 0.  1.
       -2    1    3    3    0  502  0.50654119159E+03  0.69993192358E+03  0.33565155538E+03  0.92690379385E+03  0.25500000920E-02 0. -1.
</event>
<event>
 5   0  0.5614989E-05  0.1903786E+04  0.7818609E-02  0.8652974E-01
       -1   -1    0    0    0  501  0.00000000000E+00  0.00000000000E+00  0.21634098513E+04  0.21634098513E+04  0.50400001928E-02 0.  1.
        1   -1    0    0  501    0  0.00000000000E+00  0.00000000000E+00 -0.41882986982E+03  0.41882986985E+03  0.50400001928E-02 0. -1.
    10030    2    1    2    0    0  0.00000000000E+00  0.00000000000E+00  0.17445799815E+04  0.25822397212E+04  0.19037864024E+04 0.  0.
        4    1    3    3  502    0  0.51633801647E+03 -0.38202737865E+03  0.18251817207E+04  0.19349004604E+04  0.12699999809E+01 0.  1.
       -4    1    3    3    0  502 -0.51633801647E+03  0.38202737865E+03 -0.80601739172E+02  0.64733926078E+03  0.12699999809E+01 0. -1.
</event>
<event>
 5   0  0.1101678E-04  0.1855261E+04  0.7818609E-02  0.8677452E-01
        2   -1    0    0  501    0  0.00000000000E+00  0.00000000000E+00  0.16959465917E+04  0.16959465917E+04  0.25500000920E-02 0. -1.
       -2   -1    0    0    0  501  0.00000000000E+00  0.00000000000E+00 -0.50738536354E+03  0.50738536354E+03  0.25500000920E-02 0.  1.
    10030    2    1    2    0    0  0.00000000000E+00  0.00000000000E+00  0.11885612282E+04  0.22033319552E+04  0.18552611439E+04 0.  0.
        4    1    3    3  502    0 -0.35637960950E+03  0.26361233545E+03  0.15620203837E+04  0.16237016910E+04  0.12699999809E+01 0. -1.
       -4    1    3    3    0  502  0.35637960950E+03 -0.26361233545E+03 -0.37345915552E+03  0.57963026423E+03  0.12699999809E+01 0.  1.
</event>
<event>
 5   0  0.1101678E-04  0.1892576E+04  0.7818609E-02  0.8658560E-01
        2   -1    0    0  501    0  0.00000000000E+00  0.00000000000E+00  0.14610817362E+04  0.14610817362E+04  0.25500000920E-02 0.  1.
       -2   -1    0    0    0  501  0.00000000000E+00  0.00000000000E+00 -0.61287566135E+03  0.61287566136E+03  0.25500000920E-02 0. -1.
    10030    2    1    2    0    0  0.00000000000E+00  0.00000000000E+00  0.84820607482E+03  0.20739573975E+04  0.18925764823E+04 0.  0.
        4    1    3    3  502    0  0.50441532071E+03 -0.24439310371E+02  0.13010664100E+04  0.13956387469E+04  0.12699999809E+01 0.  1.
       -4    1    3    3    0  502 -0.50441532071E+03  0.24439310371E+02 -0.45286033522E+03  0.67831865062E+03  0.12699999809E+01 0. -1.
</event>
<event>
 5   0  0.5841424E-05  0.1933121E+04  0.7818609E-02  0.8638543E-01
        1   -1    0    0  501    0  0.00000000000E+00  0.00000000000E+00  0.98255579469E+03  0.98255579471E+03  0.50400001928E-02 0. -1.
       -1   -1    0    0    0  501  0.00000000000E+00  0.00000000000E+00 -0.95082529407E+03  0.95082529409E+03  0.50400001928E-02 0.  1.
    10030    2    1    2    0    0  0.00000000000E+00  0.00000000000E+00  0.31730500617E+02  0.19333810888E+04  0.19331206920E+04 0.  0.
        1    1    3    3  502    0 -0.41385931697E+03  0.57116823844E+03 -0.64507640824E+03  0.95584322111E+03  0.50400001928E-02 0.  1.
       -1    1    3    3    0  502  0.41385931697E+03 -0.57116823844E+03  0.67680690886E+03  0.97753786768E+03  0.50400001928E-02 0. -1.
</event>
<event>
 5   0  0.5628936E-05  0.1890473E+04  0.7818609E-02  0.8659613E-01
        1   -1    0    0  501    0  0.00000000000E+00  0.00000000000E+00  0.64081952854E+03  0.64081952856E+03  0.50400001928E-02 0. -1.
       -1   -1    0    0    0  501  0.00000000000E+00  0.00000000000E+00 -0.13942643967E+04  0.13942643967E+04  0.50400001928E-02 0.  1.
    10030    2    1    2    0    0  0.00000000000E+00  0.00000000000E+00 -0.75344486814E+03  0.20350839252E+04  0.18904728016E+04 0.  0.
        5    1    3    3  502    0 -0.84305931700E+02 -0.91120332383E+03 -0.63158303615E+03  0.11118984706E+04  0.46999998093E+01 0.  1.
       -5    1    3    3    0  502  0.84305931700E+02  0.91120332383E+03 -0.12186183199E+03  0.92318545459E+03  0.46999998093E+01 0. -1.
</event>
<event>
 5   0  0.1133638E-04  0.1893003E+04  0.7818609E-02  0.8658347E-01
        2   -1    0    0  501    0  0.00000000000E+00  0.00000000000E+00  0.40464886342E+03  0.40464886343E+03  0.25500000920E-02 0. -1.
       -2   -1    0    0    0  501  0.00000000000E+00  0.00000000000E+00 -0.22139311202E+04  0.22139311202E+04  0.25500000920E-02 0.  1.
    10030    2    1    2    0    0  0.00000000000E+00  0.00000000000E+00 -0.18092822568E+04  0.26185799837E+04  0.18930026006E+04 0.  0.
        3    1    3    3  502    0 -0.64754503979E+03 -0.68793764190E+03 -0.82527421186E+03  0.12544521962E+04  0.10100000352E+00 0.  1.
       -3    1    3    3    0  502  0.64754503979E+03  0.68793764190E+03 -0.98400804496E+03  0.13641277874E+04  0.10100000352E+00 0. -1.
</event>
<event>
 5   0  0.5628936E-05  0.1908836E+04  0.7818609E-02  0.8650471E-01
       -1   -1    0    0    0  501  0.00000000000E+00  0.00000000000E+00  0.75268743508E+03  0.75268743509E+03  0.50400001928E-02 0.  1.
        1   -1    0    0  501    0  0.00000000000E+00  0.00000000000E+00 -0.12102151803E+04  0.12102151803E+04  0.50400001928E-02 0. -1.
    10030    2    1    2    0    0  0.00000000000E+00  0.00000000000E+00 -0.45752774519E+03  0.19629026154E+04  0.19088360432E+04 0.  0.
        5    1    3    3  502    0  0.16591911683E+03 -0.50796325755E+03  0.58441631489E+03  0.79190930254E+03  0.46999998093E+01 0.  1.
       -5    1    3    3    0  502 -0.16591911683E+03  0.50796325755E+03 -0.10419440601E+04  0.11709933128E+04  0.46999998093E+01 0. -1.
</event>
<event>
 5   0  0.5614989E-05  0.1907302E+04  0.7818609E-02  0.8651230E-01
        1   -1    0    0  501    0  0.00000000000E+00  0.00000000000E+00  0.98460730406E+03  0.98460730407E+03  0.50400001928E-02 0. -1.
       -1   -1    0    0    0  501  0.00000000000E+00  0.00000000000E+00 -0.92366816052E+03  0.92366816053E+03  0.50400001928E-02 0.  1.
    10030    2    1    2    0    0  0.00000000000E+00  0.00000000000E+00  0.60939143540E+02  0.19082754646E+04  0.19073021967E+04 0.  0.
        4    1    3    3  502    0 -0.32381963279E+03  0.19482506601E+03  0.90649208622E+03  0.98211276145E+03  0.12699999809E+01 0. -1.
       -4    1    3    3    0  502  0.32381963279E+03 -0.19482506601E+03 -0.84555294268E+03  0.92616270315E+03  0.12699999809E+01 0.  1.
</event>
<event>
 5   0  0.1101678E-04  0.1877537E+04  0.7818609E-02  0.8666119E-01
       -2   -1    0    0    0  501  0.00000000000E+00  0.00000000000E+00  0.12537517928E+04  0.12537517928E+04  0.25500000920E-02 0.  1.
        2   -1    0    0  501    0  0.00000000000E+00  0.00000000000E+00 -0.70291942020E+03  0.70291942021E+03  0.25500000920E-02 0. -1.
    10030    2    1    2    0    0  0.00000000000E+00  0.00000000000E+00  0.55083237256E+03  0.19566712130E+04  0.18775371988E+04 0.  0.
        4    1    3    3  502    0 -0.47382579327E+03 -0.78250932454E+03  0.49514173181E+03  0.10401916520E+04  0.12699999809E+01 0.  1.
       -4    1    3    3    0  502  0.47382579327E+03  0.78250932454E+03  0.55690640741E+02  0.91647956100E+03  0.12699999809E+01 0. -1.
</event>
<event>
 5   0  0.1118206E-04  0.1941647E+04  0.7818609E-02  0.8634399E-01
       -2   -1    0    0    0  501  0.00000000000E+00  0.00000000000E+00  0.10777046891E+04  0.10777046891E+04  0.25500000920E-02 0.  1.
        2   -1    0    0  501    0  0.00000000000E+00  0.00000000000E+00 -0.87454266021E+03  0.87454266021E+03  0.25500000920E-02 0. -1.
    10030    2    1    2    0    0  0.00000000000E+00  0.00000000000E+00  0.20316202893E+03  0.19522473494E+04  0.19416474714E+04 0.  0.
        1    1    3    3  502    0  0.26297266739E+03  0.36624441405E+03  0.96604742232E+03  0.10660849951E+04  0.50400001928E-02 0.  1.
       -1    1    3    3    0  502 -0.26297266739E+03 -0.36624441405E+03 -0.76288539339E+03  0.88616235424E+03  0.50400001928E-02 0. -1.
</event>
<event>
 5   0  0.5824956E-05  0.1883084E+04  0.7818609E-02  0.8663322E-01
        1   -1    0    0  501    0  0.00000000000E+00  0.00000000000E+00  0.64307911337E+03  0.64307911339E+03  0.50400001928E-02 0. -1.
       -1   -1    0    0    0  501  0.00000000000E+00  0.00000000000E+00 -0.13785265456E+04  0.13785265456E+04  0.50400001928E-02 0.  1.
    10030    2    1    2    0    0  0.00000000000E+00  0.00000000000E+00 -0.73544743220E+03  0.20216056590E+04  0.18830843090E+04 0.  0.
        2    1    3    3  502    0 -0.78258979789E+03  0.27352123684E+03 -0.84692282707E+03  0.11851324541E+04  0.25500000920E-02 0.  1.
       -2    1    3    3    0  502  0.78258979789E+03 -0.27352123684E+03  0.11147539487E+03  0.83647320485E+03  0.25500000920E-02 0. -1.
</event>
<event>
 5   0  0.1141890E-04  0.1895766E+04  0.7818609E-02  0.8656967E-01
       -2   -1    0    0    0  501  0.00000000000E+00  0.00000000000E+00  0.67523478229E+03  0.67523478229E+03  0.25500000920E-02 0.  1.
        2   -1    0    0  501    0  0.00000000000E+00  0.00000000000E+00 -0.13306216990E+04  0.13306216990E+04  0.25500000920E-02 0. -1.
    10030    2    1    2    0    0  0.00000000000E+00  0.00000000000E+00 -0.65538691671E+03  0.20058564813E+04  0.18957658645E+04 0.  0.
        2    1    3    3  502    0  0.53382337707E+03 -0.65788820174E+03 -0.77746456490E+03  0.11498849654E+04  0.25500000920E-02 0. -1.
       -2    1    3    3    0  502 -0.53382337707E+03  0.65788820174E+03  0.12207764819E+03  0.85597151593E+03  0.25500000920E-02 0.  1.
</event>
<event>
 5   0  0.1118206E-04  0.1926335E+04  0.7818609E-02  0.8641857E-01
        2   -1    0    0  501    0  0.00000000000E+00  0.00000000000E+00  0.16709970179E+04  0.16709970179E+04  0.25500000920E-02 0. -1.
       -2   -1    0    0    0  501  0.00000000000E+00  0.00000000000E+00 -0.55517279078E+03  0.55517279079E+03  0.25500000920E-02 0.  1.
    10030    2    1    2    0    0  0.00000000000E+00  0.00000000000E+00  0.11158242271E+04  0.22261698087E+04  0.19263354618E+04 0.  0.
        1    1    3    3  502    0 -0.89123795324E+03 -0.97931958566E+02  0.15130007146E+03  0.90927854338E+03  0.50400001928E-02 0.  1.
       -1    1    3    3    0  502  0.89123795324E+03  0.97931958566E+02  0.96452415565E+03  0.13168912653E+04  0.50400001928E-02 0. -1.
</event>
<event>
 5   0  0.1133638E-04  0.1885945E+04  0.7818609E-02  0.8661884E-01
       -2   -1    0    0    0  501  0.00000000000E+00  0.00000000000E+00  0.55942050005E+03  0.55942050005E+03  0.25500000920E-02 0.  1.
        2   -1    0    0  501    0  0.00000000000E+00  0.00000000000E+00 -0.15894975970E+04  0.15894975970E+04  0.25500000920E-02 0. -1.
    10030    2    1    2    0    0  0.00000000000E+00  0.00000000000E+00 -0.10300770969E+04  0.21489180970E+04  0.18859454293E+04 0.  0.
        3    1    3    3  502    0 -0.47959340433E+03  0.36573308592E+03 -0.13409755772E+04  0.14703693524E+04  0.10100000352E+00 0. -1.
       -3    1    3    3    0  502  0.47959340433E+03 -0.36573308592E+03  0.31089848027E+03  0.67854874464E+03  0.10100000352E+00 0.  1.
</event>
<event>
 5   0  0.1141890E-04  0.1882867E+04  0.7818609E-02  0.8663432E-01
        2   -1    0    0  501    0  0.00000000000E+00  0.00000000000E+00  0.24816888934E+04  0.24816888934E+04  0.25500000920E-02 0. -1.
       -2   -1    0    0    0  501  0.00000000000E+00  0.00000000000E+00 -0.35713445599E+03  0.35713445600E+03  0.25500000920E-02 0.  1.
    10030    2    1    2    0    0  0.00000000000E+00  0.00000000000E+00  0.21245544374E+04  0.28388233494E+04  0.18828665517E+04 0.  0.
        2    1    3    3  502    0 -0.12343363207E+02  0.42341759938E+03 -0.20533402147E+03  0.47074078054E+03  0.25500000920E-02 0.  1.
       -2    1    3    3    0  502  0.12343363207E+02 -0.42341759938E+03  0.23298884589E+04  0.23680825688E+04  0.25500000920E-02 0. -1.
</event>
<event>
 5   0  0.5628936E-05  0.1919569E+04  0.7818609E-02  0.8645177E-01
        1   -1    0    0  501    0  0.00000000000E+00  0.00000000000E+00  0.11544182747E+04  0.11544182747E+04  0.50400001928E-02 0.  1.
       -1   -1    0    0    0  501  0.00000000000E+00  0.00000000000E+00 -0.79796574363E+03  0.79796574364E+03  0.50400001928E-02 0. -1.
    10030    2    1    2    0    0  0.00000000000E+00  0.00000000000E+00  0.35645253107E+03  0.19523840183E+04  0.19195689485E+04 0.  0.
        5    1    3    3  502    0  0.18983929115E+03 -0.46179110561E+03 -0.65546547512E+03  0.82398243959E+03  0.46999998093E+01 0. -1.
       -5    1    3    3    0  502 -0.18983929115E+03  0.46179110561E+03  0.10119180062E+04  0.11284015788E+04  0.46999998093E+01 0.  1.
</event>
<event>
 5   0  0.1101678E-04  0.1919991E+04  0.7818609E-02  0.8644969E-01
        2   -1    0    0  501    0  0.00000000000E+00  0.00000000000E+00  0.10487641005E+04  0.10487641005E+04  0.25500000920E-02 0. -1.
       -2   -1    0    0    0  501  0.00000000000E+00  0.00000000000E+00 -0.87874068050E+03  0.87874068050E+03  0.25500000920E-02 0.  1.
    10030    2    1    2    0    0  0.00000000000E+00  0.00000000000E+00  0.17002341996E+03  0.19275047810E+04  0.19199913326E+04 0.  0.
        4    1    3    3  502    0  0.10859531578E+03 -0.61926352568E+03 -0.64329938854E+03  0.89950873984E+03  0.12699999809E+01 0.  1.
       -4    1    3    3    0  502 -0.10859531578E+03  0.61926352568E+03  0.81332280850E+03  0.10279960411E+04  0.12699999809E+01 0. -1.
</event>
<event>
 5   0  0.5579109E-05  0.1869315E+04  0.7818609E-02  0.8670283E-01
        1   -1    0    0  501    0  0.00000000000E+00  0.00000000000E+00  0.19132549038E+04  0.19132549038E+04  0.50400001928E-02 0. -1.
       -1   -1    0    0    0  501  0.00000000000E+00  0.00000000000E+00 -0.45659588273E+03  0.45659588276E+03  0.50400001928E-02 0.  1.
    10030    2    1    2    0    0  0.00000000000E+00  0.00000000000E+00  0.14566590211E+04  0.23698507866E+04  0.18693146463E+04 0.  0.
        3    1    3    3  502    0  0.66137131740E+03  0.31438560297E+03  0.14646529664E+04  0.16375159996E+04  0.10100000352E+00 0. -1.
       -3    1    3    3    0  502 -0.66137131740E+03 -0.31438560297E+03 -0.79939453107E+01  0.73233478697E+03  0.10100000352E+00 0.  1.
</event>
<event>
 5   0  0.5579109E-05  0.1897965E+04  0.7818609E-02  0.8655870E-01
        1   -1    0    0  501    0  0.00000000000E+00  0.00000000000E+00  0.10344962158E+04  0.10344962158E+04  0.50400001928E-02 0. -1.
       -1   -1    0    0    0  501  0.00000000000E+00  0.00000000000E+00 -0.87053769951E+03  0.87053769952E+03  0.50400001928E-02 0.  1.
    10030    2    1    2    0    0  0.00000000000E+00  0.00000000000E+00  0.16395851629E+03  0.19050339153E+04  0.18979651797E+04 0.  0.
        3    1    3    3  502    0 -0.22665495273E+03 -0.27635020193E+03 -0.80040011211E+03  0.87657415623E+03  0.10100000352E+00 0.  1.
       -3    1    3    3    0  502  0.22665495273E+03  0.27635020193E+03  0.96435862841E+03  0.10284597591E+04  0.10100000352E+00 0. -1.
</event>
<event>
 5   0  0.1133638E-04  0.1835388E+04  0.7818609E-02  0.8687704E-01
        2   -1    0    0  501    0  0.00000000000E+00  0.00000000000E+00  0.10576945635E+04  0.10576945635E+04  0.25500000920E-02 0. -1.
       -2   -1    0    0    0  501  0.00000000000E+00  0.00000000000E+00 -0.79622431799E+03  0.79622431799E+03  0.25500000920E-02 0.  1.
    10030    2    1    2    0    0  0.00000000000E+00  0.00000000000E+00  0.26147024550E+03  0.18539188815E+04  0.18353878418E+04 0.  0.
        3    1    3    3  502    0  0.15211160471E+03  0.63344599092E+03 -0.52214235728E+03  0.83487988068E+03  0.10100000352E+00 0.  1.
       -3    1    3    3    0  502 -0.15211160471E+03 -0.63344599092E+03  0.78361260278E+03  0.10190390008E+04  0.10100000352E+00 0. -1.
</event>
<event>
 5   0  0.5579109E-05  0.1884863E+04  0.7818609E-02  0.8662428E-01
        1   -1    0    0  501    0  0.00000000000E+00  0.00000000000E+00  0.13140456627E+04  0.13140456627E+04  0.50400001928E-02 0.  1.
       -1   -1    0    0    0  501  0.00000000000E+00  0.00000000000E+00 -0.67591058674E+03  0.67591058676E+03  0.50400001928E-02 0. -1.
    10030    2    1    2    0    0  0.00000000000E+00  0.00000000000E+00  0.63813507594E+03  0.19899562495E+04  0.18848632575E+04 0.  0.
        3    1    3    3  502    0  0.24411516603E+03  0.80344939651E+03  0.77077113551E+03  0.11398295051E+04  0.10100000352E+00 0. -1.
       -3    1    3    3    0  502 -0.24411516603E+03 -0.80344939651E+03 -0.13263605957E+03  0.85012674440E+03  0.10100000352E+00 0.  1.
</event>
<event>
 5   0  0.5614989E-05  0.1949802E+04  0.7818609E-02  0.8630456E-01
       -1   -1    0    0    0  501  0.00000000000E+00  0.00000000000E+00  0.12051591974E+04  0.12051591974E+04  0.50400001928E-02 0. -1.
        1   -1    0    0  501    0  0.00000000000E+00  0.00000000000E+00 -0.78863597122E+03  0.78863597124E+03  0.50400001928E-02 0.  1.
    10030    2    1    2    0    0  0.00000000000E+00  0.00000000000E+00  0.41652322617E+03  0.19937951686E+04  0.19498019326E+04 0.  0.
        4    1    3    3  502    0 -0.91838873947E+03 -0.12396624865E+03 -0.10126393416E+03  0.93223468336E+03  0.12699999809E+01 0. -1.
       -4    1    3    3    0  502  0.91838873947E+03  0.12396624865E+03  0.51778716033E+03  0.10615604853E+04  0.12699999809E+01 0.  1.
</event>
<event>
 5   0  0.5628936E-05  0.1906565E+04  0.7818609E-02  0.8651595E-01
       -1   -1    0    0    0  501  0.00000000000E+00  0.00000000000E+00  0.23160649811E+04  0.23160649811E+04  0.50400001928E-02 0.  1.
        1   -1    0    0  501    0  0.00000000000E+00  0.00000000000E+00 -0.39236711690E+03  0.39236711694E+03  0.50400001928E-02 0. -1.
    10030    2    1    2    0    0  0.00000000000E+00  0.00000000000E+00  0.19236978642E+04  0.27084320980E+04  0.19065652249E+04 0.  0.
        5    1    3    3  502    0 -0.43091697344E+03 -0.26337106828E+03 -0.18669123971E+03  0.53845098810E+03  0.46999998093E+01 0. -1.
       -5    1    3    3    0  502  0.43091697344E+03  0.26337106828E+03  0.21103891039E+04  0.21699811099E+04  0.46999998093E+01 0.  1.
</event>
<event>
 5   0  0.5614989E-05  0.1909667E+04  0.7818609E-02  0.8650059E-01
       -1   -1    0    0    0  501  0.00000000000E+00  0.00000000000E+00  0.84635063969E+03  0.84635063970E+03  0.50400001928E-02 0. -1.
        1   -1    0    0  501    0  0.00000000000E+00  0.00000000000E+00 -0.10772212932E+04  0.10772212932E+04  0.50400001928E-02 0.  1.
    10030    2    1    2    0    0  0.00000000000E+00  0.00000000000E+00 -0.23087065354E+03  0.19235719329E+04  0.19096669140E+04 0.  0.
        4    1    3    3  502    0  0.42633910505E+03 -0.18948054526E+03 -0.95459044438E+03  0.10625029124E+04  0.12699999809E+01 0.  1.
       -4    1    3    3    0  502 -0.42633910505E+03  0.18948054526E+03  0.72371979084E+03  0.86106902051E+03  0.12699999809E+01 0. -1.
</event>
<event>
 5   0  0.1133638E-04  0.1896227E+04  0.7818609E-02  0.8656737E-01
        2   -1    0    0  501    0  0.00000000000E+00  0.00000000000E+00  0.11492689940E+04  0.11492689940E+04  0.25500000920E-02 0.  1.
       -2   -1    0    0    0  501  0.00000000000E+00  0.00000000000E+00 -0.78216590057E+03  0.78216590057E+03  0.25500000920E-02 0. -1.
    10030    2    1    2    0    0  0.00000000000E+00  0.00000000000E+00  0.36710309341E+03  0.19314348945E+04  0.18962267983E+04 0.  0.
        3    1    3    3  502    0  0.47316703484E+02 -0.52734293731E+02  0.11465688164E+04  0.11487557779E+04  0.10100000352E+00 0.  1.
       -3    1    3    3    0  502 -0.47316703484E+02  0.52734293731E+02 -0.77946572301E+03  0.78267911670E+03  0.10100000352E+00 0. -1.
</event>
<event>
 5   0  0.5841424E-05  0.1907080E+04  0.7818609E-02  0.8651340E-01
        1   -1    0    0  501    0  0.00000000000E+00  0.00000000000E+00  0.15844518364E+04  0.15844518364E+04  0.50400001928E-02 0.  1.
       -1   -1    0    0    0  501  0.00000000000E+00  0.00000000000E+00 -0.57385062223E+03  0.57385062225E+03  0.50400001928E-02 0. -1.
    10030    2    1    2    0    0  0.00000000000E+00  0.00000000000E+00  0.10106012141E+04  0.21583024586E+04  0.19070801475E+04 0.  0.
        1    1    3    3  502    0  0.86047418941E+03  0.40222466591E+03  0.41035542785E+03  0.10346942011E+04  0.50400001928E-02 0.  1.
       -1    1    3    3    0  502 -0.86047418941E+03 -0.40222466591E+03  0.60024578628E+03  0.11236082576E+04  0.50400001928E-02 0. -1.
</event>
<event>
 5   0  0.1133638E-04  0.2126559E+04  0.7818609E-02  0.8549633E-01
        2   -1    0    0  501    0  0.00000000000E+00  0.00000000000E+00  0.17727438658E+04  0.17727438658E+04  0.25500000920E-02 0.  1.
       -2   -1    0    0    0  501  0.00000000000E+00  0.00000000000E+00 -0.63774797763E+03  0.63774797764E+03  0.25500000920E-02 0. -1.
    10030    2    1    2    0    0  0.00000000000E+00  0.00000000000E+00  0.11349958882E+04  0.24104918435E+04  0.21265594892E+04 0.  0.
        3    1    3    3  502    0 -0.63117038024E+02  0.86039047976E+03 -0.13702498327E+03  0.87351668238E+03  0.10100000352E+00 0. -1.
       -3    1    3    3    0  502  0.63117038024E+02 -0.86039047976E+03  0.12720208715E+04  0.15369751611E+04  0.10100000352E+00 0.  1.
</event>
<event>
 5   0  0.1101678E-04  0.1909161E+04  0.7818609E-02  0.8650310E-01
        2   -1    0    0  501    0  0.00000000000E+00  0.00000000000E+00  0.16043169464E+04  0.16043169464E+04  0.25500000920E-02 0.  1.
       -2   -1    0    0    0  501  0.00000000000E+00  0.00000000000E+00 -0.56798231976E+03  0.56798231977E+03  0.25500000920E-02 0. -1.
    10030    2    1    2    0    0  0.00000000000E+00  0.00000000000E+00  0.10363346266E+04  0.21722992661E+04  0.19091607170E+04 0.  0.
        4    1    3    3  502    0  0.93220726291E+01 -0.25687055779E+03  0.15641987772E+04  0.15851778487E+04  0.12699999809E+01 0.  1.
       -4    1    3    3    0  502 -0.93220726291E+01  0.25687055779E+03 -0.52786415057E+03  0.58712141747E+03  0.12699999809E+01 0. -1.
</event>
<event>
 5   0  0.5841424E-05  0.1941190E+04  0.7818609E-02  0.8634621E-01
        1   -1    0    0  501    0  0.00000000000E+00  0.00000000000E+00  0.14994993992E+04  0.14994993992E+04  0.50400001928E-02 0.  1.
       -1   -1    0    0    0  501  0.00000000000E+00  0.00000000000E+00 -0.62824633727E+03  0.62824633729E+03  0.50400001928E-02 0. -1.
    10030    2    1    2    0    0  0.00000000000E+00  0.00000000000E+00  0.87125306190E+03  0.21277457365E+04  0.19411903619E+04 0.  0.
        1    1    3    3  502    0 -0.80781767189E+03 -0.17766963977E+03 -0.12103776412E+03  0.83593422725E+03  0.50400001928E-02 0. -1.
       -1    1    3    3    0  502  0.80781767189E+03  0.17766963977E+03  0.99229082603E+03  0.12918115092E+04  0.50400001928E-02 0.  1.
</event>
<event>
 5   0  0.5841424E-05  0.1895431E+04  0.7818609E-02  0.8657134E-01
        1   -1    0    0  501    0  0.00000000000E+00  0.00000000000E+00  0.14493263019E+04  0.14493263020E+04  0.50400001928E-02 0. -1.
       -1   -1    0    0    0  501  0.00000000000E+00  0.00000000000E+00 -0.61971156520E+03  0.61971156522E+03  0.50400001928E-02 0.  1.
    10030    2    1    2    0    0  0.00000000000E+00  0.00000000000E+00  0.82961473674E+03  0.20690378672E+04  0.18954305802E+04 0.  0.
        1    1    3    3  502    0 -0.11229089900E+03 -0.91719134996E+03  0.64460004864E+03  0.11266580853E+04  0.50400001928E-02 0. -1.
       -1    1    3    3    0  502  0.11229089900E+03  0.91719134996E+03  0.18501468810E+03  0.94237978187E+03  0.50400001928E-02 0.  1.
</event>
<event>
 5   0  0.1141890E-04  0.1860007E+04  0.7818609E-02  0.8675023E-01
        2   -1    0    0  501    0  0.00000000000E+00  0.00000000000E+00  0.17327232358E+04  0.17327232358E+04  0.25500000920E-02 0.  1.
       -2   -1    0    0    0  501  0.00000000000E+00  0.00000000000E+00 -0.49916043036E+03  0.49916043037E+03  0.25500000920E-02 0. -1.
    10030    2    1    2    0    0  0.00000000000E+00  0.00000000000E+00  0.12335628054E+04  0.22318836662E+04  0.18600073936E+04 0.  0.
        2    1    3    3  502    0 -0.26148879316E+03 -0.85931485518E+03  0.32752925548E+03  0.95607208018E+03  0.25500000920E-02 0. -1.
       -2    1    3    3    0  502  0.26148879316E+03  0.85931485518E+03  0.90603354994E+03  0.12758115860E+04  0.25500000920E-02 0.  1.
</event>
<event>
 5   0  0.1133638E-04  0.1913322E+04  0.7818609E-02  0.8648253E-01
       -2   -1    0    0    0  501  0.00000000000E+00  0.00000000000E+00  0.52110139118E+03  0.52110139119E+03  0.25500000920E-02 0.  1.
        2   -1    0    0  501    0  0.00000000000E+00  0.00000000000E+00 -0.17562805408E+04  0.17562805408E+04  0.25500000920E-02 0. -1.
    10030    2    1    2    0    0  0.00000000000E+00  0.00000000000E+00 -0.12351791496E+04  0.22773819320E+04  0.19133219626E+04 0.  0.
        3    1    3    3  502    0 -0.68436409936E+03 -0.32255194209E+03 -0.13144923242E+04  0.15166687366E+04  0.10100000352E+00 0. -1.
       -3    1    3    3    0  502  0.68436409936E+03  0.32255194209E+03  0.79313174588E+02  0.76071319544E+03  0.10100000352E+00 0.  1.
</event>
<event>
 5   0  0.5614989E-05  0.1910847E+04  0.7818609E-02  0.8649476E-01
       -1   -1    0    0    0  501  0.00000000000E+00  0.00000000000E+00  0.58602048971E+03  0.58602048973E+03  0.50400001928E-02 0.  1.
        1   -1    0    0  501    0  0.00000000000E+00  0.00000000000E+00 -0.15576832573E+04  0.15576832574E+04  0.50400001928E-02 0. -1.
    10030    2    1    2    0    0  0.00000000000E+00  0.00000000000E+00 -0.97166276764E+03  0.21437037471E+04  0.19108472522E+04 0.  0.
        4    1    3    3  502    0  0.27773691210E+03 -0.34604901425E+03  0.46341427357E+03  0.64159341834E+03  0.12699999809E+01 0.  1.
       -4    1    3    3    0  502 -0.27773691210E+03  0.34604901425E+03 -0.14350770412E+04  0.15021103287E+04  0.12699999809E+01 0. -1.
</event>
<event>
 5   0  0.5824956E-05  0.1903247E+04  0.7818609E-02  0.8653242E-01
       -1   -1    0    0    0  501  0.00000000000E+00  0.00000000000E+00  0.95060356342E+03  0.95060356343E+03  0.50400001928E-02 0. -1.
        1   -1    0    0  501    0  0.00000000000E+00  0.00000000000E+00 -0.95264498149E+03  0.95264498150E+03  0.50400001928E-02 0.  1.
    10030    2    1    2    0    0  0.00000000000E+00  0.00000000000E+00 -0.20414180705E+01  0.19032485449E+04  0.19032474501E+04 0.  0.
        2    1    3    3  502    0  0.59988128897E+03  0.31446730198E+03 -0.66948236335E+03  0.95234126222E+03  0.25500000920E-02 0.  1.
       -2    1    3    3    0  502 -0.59988128897E+03 -0.31446730198E+03  0.66744094528E+03  0.95090728272E+03  0.25500000920E-02 0. -1.
</event>
<event>
 5   0  0.5841424E-05  0.1892919E+04  0.7818609E-02  0.8658389E-01
       -1   -1    0    0    0  501  0.00000000000E+00  0.00000000000E+00  0.66105076464E+03  0.66105076466E+03  0.50400001928E-02 0. -1.
        1   -1    0    0  501    0  0.00000000000E+00  0.00000000000E+00 -0.13550934725E+04  0.13550934725E+04  0.50400001928E-02 0.  1.
    10030    2    1    2    0    0  0.00000000000E+00  0.00000000000E+00 -0.69404270785E+03  0.20161442372E+04  0.18929189905E+04 0.  0.
        1    1    3    3  502    0  0.29239003202E+01 -0.93808305124E+03 -0.48080553216E+03  0.10541263302E+04  0.50400001928E-02 0. -1.
       -1    1    3    3    0  502 -0.29239003202E+01  0.93808305124E+03 -0.21323717570E+03  0.96201790698E+03  0.50400001928E-02 0.  1.
</event>
<event>
 5   0  0.1141890E-04  0.1910853E+04  0.7818609E-02  0.8649473E-01
       -2   -1    0    0    0  501  0.00000000000E+00  0.00000000000E+00  0.95997291530E+03  0.95997291531E+03  0.25500000920E-02 0.  1.
        2   -1    0    0  501    0  0.00000000000E+00  0.00000000000E+00 -0.95090162500E+03  0.95090162500E+03  0.25500000920E-02 0. -1.
    10030    2    1    2    0    0  0.00000000000E+00  0.00000000000E+00  0.90712903037E+01  0.19108745403E+04  0.19108530086E+04 0.  0.
        2    1    3    3  502    0  0.58127960165E+02  0.70897322855E+03  0.64236561839E+03  0.95846517216E+03  0.25500000920E-02 0.  1.
       -2    1    3    3    0  502 -0.58127960165E+02 -0.70897322855E+03 -0.63329432808E+03  0.95240936815E+03  0.25500000920E-02 0. -1.
</event>
<event>
 5   0  0.5628936E-05  0.1898014E+04  0.7818609E-02  0.8655846E-01
        1   -1    0    0  501    0  0.00000000000E+00  0.00000000000E+00  0.14146347517E+04  0.14146347517E+04  0.50400001928E-02 0.  1.
       -1   -1    0    0    0  501  0.00000000000E+00  0.00000000000E+00 -0.63664071116E+03  0.63664071118E+03  0.50400001928E-02 0. -1.
    10030    2    1    2    0    0  0.00000000000E+00  0.00000000000E+00  0.77799404053E+03  0.20512754629E+04  0.18980137769E+04 0.  0.
        5    1    3    3  502    0  0.94650993480E+03 -0.16796508884E+02  0.31707400218E+03  0.99835925009E+03  0.46999998093E+01 0. -1.
       -5    1    3    3    0  502 -0.94650993480E+03  0.16796508884E+02  0.46092003835E+03  0.10529162128E+04  0.46999998093E+01 0.  1.
</event>
<event>
 5   0  0.5579109E-05  0.1949051E+04  0.7818609E-02  0.8630819E-01
        1   -1    0    0  501    0  0.00000000000E+00  0.00000000000E+00  0.88884912130E+03  0.88884912131E+03  0.50400001928E-02 0. -1.
       -1   -1    0    0    0  501  0.00000000000E+00  0.00000000000E+00 -0.10684597663E+04  0.10684597663E+04  0.50400001928E-02 0.  1.
    10030    2    1    2    0    0  0.00000000000E+00  0.00000000000E+00 -0.17961064497E+03  0.19573088876E+04  0.19490505631E+04 0.  0.
        3    1    3    3  502    0  0.75593087896E+03 -0.55001596135E+03  0.18658886596E+03  0.95329138599E+03  0.10100000352E+00 0. -1.
       -3    1    3    3    0  502 -0.75593087896E+03  0.55001596135E+03 -0.36619951093E+03  0.10040175016E+04  0.10100000352E+00 0.  1.
</event>
<event>
 5   0  0.1133638E-04  0.1925543E+04  0.7818609E-02  0.8642245E-01
       -2   -1    0    0    0  501  0.00000000000E+00  0.00000000000E+00  0.11195840993E+04  0.11195840993E+04  0.25500000920E-02 0.  1.
        2   -1    0    0  501    0  0.00000000000E+00  0.00000000000E+00 -0.82792256401E+03  0.82792256402E+03  0.25500000920E-02 0. -1.
    10030    2    1    2    0    0  0.00000000000E+00  0.00000000000E+00  0.29166153533E+03  0.19475066634E+04  0.19255429761E+04 0.  0.
        3    1    3    3  502    0 -0.70707049561E+03  0.59142543607E+03  0.42684200397E+03  0.10158379983E+04  0.10100000352E+00 0.  1.
       -3    1    3    3    0  502  0.70707049561E+03 -0.59142543607E+03 -0.13518046864E+03  0.93166866509E+03  0.10100000352E+00 0. -1.
</event>
<event>
 5   0  0.1133638E-04  0.1900416E+04  0.7818609E-02  0.8654649E-01
       -2   -1    0    0    0  501  0.00000000000E+00  0.00000000000E+00  0.89242659628E+03  0.89242659628E+03  0.25500000920E-02 0.  1.
        2   -1    0    0  501    0  0.00000000000E+00  0.00000000000E+00 -0.10117309942E+04  0.10117309943E+04  0.25500000920E-02 0. -1.
    10030    2    1    2    0    0  0.00000000000E+00  0.00000000000E+00 -0.11930439797E+03  0.19041575905E+04  0.19004164255E+04 0.  0.
        3    1    3    3  502    0  0.51435764366E+03 -0.60948289575E+03  0.45795206884E+03  0.91964846184E+03  0.10100000352E+00 0.  1.
       -3    1    3    3    0  502 -0.51435764366E+03  0.60948289575E+03 -0.57725646681E+03  0.98450912870E+03  0.10100000352E+00 0. -1.
</event>
<event>
 5   0  0.5841424E-05  0.1940773E+04  0.7818609E-02  0.8634823E-01
        1   -1    0    0  501    0  0.00000000000E+00  0.00000000000E+00  0.13045131579E+04  0.13045131579E+04  0.50400001928E-02 0. -1.
       -1   -1    0    0    0  501  0.00000000000E+00  0.00000000000E+00 -0.72184020161E+03  0.72184020163E+03  0.50400001928E-02 0.  1.
    10030    2    1    2    0    0  0.00000000000E+00  0.00000000000E+00  0.58267295630E+03  0.20263533596E+04  0.19407730841E+04 0.  0.
        1    1    3    3  502    0  0.76752917311E+03  0.28585179738E+03 -0.25203273291E+03  0.85693219109E+03  0.50400001928E-02 0.  1.
       -1    1    3    3    0  502 -0.76752917311E+03 -0.28585179738E+03  0.83470568921E+03  0.11694211685E+04  0.50400001928E-02 0. -1.
</event>
<event>
 5   0  0.1118206E-04  0.1935279E+04  0.7818609E-02  0.8637492E-01
       -2   -1    0    0    0  501  0.00000000000E+00  0.00000000000E+00  0.77313671276E+03  0.77313671276E+03  0.25500000920E-02 0. -1.
        2   -1    0    0  501    0  0.00000000000E+00  0.00000000000E+00 -0.12110747434E+04  0.12110747434E+04  0.25500000920E-02 0.  1.
    10030    2    1    2    0    0  0.00000000000E+00  0.00000000000E+00 -0.43793803060E+03  0.19842114561E+04  0.19352791488E+04 0.  0.
        1    1    3    3  502    0 -0.36755147375E+03  0.76238813347E+03  0.26192825722E+03  0.88596623179E+03  0.50400001928E-02 0. -1.
       -1    1    3    3    0  502  0.36755147375E+03 -0.76238813347E+03 -0.69986628782E+03  0.10982452243E+04  0.50400001928E-02 0.  1.
</event>
<event>
 5   0  0.5614989E-05  0.1917049E+04  0.7818609E-02  0.8646416E-01
        1   -1    0    0  501    0  0.00000000000E+00  0.00000000000E+00  0.14540957459E+04  0.14540957459E+04  0.50400001928E-02 0.  1.
       -1   -1    0    0    0  501  0.00000000000E+00  0.00000000000E+00 -0.63184897780E+03  0.63184897782E+03  0.50400001928E-02 0. -1.
    10030    2    1    2    0    0  0.00000000000E+00  0.00000000000E+00  0.82224676807E+03  0.20859447237E+04  0.19170486803E+04 0.  0.
        4    1    3    3  502    0 -0.78188885782E+03 -0.43021199325E+03  0.30544596156E+02  0.89295415917E+03  0.12699999809E+01 0. -1.
       -4    1    3    3    0  502  0.78188885782E+03  0.43021199325E+03  0.79170217192E+03  0.11929905645E+04  0.12699999809E+01 0.  1.
</event>
<event>
 5   0  0.5841424E-05  0.1902329E+04  0.7818609E-02  0.8653698E-01
       -1   -1    0    0    0  501  0.00000000000E+00  0.00000000000E+00  0.51275288324E+03  0.51275288326E+03  0.50400001928E-02 0. -1.
        1   -1    0    0  501    0  0.00000000000E+00  0.00000000000E+00 -0.17644239052E+04  0.17644239052E+04  0.50400001928E-02 0.  1.
    10030    2    1    2    0    0  0.00000000000E+00  0.00000000000E+00 -0.12516710219E+04  0.22771767884E+04  0.19023285149E+04 0.  0.
        1    1    3    3  502    0 -0.92203261024E+03  0.43899454105E+02 -0.90048451747E+03  0.12895517293E+04  0.50400001928E-02 0.  1.
       -1    1    3    3    0  502  0.92203261024E+03 -0.43899454105E+02 -0.35118650447E+03  0.98762505910E+03  0.50400001928E-02 0. -1.
</event>
<event>
 5   0  0.4061125E-05  0.1883326E+04  0.7818609E-02  0.8663201E-01
        4   -1    0    0  501    0  0.00000000000E+00  0.00000000000E+00  0.73521453335E+03  0.73521563024E+03  0.12699999809E+01 0.  1.
       -4   -1    0    0    0  501  0.00000000000E+00  0.00000000000E+00 -0.12060801613E+04  0.12060808299E+04  0.12699999809E+01 0. -1.
    10030    2    1    2    0    0  0.00000000000E+00  0.00000000000E+00 -0.47086562791E+03  0.19412964602E+04  0.18833261817E+04 0.  0.
        5    1    3    3  502    0 -0.14796715404E+03  0.14902586311E+03  0.71075675132E+03  0.74114791783E+03  0.46999998093E+01 0.  1.
       -5    1    3    3    0  502  0.14796715404E+03 -0.14902586311E+03 -0.11816223792E+04  0.12001485423E+04  0.46999998093E+01 0. -1.
</event>
<event>
 5   0  0.1118206E-04  0.1886059E+04  0.7818609E-02  0.8661827E-01
       -2   -1    0    0    0  501  0.00000000000E+00  0.00000000000E+00  0.14576157177E+04  0.14576157177E+04  0.25500000920E-02 0. -1.
        2   -1    0    0  501    0  0.00000000000E+00  0.00000000000E+00 -0.61010907067E+03  0.61010907068E+03  0.25500000920E-02 0.  1.
    10030    2    1    2    0    0  0.00000000000E+00  0.00000000000E+00  0.84750664702E+03  0.20677247884E+04  0.18860589290E+04 0.  0.
        1    1    3    3  502    0 -0.65985160208E+02  0.89577801040E+03  0.10879766702E+03  0.90477025683E+03  0.50400001928E-02 0.  1.
       -1    1    3    3    0  502  0.65985160208E+02 -0.89577801040E+03  0.73870898000E+03  0.11629545315E+04  0.50400001928E-02 0. -1.
</event>
<event>
 5   0  0.5614989E-05  0.1901003E+04  0.7818609E-02  0.8654357E-01
       -1   -1    0    0    0  501  0.00000000000E+00  0.00000000000E+00  0.12051050711E+04  0.12051050711E+04  0.50400001928E-02 0. -1.
        1   -1    0    0  501    0  0.00000000000E+00  0.00000000000E+00 -0.74968847088E+03  0.74968847090E+03  0.50400001928E-02 0.  1.
    10030    2    1    2    0    0  0.00000000000E+00  0.00000000000E+00  0.45541660018E+03  0.19547935420E+04  0.19010032909E+04 0.  0.
        4    1    3    3  502    0 -0.98090606921E+02 -0.83090701920E+02  0.11961237371E+04  0.12030126513E+04  0.12699999809E+01 0. -1.
       -4    1    3    3    0  502  0.98090606921E+02  0.83090701920E+02 -0.74070713693E+03  0.75178089063E+03  0.12699999809E+01 0.  1.
</event>
<event>
 5   0  0.5824956E-05  0.1924276E+04  0.7818609E-02  0.8642866E-01
       -1   -1    0    0    0  501  0.00000000000E+00  0.00000000000E+00  0.81915615867E+03  0.81915615869E+03  0.50400001928E-02 0. -1.
        1   -1    0    0  501    0  0.00000000000E+00  0.00000000000E+00 -0.11300767330E+04  0.11300767330E+04  0.50400001928E-02 0.  1.
    10030    2    1    2    0    0  0.00000000000E+00  0.00000000000E+00 -0.31092057433E+03  0.19492328917E+04  0.19242757761E+04 0.  0.
        2    1    3    3  502    0 -0.51310241684E+02 -0.30941547401E+03  0.76591820915E+03  0.82764810130E+03  0.25500000920E-02 0. -1.
       -2    1    3    3    0  502  0.51310241684E+02  0.30941547401E+03 -0.10768387835E+04  0.11215847904E+04  0.25500000920E-02 0.  1.
</event>
<event>
 5   0  0.1141890E-04  0.1914063E+04  0.7818609E-02  0.8647888E-01
        2   -1    0    0  501    0  0.00000000000E+00  0.00000000000E+00  0.18878238010E+04  0.18878238010E+04  0.25500000920E-02 0. -1.
       -2   -1    0    0    0  501  0.00000000000E+00  0.00000000000E+00 -0.48516662798E+03  0.48516662798E+03  0.25500000920E-02 0.  1.
    10030    2    1    2    0    0  0.00000000000E+00  0.00000000000E+00  0.14026571731E+04  0.23729904290E+04  0.19140628075E+04 0.  0.
        2    1    3    3  502    0  0.14465717854E+02 -0.95339812191E+03  0.80304890800E+03  0.12466213477E+04  0.25500000920E-02 0. -1.
       -2    1    3    3    0  502 -0.14465717854E+02  0.95339812191E+03  0.59960826505E+03  0.11263690813E+04  0.25500000920E-02 0.  1.
</event>
<event>
 5   0  0.5579109E-05  0.1898125E+04  0.7818609E-02  0.8655790E-01
        1   -1    0    0  501    0  0.00000000000E+00  0.00000000000E+00  0.10255103213E+04  0.10255103213E+04  0.50400001928E-02 0. -1.
       -1   -1    0    0    0  501  0.00000000000E+00  0.00000000000E+00 -0.87831369981E+03  0.87831369982E+03  0.50400001928E-02 0.  1.
    10030    2    1    2    0    0  0.00000000000E+00  0.00000000000E+00  0.14719662149E+03  0.19038240211E+04  0.18981251429E+04 0.  0.
        3    1    3    3  502    0 -0.88586193605E+03 -0.92866802783E+02 -0.25501952699E+03  0.92650449656E+03  0.10100000352E+00 0.  1.
       -3    1    3    3    0  502  0.88586193605E+03  0.92866802783E+02  0.40221614848E+03  0.97731952457E+03  0.10100000352E+00 0. -1.
</event>
<event>
 5   0  0.1182630E-04  0.1901270E+04  0.7818609E-02  0.8654224E-01
        2   -1    0    0  501    0  0.00000000000E+00  0.00000000000E+00  0.16303146355E+04  0.16303146355E+04  0.25500000920E-02 0. -1.
       -2   -1    0    0    0  501  0.00000000000E+00  0.00000000000E+00 -0.55431460559E+03  0.55431460560E+03  0.25500000920E-02 0.  1.
    10030    2    1    2    0    0  0.00000000000E+00  0.00000000000E+00  0.10760000299E+04  0.21846292411E+04  0.19012703271E+04 0.  0.
        5    1    3    3  502    0  0.42605917712E+03  0.73320358606E+03  0.10316462667E+04  0.13354512460E+04  0.46999998093E+01 0. -1.
       -5    1    3    3    0  502 -0.42605917712E+03 -0.73320358606E+03  0.44353763266E+02  0.84917799508E+03  0.46999998093E+01 0.  1.
</event>
<event>
 5   0  0.5579109E-05  0.1957834E+04  0.7818609E-02  0.8626592E-01
        1   -1    0    0  501    0  0.00000000000E+00  0.00000000000E+00  0.10375298129E+04  0.10375298129E+04  0.50400001928E-02 0.  1.
       -1   -1    0    0    0  501  0.00000000000E+00  0.00000000000E+00 -0.92361552106E+03  0.92361552108E+03  0.50400001928E-02 0. -1.
    10030    2    1    2    0    0  0.00000000000E+00  0.00000000000E+00  0.11391429180E+03  0.19611453340E+04  0.19578341490E+04 0.  0.
        3    1    3    3  502    0  0.94607978101E+03  0.27995126362E+02 -0.19332127984E+03  0.96603509593E+03  0.10100000352E+00 0.  1.
       -3    1    3    3    0  502 -0.94607978101E+03 -0.27995126362E+02  0.30723557164E+03  0.99511023802E+03  0.10100000352E+00 0. -1.
</event>
<event>
 5   0  0.1141890E-04  0.1914773E+04  0.7818609E-02  0.8647538E-01
       -2   -1    0    0    0  501  0.00000000000E+00  0.00000000000E+00  0.58454924021E+03  0.58454924022E+03  0.25500000920E-02 0.  1.
        2   -1    0    0  501    0  0.00000000000E+00  0.00000000000E+00 -0.15680269833E+04  0.15680269834E+04  0.25500000920E-02 0. -1.
    10030    2    1    2    0    0  0.00000000000E+00  0.00000000000E+00 -0.98347774314E+03  0.21525762236E+04  0.19147730746E+04 0.  0.
        2    1    3    3  502    0  0.11945467880E+03 -0.90653691270E+03 -0.81072161232E+03  0.12220262383E+04  0.25500000920E-02 0. -1.
       -2    1    3    3    0  502 -0.11945467880E+03  0.90653691270E+03 -0.17275613082E+03  0.93054998528E+03  0.25500000920E-02 0.  1.
</event>
<event>
 5   0  0.1141890E-04  0.1900093E+04  0.7818609E-02  0.8654810E-01
        2   -1    0    0  501    0  0.00000000000E+00  0.00000000000E+00  0.16664446468E+04  0.16664446468E+04  0.25500000920E-02 0. -1.
       -2   -1    0    0    0  501  0.00000000000E+00  0.00000000000E+00 -0.54162490799E+03  0.54162490800E+03  0.25500000920E-02 0.  1.
    10030    2    1    2    0    0  0.00000000000E+00  0.00000000000E+00  0.11248197388E+04  0.22080695548E+04  0.19000925540E+04 0.  0.
        2    1    3    3  502    0  0.74032810510E+03 -0.49678900386E+03  0.18103531411E+03  0.90975755150E+03  0.25500000920E-02 0.  1.
       -2    1    3    3    0  502 -0.74032810510E+03  0.49678900386E+03  0.94378442465E+03  0.12983120032E+04  0.25500000920E-02 0. -1.
</event>
<event>
 5   0  0.5841424E-05  0.1916398E+04  0.7818609E-02  0.8646737E-01
        1   -1    0    0  501    0  0.00000000000E+00  0.00000000000E+00  0.19988308921E+04  0.19988308921E+04  0.50400001928E-02 0.  1.
       -1   -1    0    0    0  501  0.00000000000E+00  0.00000000000E+00 -0.45934113587E+03  0.45934113590E+03  0.50400001928E-02 0. -1.
    10030    2    1    2    0    0  0.00000000000E+00  0.00000000000E+00  0.15394897562E+04  0.24581720280E+04  0.19163979257E+04 0.  0.
        1    1    3    3  502    0 -0.37334354920E+03  0.97336452710E+02  0.18947910411E+04  0.19336734161E+04  0.50400001928E-02 0.  1.
       -1    1    3    3    0  502  0.37334354920E+03 -0.97336452710E+02 -0.35530128490E+03  0.52449861185E+03  0.50400001928E-02 0. -1.
</event>
<event>
 5   0  0.1133638E-04  0.1893879E+04  0.7818609E-02  0.8657909E-01
        2   -1    0    0  501    0  0.00000000000E+00  0.00000000000E+00  0.94304166070E+03  0.94304166070E+03  0.25500000920E-02 0. -1.
       -2   -1    0    0    0  501  0.00000000000E+00  0.00000000000E+00 -0.95085324677E+03  0.95085324677E+03  0.25500000920E-02 0.  1.
    10030    2    1    2    0    0  0.00000000000E+00  0.00000000000E+00 -0.78115860682E+01  0.18938949075E+04  0.18938787975E+04 0.  0.
        3    1    3    3  502    0 -0.33718684051E+03 -0.55251304323E+03  0.68727921392E+03  0.94409658215E+03  0.10100000352E+00 0. -1.
       -3    1    3    3    0  502  0.33718684051E+03  0.55251304323E+03 -0.69509079999E+03  0.94979832532E+03  0.10100000352E+00 0.  1.
</event>
<event>
 5   0  0.1141890E-04  0.1897799E+04  0.7818609E-02  0.8655953E-01
        2   -1    0    0  501    0  0.00000000000E+00  0.00000000000E+00  0.16826289969E+04  0.16826289969E+04  0.25500000920E-02 0.  1.
       -2   -1    0    0    0  501  0.00000000000E+00  0.00000000000E+00 -0.53512087618E+03  0.53512087619E+03  0.25500000920E-02 0. -1.
    10030    2    1    2    0    0  0.00000000000E+00  0.00000000000E+00  0.11475081207E+04  0.22177498730E+04  0.18977986227E+04 0.  0.
        2    1    3    3  502    0  0.11784818680E+03  0.65785958390E+03 -0.21341343819E+03  0.70157873605E+03  0.25500000920E-02 0. -1.
       -2    1    3    3    0  502 -0.11784818680E+03 -0.65785958390E+03  0.13609215589E+04  0.15161711370E+04  0.25500000920E-02 0.  1.
</event>
<event>
 5   0  0.5579109E-05  0.1932690E+04  0.7818609E-02  0.8638753E-01
       -1   -1    0    0    0  501  0.00000000000E+00  0.00000000000E+00  0.71913989956E+03  0.71913989957E+03  0.50400001928E-02 0. -1.
        1   -1    0    0  501    0  0.00000000000E+00  0.00000000000E+00 -0.12985271396E+04  0.12985271396E+04  0.50400001928E-02 0.  1.
    10030    2    1    2    0    0  0.00000000000E+00  0.00000000000E+00 -0.57938724004E+03  0.20176670392E+04  0.19326900184E+04 0.  0.
        3    1    3    3  502    0 -0.19069261999E+03  0.58145104967E+03 -0.10704909238E+04  0.12330449410E+04  0.10100000352E+00 0.  1.
       -3    1    3    3    0  502  0.19069261999E+03 -0.58145104967E+03  0.49110368377E+03  0.78462209814E+03  0.10100000352E+00 0. -1.
</event>
<event>
 5   0  0.5628936E-05  0.1894782E+04  0.7818609E-02  0.8657458E-01
        1   -1    0    0  501    0  0.00000000000E+00  0.00000000000E+00  0.13485420813E+04  0.13485420813E+04  0.50400001928E-02 0. -1.
       -1   -1    0    0    0  501  0.00000000000E+00  0.00000000000E+00 -0.66557007784E+03  0.66557007786E+03  0.50400001928E-02 0.  1.
    10030    2    1    2    0    0  0.00000000000E+00  0.00000000000E+00  0.68297200342E+03  0.20141121591E+04  0.18947815262E+04 0.  0.
        5    1    3    3  502    0  0.47770540512E+03  0.57849228551E+02 -0.52598408915E+03  0.71290275590E+03  0.46999998093E+01 0.  1.
       -5    1    3    3    0  502 -0.47770540512E+03 -0.57849228551E+02  0.12089560926E+04  0.13012094032E+04  0.46999998093E+01 0. -1.
</event>
<event>
 5   0  0.5614989E-05  0.1884690E+04  0.7818609E-02  0.8662515E-01
       -1   -1    0    0    0  501  0.00000000000E+00  0.00000000000E+00  0.54879721791E+03  0.54879721793E+03  0.50400001928E-02 0. -1.
        1   -1    0    0  501    0  0.00000000000E+00  0.00000000000E+00 -0.16181092044E+04  0.16181092044E+04  0.50400001928E-02 0.  1.
    10030    2    1    2    0    0  0.00000000000E+00  0.00000000000E+00 -0.10693119865E+04  0.21669064223E+04  0.18846897142E+04 0.  0.
        4    1    3    3  502    0 -0.85396704355E+02 -0.93725120508E+03 -0.58955297951E+03  0.11105434467E+04  0.12699999809E+01 0.  1.
       -4    1    3    3    0  502  0.85396704355E+02  0.93725120508E+03 -0.47975900697E+03  0.10563629756E+04  0.12699999809E+01 0. -1.
</event>
<event>
 5   0  0.1133638E-04  0.1900416E+04  0.7818609E-02  0.8654649E-01
        2   -1    0    0  501    0  0.00000000000E+00  0.00000000000E+00  0.14016674914E+04  0.14016674914E+04  0.25500000920E-02 0. -1.
       -2   -1    0    0    0  501  0.00000000000E+00  0.00000000000E+00 -0.64415812126E+03  0.64415812127E+03  0.25500000920E-02 0.  1.
    10030    2    1    2    0    0  0.00000000000E+00  0.00000000000E+00  0.75750937011E+03  0.20458256126E+04  0.19004162680E+04 0.  0.
        3    1    3    3  502    0  0.72484141502E+03 -0.54156775813E+03  0.66371082149E+02  0.90724629750E+03  0.10100000352E+00 0.  1.
       -3    1    3    3    0  502 -0.72484141502E+03  0.54156775813E+03  0.69113828796E+03  0.11385793151E+04  0.10100000352E+00 0. -1.
</event>
<event>
 5   0  0.1141890E-04  0.1903007E+04  0.7818609E-02  0.8653361E-01
        2   -1    0    0  501    0  0.00000000000E+00  0.00000000000E+00  0.15556081636E+04  0.15556081636E+04  0.25500000920E-02 0. -1.
       -2   -1    0    0    0  501  0.00000000000E+00  0.00000000000E+00 -0.58199659626E+03  0.58199659626E+03  0.25500000920E-02 0.  1.
    10030    2    1    2    0    0  0.00000000000E+00  0.00000000000E+00  0.97361156732E+03  0.21376047598E+04  0.19030067329E+04 0.  0.
        2    1    3    3  502    0  0.47338693903E+02  0.83084472757E+03 -0.31382916730E+02  0.83278376589E+03  0.25500000920E-02 0.  1.
       -2    1    3    3    0  502 -0.47338693903E+02 -0.83084472757E+03  0.10049944841E+04  0.13048209939E+04  0.25500000920E-02 0. -1.
</event>
<event>
 5   0  0.1101678E-04  0.1896204E+04  0.7818609E-02  0.8656748E-01
        2   -1    0    0  501    0  0.00000000000E+00  0.00000000000E+00  0.93327713655E+03  0.93327713655E+03  0.25500000920E-02 0.  1.
       -2   -1    0    0    0  501  0.00000000000E+00  0.00000000000E+00 -0.96316189180E+03  0.96316189180E+03  0.25500000920E-02 0. -1.
    10030    2    1    2    0    0  0.00000000000E+00  0.00000000000E+00 -0.29884755250E+02  0.18964390284E+04  0.18962035465E+04 0.  0.
        4    1    3    3  502    0  0.73355433945E+03 -0.56420235611E+03  0.19116351927E+03  0.94497162474E+03  0.12699999809E+01 0.  1.
       -4    1    3    3    0  502 -0.73355433945E+03  0.56420235611E+03 -0.22104827452E+03  0.95146740361E+03  0.12699999809E+01 0. -1.
</event>
<event>
 5   0  0.5824956E-05  0.1875199E+04  0.7818609E-02  0.8667301E-01
       -1   -1    0    0    0  501  0.00000000000E+00  0.00000000000E+00  0.85478351249E+03  0.85478351250E+03  0.50400001928E-02 0.  1.
        1   -1    0    0  501    0  0.00000000000E+00  0.00000000000E+00 -0.10284396057E+04  0.10284396057E+04  0.50400001928E-02 0. -1.
    10030    2    1    2    0    0  0.00000000000E+00  0.00000000000E+00 -0.17365609324E+03  0.18832231183E+04  0.18751994226E+04 0.  0.
        2    1    3    3  502    0  0.53124021824E+03 -0.47586132256E+03  0.52440831297E+03  0.88524812708E+03  0.25500000920E-02 0.  1.
       -2    1    3    3    0  502 -0.53124021824E+03  0.47586132256E+03 -0.69806440621E+03  0.99797499117E+03  0.25500000920E-02 0. -1.
</event>
<event>
 5   0  0.1118206E-04  0.1860116E+04  0.7818609E-02  0.8674968E-01
       -2   -1    0    0    0  501  0.00000000000E+00  0.00000000000E+00  0.74492497953E+03  0.74492497954E+03  0.25500000920E-02 0. -1.
        2   -1    0    0  501    0  0.00000000000E+00  0.00000000000E+00 -0.11612016585E+04  0.11612016585E+04  0.25500000920E-02 0.  1.
    10030    2    1    2    0    0  0.00000000000E+00  0.00000000000E+00 -0.41627667900E+03  0.19061266381E+04  0.18601162563E+04 0.  0.
        1    1    3    3  502    0  0.25599004450E+03 -0.38156825279E+03  0.62049356016E+03  0.77209940593E+03  0.50400001928E-02 0. -1.
       -1    1    3    3    0  502 -0.25599004450E+03  0.38156825279E+03 -0.10367702392E+04  0.11340272321E+04  0.50400001928E-02 0.  1.
</event>
<event>
 5   0  0.1141890E-04  0.1898355E+04  0.7818609E-02  0.8655675E-01
       -2   -1    0    0    0  501  0.00000000000E+00  0.00000000000E+00  0.73003879335E+03  0.73003879335E+03  0.25500000920E-02 0.  1.
        2   -1    0    0  501    0  0.00000000000E+00  0.00000000000E+00 -0.12340966105E+04  0.12340966105E+04  0.25500000920E-02 0. -1.
    10030    2    1    2    0    0  0.00000000000E+00  0.00000000000E+00 -0.50405781716E+03  0.19641354039E+04  0.18983554993E+04 0.  0.
        2    1    3    3  502    0 -0.40233205239E+03  0.56399657171E+03 -0.92333738132E+03  0.11543461929E+04  0.25500000920E-02 0.  1.
       -2    1    3    3    0  502  0.40233205239E+03 -0.56399657171E+03  0.41927956416E+03  0.80978921097E+03  0.25500000920E-02 0. -1.
</event>
<event>
 5   0  0.5841424E-05  0.1921600E+04  0.7818609E-02  0.8644179E-01
        1   -1    0    0  501    0  0.00000000000E+00  0.00000000000E+00  0.48911233674E+03  0.48911233676E+03  0.50400001928E-02 0. -1.
       -1   -1    0    0    0  501  0.00000000000E+00  0.00000000000E+00 -0.18873707230E+04  0.18873707230E+04  0.50400001928E-02 0.  1.
    10030    2    1    2    0    0  0.00000000000E+00  0.00000000000E+00 -0.13982583863E+04  0.23764830598E+04  0.19215996510E+04 0.  0.
        1    1    3    3  502    0  0.44824678140E+03  0.55983880986E+03  0.91590966953E+02  0.72300316411E+03  0.50400001928E-02 0. -1.
       -1    1    3    3    0  502 -0.44824678140E+03 -0.55983880986E+03 -0.14898493532E+04  0.16534798957E+04  0.50400001928E-02 0.  1.
</event>
<event>
 5   0  0.5628936E-05  0.1905184E+04  0.7818609E-02  0.8652280E-01
        1   -1    0    0  501    0  0.00000000000E+00  0.00000000000E+00  0.13482220454E+04  0.13482220454E+04  0.50400001928E-02 0.  1.
       -1   -1    0    0    0  501  0.00000000000E+00  0.00000000000E+00 -0.67305803854E+03  0.67305803856E+03  0.50400001928E-02 0. -1.
    10030    2    1    2    0    0  0.00000000000E+00  0.00000000000E+00  0.67516400686E+03  0.20212800840E+04  0.19051841753E+04 0.  0.
        5    1    3    3  502    0  0.81079796519E+03  0.20107111893E+02  0.86763857812E+03  0.11876937436E+04  0.46999998093E+01 0. -1.
       -5    1    3    3    0  502 -0.81079796519E+03 -0.20107111893E+02 -0.19247457126E+03  0.83358634039E+03  0.46999998093E+01 0.  1.
</event>
<event>
 5   0  0.5614989E-05  0.1907588E+04  0.7818609E-02  0.8651088E-01
        1   -1    0    0  501    0  0.00000000000E+00  0.00000000000E+00  0.13472536631E+04  0.13472536631E+04  0.50400001928E-02 0.  1.
       -1   -1    0    0    0  501  0.00000000000E+00  0.00000000000E+00 -0.67524266393E+03  0.67524266395E+03  0.50400001928E-02 0. -1.
    10030    2    1    2    0    0  0.00000000000E+00  0.00000000000E+00  0.67201099912E+03  0.20224963270E+04  0.19075881657E+04 0.  0.
        4    1    3    3  502    0  0.50675143526E+03  0.56523183228E+03 -0.27621848769E+03  0.80782566634E+03  0.12699999809E+01 0. -1.
       -4    1    3    3    0  502 -0.50675143526E+03 -0.56523183228E+03  0.94822948681E+03  0.12146706607E+04  0.12699999809E+01 0.  1.
</event>
<event>
 5   0  0.5579109E-05  0.1902064E+04  0.7818609E-02  0.8653830E-01
       -1   -1    0    0    0  501  0.00000000000E+00  0.00000000000E+00  0.54805061450E+03  0.54805061452E+03  0.50400001928E-02 0. -1.
        1   -1    0    0  501    0  0.00000000000E+00  0.00000000000E+00 -0.16503250594E+04  0.16503250594E+04  0.50400001928E-02 0.  1.
    10030    2    1    2    0    0  0.00000000000E+00  0.00000000000E+00 -0.11022744449E+04  0.21983756739E+04  0.19020637875E+04 0.  0.
        3    1    3    3  502    0 -0.67274611215E+03 -0.65848491003E+03 -0.70736894364E+03  0.11775230532E+04  0.10100000352E+00 0.  1.
       -3    1    3    3    0  502  0.67274611215E+03  0.65848491003E+03 -0.39490550127E+03  0.10208526207E+04  0.10100000352E+00 0. -1.
</event>
<event>
 5   0  0.1133638E-04  0.1897569E+04  0.7818609E-02  0.8656067E-01
       -2   -1    0    0    0  501  0.00000000000E+00  0.00000000000E+00  0.87590116234E+03  0.87590116235E+03  0.25500000920E-02 0.  1.
        2   -1    0    0  501    0  0.00000000000E+00  0.00000000000E+00 -0.10277323419E+04  0.10277323419E+04  0.25500000920E-02 0. -1.
    10030    2    1    2    0    0  0.00000000000E+00  0.00000000000E+00 -0.15183117956E+03  0.19036335043E+04  0.18975689214E+04 0.  0.
        3    1    3    3  502    0  0.71526780803E+03  0.59245758218E+03 -0.27038537865E+03  0.96732739394E+03  0.10100000352E+00 0. -1.
       -3    1    3    3    0  502 -0.71526780803E+03 -0.59245758218E+03  0.11855419909E+03  0.93630611031E+03  0.10100000352E+00 0.  1.
</event>
<event>
 5   0  0.5614989E-05  0.1890190E+04  0.7818609E-02  0.8659755E-01
       -1   -1    0    0    0  501  0.00000000000E+00  0.00000000000E+00  0.10868802613E+04  0.10868802613E+04  0.50400001928E-02 0.  1.
        1   -1    0    0  501    0  0.00000000000E+00  0.00000000000E+00 -0.82180591463E+03  0.82180591465E+03  0.50400001928E-02 0. -1.
    10030    2    1    2    0    0  0.00000000000E+00  0.00000000000E+00  0.26507434663E+03  0.19086861759E+04  0.18901900722E+04 0.  0.
        4    1    3    3  502    0  0.14936250159E+03  0.90132682472E+03 -0.11170526925E+03  0.92042320805E+03  0.12699999809E+01 0. -1.
       -4    1    3    3    0  502 -0.14936250159E+03 -0.90132682472E+03  0.37677961588E+03  0.98826296788E+03  0.12699999809E+01 0.  1.
</event>
<event>
 5   0  0.1118206E-04  0.2033322E+04  0.7818609E-02  0.8591198E-01
       -2   -1    0    0    0  501  0.00000000000E+00  0.00000000000E+00  0.49772614326E+03  0.49772614327E+03  0.25500000920E-02 0. -1.
        2   -1    0    0  501    0  0.00000000000E+00  0.00000000000E+00 -0.20766435808E+04  0.20766435808E+04  0.25500000920E-02 0.  1.
    10030    2    1    2    0    0  0.00000000000E+00  0.00000000000E+00 -0.15789174375E+04  0.25743697241E+04  0.20333222080E+04 0.  0.
        1    1    3    3  502    0  0.10161168999E+04 -0.97084957879E+01 -0.82973534401E+03  0.13118874000E+04  0.50400001928E-02 0. -1.
       -1    1    3    3    0  502 -0.10161168999E+04  0.97084957879E+01 -0.74918209352E+03  0.12624823240E+04  0.50400001928E-02 0.  1.
</event>
<event>
 5   0  0.5824956E-05  0.1913940E+04  0.7818609E-02  0.8647949E-01
       -1   -1    0    0    0  501  0.00000000000E+00  0.00000000000E+00  0.51957700498E+03  0.51957700501E+03  0.50400001928E-02 0.  1.
        1   -1    0    0  501    0  0.00000000000E+00  0.00000000000E+00 -0.17625712946E+04  0.17625712946E+04  0.50400001928E-02 0. -1.
    10030    2    1    2    0    0  0.00000000000E+00  0.00000000000E+00 -0.12429942896E+04  0.22821482996E+04  0.19139399304E+04 0.  0.
        2    1    3    3  502    0 -0.76590448258E+02  0.83230410628E+03 -0.65796676073E+02  0.83840647939E+03  0.25500000920E-02 0. -1.
       -2    1    3    3    0  502  0.76590448258E+02 -0.83230410628E+03 -0.11771976135E+04  0.14437418202E+04  0.25500000920E-02 0.  1.
</event>
<event>
 5   0  0.5579109E-05  0.1882213E+04  0.7818609E-02  0.8663761E-01
       -1   -1    0    0    0  501  0.00000000000E+00  0.00000000000E+00  0.91770057639E+03  0.91770057641E+03  0.50400001928E-02 0. -1.
        1   -1    0    0  501    0  0.00000000000E+00  0.00000000000E+00 -0.96510894649E+03  0.96510894651E+03  0.50400001928E-02 0.  1.
    10030    2    1    2    0    0  0.00000000000E+00  0.00000000000E+00 -0.47408370100E+02  0.18828095229E+04  0.18822125666E+04 0.  0.
        3    1    3    3  502    0  0.89912277105E+03  0.23120729307E+03  0.13062519365E+03  0.93751881112E+03  0.10100000352E+00 0. -1.
       -3    1    3    3    0  502 -0.89912277105E+03 -0.23120729307E+03 -0.17803356375E+03  0.94529071180E+03  0.10100000352E+00 0.  1.
</event>
<event>
 5   0  0.1101678E-04  0.1902867E+04  0.7818609E-02  0.8653431E-01
        2   -1    0    0  501    0  0.00000000000E+00  0.00000000000E+00  0.19408028269E+04  0.19408028269E+04  0.25500000920E-02 0.  1.
       -2   -1    0    0    0  501  0.00000000000E+00  0.00000000000E+00 -0.46641818799E+03  0.46641818800E+03  0.25500000920E-02 0. -1.
    10030    2    1    2    0    0  0.00000000000E+00  0.00000000000E+00  0.14743846389E+04  0.24072210149E+04  0.19028670345E+04 0.  0.
        4    1    3    3  502    0  0.13297986502E+03  0.57770891706E+03 -0.20422289019E+03  0.62700864358E+03  0.12699999809E+01 0. -1.
       -4    1    3    3    0  502 -0.13297986502E+03 -0.57770891706E+03  0.16786075291E+04  0.17802123713E+04  0.12699999809E+01 0.  1.
</event>
<event>
 5   0  0.5614989E-05  0.1890608E+04  0.7818609E-02  0.8659546E-01
       -1   -1    0    0    0  501  0.00000000000E+00  0.00000000000E+00  0.60262510546E+03  0.60262510548E+03  0.50400001928E-02 0.  1.
        1   -1    0    0  501    0  0.00000000000E+00  0.00000000000E+00 -0.14828447737E+04  0.14828447737E+04  0.50400001928E-02 0. -1.
    10030    2    1    2    0    0  0.00000000000E+00  0.00000000000E+00 -0.88021966823E+03  0.20854698792E+04  0.18906078262E+04 0.  0.
        4    1    3    3  502    0 -0.22565430211E+02  0.85189327820E+03 -0.89138014508E+03  0.12332037674E+04  0.12699999809E+01 0.  1.
       -4    1    3    3    0  502  0.22565430211E+02 -0.85189327820E+03  0.11160476845E+02  0.85226611174E+03  0.12699999809E+01 0. -1.
</event>
<event>
 5   0  0.1141890E-04  0.1888546E+04  0.7818609E-02  0.8660579E-01
        2   -1    0    0  501    0  0.00000000000E+00  0.00000000000E+00  0.14956966775E+04  0.14956966775E+04  0.25500000920E-02 0.  1.
       -2   -1    0    0    0  501  0.00000000000E+00  0.00000000000E+00 -0.59614444743E+03  0.59614444743E+03  0.25500000920E-02 0. -1.
    10030    2    1    2    0    0  0.00000000000E+00  0.00000000000E+00  0.89955223003E+03  0.20918411249E+04  0.18885457573E+04 0.  0.
        2    1    3    3  502    0 -0.40903864271E+03  0.44828918166E+02  0.13911642463E+04  0.14507447065E+04  0.25500000920E-02 0.  1.
       -2    1    3    3    0  502  0.40903864271E+03 -0.44828918166E+02 -0.49161201629E+03  0.64109641841E+03  0.25500000920E-02 0. -1.
</event>
<event>
 5   0  0.5628936E-05  0.1874018E+04  0.7818609E-02  0.8667898E-01
        1   -1    0    0  501    0  0.00000000000E+00  0.00000000000E+00  0.85351522822E+03  0.85351522824E+03  0.50400001928E-02 0.  1.
       -1   -1    0    0    0  501  0.00000000000E+00  0.00000000000E+00 -0.10286703057E+04  0.10286703057E+04  0.50400001928E-02 0. -1.
    10030    2    1    2    0    0  0.00000000000E+00  0.00000000000E+00 -0.17515507743E+03  0.18821855339E+04  0.18740178982E+04 0.  0.
        5    1    3    3  502    0  0.69877350633E+03 -0.31177339413E+03  0.45559058254E+03  0.89054586144E+03  0.46999998093E+01 0.  1.
       -5    1    3    3    0  502 -0.69877350633E+03  0.31177339413E+03 -0.63074565996E+03  0.99163967246E+03  0.46999998093E+01 0. -1.
</event>
<event>
 5   0  0.1133638E-04  0.1893425E+04  0.7818609E-02  0.8658136E-01
       -2   -1    0    0    0  501  0.00000000000E+00  0.00000000000E+00  0.54793328308E+03  0.54793328308E+03  0.25500000920E-02 0. -1.
        2   -1    0    0  501    0  0.00000000000E+00  0.00000000000E+00 -0.16357177816E+04  0.16357177816E+04  0.25500000920E-02 0.  1.
    10030    2    1    2    0    0  0.00000000000E+00  0.00000000000E+00 -0.10877844985E+04  0.21836510647E+04  0.18934246373E+04 0.  0.
        3    1    3    3  502    0  0.58101496963E+03 -0.23138787339E+03  0.27578606511E+03  0.68350326027E+03  0.10100000352E+00 0. -1.
       -3    1    3    3    0  502 -0.58101496963E+03  0.23138787339E+03 -0.13635705636E+04  0.15001478044E+04  0.10100000352E+00 0.  1.
</event>
<event>
 5   0  0.5824956E-05  0.1920293E+04  0.7818609E-02  0.8644821E-01
        1   -1    0    0  501    0  0.00000000000E+00  0.00000000000E+00  0.19815600945E+04  0.19815600945E+04  0.50400001928E-02 0.  1.
       -1   -1    0    0    0  501  0.00000000000E+00  0.00000000000E+00 -0.46522995405E+03  0.46522995408E+03  0.50400001928E-02 0. -1.
    10030    2    1    2    0    0  0.00000000000E+00  0.00000000000E+00  0.15163301404E+04  0.24467900485E+04  0.19202928024E+04 0.  0.
        2    1    3    3  502    0  0.92890516459E+03  0.11685458728E+03  0.10295414576E+04  0.13915729993E+04  0.25500000920E-02 0.  1.
       -2    1    3    3    0  502 -0.92890516459E+03 -0.11685458728E+03  0.48678868283E+03  0.10552170493E+04  0.25500000920E-02 0. -1.
</event>
<event>
 5   0  0.1141890E-04  0.1906358E+04  0.7818609E-02  0.8651698E-01
       -2   -1    0    0    0  501  0.00000000000E+00  0.00000000000E+00  0.14294754245E+04  0.14294754245E+04  0.25500000920E-02 0.  1.
        2   -1    0    0  501    0  0.00000000000E+00  0.00000000000E+00 -0.63558312745E+03  0.63558312745E+03  0.25500000920E-02 0. -1.
    10030    2    1    2    0    0  0.00000000000E+00  0.00000000000E+00  0.79389229702E+03  0.20650585519E+04  0.19063582674E+04 0.  0.
        2    1    3    3  502    0  0.15771485359E+03  0.93977391990E+03  0.42120377465E+03  0.10418548917E+04  0.25500000920E-02 0. -1.
       -2    1    3    3    0  502 -0.15771485359E+03 -0.93977391990E+03  0.37268852237E+03  0.10232036602E+04  0.25500000920E-02 0.  1.
</event>
<event>
 5   0  0.1118206E-04  0.1921553E+04  0.7818609E-02  0.8644202E-01
       -2   -1    0    0    0  501  0.00000000000E+00  0.00000000000E+00  0.13738194853E+04  0.13738194853E+04  0.25500000920E-02 0.  1.
        2   -1    0    0  501    0  0.00000000000E+00  0.00000000000E+00 -0.67191600270E+03  0.67191600270E+03  0.25500000920E-02 0. -1.
    10030    2    1    2    0    0  0.00000000000E+00  0.00000000000E+00  0.70190348256E+03  0.20457354880E+04  0.19215528064E+04 0.  0.
        1    1    3    3  502    0 -0.50297836657E+03 -0.38500818627E+03 -0.41814233792E+03  0.75898719061E+03  0.50400001928E-02 0. -1.
       -1    1    3    3    0  502  0.50297836657E+03  0.38500818627E+03  0.11200458205E+04  0.12867482973E+04  0.50400001928E-02 0.  1.
</event>
<event>
 5   0  0.5579109E-05  0.1890065E+04  0.7818609E-02  0.8659817E-01
       -1   -1    0    0    0  501  0.00000000000E+00  0.00000000000E+00  0.15520846306E+04  0.15520846306E+04  0.50400001928E-02 0.  1.
        1   -1    0    0  501    0  0.00000000000E+00  0.00000000000E+00 -0.57541092756E+03  0.57541092758E+03  0.50400001928E-02 0. -1.
    10030    2    1    2    0    0  0.00000000000E+00  0.00000000000E+00  0.97667370304E+03  0.21274955582E+04  0.18900650327E+04 0.  0.
        3    1    3    3  502    0  0.61050073126E+03  0.93964676672E+02 -0.31673424888E+03  0.69416215537E+03  0.10100000352E+00 0. -1.
       -3    1    3    3    0  502 -0.61050073126E+03 -0.93964676672E+02  0.12934079519E+04  0.14333334028E+04  0.10100000352E+00 0.  1.
</event>
<event>
 5   0  0.5614989E-05  0.1898595E+04  0.7818609E-02  0.8655556E-01
       -1   -1    0    0    0  501  0.00000000000E+00  0.00000000000E+00  0.50072024953E+03  0.50072024955E+03  0.50400001928E-02 0.  1.
        1   -1    0    0  501    0  0.00000000000E+00  0.00000000000E+00 -0.17997388217E+04  0.17997388217E+04  0.50400001928E-02 0. -1.
    10030    2    1    2    0    0  0.00000000000E+00  0.00000000000E+00 -0.12990185722E+04  0.23004590713E+04  0.18985949246E+04 0.  0.
        4    1    3    3  502    0  0.45107096462E+03  0.79403878539E+03 -0.96361187879E+03  0.13275963519E+04  0.12699999809E+01 0. -1.
       -4    1    3    3    0  502 -0.45107096462E+03 -0.79403878539E+03 -0.33540669340E+03  0.97286271935E+03  0.12699999809E+01 0.  1.
</event>
<event>
 5   0  0.1141890E-04  0.1898742E+04  0.7818609E-02  0.8655483E-01
        2   -1    0    0  501    0  0.00000000000E+00  0.00000000000E+00  0.18618201265E+04  0.18618201265E+04  0.25500000920E-02 0.  1.
       -2   -1    0    0    0  501  0.00000000000E+00  0.00000000000E+00 -0.48409900159E+03  0.48409900160E+03  0.25500000920E-02 0. -1.
    10030    2    1    2    0    0  0.00000000000E+00  0.00000000000E+00  0.13777211249E+04  0.23459191281E+04  0.18987419671E+04 0.  0.
        2    1    3    3  502    0  0.90056850002E+03 -0.25292073074E+03  0.88927553629E+03  0.12906601019E+04  0.25500000920E-02 0.  1.
       -2    1    3    3    0  502 -0.90056850002E+03  0.25292073074E+03  0.48844558861E+03  0.10552590262E+04  0.25500000920E-02 0. -1.
</event>
<event>
 5   0  0.1101678E-04  0.1903825E+04  0.7818609E-02  0.8652955E-01
       -2   -1    0    0    0  501  0.00000000000E+00  0.00000000000E+00  0.84595616147E+03  0.84595616147E+03  0.25500000920E-02 0.  1.
        2   -1    0    0  501    0  0.00000000000E+00  0.00000000000E+00 -0.10711402757E+04  0.10711402757E+04  0.25500000920E-02 0. -1.
    10030    2    1    2    0    0  0.00000000000E+00  0.00000000000E+00 -0.22518411420E+03  0.19170964371E+04  0.19038253239E+04 0.  0.
        4    1    3    3  502    0  0.91945572147E+03 -0.16812332620E+03  0.68863477795E+02  0.93723426529E+03  0.12699999809E+01 0.  1.
       -4    1    3    3    0  502 -0.91945572147E+03  0.16812332620E+03 -0.29404759200E+03  0.97986217185E+03  0.12699999809E+01 0. -1.
</event>
<event>
 5   0  0.1133638E-04  0.1903502E+04  0.7818609E-02  0.8653115E-01
       -2   -1    0    0    0  501  0.00000000000E+00  0.00000000000E+00  0.61693488556E+03  0.61693488557E+03  0.25500000920E-02 0. -1.
        2   -1    0    0  501    0  0.00000000000E+00  0.00000000000E+00 -0.14682751169E+04  0.14682751169E+04  0.25500000920E-02 0.  1.
    10030    2    1    2    0    0  0.00000000000E+00  0.00000000000E+00 -0.85134023136E+03  0.20852100025E+04  0.19035021841E+04 0.  0.
        3    1    3    3  502    0  0.11955025163E+03  0.32111786481E+03  0.54702237435E+03  0.64547845356E+03  0.10100000352E+00 0. -1.
       -3    1    3    3    0  502 -0.11955025163E+03 -0.32111786481E+03 -0.13983626057E+04  0.14397315489E+04  0.10100000352E+00 0.  1.
</event>
<event>
 5   0  0.1182630E-04  0.1912886E+04  0.7818609E-02  0.8648469E-01
       -2   -1    0    0    0  501  0.00000000000E+00  0.00000000000E+00  0.93175269389E+03  0.93175269389E+03  0.25500000920E-02 0. -1.
        2   -1    0    0  501    0  0.00000000000E+00  0.00000000000E+00 -0.98178716327E+03  0.98178716327E+03  0.25500000920E-02 0.  1.
    10030    2    1    2    0    0  0.00000000000E+00  0.00000000000E+00 -0.50034469384E+02  0.19135398572E+04  0.19128856047E+04 0.  0.
        5    1    3    3  502    0 -0.65229786133E+03  0.57557581321E+02  0.67232618330E+03  0.93853607379E+03  0.46999998093E+01 0. -1.
       -5    1    3    3    0  502  0.65229786133E+03 -0.57557581321E+02 -0.72236065268E+03  0.97500378337E+03  0.46999998093E+01 0.  1.
</event>
<event>
 5   0  0.5614989E-05  0.1893101E+04  0.7818609E-02  0.8658298E-01
        1   -1    0    0  501    0  0.00000000000E+00  0.00000000000E+00  0.12722758197E+04  0.12722758197E+04  0.50400001928E-02 0.  1.
       -1   -1    0    0    0  501  0.00000000000E+00  0.00000000000E+00 -0.70421647081E+03  0.70421647083E+03  0.50400001928E-02 0. -1.
    10030    2    1    2    0    0  0.00000000000E+00  0.00000000000E+00  0.56805934891E+03  0.19764922906E+04  0.18931007239E+04 0.  0.
        4    1    3    3  502    0 -0.41653048498E+03 -0.63324001419E+03 -0.30792510398E+03  0.81811371034E+03  0.12699999809E+01 0. -1.
       -4    1    3    3    0  502  0.41653048498E+03  0.63324001419E+03  0.87598445289E+03  0.11583785802E+04  0.12699999809E+01 0.  1.
</event>
<event>
 5   0  0.5628936E-05  0.1892673E+04  0.7818609E-02  0.8658512E-01
        1   -1    0    0  501    0  0.00000000000E+00  0.00000000000E+00  0.67700613896E+03  0.67700613898E+03  0.50400001928E-02 0. -1.
       -1   -1    0    0    0  501  0.00000000000E+00  0.00000000000E+00 -0.13228130744E+04  0.13228130744E+04  0.50400001928E-02 0.  1.
    10030    2    1    2    0    0  0.00000000000E+00  0.00000000000E+00 -0.64580693548E+03  0.19998192134E+04  0.18926727896E+04 0.  0.
        5    1    3    3  502    0 -0.46632943777E+03  0.22737034929E+03 -0.11591429993E+04  0.12699586619E+04  0.46999998093E+01 0.  1.
       -5    1    3    3    0  502  0.46632943777E+03 -0.22737034929E+03  0.51333606378E+03  0.72986055150E+03  0.46999998093E+01 0. -1.
</event>
<event>
 5   0  0.5841424E-05  0.1909237E+04  0.7818609E-02  0.8650272E-01
       -1   -1    0    0    0  501  0.00000000000E+00  0.00000000000E+00  0.10805924286E+04  0.10805924286E+04  0.50400001928E-02 0.  1.
        1   -1    0    0  501    0  0.00000000000E+00  0.00000000000E+00 -0.84333069956E+03  0.84333069957E+03  0.50400001928E-02 0. -1.
    10030    2    1    2    0    0  0.00000000000E+00  0.00000000000E+00  0.23726172906E+03  0.19239231282E+04  0.19092373020E+04 0.  0.
        1    1    3    3  502    0 -0.66749724903E+03 -0.30713197562E+03  0.73275621068E+03  0.10376966282E+04  0.50400001928E-02 0.  1.
       -1    1    3    3    0  502  0.66749724903E+03  0.30713197562E+03 -0.49549448162E+03  0.88622649998E+03  0.50400001928E-02 0. -1.
</event>
<event>
 5   0  0.1101678E-04  0.1897884E+04  0.7818609E-02  0.8655910E-01
       -2   -1    0    0    0  501  0.00000000000E+00  0.00000000000E+00  0.86487982826E+03  0.86487982826E+03  0.25500000920E-02 0. -1.
        2   -1    0    0  501    0  0.00000000000E+00  0.00000000000E+00 -0.10411745432E+04  0.10411745432E+04  0.25500000920E-02 0.  1.
    10030    2    1    2    0    0  0.00000000000E+00  0.00000000000E+00 -0.17629471498E+03  0.19060543715E+04  0.18978839376E+04 0.  0.
        4    1    3    3  502    0  0.58385374868E+03  0.73534111256E+03  0.49839531522E+02  0.94026450719E+03  0.12699999809E+01 0. -1.
       -4    1    3    3    0  502 -0.58385374868E+03 -0.73534111256E+03 -0.22613424650E+03  0.96578986431E+03  0.12699999809E+01 0.  1.
</event>
<event>
 5   0  0.1101678E-04  0.1893731E+04  0.7818609E-02  0.8657983E-01
       -2   -1    0    0    0  501  0.00000000000E+00  0.00000000000E+00  0.49584940237E+03  0.49584940237E+03  0.25500000920E-02 0. -1.
        2   -1    0    0  501    0  0.00000000000E+00  0.00000000000E+00 -0.18081189085E+04  0.18081189085E+04  0.25500000920E-02 0.  1.
    10030    2    1    2    0    0  0.00000000000E+00  0.00000000000E+00 -0.13122695062E+04  0.23039683109E+04  0.18937314279E+04 0.  0.
        4    1    3    3  502    0 -0.44343504997E+03 -0.29640991948E+03 -0.16079550596E+04  0.16941117349E+04  0.12699999809E+01 0.  1.
       -4    1    3    3    0  502  0.44343504997E+03  0.29640991948E+03  0.29568555339E+03  0.60985657600E+03  0.12699999809E+01 0. -1.
</event>
<event>
 5   0  0.4061125E-05  0.1900353E+04  0.7818609E-02  0.8654681E-01
       -3   -1    0    0    0  501  0.00000000000E+00  0.00000000000E+00  0.45656365742E+03  0.45656366859E+03  0.10100000352E+00 0.  1.
        3   -1    0    0  501    0  0.00000000000E+00  0.00000000000E+00 -0.19774585510E+04  0.19774585536E+04  0.10100000352E+00 0. -1.
    10030    2    1    2    0    0  0.00000000000E+00  0.00000000000E+00 -0.15208948936E+04  0.24340222222E+04  0.19003533621E+04 0.  0.
        5    1    3    3  502    0 -0.83060122668E+03  0.34761931051E+03 -0.37179310737E+03  0.97416106855E+03  0.46999998093E+01 0.  1.
       -5    1    3    3    0  502  0.83060122668E+03 -0.34761931051E+03 -0.11491017862E+04  0.14598611536E+04  0.46999998093E+01 0. -1.
</event>
<event>
 5   0  0.1141890E-04  0.1891370E+04  0.7818609E-02  0.8659164E-01
       -2   -1    0    0    0  501  0.00000000000E+00  0.00000000000E+00  0.48332274934E+03  0.48332274935E+03  0.25500000920E-02 0. -1.
        2   -1    0    0  501    0  0.00000000000E+00  0.00000000000E+00 -0.18503578105E+04  0.18503578105E+04  0.25500000920E-02 0.  1.
    10030    2    1    2    0    0  0.00000000000E+00  0.00000000000E+00 -0.13670350612E+04  0.23336805599E+04  0.18913698996E+04 0.  0.
        2    1    3    3  502    0  0.32184027608E+03  0.33011597579E+03  0.33526485471E+03  0.57005284280E+03  0.25500000920E-02 0. -1.
       -2    1    3    3    0  502 -0.32184027608E+03 -0.33011597579E+03 -0.17022999159E+04  0.17636277171E+04  0.25500000920E-02 0.  1.
</event>
<event>
 5   0  0.5824956E-05  0.1899849E+04  0.7818609E-02  0.8654932E-01
        1   -1    0    0  501    0  0.00000000000E+00  0.00000000000E+00  0.11423930227E+04  0.11423930227E+04  0.50400001928E-02 0. -1.
       -1   -1    0    0    0  501  0.00000000000E+00  0.00000000000E+00 -0.78988241338E+03  0.78988241340E+03  0.50400001928E-02 0.  1.
    10030    2    1    2    0    0  0.00000000000E+00  0.00000000000E+00  0.35251060934E+03  0.19322754361E+04  0.18998485812E+04 0.  0.
        2    1    3    3  502    0 -0.73675281113E+03  0.58208925238E+02  0.78323554142E+03  0.10768708822E+04  0.25500000920E-02 0. -1.
       -2    1    3    3    0  502  0.73675281113E+03 -0.58208925238E+02 -0.43072493208E+03  0.85540455388E+03  0.25500000920E-02 0.  1.
</event>
<event>
 5   0  0.5579109E-05  0.1888683E+04  0.7818609E-02  0.8660510E-01
       -1   -1    0    0    0  501  0.00000000000E+00  0.00000000000E+00  0.13644930896E+04  0.13644930896E+04  0.50400001928E-02 0. -1.
        1   -1    0    0  501    0  0.00000000000E+00  0.00000000000E+00 -0.65356196815E+03  0.65356196817E+03  0.50400001928E-02 0.  1.
    10030    2    1    2    0    0  0.00000000000E+00  0.00000000000E+00  0.71093112142E+03  0.20180550577E+04  0.18886829159E+04 0.  0.
        3    1    3    3  502    0 -0.44355195297E+03 -0.46646548027E+03 -0.38284486142E+03  0.74893162398E+03  0.10100000352E+00 0.  1.
       -3    1    3    3    0  502  0.44355195297E+03  0.46646548027E+03  0.10937759828E+04  0.12691234338E+04  0.10100000352E+00 0. -1.
</event>
<event>
 5   0  0.1182630E-04  0.1905043E+04  0.7818609E-02  0.8652350E-01
        2   -1    0    0  501    0  0.00000000000E+00  0.00000000000E+00  0.14299062621E+04  0.14299062621E+04  0.25500000920E-02 0. -1.
       -2   -1    0    0    0  501  0.00000000000E+00  0.00000000000E+00 -0.63451487249E+03  0.63451487249E+03  0.25500000920E-02 0.  1.
    10030    2    1    2    0    0  0.00000000000E+00  0.00000000000E+00  0.79539138961E+03  0.20644211346E+04  0.19050425608E+04 0.  0.
        5    1    3    3  502    0  0.58019228046E+02  0.45681822595E+03 -0.50586323936E+03  0.68408247260E+03  0.46999998093E+01 0.  1.
       -5    1    3    3    0  502 -0.58019228046E+02 -0.45681822595E+03  0.13012546290E+04  0.13803386620E+04  0.46999998093E+01 0. -1.
</event>
<event>
 5   0  0.1118206E-04  0.1892266E+04  0.7818609E-02  0.8658716E-01
        2   -1    0    0  501    0  0.00000000000E+00  0.00000000000E+00  0.75660282071E+03  0.75660282072E+03  0.25500000920E-02 0. -1.
       -2   -1    0    0    0  501  0.00000000000E+00  0.00000000000E+00 -0.11831412106E+04  0.11831412106E+04  0.25500000920E-02 0.  1.
    10030    2    1    2    0    0  0.00000000000E+00  0.00000000000E+00 -0.42653838990E+03  0.19397440313E+04  0.18922663420E+04 0.  0.
        1    1    3    3  502    0  0.10420724113E+03  0.30300460786E+03 -0.11258282585E+04  0.11705384270E+04  0.50400001928E-02 0.  1.
       -1    1    3    3    0  502 -0.10420724113E+03 -0.30300460786E+03  0.69928986855E+03  0.76920560435E+03  0.50400001928E-02 0. -1.
</event>
<event>
 5   0  0.5614989E-05  0.1903351E+04  0.7818609E-02  0.8653190E-01
        1   -1    0    0  501    0  0.00000000000E+00  0.00000000000E+00  0.72209391414E+03  0.72209391416E+03  0.50400001928E-02 0.  1.
       -1   -1    0    0    0  501  0.00000000000E+00  0.00000000000E+00 -0.12542499870E+04  0.12542499870E+04  0.50400001928E-02 0. -1.
    10030    2    1    2    0    0  0.00000000000E+00  0.00000000000E+00 -0.53215607286E+03  0.19763439012E+04  0.19033510264E+04 0.  0.
        4    1    3    3  502    0 -0.25896161686E+03  0.25850167517E+03 -0.11782907833E+04  0.12337969922E+04  0.12699999809E+01 0. -1.
       -4    1    3    3    0  502  0.25896161686E+03 -0.25850167517E+03  0.64613471045E+03  0.74254690896E+03  0.12699999809E+01 0.  1.
</event>
<event>
 5   0  0.5614989E-05  0.1885972E+04  0.7818609E-02  0.8661871E-01
       -1   -1    0    0    0  501  0.00000000000E+00  0.00000000000E+00  0.54149705549E+03  0.54149705551E+03  0.50400001928E-02 0.  1.
        1   -1    0    0  501    0  0.00000000000E+00  0.00000000000E+00 -0.16421560656E+04  0.16421560656E+04  0.50400001928E-02 0. -1.
    10030    2    1    2    0    0  0.00000000000E+00  0.00000000000E+00 -0.11006590101E+04  0.21836531212E+04  0.18859720828E+04 0.  0.
        4    1    3    3  502    0 -0.81435086333E+03  0.59368048100E+02 -0.10965171383E+04  0.13671295993E+04  0.12699999809E+01 0. -1.
       -4    1    3    3    0  502  0.81435086333E+03 -0.59368048100E+02 -0.41418718072E+01  0.81652352185E+03  0.12699999809E+01 0.  1.
</event>
<event>
 5   0  0.5628936E-05  0.1841991E+04  0.7818609E-02  0.8684282E-01
       -1   -1    0    0    0  501  0.00000000000E+00  0.00000000000E+00  0.11096195741E+04  0.11096195741E+04  0.50400001928E-02 0.  1.
        1   -1    0    0  501    0  0.00000000000E+00  0.00000000000E+00 -0.76443575796E+03  0.76443575798E+03  0.50400001928E-02 0. -1.
    10030    2    1    2    0    0  0.00000000000E+00  0.00000000000E+00  0.34518381610E+03  0.18740553321E+04  0.18419911837E+04 0.  0.
        5    1    3    3  502    0  0.37871890075E+02 -0.42119036286E+03  0.10049873001E+04  0.10903472682E+04  0.46999998093E+01 0.  1.
       -5    1    3    3    0  502 -0.37871890075E+02  0.42119036286E+03 -0.65980348403E+03  0.78370806386E+03  0.46999998093E+01 0. -1.
</event>
<event>
 5   0  0.1101678E-04  0.1902390E+04  0.7818609E-02  0.8653668E-01
       -2   -1    0    0    0  501  0.00000000000E+00  0.00000000000E+00  0.79798637234E+03  0.79798637235E+03  0.25500000920E-02 0.  1.
        2   -1    0    0  501    0  0.00000000000E+00  0.00000000000E+00 -0.11338186868E+04  0.11338186868E+04  0.25500000920E-02 0. -1.
    10030    2    1    2    0    0  0.00000000000E+00  0.00000000000E+00 -0.33583231444E+03  0.19318050591E+04  0.19023899293E+04 0.  0.
        4    1    3    3  502    0 -0.55078228556E+03  0.69480895296E+03 -0.51769776888E+03  0.10267098909E+04  0.12699999809E+01 0.  1.
       -4    1    3    3    0  502  0.55078228556E+03 -0.69480895296E+03  0.18186545444E+03  0.90509516827E+03  0.12699999809E+01 0. -1.
</event>
<event>
 5   0  0.4061125E-05  0.1896825E+04  0.7818609E-02  0.8656438E-01
        3   -1    0    0  501    0  0.00000000000E+00  0.00000000000E+00  0.54188495471E+03  0.54188496412E+03  0.10100000352E+00 0. -1.
       -3   -1    0    0    0  501  0.00000000000E+00  0.00000000000E+00 -0.16599206925E+04  0.16599206955E+04  0.10100000352E+00 0.  1.
    10030    2    1    2    0    0  0.00000000000E+00  0.00000000000E+00 -0.11180357378E+04  0.22018056597E+04  0.18968247816E+04 0.  0.
        2    1    3    3  502    0 -0.11860708623E+03 -0.76744242657E+03 -0.11910336093E+04  0.14218286034E+04  0.25500000920E-02 0.  1.
       -2    1    3    3    0  502  0.11860708623E+03  0.76744242657E+03  0.72997871550E+02  0.77997705624E+03  0.25500000920E-02 0. -1.
</event>
<event>
 5   0  0.1133638E-04  0.1909736E+04  0.7818609E-02  0.8650025E-01
        2   -1    0    0  501    0  0.00000000000E+00  0.00000000000E+00  0.71837099911E+03  0.71837099912E+03  0.25500000920E-02 0.  1.
       -2   -1    0    0    0  501  0.00000000000E+00  0.00000000000E+00 -0.12692232775E+04  0.12692232775E+04  0.25500000920E-02 0. -1.
    10030    2    1    2    0    0  0.00000000000E+00  0.00000000000E+00 -0.55085227841E+03  0.19875942766E+04  0.19097363106E+04 0.  0.
        3    1    3    3  502    0 -0.43706055836E+03  0.77807547084E+03 -0.62890445803E+03  0.10917619693E+04  0.10100000352E+00 0. -1.
       -3    1    3    3    0  502  0.43706055836E+03 -0.77807547084E+03  0.78052179616E+02  0.89583230738E+03  0.10100000352E+00 0.  1.
</event>
<event>
 5   0  0.1133638E-04  0.1906797E+04  0.7818609E-02  0.8651480E-01
       -2   -1    0    0    0  501  0.00000000000E+00  0.00000000000E+00  0.64931278375E+03  0.64931278375E+03  0.25500000920E-02 0.  1.
        2   -1    0    0  501    0  0.00000000000E+00  0.00000000000E+00 -0.13998936598E+04  0.13998936598E+04  0.25500000920E-02 0. -1.
    10030    2    1    2    0    0  0.00000000000E+00  0.00000000000E+00 -0.75058087609E+03  0.20492064436E+04  0.19067971567E+04 0.  0.
        3    1    3    3  502    0  0.19361679725E+03 -0.25334540956E+02  0.62759259980E+03  0.65726842665E+03  0.10100000352E+00 0.  1.
       -3    1    3    3    0  502 -0.19361679725E+03  0.25334540956E+02 -0.13781734759E+04  0.13919380169E+04  0.10100000352E+00 0. -1.
</event>
<event>
 5   0  0.5628936E-05  0.1885583E+04  0.7818609E-02  0.8662066E-01
       -1   -1    0    0    0  501  0.00000000000E+00  0.00000000000E+00  0.70810894701E+03  0.70810894703E+03  0.50400001928E-02 0. -1.
        1   -1    0    0  501    0  0.00000000000E+00  0.00000000000E+00 -0.12552531555E+04  0.12552531555E+04  0.50400001928E-02 0.  1.
    10030    2    1    2    0    0  0.00000000000E+00  0.00000000000E+00 -0.54714420848E+03  0.19633621025E+04  0.18855831885E+04 0.  0.
        5    1    3    3  502    0 -0.54891512065E+02 -0.33412058982E+03 -0.11897438058E+04  0.12369971948E+04  0.46999998093E+01 0.  1.
       -5    1    3    3    0  502  0.54891512065E+02  0.33412058982E+03  0.64259959732E+03  0.72636490768E+03  0.46999998093E+01 0. -1.
</event>
<event>
 5   0  0.1133638E-04  0.1919722E+04  0.7818609E-02  0.8645101E-01
        2   -1    0    0  501    0  0.00000000000E+00  0.00000000000E+00  0.14599400681E+04  0.14599400681E+04  0.25500000920E-02 0. -1.
       -2   -1    0    0    0  501  0.00000000000E+00  0.00000000000E+00 -0.63107573705E+03  0.63107573706E+03  0.25500000920E-02 0.  1.
    10030    2    1    2    0    0  0.00000000000E+00  0.00000000000E+00  0.82886433106E+03  0.20910158052E+04  0.19197215991E+04 0.  0.
        3    1    3    3  502    0 -0.55267281002E+03  0.73094299810E+03  0.10327126940E+03  0.92216585640E+03  0.10100000352E+00 0.  1.
       -3    1    3    3    0  502  0.55267281002E+03 -0.73094299810E+03  0.72559306165E+03  0.11688499488E+04  0.10100000352E+00 0. -1.
</event>
<event>
 5   0  0.1141890E-04  0.1907949E+04  0.7818609E-02  0.8650910E-01
       -2   -1    0    0    0  501  0.00000000000E+00  0.00000000000E+00  0.74062352576E+03  0.74062352577E+03  0.25500000920E-02 0. -1.
        2   -1    0    0  501    0  0.00000000000E+00  0.00000000000E+00 -0.12287852895E+04  0.12287852895E+04  0.25500000920E-02 0.  1.
    10030    2    1    2    0    0  0.00000000000E+00  0.00000000000E+00 -0.48816176374E+03  0.19694088153E+04  0.19079489443E+04 0.  0.
        2    1    3    3  502    0  0.82703344962E+02 -0.23963211288E+03  0.70522018807E+03  0.74939903019E+03  0.25500000920E-02 0. -1.
       -2    1    3    3    0  502 -0.82703344962E+02  0.23963211288E+03 -0.11933819518E+04  0.12200097851E+04  0.25500000920E-02 0.  1.
</event>
<event>
 5   0  0.1118206E-04  0.1936561E+04  0.7818609E-02  0.8636868E-01
        2   -1    0    0  501    0  0.00000000000E+00  0.00000000000E+00  0.94543364473E+03  0.94543364473E+03  0.25500000920E-02 0.  1.
       -2   -1    0    0    0  501  0.00000000000E+00  0.00000000000E+00 -0.99167996657E+03  0.99167996657E+03  0.25500000920E-02 0. -1.
    10030    2    1    2    0    0  0.00000000000E+00  0.00000000000E+00 -0.46246321840E+02  0.19371136113E+04  0.19365614942E+04 0.  0.
        1    1    3    3  502    0 -0.56837668204E+03  0.75099867818E+03 -0.24794608387E+03  0.97392418999E+03  0.50400001928E-02 0.  1.
       -1    1    3    3    0  502  0.56837668204E+03 -0.75099867818E+03  0.20169976203E+03  0.96318942132E+03  0.50400001928E-02 0. -1.
</event>
<event>
 5   0  0.5579109E-05  0.1907051E+04  0.7818609E-02  0.8651355E-01
        1   -1    0    0  501    0  0.00000000000E+00  0.00000000000E+00  0.15398531660E+04  0.15398531660E+04  0.50400001928E-02 0. -1.
       -1   -1    0    0    0  501  0.00000000000E+00  0.00000000000E+00 -0.59045302204E+03  0.59045302206E+03  0.50400001928E-02 0.  1.
    10030    2    1    2    0    0  0.00000000000E+00  0.00000000000E+00  0.94940014393E+03  0.21303061880E+04  0.19070510799E+04 0.  0.
        3    1    3    3  502    0 -0.29002142457E+03 -0.63317977974E+03 -0.25283806239E+03  0.74091575511E+03  0.10100000352E+00 0.  1.
       -3    1    3    3    0  502  0.29002142457E+03  0.63317977974E+03  0.12022382063E+04  0.13893904329E+04  0.10100000352E+00 0. -1.
</event>
<event>
 5   0  0.1101678E-04  0.1906985E+04  0.7818609E-02  0.8651387E-01
        2   -1    0    0  501    0  0.00000000000E+00  0.00000000000E+00  0.76880129856E+03  0.76880129856E+03  0.25500000920E-02 0.  1.
       -2   -1    0    0    0  501  0.00000000000E+00  0.00000000000E+00 -0.11825524701E+04  0.11825524701E+04  0.25500000920E-02 0. -1.
    10030    2    1    2    0    0  0.00000000000E+00  0.00000000000E+00 -0.41375117156E+03  0.19513537687E+04  0.19069849235E+04 0.  0.
        4    1    3    3  502    0  0.66598309252E+03 -0.67027828873E+03 -0.76074276244E+02  0.94794270516E+03  0.12699999809E+01 0. -1.
       -4    1    3    3    0  502 -0.66598309252E+03  0.67027828873E+03 -0.33767689532E+03  0.10034110635E+04  0.12699999809E+01 0.  1.
</event>
<event>
 5   0  0.1101678E-04  0.1910292E+04  0.7818609E-02  0.8649750E-01
       -2   -1    0    0    0  501  0.00000000000E+00  0.00000000000E+00  0.58981984611E+03  0.58981984611E+03  0.25500000920E-02 0.  1.
        2   -1    0    0  501    0  0.00000000000E+00  0.00000000000E+00 -0.15467506848E+04  0.15467506848E+04  0.25500000920E-02 0. -1.
    10030    2    1    2    0    0  0.00000000000E+00  0.00000000000E+00 -0.95693083872E+03  0.21365705309E+04  0.19102923869E+04 0.  0.
        4    1    3    3  502    0  0.62564824284E+03  0.65502596433E+03 -0.81735437587E+03  0.12200674270E+04  0.12699999809E+01 0. -1.
       -4    1    3    3    0  502 -0.62564824284E+03 -0.65502596433E+03 -0.13957646285E+03  0.91650310397E+03  0.12699999809E+01 0.  1.
</event>
<event>
 5   0  0.1182630E-04  0.1870137E+04  0.7818609E-02  0.8669866E-01
       -2   -1    0    0    0  501  0.00000000000E+00  0.00000000000E+00  0.10453863329E+04  0.10453863329E+04  0.25500000920E-02 0.  1.
        2   -1    0    0  501    0  0.00000000000E+00  0.00000000000E+00 -0.83639201887E+03  0.83639201888E+03  0.25500000920E-02 0. -1.
    10030    2    1    2    0    0  0.00000000000E+00  0.00000000000E+00  0.20899431401E+03  0.18817783518E+04  0.18701366640E+04 0.  0.
        5    1    3    3  502    0 -0.70747771391E+03  0.58930048349E+03 -0.59399946329E+02  0.92268641431E+03  0.46999998093E+01 0.  1.
       -5    1    3    3    0  502  0.70747771391E+03 -0.58930048349E+03  0.26839426034E+03  0.95909193746E+03  0.46999998093E+01 0. -1.
</event>
<event>
 5   0  0.5614989E-05  0.1895250E+04  0.7818609E-02  0.8657224E-01
       -1   -1    0    0    0  501  0.00000000000E+00  0.00000000000E+00  0.10183948912E+04  0.10183948912E+04  0.50400001928E-02 0.  1.
        1   -1    0    0  501    0  0.00000000000E+00  0.00000000000E+00 -0.88177334204E+03  0.88177334206E+03  0.50400001928E-02 0. -1.
    10030    2    1    2    0    0  0.00000000000E+00  0.00000000000E+00  0.13662154916E+03  0.19001682333E+04  0.18952503442E+04 0.  0.
        4    1    3    3  502    0 -0.29460270033E+03  0.90035733730E+03  0.44632379629E+02  0.94838164685E+03  0.12699999809E+01 0. -1.
       -4    1    3    3    0  502  0.29460270033E+03 -0.90035733730E+03  0.91989169530E+02  0.95178658642E+03  0.12699999809E+01 0.  1.
</event>
<event>
 5   0  0.5824956E-05  0.1905604E+04  0.7818609E-02  0.8652072E-01
        1   -1    0    0  501    0  0.00000000000E+00  0.00000000000E+00  0.12013804972E+04  0.12013804972E+04  0.50400001928E-02 0. -1.
       -1   -1    0    0    0  501  0.00000000000E+00  0.00000000000E+00 -0.75565721659E+03  0.75565721660E+03  0.50400001928E-02 0.  1.
    10030    2    1    2    0    0  0.00000000000E+00  0.00000000000E+00  0.44572328062E+03  0.19570377138E+04  0.19056042009E+04 0.  0.
        2    1    3    3  502    0  0.61576722452E+03 -0.93069232121E+02 -0.51771234406E+03  0.80985012685E+03  0.25500000920E-02 0.  1.
       -2    1    3    3    0  502 -0.61576722452E+03  0.93069232121E+02  0.96343562468E+03  0.11471875870E+04  0.25500000920E-02 0. -1.
</event>
<event>
 5   0  0.1133638E-04  0.1910373E+04  0.7818609E-02  0.8649710E-01
       -2   -1    0    0    0  501  0.00000000000E+00  0.00000000000E+00  0.10105055535E+04  0.10105055535E+04  0.25500000920E-02 0.  1.
        2   -1    0    0  501    0  0.00000000000E+00  0.00000000000E+00 -0.90289561419E+03  0.90289561419E+03  0.25500000920E-02 0. -1.
    10030    2    1    2    0    0  0.00000000000E+00  0.00000000000E+00  0.10760993935E+03  0.19134011677E+04  0.19103727724E+04 0.  0.
        3    1    3    3  502    0 -0.44749648863E+03  0.88571213902E+02  0.89435106428E+03  0.10039730094E+04  0.10100000352E+00 0.  1.
       -3    1    3    3    0  502  0.44749648863E+03 -0.88571213902E+02 -0.78674112493E+03  0.90942815831E+03  0.10100000352E+00 0. -1.
</event>
<event>
 5   0  0.1101678E-04  0.1909427E+04  0.7818609E-02  0.8650178E-01
        2   -1    0    0  501    0  0.00000000000E+00  0.00000000000E+00  0.10633579413E+04  0.10633579413E+04  0.25500000920E-02 0. -1.
       -2   -1    0    0    0  501  0.00000000000E+00  0.00000000000E+00 -0.85716958789E+03  0.85716958789E+03  0.25500000920E-02 0.  1.
    10030    2    1    2    0    0  0.00000000000E+00  0.00000000000E+00  0.20618835337E+03  0.19205275292E+04  0.19094272317E+04 0.  0.
        4    1    3    3  502    0 -0.25803666595E+03 -0.38939891389E+03  0.94055815372E+03  0.10501741230E+04  0.12699999809E+01 0. -1.
       -4    1    3    3    0  502  0.25803666595E+03  0.38939891389E+03 -0.73436980035E+03  0.87035340619E+03  0.12699999809E+01 0.  1.
</event>
<event>
 5   0  0.1101678E-04  0.1915009E+04  0.7818609E-02  0.8647421E-01
        2   -1    0    0  501    0  0.00000000000E+00  0.00000000000E+00  0.15720247813E+04  0.15720247813E+04  0.25500000920E-02 0. -1.
       -2   -1    0    0    0  501  0.00000000000E+00  0.00000000000E+00 -0.58320619240E+03  0.58320619241E+03  0.25500000920E-02 0.  1.
    10030    2    1    2    0    0  0.00000000000E+00  0.00000000000E+00  0.98881858888E+03  0.21552309737E+04  0.19150087071E+04 0.  0.
        4    1    3    3  502    0 -0.24839746965E+03  0.37734832967E+03  0.14445381595E+04  0.15135340010E+04  0.12699999809E+01 0. -1.
       -4    1    3    3    0  502  0.24839746965E+03 -0.37734832967E+03 -0.45571957065E+03  0.64169697273E+03  0.12699999809E+01 0.  1.
</event>
<event>
 5   0  0.5579109E-05  0.1922706E+04  0.7818609E-02  0.8643636E-01
        1   -1    0    0  501    0  0.00000000000E+00  0.00000000000E+00  0.11131073631E+04  0.11131073631E+04  0.50400001928E-02 0. -1.
       -1   -1    0    0    0  501  0.00000000000E+00  0.00000000000E+00 -0.83028810228E+03  0.83028810230E+03  0.50400001928E-02 0.  1.
    10030    2    1    2    0    0  0.00000000000E+00  0.00000000000E+00  0.28281926083E+03  0.19433954654E+04  0.19227062180E+04 0.  0.
        3    1    3    3  502    0  0.12747125320E+03 -0.29514918161E+03  0.10571596488E+04  0.11049653810E+04  0.10100000352E+00 0. -1.
       -3    1    3    3    0  502 -0.12747125320E+03  0.29514918161E+03 -0.77434038802E+03  0.83843008445E+03  0.10100000352E+00 0.  1.
</event>
<event>
 5   0  0.5841424E-05  0.1911842E+04  0.7818609E-02  0.8648984E-01
       -1   -1    0    0    0  501  0.00000000000E+00  0.00000000000E+00  0.49540026394E+03  0.49540026397E+03  0.50400001928E-02 0.  1.
        1   -1    0    0  501    0  0.00000000000E+00  0.00000000000E+00 -0.18445377614E+04  0.18445377614E+04  0.50400001928E-02 0. -1.
    10030    2    1    2    0    0  0.00000000000E+00  0.00000000000E+00 -0.13491374974E+04  0.23399380253E+04  0.19118415142E+04 0.  0.
        1    1    3    3  502    0 -0.91403232464E+03 -0.13345769518E+03 -0.37347873289E+03  0.99636961557E+03  0.50400001928E-02 0.  1.
       -1    1    3    3    0  502  0.91403232464E+03  0.13345769518E+03 -0.97565876454E+03  0.13435684098E+04  0.50400001928E-02 0. -1.
</event>
<event>
 5   0  0.5614989E-05  0.1908490E+04  0.7818609E-02  0.8650642E-01
       -1   -1    0    0    0  501  0.00000000000E+00  0.00000000000E+00  0.85145305477E+03  0.85145305478E+03  0.50400001928E-02 0. -1.
        1   -1    0    0  501    0  0.00000000000E+00  0.00000000000E+00 -0.10694461821E+04  0.10694461821E+04  0.50400001928E-02 0.  1.
    10030    2    1    2    0    0  0.00000000000E+00  0.00000000000E+00 -0.21799312734E+03  0.19208992369E+04  0.19084896842E+04 0.  0.
        4    1    3    3  502    0 -0.39765912464E+03 -0.86374604052E+03 -0.18946391255E+03  0.96958145041E+03  0.12699999809E+01 0. -1.
       -4    1    3    3    0  502  0.39765912464E+03  0.86374604052E+03 -0.28529214790E+02  0.95131778650E+03  0.12699999809E+01 0.  1.
</event>
<event>
 5   0  0.1118206E-04  0.1891529E+04  0.7818609E-02  0.8659085E-01
        2   -1    0    0  501    0  0.00000000000E+00  0.00000000000E+00  0.10128932785E+04  0.10128932785E+04  0.25500000920E-02 0.  1.
       -2   -1    0    0    0  501  0.00000000000E+00  0.00000000000E+00 -0.88308431604E+03  0.88308431604E+03  0.25500000920E-02 0. -1.
    10030    2    1    2    0    0  0.00000000000E+00  0.00000000000E+00  0.12980896245E+03  0.18959775945E+04  0.18915286602E+04 0.  0.
        1    1    3    3  502    0  0.54211707270E+03 -0.76455136127E+03 -0.62044357236E+02  0.93929718770E+03  0.50400001928E-02 0. -1.
       -1    1    3    3    0  502 -0.54211707270E+03  0.76455136127E+03  0.19185331969E+03  0.95668040684E+03  0.50400001928E-02 0.  1.
</event>
<event>
 5   0  0.1101678E-04  0.1903841E+04  0.7818609E-02  0.8652947E-01
        2   -1    0    0  501    0  0.00000000000E+00  0.00000000000E+00  0.10027874619E+04  0.10027874619E+04  0.25500000920E-02 0. -1.
       -2   -1    0    0    0  501  0.00000000000E+00  0.00000000000E+00 -0.90363348764E+03  0.90363348765E+03  0.25500000920E-02 0.  1.
    10030    2    1    2    0    0  0.00000000000E+00  0.00000000000E+00  0.99153974260E+02  0.19064209496E+04  0.19038406778E+04 0.  0.
        4    1    3    3  502    0 -0.46729324293E+03  0.77296768802E+02  0.87641574130E+03  0.99621480106E+03  0.12699999809E+01 0. -1.
       -4    1    3    3    0  502  0.46729324293E+03 -0.77296768802E+02 -0.77726176704E+03  0.91020614849E+03  0.12699999809E+01 0.  1.
</event>
<event>
 5   0  0.5628936E-05  0.1895944E+04  0.7818609E-02  0.8656878E-01
        1   -1    0    0  501    0  0.00000000000E+00  0.00000000000E+00  0.11777137743E+04  0.11777137743E+04  0.50400001928E-02 0. -1.
       -1   -1    0    0    0  501  0.00000000000E+00  0.00000000000E+00 -0.76304668351E+03  0.76304668353E+03  0.50400001928E-02 0.  1.
    10030    2    1    2    0    0  0.00000000000E+00  0.00000000000E+00  0.41466709079E+03  0.19407604578E+04  0.18959436591E+04 0.  0.
        5    1    3    3  502    0  0.17346421612E+02 -0.88800666657E+03 -0.13181645670E+03  0.89791670353E+03  0.46999998093E+01 0.  1.
       -5    1    3    3    0  502 -0.17346421612E+02  0.88800666657E+03  0.54648354749E+03  0.10428437543E+04  0.46999998093E+01 0. -1.
</event>
<event>
 5   0  0.1118206E-04  0.1892714E+04  0.7818609E-02  0.8658492E-01
        2   -1    0    0  501    0  0.00000000000E+00  0.00000000000E+00  0.12856352228E+04  0.12856352228E+04  0.25500000920E-02 0. -1.
       -2   -1    0    0    0  501  0.00000000000E+00  0.00000000000E+00 -0.69661375978E+03  0.69661375978E+03  0.25500000920E-02 0.  1.
    10030    2    1    2    0    0  0.00000000000E+00  0.00000000000E+00  0.58902146303E+03  0.19822489826E+04  0.18927135930E+04 0.  0.
        1    1    3    3  502    0  0.36973486512E+03  0.27008130695E+03  0.11619067902E+04  0.12488695576E+04  0.50400001928E-02 0. -1.
       -1    1    3    3    0  502 -0.36973486512E+03 -0.27008130695E+03 -0.57288532716E+03  0.73337942496E+03  0.50400001928E-02 0.  1.
</event>
<event>
 5   0  0.5579109E-05  0.1897047E+04  0.7818609E-02  0.8656328E-01
       -1   -1    0    0    0  501  0.00000000000E+00  0.00000000000E+00  0.83055939526E+03  0.83055939528E+03  0.50400001928E-02 0.  1.
        1   -1    0    0  501    0  0.00000000000E+00  0.00000000000E+00 -0.10832415150E+04  0.10832415150E+04  0.50400001928E-02 0. -1.
    10030    2    1    2    0    0  0.00000000000E+00  0.00000000000E+00 -0.25268211970E+03  0.19138009103E+04  0.18970465652E+04 0.  0.
        3    1    3    3  502    0  0.46460619052E+03  0.81287971347E+03  0.26868797095E+02  0.93667191871E+03  0.10100000352E+00 0. -1.
       -3    1    3    3    0  502 -0.46460619052E+03 -0.81287971347E+03 -0.27955091680E+03  0.97712899155E+03  0.10100000352E+00 0.  1.
</event>
<event>
 5   0  0.4061125E-05  0.1853903E+04  0.7818609E-02  0.8678148E-01
       -3   -1    0    0    0  501  0.00000000000E+00  0.00000000000E+00  0.66493426612E+03  0.66493427379E+03  0.10100000352E+00 0. -1.
        3   -1    0    0  501    0  0.00000000000E+00  0.00000000000E+00 -0.12922164947E+04  0.12922164987E+04  0.10100000352E+00 0.  1.
    10030    2    1    2    0    0  0.00000000000E+00  0.00000000000E+00 -0.62728222860E+03  0.19571507725E+04  0.18539029510E+04 0.  0.
        3    1    3    3  502    0 -0.14194130306E+03  0.57456274429E+03  0.43951169711E+03  0.73718398160E+03  0.10100000352E+00 0. -1.
       -3    1    3    3    0  502  0.14194130306E+03 -0.57456274429E+03 -0.10667939257E+04  0.12199667909E+04  0.10100000352E+00 0.  1.
</event>
<event>
 5   0  0.5628936E-05  0.1862581E+04  0.7818609E-02  0.8673709E-01
        1   -1    0    0  501    0  0.00000000000E+00  0.00000000000E+00  0.18637540406E+04  0.18637540407E+04  0.50400001928E-02 0.  1.
       -1   -1    0    0    0  501  0.00000000000E+00  0.00000000000E+00 -0.46535237972E+03  0.46535237975E+03  0.50400001928E-02 0. -1.
    10030    2    1    2    0    0  0.00000000000E+00  0.00000000000E+00  0.13984016609E+04  0.23291064204E+04  0.18625814109E+04 0.  0.
        5    1    3    3  502    0 -0.46499694246E+03 -0.89178515433E+01 -0.30972078236E+03  0.55879400283E+03  0.46999998093E+01 0. -1.
       -5    1    3    3    0  502  0.46499694246E+03  0.89178515433E+01  0.17081224433E+04  0.17703124176E+04  0.46999998093E+01 0.  1.
</event>
<event>
 5   0  0.4061125E-05  0.1901413E+04  0.7818609E-02  0.8654154E-01
       -4   -1    0    0    0  501  0.00000000000E+00  0.00000000000E+00  0.15621206335E+04  0.15621211498E+04  0.12699999809E+01 0. -1.
        4   -1    0    0  501    0  0.00000000000E+00  0.00000000000E+00 -0.57859829579E+03  0.57859968959E+03  0.12699999809E+01 0.  1.
    10030    2    1    2    0    0  0.00000000000E+00  0.00000000000E+00  0.98352233773E+03  0.21407208394E+04  0.19014125074E+04 0.  0.
        4    1    3    3  502    0  0.40229454318E+03  0.45823473760E+03 -0.32943704077E+03  0.69307312092E+03  0.12699999809E+01 0. -1.
       -4    1    3    3    0  502 -0.40229454318E+03 -0.45823473760E+03  0.13129593785E+04  0.14476477184E+04  0.12699999809E+01 0.  1.
</event>
<event>
 5   0  0.1182630E-04  0.1904949E+04  0.7818609E-02  0.8652397E-01
        2   -1    0    0  501    0  0.00000000000E+00  0.00000000000E+00  0.19728123942E+04  0.19728123942E+04  0.25500000920E-02 0.  1.
       -2   -1    0    0    0  501  0.00000000000E+00  0.00000000000E+00 -0.45985480867E+03  0.45985480868E+03  0.25500000920E-02 0. -1.
    10030    2    1    2    0    0  0.00000000000E+00  0.00000000000E+00  0.15129575855E+04  0.24326672029E+04  0.19049485726E+04 0.  0.
        5    1    3    3  502    0  0.43793551091E+03 -0.72616601221E+03  0.20265522854E+03  0.87189209233E+03  0.46999998093E+01 0. -1.
       -5    1    3    3    0  502 -0.43793551091E+03  0.72616601221E+03  0.13103023570E+04  0.15607751106E+04  0.46999998093E+01 0.  1.
</event>
<event>
 5   0  0.1101678E-04  0.1913968E+04  0.7818609E-02  0.8647935E-01
        2   -1    0    0  501    0  0.00000000000E+00  0.00000000000E+00  0.87210586788E+03  0.87210586788E+03  0.25500000920E-02 0.  1.
       -2   -1    0    0    0  501  0.00000000000E+00  0.00000000000E+00 -0.10501231846E+04  0.10501231846E+04  0.25500000920E-02 0. -1.
    10030    2    1    2    0    0  0.00000000000E+00  0.00000000000E+00 -0.17801731673E+03  0.19222290525E+04  0.19139682247E+04 0.  0.
        4    1    3    3  502    0 -0.50621706579E+03  0.64152345737E+03  0.41114570166E+03  0.91479531314E+03  0.12699999809E+01 0. -1.
       -4    1    3    3    0  502  0.50621706579E+03 -0.64152345737E+03 -0.58916301839E+03  0.10074337394E+04  0.12699999809E+01 0.  1.
</event>
<event>
 5   0  0.5841424E-05  0.1903774E+04  0.7818609E-02  0.8652980E-01
       -1   -1    0    0    0  501  0.00000000000E+00  0.00000000000E+00  0.12789739979E+04  0.12789739979E+04  0.50400001928E-02 0. -1.
        1   -1    0    0  501    0  0.00000000000E+00  0.00000000000E+00 -0.70844977801E+03  0.70844977803E+03  0.50400001928E-02 0.  1.
    10030    2    1    2    0    0  0.00000000000E+00  0.00000000000E+00  0.57052421991E+03  0.19874237760E+04  0.19037739834E+04 0.  0.
        1    1    3    3  502    0  0.31155456480E+03 -0.38905245152E+03  0.11318578285E+04  0.12367417680E+04  0.50400001928E-02 0. -1.
       -1    1    3    3    0  502 -0.31155456480E+03  0.38905245152E+03 -0.56133360857E+03  0.75068200792E+03  0.50400001928E-02 0.  1.
</event>
<event>
 5   0  0.1182630E-04  0.1845525E+04  0.7818609E-02  0.8682457E-01
       -2   -1    0    0    0  501  0.00000000000E+00  0.00000000000E+00  0.45633636650E+03  0.45633636651E+03  0.25500000920E-02 0. -1.
        2   -1    0    0  501    0  0.00000000000E+00  0.00000000000E+00 -0.18659279603E+04  0.18659279603E+04  0.25500000920E-02 0.  1.
    10030    2    1    2    0    0  0.00000000000E+00  0.00000000000E+00 -0.14095915938E+04  0.23222643268E+04  0.18455251671E+04 0.  0.
        5    1    3    3  502    0  0.80308497106E+02 -0.74165772208E+03 -0.13881966192E+04  0.15759497374E+04  0.46999998093E+01 0.  1.
       -5    1    3    3    0  502 -0.80308497106E+02  0.74165772208E+03 -0.21394974649E+02  0.74631458941E+03  0.46999998093E+01 0. -1.
</event>
<event>
 5   0  0.5628936E-05  0.1914740E+04  0.7818609E-02  0.8647554E-01
        1   -1    0    0  501    0  0.00000000000E+00  0.00000000000E+00  0.16279901892E+04  0.16279901892E+04  0.50400001928E-02 0.  1.
       -1   -1    0    0    0  501  0.00000000000E+00  0.00000000000E+00 -0.56299937220E+03  0.56299937223E+03  0.50400001928E-02 0. -1.
    10030    2    1    2    0    0  0.00000000000E+00  0.00000000000E+00  0.10649908170E+04  0.21909895614E+04  0.19147401437E+04 0.  0.
        5    1    3    3  502    0 -0.28039502494E+03  0.75055301457E+03  0.11321045031E+04  0.13869512946E+04  0.46999998093E+01 0.  1.
       -5    1    3    3    0  502  0.28039502494E+03 -0.75055301457E+03 -0.67113686076E+02  0.80403826684E+03  0.46999998093E+01 0. -1.
</event>
<event>
 5   0  0.1133638E-04  0.1946029E+04  0.7818609E-02  0.8632278E-01
       -2   -1    0    0    0  501  0.00000000000E+00  0.00000000000E+00  0.70098589646E+03  0.70098589646E+03  0.25500000920E-02 0.  1.
        2   -1    0    0  501    0  0.00000000000E+00  0.00000000000E+00 -0.13506084976E+04  0.13506084976E+04  0.25500000920E-02 0. -1.
    10030    2    1    2    0    0  0.00000000000E+00  0.00000000000E+00 -0.64962260118E+03  0.20515943941E+04  0.19460292994E+04 0.  0.
        3    1    3    3  502    0  0.35074421277E+03  0.87894592398E+03 -0.86285731510E+02  0.95026979208E+03  0.10100000352E+00 0.  1.
       -3    1    3    3    0  502 -0.35074421277E+03 -0.87894592398E+03 -0.56333686967E+03  0.11013246020E+04  0.10100000352E+00 0. -1.
</event>
<event>
 5   0  0.1182630E-04  0.1893836E+04  0.7818609E-02  0.8657931E-01
        2   -1    0    0  501    0  0.00000000000E+00  0.00000000000E+00  0.10783110582E+04  0.10783110582E+04  0.25500000920E-02 0.  1.
       -2   -1    0    0    0  501  0.00000000000E+00  0.00000000000E+00 -0.83153485473E+03  0.83153485473E+03  0.25500000920E-02 0. -1.
    10030    2    1    2    0    0  0.00000000000E+00  0.00000000000E+00  0.24677620345E+03  0.19098459129E+04  0.18938355041E+04 0.  0.
        5    1    3    3  502    0 -0.17134874971E+03  0.69517257972E+03 -0.50153270423E+03  0.87417529880E+03  0.46999998093E+01 0. -1.
       -5    1    3    3    0  502  0.17134874971E+03 -0.69517257972E+03  0.74830890768E+03  0.10356706141E+04  0.46999998093E+01 0.  1.
</event>
<event>
 5   0  0.5614989E-05  0.2044766E+04  0.7818609E-02  0.8585972E-01
       -1   -1    0    0    0  501  0.00000000000E+00  0.00000000000E+00  0.49404907446E+03  0.49404907449E+03  0.50400001928E-02 0.  1.
        1   -1    0    0  501    0  0.00000000000E+00  0.00000000000E+00 -0.21157157593E+04  0.21157157593E+04  0.50400001928E-02 0. -1.
    10030    2    1    2    0    0  0.00000000000E+00  0.00000000000E+00 -0.16216666848E+04  0.26097648338E+04  0.20447664050E+04 0.  0.
        4    1    3    3  502    0 -0.51610724483E+03 -0.50301932485E+03  0.11471082502E+03  0.72976387662E+03  0.12699999809E+01 0.  1.
       -4    1    3    3    0  502  0.51610724483E+03  0.50301932485E+03 -0.17363775098E+04  0.18800009571E+04  0.12699999809E+01 0. -1.
</event>
<event>
 5   0  0.1133638E-04  0.2012083E+04  0.7818609E-02  0.8600992E-01
       -2   -1    0    0    0  501  0.00000000000E+00  0.00000000000E+00  0.98767110607E+03  0.98767110607E+03  0.25500000920E-02 0. -1.
        2   -1    0    0  501    0  0.00000000000E+00  0.00000000000E+00 -0.10247539594E+04  0.10247539594E+04  0.25500000920E-02 0.  1.
    10030    2    1    2    0    0  0.00000000000E+00  0.00000000000E+00 -0.37082853338E+02  0.20124250655E+04  0.20120833746E+04 0.  0.
        3    1    3    3  502    0 -0.61545296105E+02  0.70685999163E+03 -0.73188130194E+03  0.10193572100E+04  0.10100000352E+00 0.  1.
       -3    1    3    3    0  502  0.61545296105E+02 -0.70685999163E+03  0.69479844860E+03  0.99306785549E+03  0.10100000352E+00 0. -1.
</event>
<event>
 5   0  0.1141890E-04  0.1848565E+04  0.7818609E-02  0.8680891E-01
        2   -1    0    0  501    0  0.00000000000E+00  0.00000000000E+00  0.12335304812E+04  0.12335304812E+04  0.25500000920E-02 0.  1.
       -2   -1    0    0    0  501  0.00000000000E+00  0.00000000000E+00 -0.69256323359E+03  0.69256323359E+03  0.25500000920E-02 0. -1.
    10030    2    1    2    0    0  0.00000000000E+00  0.00000000000E+00  0.54096724760E+03  0.19260937148E+04  0.18485646960E+04 0.  0.
        2    1    3    3  502    0  0.51550030920E+03 -0.71392593850E+03 -0.22127304607E+02  0.88086345824E+03  0.25500000920E-02 0.  1.
       -2    1    3    3    0  502 -0.51550030920E+03  0.71392593850E+03  0.56309455220E+03  0.10452302565E+04  0.25500000920E-02 0. -1.
</event>
<event>
 5   0  0.1101678E-04  0.1897633E+04  0.7818609E-02  0.8656035E-01
        2   -1    0    0  501    0  0.00000000000E+00  0.00000000000E+00  0.17006346354E+04  0.17006346354E+04  0.25500000920E-02 0. -1.
       -2   -1    0    0    0  501  0.00000000000E+00  0.00000000000E+00 -0.52936301464E+03  0.52936301465E+03  0.25500000920E-02 0.  1.
    10030    2    1    2    0    0  0.00000000000E+00  0.00000000000E+00  0.11712716207E+04  0.22299976500E+04  0.18976333443E+04 0.  0.
        4    1    3    3  502    0  0.85242134578E+03 -0.20423420918E+03  0.15881691221E+03  0.89081882976E+03  0.12699999809E+01 0.  1.
       -4    1    3    3    0  502 -0.85242134578E+03  0.20423420918E+03  0.10124547085E+04  0.13391788203E+04  0.12699999809E+01 0. -1.
</event>
<event>
 5   0  0.1133638E-04  0.1909341E+04  0.7818609E-02  0.8650221E-01
       -2   -1    0    0    0  501  0.00000000000E+00  0.00000000000E+00  0.55155590841E+03  0.55155590842E+03  0.25500000920E-02 0.  1.
        2   -1    0    0  501    0  0.00000000000E+00  0.00000000000E+00 -0.16524090761E+04  0.16524090761E+04  0.25500000920E-02 0. -1.
    10030    2    1    2    0    0  0.00000000000E+00  0.00000000000E+00 -0.11008531677E+04  0.22039649845E+04  0.19093412362E+04 0.  0.
        3    1    3    3  502    0 -0.37136008156E+03 -0.80836421362E+03 -0.15050483162E+03  0.90222653840E+03  0.10100000352E+00 0.  1.
       -3    1    3    3    0  502  0.37136008156E+03  0.80836421362E+03 -0.95034833604E+03  0.13017384461E+04  0.10100000352E+00 0. -1.
</event>
<event>
 5   0  0.1118206E-04  0.1885014E+04  0.7818609E-02  0.8662352E-01
        2   -1    0    0  501    0  0.00000000000E+00  0.00000000000E+00  0.77790915189E+03  0.77790915190E+03  0.25500000920E-02 0.  1.
       -2   -1    0    0    0  501  0.00000000000E+00  0.00000000000E+00 -0.11419325404E+04  0.11419325404E+04  0.25500000920E-02 0. -1.
    10030    2    1    2    0    0  0.00000000000E+00  0.00000000000E+00 -0.36402338853E+03  0.19198416923E+04  0.18850143491E+04 0.  0.
        1    1    3    3  502    0  0.30908538022E+03 -0.44581738835E+03  0.60296360727E+03  0.81108077757E+03  0.50400001928E-02 0.  1.
       -1    1    3    3    0  502 -0.30908538022E+03  0.44581738835E+03 -0.96698699580E+03  0.11087609148E+04  0.50400001928E-02 0. -1.
</event>
<event>
 5   0  0.1118206E-04  0.1869216E+04  0.7818609E-02  0.8670333E-01
       -2   -1    0    0    0  501  0.00000000000E+00  0.00000000000E+00  0.12057377800E+04  0.12057377800E+04  0.25500000920E-02 0.  1.
        2   -1    0    0  501    0  0.00000000000E+00  0.00000000000E+00 -0.72444580887E+03  0.72444580887E+03  0.25500000920E-02 0. -1.
    10030    2    1    2    0    0  0.00000000000E+00  0.00000000000E+00  0.48129197109E+03  0.19301835888E+04  0.18692155374E+04 0.  0.
        1    1    3    3  502    0  0.19108361312E+03  0.29058524825E+03 -0.65513889362E+03  0.74172751308E+03  0.50400001928E-02 0. -1.
       -1    1    3    3    0  502 -0.19108361312E+03 -0.29058524825E+03  0.11364308647E+04  0.11884560758E+04  0.50400001928E-02 0.  1.
</event>
<event>
 5   0  0.5841424E-05  0.1893496E+04  0.7818609E-02  0.8658101E-01
       -1   -1    0    0    0  501  0.00000000000E+00  0.00000000000E+00  0.80597628898E+03  0.80597628900E+03  0.50400001928E-02 0. -1.
        1   -1    0    0  501    0  0.00000000000E+00  0.00000000000E+00 -0.11121070734E+04  0.11121070734E+04  0.50400001928E-02 0.  1.
    10030    2    1    2    0    0  0.00000000000E+00  0.00000000000E+00 -0.30613078438E+03  0.19180833624E+04  0.18934961653E+04 0.  0.
        1    1    3    3  502    0  0.89467525411E+02  0.21293705961E+03 -0.10831298531E+04  0.11074822383E+04  0.50400001928E-02 0.  1.
       -1    1    3    3    0  502 -0.89467525411E+02 -0.21293705961E+03  0.77699906874E+03  0.81060112405E+03  0.50400001928E-02 0. -1.
</event>
<event>
 5   0  0.5824956E-05  0.1888214E+04  0.7818609E-02  0.8660745E-01
        1   -1    0    0  501    0  0.00000000000E+00  0.00000000000E+00  0.10925723837E+04  0.10925723837E+04  0.50400001928E-02 0. -1.
       -1   -1    0    0    0  501  0.00000000000E+00  0.00000000000E+00 -0.81581611000E+03  0.81581611001E+03  0.50400001928E-02 0.  1.
    10030    2    1    2    0    0  0.00000000000E+00  0.00000000000E+00  0.27675627365E+03  0.19083884937E+04  0.18882141319E+04 0.  0.
        2    1    3    3  502    0 -0.22739245131E+03  0.21938962230E+03  0.10375459162E+04  0.10845923942E+04  0.25500000920E-02 0. -1.
       -2    1    3    3    0  502  0.22739245131E+03 -0.21938962230E+03 -0.76078964256E+03  0.82379609948E+03  0.25500000920E-02 0.  1.
</event>
<event>
 5   0  0.1118206E-04  0.1896996E+04  0.7818609E-02  0.8656353E-01
       -2   -1    0    0    0  501  0.00000000000E+00  0.00000000000E+00  0.42498013287E+03  0.42498013288E+03  0.25500000920E-02 0.  1.
        2   -1    0    0  501    0  0.00000000000E+00  0.00000000000E+00 -0.21169198559E+04  0.21169198559E+04  0.25500000920E-02 0. -1.
    10030    2    1    2    0    0  0.00000000000E+00  0.00000000000E+00 -0.16919397230E+04  0.25418999888E+04  0.18969964488E+04 0.  0.
        1    1    3    3  502    0  0.47326494524E+03 -0.13316216692E+01 -0.19474037232E+04  0.20040865108E+04  0.50400001928E-02 0. -1.
       -1    1    3    3    0  502 -0.47326494524E+03  0.13316216692E+01  0.25546400022E+03  0.53781347793E+03  0.50400001928E-02 0.  1.
</event>
<event>
 5   0  0.5628936E-05  0.1889297E+04  0.7818609E-02  0.8660202E-01
        1   -1    0    0  501    0  0.00000000000E+00  0.00000000000E+00  0.18463316945E+04  0.18463316945E+04  0.50400001928E-02 0. -1.
       -1   -1    0    0    0  501  0.00000000000E+00  0.00000000000E+00 -0.48331553359E+03  0.48331553362E+03  0.50400001928E-02 0.  1.
    10030    2    1    2    0    0  0.00000000000E+00  0.00000000000E+00  0.13630161609E+04  0.23296472281E+04  0.18892969996E+04 0.  0.
        5    1    3    3  502    0 -0.66369734904E+03 -0.50108352665E+03  0.12901310492E+03  0.84157313588E+03  0.46999998093E+01 0.  1.
       -5    1    3    3    0  502  0.66369734904E+03  0.50108352665E+03  0.12340030560E+04  0.14880740922E+04  0.46999998093E+01 0. -1.
</event>
<event>
 5   0  0.1182630E-04  0.1892694E+04  0.7818609E-02  0.8658501E-01
        2   -1    0    0  501    0  0.00000000000E+00  0.00000000000E+00  0.13723431280E+04  0.13723431280E+04  0.25500000920E-02 0. -1.
       -2   -1    0    0    0  501  0.00000000000E+00  0.00000000000E+00 -0.65258675626E+03  0.65258675626E+03  0.25500000920E-02 0.  1.
    10030    2    1    2    0    0  0.00000000000E+00  0.00000000000E+00  0.71975637172E+03  0.20249298842E+04  0.18926943233E+04 0.  0.
        5    1    3    3  502    0 -0.23292226553E+03  0.91712456764E+03  0.34550028061E+03  0.10073543509E+04  0.46999998093E+01 0.  1.
       -5    1    3    3    0  502  0.23292226553E+03 -0.91712456764E+03  0.37425609111E+03  0.10175755334E+04  0.46999998093E+01 0. -1.
</event>
<event>
 5   0  0.5579109E-05  0.1900660E+04  0.7818609E-02  0.8654528E-01
        1   -1    0    0  501    0  0.00000000000E+00  0.00000000000E+00  0.10252944934E+04  0.10252944934E+04  0.50400001928E-02 0.  1.
       -1   -1    0    0    0  501  0.00000000000E+00  0.00000000000E+00 -0.88084620831E+03  0.88084620832E+03  0.50400001928E-02 0. -1.
    10030    2    1    2    0    0  0.00000000000E+00  0.00000000000E+00  0.14444828512E+03  0.19061407018E+04  0.19006596402E+04 0.  0.
        3    1    3    3  502    0  0.15812857130E+03  0.37696240998E+03  0.93261510271E+03  0.10182712034E+04  0.10100000352E+00 0.  1.
       -3    1    3    3    0  502 -0.15812857130E+03 -0.37696240998E+03 -0.78816681760E+03  0.88786949839E+03  0.10100000352E+00 0. -1.
</event>
<event>
 5   0  0.1141890E-04  0.1904111E+04  0.7818609E-02  0.8652813E-01
       -2   -1    0    0    0  501  0.00000000000E+00  0.00000000000E+00  0.10813541431E+04  0.10813541431E+04  0.25500000920E-02 0. -1.
        2   -1    0    0  501    0  0.00000000000E+00  0.00000000000E+00 -0.83821760166E+03  0.83821760166E+03  0.25500000920E-02 0.  1.
    10030    2    1    2    0    0  0.00000000000E+00  0.00000000000E+00  0.24313654147E+03  0.19195717448E+04  0.19041114215E+04 0.  0.
        2    1    3    3  502    0 -0.63307703680E+03  0.65618527989E+03  0.39773489683E+03  0.99476565292E+03  0.25500000920E-02 0. -1.
       -2    1    3    3    0  502  0.63307703680E+03 -0.65618527989E+03 -0.15459835536E+03  0.92480609187E+03  0.25500000920E-02 0.  1.
</event>
<event>
 5   0  0.5614989E-05  0.1902752E+04  0.7818609E-02  0.8653488E-01
       -1   -1    0    0    0  501  0.00000000000E+00  0.00000000000E+00  0.10773822072E+04  0.10773822072E+04  0.50400001928E-02 0. -1.
        1   -1    0    0  501    0  0.00000000000E+00  0.00000000000E+00 -0.84010660828E+03  0.84010660830E+03  0.50400001928E-02 0.  1.
    10030    2    1    2    0    0  0.00000000000E+00  0.00000000000E+00  0.23727559894E+03  0.19174888155E+04  0.19027515991E+04 0.  0.
        4    1    3    3  502    0  0.62441358848E+03  0.24048668511E+01 -0.60470721597E+03  0.86923560835E+03  0.12699999809E+01 0.  1.
       -4    1    3    3    0  502 -0.62441358848E+03 -0.24048668511E+01  0.84198281492E+03  0.10482532072E+04  0.12699999809E+01 0. -1.
</event>
<event>
 5   0  0.5628936E-05  0.1891685E+04  0.7818609E-02  0.8659006E-01
       -1   -1    0    0    0  501  0.00000000000E+00  0.00000000000E+00  0.64627122336E+03  0.64627122338E+03  0.50400001928E-02 0.  1.
        1   -1    0    0  501    0  0.00000000000E+00  0.00000000000E+00 -0.13842765500E+04  0.13842765501E+04  0.50400001928E-02 0. -1.
    10030    2    1    2    0    0  0.00000000000E+00  0.00000000000E+00 -0.73800532668E+03  0.20305477734E+04  0.18916850684E+04 0.  0.
        5    1    3    3  502    0  0.57162173644E+03 -0.56138446698E+03  0.17058273800E+03  0.81916084491E+03  0.46999998093E+01 0.  1.
       -5    1    3    3    0  502 -0.57162173644E+03  0.56138446698E+03 -0.90858806468E+03  0.12113869285E+04  0.46999998093E+01 0. -1.
</event>
<event>
 5   0  0.5579109E-05  0.1902268E+04  0.7818609E-02  0.8653728E-01
        1   -1    0    0  501    0  0.00000000000E+00  0.00000000000E+00  0.68721645181E+03  0.68721645183E+03  0.50400001928E-02 0. -1.
       -1   -1    0    0    0  501  0.00000000000E+00  0.00000000000E+00 -0.13164059896E+04  0.13164059896E+04  0.50400001928E-02 0.  1.
    10030    2    1    2    0    0  0.00000000000E+00  0.00000000000E+00 -0.62918953774E+03  0.20036224414E+04  0.19022679657E+04 0.  0.
        3    1    3    3  502    0 -0.84265918195E+03 -0.77876945343E+02  0.14272387682E+03  0.85820127636E+03  0.10100000352E+00 0.  1.
       -3    1    3    3    0  502  0.84265918195E+03  0.77876945343E+02 -0.77191341456E+03  0.11454211650E+04  0.10100000352E+00 0. -1.
</event>
<event>
 5   0  0.5824956E-05  0.1880361E+04  0.7818609E-02  0.8664694E-01
        1   -1    0    0  501    0  0.00000000000E+00  0.00000000000E+00  0.12788077874E+04  0.12788077874E+04  0.50400001928E-02 0.  1.
       -1   -1    0    0    0  501  0.00000000000E+00  0.00000000000E+00 -0.69122118027E+03  0.69122118029E+03  0.50400001928E-02 0. -1.
    10030    2    1    2    0    0  0.00000000000E+00  0.00000000000E+00  0.58758660711E+03  0.19700289677E+04  0.18803606337E+04 0.  0.
        2    1    3    3  502    0 -0.84933722876E+03 -0.34888446751E+03  0.50553214425E+03  0.10481683303E+04  0.25500000920E-02 0. -1.
       -2    1    3    3    0  502  0.84933722876E+03  0.34888446751E+03  0.82054462858E+02  0.92186063736E+03  0.25500000920E-02 0.  1.
</event>
<event>
 5   0  0.1133638E-04  0.1897166E+04  0.7818609E-02  0.8656268E-01
       -2   -1    0    0    0  501  0.00000000000E+00  0.00000000000E+00  0.55770288301E+03  0.55770288301E+03  0.25500000920E-02 0. -1.
        2   -1    0    0  501    0  0.00000000000E+00  0.00000000000E+00 -0.16134215254E+04  0.16134215254E+04  0.25500000920E-02 0.  1.
    10030    2    1    2    0    0  0.00000000000E+00  0.00000000000E+00 -0.10557186424E+04  0.21711244084E+04  0.18971661353E+04 0.  0.
        3    1    3    3  502    0 -0.92137659522E+03 -0.20308302256E+03 -0.64017591780E+03  0.11401766355E+04  0.10100000352E+00 0. -1.
       -3    1    3    3    0  502  0.92137659522E+03  0.20308302256E+03 -0.41554272460E+03  0.10309477729E+04  0.10100000352E+00 0.  1.
</event>
<event>
 5   0  0.1118206E-04  0.1879875E+04  0.7818609E-02  0.8664939E-01
       -2   -1    0    0    0  501  0.00000000000E+00  0.00000000000E+00  0.10029528771E+04  0.10029528771E+04  0.25500000920E-02 0.  1.
        2   -1    0    0  501    0  0.00000000000E+00  0.00000000000E+00 -0.88088139265E+03  0.88088139265E+03  0.25500000920E-02 0. -1.
    10030    2    1    2    0    0  0.00000000000E+00  0.00000000000E+00  0.12207148443E+03  0.18838342697E+04  0.18798750247E+04 0.  0.
        1    1    3    3  502    0 -0.53604099700E+03  0.34256376024E+03 -0.63237002752E+03  0.89698480033E+03  0.50400001928E-02 0. -1.
       -1    1    3    3    0  502  0.53604099700E+03 -0.34256376024E+03  0.75444151194E+03  0.98684946940E+03  0.50400001928E-02 0.  1.
</event>
<event>
 5   0  0.5824956E-05  0.1883909E+04  0.7818609E-02  0.8662907E-01
       -1   -1    0    0    0  501  0.00000000000E+00  0.00000000000E+00  0.54277704529E+03  0.54277704532E+03  0.50400001928E-02 0. -1.
        1   -1    0    0  501    0  0.00000000000E+00  0.00000000000E+00 -0.16347016993E+04  0.16347016993E+04  0.50400001928E-02 0.  1.
    10030    2    1    2    0    0  0.00000000000E+00  0.00000000000E+00 -0.10919246540E+04  0.21774787446E+04  0.18839092954E+04 0.  0.
        2    1    3    3  502    0 -0.45263307975E+03 -0.77157778148E+03 -0.20490517473E+03  0.91771188747E+03  0.25500000920E-02 0. -1.
       -2    1    3    3    0  502  0.45263307975E+03  0.77157778148E+03 -0.88701947929E+03  0.12597668572E+04  0.25500000920E-02 0.  1.
</event>
<event>
 5   0  0.5614989E-05  0.1879680E+04  0.7818609E-02  0.8665038E-01
        1   -1    0    0  501    0  0.00000000000E+00  0.00000000000E+00  0.18126638904E+04  0.18126638904E+04  0.50400001928E-02 0. -1.
       -1   -1    0    0    0  501  0.00000000000E+00  0.00000000000E+00 -0.48729327224E+03  0.48729327227E+03  0.50400001928E-02 0.  1.
    10030    2    1    2    0    0  0.00000000000E+00  0.00000000000E+00  0.13253706182E+04  0.22999571627E+04  0.18796796734E+04 0.  0.
        4    1    3    3  502    0  0.25699595898E+03  0.90312696176E+03  0.71181322694E+03  0.11782889777E+04  0.12699999809E+01 0. -1.
       -4    1    3    3    0  502 -0.25699595898E+03 -0.90312696176E+03  0.61355739122E+03  0.11216681850E+04  0.12699999809E+01 0.  1.
</event>
<event>
 5   0  0.5579109E-05  0.1890684E+04  0.7818609E-02  0.8659507E-01
        1   -1    0    0  501    0  0.00000000000E+00  0.00000000000E+00  0.11629535502E+04  0.11629535503E+04  0.50400001928E-02 0. -1.
       -1   -1    0    0    0  501  0.00000000000E+00  0.00000000000E+00 -0.76844984729E+03  0.76844984731E+03  0.50400001928E-02 0.  1.
    10030    2    1    2    0    0  0.00000000000E+00  0.00000000000E+00  0.39450370296E+03  0.19314033976E+04  0.18906839801E+04 0.  0.
        3    1    3    3  502    0  0.22321496211E+03 -0.40587294805E+03  0.10390835836E+04  0.11376521758E+04  0.10100000352E+00 0. -1.
       -3    1    3    3    0  502 -0.22321496211E+03  0.40587294805E+03 -0.64457988064E+03  0.79375122173E+03  0.10100000352E+00 0.  1.
</event>
<event>
 5   0  0.5614989E-05  0.1905247E+04  0.7818609E-02  0.8652249E-01
        1   -1    0    0  501    0  0.00000000000E+00  0.00000000000E+00  0.10729262671E+04  0.10729262671E+04  0.50400001928E-02 0. -1.
       -1   -1    0    0    0  501  0.00000000000E+00  0.00000000000E+00 -0.84580978665E+03  0.84580978667E+03  0.50400001928E-02 0.  1.
    10030    2    1    2    0    0  0.00000000000E+00  0.00000000000E+00  0.22711648047E+03  0.19187360538E+04  0.19052470046E+04 0.  0.
        4    1    3    3  502    0 -0.53341642885E+03  0.61085458143E+02 -0.67892179770E+03  0.86556394337E+03  0.12699999809E+01 0.  1.
       -4    1    3    3    0  502  0.53341642885E+03 -0.61085458143E+02  0.90603827817E+03  0.10531721104E+04  0.12699999809E+01 0. -1.
</event>
<event>
 5   0  0.1141890E-04  0.1900310E+04  0.7818609E-02  0.8654702E-01
        2   -1    0    0  501    0  0.00000000000E+00  0.00000000000E+00  0.20337303061E+04  0.20337303061E+04  0.25500000920E-02 0. -1.
       -2   -1    0    0    0  501  0.00000000000E+00  0.00000000000E+00 -0.44391043016E+03  0.44391043017E+03  0.25500000920E-02 0.  1.
    10030    2    1    2    0    0  0.00000000000E+00  0.00000000000E+00  0.15898198759E+04  0.24776407362E+04  0.19003095485E+04 0.  0.
        2    1    3    3  502    0 -0.44658326062E+03  0.62647834078E+03  0.67947397431E+02  0.77235261956E+03  0.25500000920E-02 0.  1.
       -2    1    3    3    0  502  0.44658326062E+03 -0.62647834078E+03  0.15218724785E+04  0.17052881167E+04  0.25500000920E-02 0. -1.
</event>
<event>
 5   0  0.1118206E-04  0.1942607E+04  0.7818609E-02  0.8633934E-01
       -2   -1    0    0    0  501  0.00000000000E+00  0.00000000000E+00  0.66022498021E+03  0.66022498021E+03  0.25500000920E-02 0. -1.
        2   -1    0    0  501    0  0.00000000000E+00  0.00000000000E+00 -0.14289529466E+04  0.14289529466E+04  0.25500000920E-02 0.  1.
    10030    2    1    2    0    0  0.00000000000E+00  0.00000000000E+00 -0.76872796639E+03  0.20891779268E+04  0.19426069401E+04 0.  0.
        1    1    3    3  502    0 -0.70287649766E+03  0.66971579607E+03 -0.35253695889E+03  0.10328779821E+04  0.50400001928E-02 0. -1.
       -1    1    3    3    0  502  0.70287649766E+03 -0.66971579607E+03 -0.41619100750E+03  0.10562999447E+04  0.50400001928E-02 0.  1.
</event>
<event>
 5   0  0.5841424E-05  0.1895495E+04  0.7818609E-02  0.8657102E-01
       -1   -1    0    0    0  501  0.00000000000E+00  0.00000000000E+00  0.18841485090E+04  0.18841485090E+04  0.50400001928E-02 0. -1.
        1   -1    0    0  501    0  0.00000000000E+00  0.00000000000E+00 -0.47672745960E+03  0.47672745963E+03  0.50400001928E-02 0.  1.
    10030    2    1    2    0    0  0.00000000000E+00  0.00000000000E+00  0.14074210494E+04  0.23608759686E+04  0.18954950089E+04 0.  0.
        1    1    3    3  502    0 -0.74329682565E+01  0.23997821936E+03 -0.43822133909E+03  0.49968263612E+03  0.50400001928E-02 0.  1.
       -1    1    3    3    0  502  0.74329682565E+01 -0.23997821936E+03  0.18456423885E+04  0.18611933325E+04  0.50400001928E-02 0. -1.
</event>
<event>
 5   0  0.1141890E-04  0.1896860E+04  0.7818609E-02  0.8656421E-01
       -2   -1    0    0    0  501  0.00000000000E+00  0.00000000000E+00  0.81191008321E+03  0.81191008321E+03  0.25500000920E-02 0.  1.
        2   -1    0    0  501    0  0.00000000000E+00  0.00000000000E+00 -0.11079050017E+04  0.11079050017E+04  0.25500000920E-02 0. -1.
    10030    2    1    2    0    0  0.00000000000E+00  0.00000000000E+00 -0.29599491846E+03  0.19198150849E+04  0.18968597651E+04 0.  0.
        2    1    3    3  502    0 -0.64681110158E+02  0.29806130507E+03 -0.10569161400E+04  0.11000435966E+04  0.25500000920E-02 0. -1.
       -2    1    3    3    0  502  0.64681110158E+02 -0.29806130507E+03  0.76092122150E+03  0.81977148824E+03  0.25500000920E-02 0.  1.
</event>
<event>
 5   0  0.5579109E-05  0.1902879E+04  0.7818609E-02  0.8653424E-01
       -1   -1    0    0    0  501  0.00000000000E+00  0.00000000000E+00  0.73875288256E+03  0.73875288257E+03  0.50400001928E-02 0. -1.
        1   -1    0    0  501    0  0.00000000000E+00  0.00000000000E+00 -0.12253588889E+04  0.12253588889E+04  0.50400001928E-02 0.  1.
    10030    2    1    2    0    0  0.00000000000E+00  0.00000000000E+00 -0.48660600631E+03  0.19641117714E+04  0.19028793039E+04 0.  0.
        3    1    3    3  502    0  0.82380843009E+02  0.83710452711E+03  0.21564741367E+03  0.86835154737E+03  0.10100000352E+00 0. -1.
       -3    1    3    3    0  502 -0.82380843009E+02 -0.83710452711E+03 -0.70225341997E+03  0.10957602241E+04  0.10100000352E+00 0.  1.
</event>
<event>
 5   0  0.1118206E-04  0.1869243E+04  0.7818609E-02  0.8670319E-01
       -2   -1    0    0    0  501  0.00000000000E+00  0.00000000000E+00  0.72835616216E+03  0.72835616217E+03  0.25500000920E-02 0. -1.
        2   -1    0    0  501    0  0.00000000000E+00  0.00000000000E+00 -0.11993002200E+04  0.11993002200E+04  0.25500000920E-02 0.  1.
    10030    2    1    2    0    0  0.00000000000E+00  0.00000000000E+00 -0.47094405783E+03  0.19276563822E+04  0.18692433822E+04 0.  0.
        1    1    3    3  502    0 -0.90791748176E+03 -0.98673869913E+02 -0.44034323883E+03  0.10138800986E+04  0.50400001928E-02 0.  1.
       -1    1    3    3    0  502  0.90791748176E+03  0.98673869913E+02 -0.30600819006E+02  0.91377628358E+03  0.50400001928E-02 0. -1.
</event>
<event>
 5   0  0.5579109E-05  0.1831974E+04  0.7818609E-02  0.8689478E-01
        1   -1    0    0  501    0  0.00000000000E+00  0.00000000000E+00  0.93902511873E+03  0.93902511874E+03  0.50400001928E-02 0. -1.
       -1   -1    0    0    0  501  0.00000000000E+00  0.00000000000E+00 -0.89351414068E+03  0.89351414069E+03  0.50400001928E-02 0.  1.
    10030    2    1    2    0    0  0.00000000000E+00  0.00000000000E+00  0.45510978055E+02  0.18325392594E+04  0.18319740414E+04 0.  0.
        3    1    3    3  502    0 -0.26112367527E+03  0.52331870840E+03 -0.68243305554E+03  0.89875632395E+03  0.10100000352E+00 0.  1.
       -3    1    3    3    0  502  0.26112367527E+03 -0.52331870840E+03  0.72794403359E+03  0.93378293548E+03  0.10100000352E+00 0. -1.
</event>
<event>
 5   0  0.1182630E-04  0.1889556E+04  0.7818609E-02  0.8660072E-01
        2   -1    0    0  501    0  0.00000000000E+00  0.00000000000E+00  0.16570090914E+04  0.16570090914E+04  0.25500000920E-02 0.  1.
       -2   -1    0    0    0  501  0.00000000000E+00  0.00000000000E+00 -0.53868494825E+03  0.53868494826E+03  0.25500000920E-02 0. -1.
    10030    2    1    2    0    0  0.00000000000E+00  0.00000000000E+00  0.11183241431E+04  0.21956940396E+04  0.18895564100E+04 0.  0.
        5    1    3    3  502    0 -0.84057797393E+03  0.37503714167E+03  0.80664569597E+03  0.12238968734E+04  0.46999998093E+01 0.  1.
       -5    1    3    3    0  502  0.84057797393E+03 -0.37503714167E+03  0.31167844715E+03  0.97179716623E+03  0.46999998093E+01 0. -1.
</event>
<event>
 5   0  0.1118206E-04  0.1908554E+04  0.7818609E-02  0.8650610E-01
        2   -1    0    0  501    0  0.00000000000E+00  0.00000000000E+00  0.15525499339E+04  0.15525499339E+04  0.25500000920E-02 0.  1.
       -2   -1    0    0    0  501  0.00000000000E+00  0.00000000000E+00 -0.58654762500E+03  0.58654762501E+03  0.25500000920E-02 0. -1.
    10030    2    1    2    0    0  0.00000000000E+00  0.00000000000E+00  0.96600230887E+03  0.21390975589E+04  0.19085538781E+04 0.  0.
        1    1    3    3  502    0  0.69751641122E+03 -0.57669312856E+03  0.14389748099E+03  0.91641180346E+03  0.50400001928E-02 0. -1.
       -1    1    3    3    0  502 -0.69751641122E+03  0.57669312856E+03  0.82210482788E+03  0.12226857554E+04  0.50400001928E-02 0.  1.
</event>
<event>
 5   0  0.5824956E-05  0.1944105E+04  0.7818609E-02  0.8633209E-01
       -1   -1    0    0    0  501  0.00000000000E+00  0.00000000000E+00  0.64208814945E+03  0.64208814947E+03  0.50400001928E-02 0. -1.
        1   -1    0    0  501    0  0.00000000000E+00  0.00000000000E+00 -0.14715831942E+04  0.14715831942E+04  0.50400001928E-02 0.  1.
    10030    2    1    2    0    0  0.00000000000E+00  0.00000000000E+00 -0.82949504472E+03  0.21136713436E+04  0.19441050691E+04 0.  0.
        2    1    3    3  502    0  0.62246252444E+03 -0.71022711117E+03 -0.66505394460E+03  0.11550666184E+04  0.25500000920E-02 0.  1.
       -2    1    3    3    0  502 -0.62246252444E+03  0.71022711117E+03 -0.16444110011E+03  0.95860472521E+03  0.25500000920E-02 0. -1.
</event>
<event>
 5   0  0.1141890E-04  0.1904675E+04  0.7818609E-02  0.8652533E-01
       -2   -1    0    0    0  501  0.00000000000E+00  0.00000000000E+00  0.31201118519E+03  0.31201118520E+03  0.25500000920E-02 0.  1.
        2   -1    0    0  501    0  0.00000000000E+00  0.00000000000E+00 -0.29067762526E+04  0.29067762526E+04  0.25500000920E-02 0. -1.
    10030    2    1    2    0    0  0.00000000000E+00  0.00000000000E+00 -0.25947650674E+04  0.32187874378E+04  0.19046749893E+04 0.  0.
        2    1    3    3  502    0 -0.78657821641E+03  0.20669883004E+03 -0.21347425297E+04  0.22844157601E+04  0.25500000920E-02 0. -1.
       -2    1    3    3    0  502  0.78657821641E+03 -0.20669883004E+03 -0.46002253767E+03  0.93437167767E+03  0.25500000920E-02 0.  1.
</event>
<event>
 5   0  0.1118206E-04  0.1909811E+04  0.7818609E-02  0.8649988E-01
        2   -1    0    0  501    0  0.00000000000E+00  0.00000000000E+00  0.15626343791E+04  0.15626343791E+04  0.25500000920E-02 0.  1.
       -2   -1    0    0    0  501  0.00000000000E+00  0.00000000000E+00 -0.58353044970E+03  0.58353044970E+03  0.25500000920E-02 0. -1.
    10030    2    1    2    0    0  0.00000000000E+00  0.00000000000E+00  0.97910392939E+03  0.21461648288E+04  0.19098112388E+04 0.  0.
        1    1    3    3  502    0  0.45122923787E+03  0.36195774989E+03  0.13433293206E+04  0.14625850065E+04  0.50400001928E-02 0.  1.
       -1    1    3    3    0  502 -0.45122923787E+03 -0.36195774989E+03 -0.36422539117E+03  0.68357982227E+03  0.50400001928E-02 0. -1.
</event>
<event>
 5   0  0.5824956E-05  0.1900400E+04  0.7818609E-02  0.8654657E-01
        1   -1    0    0  501    0  0.00000000000E+00  0.00000000000E+00  0.12372758718E+04  0.12372758718E+04  0.50400001928E-02 0. -1.
       -1   -1    0    0    0  501  0.00000000000E+00  0.00000000000E+00 -0.72973246188E+03  0.72973246190E+03  0.50400001928E-02 0.  1.
    10030    2    1    2    0    0  0.00000000000E+00  0.00000000000E+00  0.50754340991E+03  0.19670083337E+04  0.19004003452E+04 0.  0.
        2    1    3    3  502    0  0.21457831092E+03 -0.77515159775E+03 -0.26990247581E+03  0.84838151646E+03  0.25500000920E-02 0.  1.
       -2    1    3    3    0  502 -0.21457831092E+03  0.77515159775E+03  0.77744588573E+03  0.11186268172E+04  0.25500000920E-02 0. -1.
</event>
<event>
 5   0  0.5614989E-05  0.1893072E+04  0.7818609E-02  0.8658313E-01
       -1   -1    0    0    0  501  0.00000000000E+00  0.00000000000E+00  0.64843299728E+03  0.64843299730E+03  0.50400001928E-02 0.  1.
        1   -1    0    0  501    0  0.00000000000E+00  0.00000000000E+00 -0.13816855836E+04  0.13816855836E+04  0.50400001928E-02 0. -1.
    10030    2    1    2    0    0  0.00000000000E+00  0.00000000000E+00 -0.73325258634E+03  0.20301185809E+04  0.18930721321E+04 0.  0.
        4    1    3    3  502    0 -0.91392997579E+03  0.17464713604E+03 -0.18038979766E+03  0.94779307593E+03  0.12699999809E+01 0.  1.
       -4    1    3    3    0  502  0.91392997579E+03 -0.17464713604E+03 -0.55286278868E+03  0.10823255050E+04  0.12699999809E+01 0. -1.
</event>
<event>
 5   0  0.1182630E-04  0.1905491E+04  0.7818609E-02  0.8652128E-01
       -2   -1    0    0    0  501  0.00000000000E+00  0.00000000000E+00  0.49609401874E+03  0.49609401874E+03  0.25500000920E-02 0. -1.
        2   -1    0    0  501    0  0.00000000000E+00  0.00000000000E+00 -0.18297409704E+04  0.18297409704E+04  0.25500000920E-02 0.  1.
    10030    2    1    2    0    0  0.00000000000E+00  0.00000000000E+00 -0.13336469516E+04  0.23258349891E+04  0.19054905418E+04 0.  0.
        5    1    3    3  502    0 -0.19883198230E+02 -0.13083978156E+03  0.48480592403E+03  0.50256667616E+03  0.46999998093E+01 0. -1.
       -5    1    3    3    0  502  0.19883198230E+02  0.13083978156E+03 -0.18184528757E+04  0.18232683130E+04  0.46999998093E+01 0.  1.
</event>
<event>
 5   0  0.5628936E-05  0.1914928E+04  0.7818609E-02  0.8647461E-01
        1   -1    0    0  501    0  0.00000000000E+00  0.00000000000E+00  0.76649231631E+03  0.76649231633E+03  0.50400001928E-02 0. -1.
       -1   -1    0    0    0  501  0.00000000000E+00  0.00000000000E+00 -0.11960161721E+04  0.11960161721E+04  0.50400001928E-02 0.  1.
    10030    2    1    2    0    0  0.00000000000E+00  0.00000000000E+00 -0.42952385576E+03  0.19625084884E+04  0.19149278901E+04 0.  0.
        5    1    3    3  502    0 -0.24831754120E+03 -0.54109975357E+03  0.55371260393E+03  0.81306228687E+03  0.46999998093E+01 0. -1.
       -5    1    3    3    0  502  0.24831754120E+03  0.54109975357E+03 -0.98323645969E+03  0.11494462015E+04  0.46999998093E+01 0.  1.
</event>
<event>
 5   0  0.5579109E-05  0.1900046E+04  0.7818609E-02  0.8654834E-01
        1   -1    0    0  501    0  0.00000000000E+00  0.00000000000E+00  0.93838544108E+03  0.93838544109E+03  0.50400001928E-02 0. -1.
       -1   -1    0    0    0  501  0.00000000000E+00  0.00000000000E+00 -0.96180451922E+03  0.96180451924E+03  0.50400001928E-02 0.  1.
    10030    2    1    2    0    0  0.00000000000E+00  0.00000000000E+00 -0.23419078146E+02  0.19001899603E+04  0.19000456395E+04 0.  0.
        3    1    3    3  502    0 -0.70264507399E+03  0.59499538857E+03 -0.24585065600E+03  0.95298067540E+03  0.10100000352E+00 0.  1.
       -3    1    3    3    0  502  0.70264507399E+03 -0.59499538857E+03  0.22243157785E+03  0.94720928493E+03  0.10100000352E+00 0. -1.
</event>
<event>
 5   0  0.1133638E-04  0.1896128E+04  0.7818609E-02  0.8656786E-01
        2   -1    0    0  501    0  0.00000000000E+00  0.00000000000E+00  0.14902087410E+04  0.14902087410E+04  0.25500000920E-02 0.  1.
       -2   -1    0    0    0  501  0.00000000000E+00  0.00000000000E+00 -0.60315408367E+03  0.60315408368E+03  0.25500000920E-02 0. -1.
    10030    2    1    2    0    0  0.00000000000E+00  0.00000000000E+00  0.88705465736E+03  0.20933628247E+04  0.18961281472E+04 0.  0.
        3    1    3    3  502    0 -0.87360507989E+02 -0.50928504789E+03  0.13210822733E+04  0.14185420337E+04  0.10100000352E+00 0.  1.
       -3    1    3    3    0  502  0.87360507989E+02  0.50928504789E+03 -0.43402761594E+03  0.67482079100E+03  0.10100000352E+00 0. -1.
</event>
<event>
 5   0  0.1182630E-04  0.1908684E+04  0.7818609E-02  0.8650546E-01
       -2   -1    0    0    0  501  0.00000000000E+00  0.00000000000E+00  0.10319237126E+04  0.10319237126E+04  0.25500000920E-02 0. -1.
        2   -1    0    0  501    0  0.00000000000E+00  0.00000000000E+00 -0.88259283168E+03  0.88259283168E+03  0.25500000920E-02 0.  1.
    10030    2    1    2    0    0  0.00000000000E+00  0.00000000000E+00  0.14933088092E+03  0.19145165443E+04  0.19086838099E+04 0.  0.
        5    1    3    3  502    0  0.61817119204E+03  0.71893365739E+03 -0.34040809444E+02  0.94877926468E+03  0.46999998093E+01 0. -1.
       -5    1    3    3    0  502 -0.61817119204E+03 -0.71893365739E+03  0.18337169036E+03  0.96573727960E+03  0.46999998093E+01 0.  1.
</event>
<event>
 5   0  0.5628936E-05  0.1890309E+04  0.7818609E-02  0.8659696E-01
       -1   -1    0    0    0  501  0.00000000000E+00  0.00000000000E+00  0.51883349231E+03  0.51883349234E+03  0.50400001928E-02 0.  1.
        1   -1    0    0  501    0  0.00000000000E+00  0.00000000000E+00 -0.17217789350E+04  0.17217789350E+04  0.50400001928E-02 0. -1.
    10030    2    1    2    0    0  0.00000000000E+00  0.00000000000E+00 -0.12029454427E+04  0.22406124273E+04  0.18903085228E+04 0.  0.
        5    1    3    3  502    0 -0.85572299429E+03  0.16705356969E+03 -0.10339517783E+04  0.13524966203E+04  0.46999998093E+01 0. -1.
       -5    1    3    3    0  502  0.85572299429E+03 -0.16705356969E+03 -0.16899366440E+03  0.88811580704E+03  0.46999998093E+01 0.  1.
</event>
<event>
 5   0  0.5824956E-05  0.1898547E+04  0.7818609E-02  0.8655580E-01
       -1   -1    0    0    0  501  0.00000000000E+00  0.00000000000E+00  0.10538728293E+04  0.10538728293E+04  0.50400001928E-02 0.  1.
        1   -1    0    0  501    0  0.00000000000E+00  0.00000000000E+00 -0.85505615113E+03  0.85505615115E+03  0.50400001928E-02 0. -1.
    10030    2    1    2    0    0  0.00000000000E+00  0.00000000000E+00  0.19881667821E+03  0.19089289805E+04  0.18985472818E+04 0.  0.
        2    1    3    3  502    0  0.46647481678E+03 -0.45813158567E+03 -0.59256797529E+03  0.88239453184E+03  0.25500000920E-02 0. -1.
       -2    1    3    3    0  502 -0.46647481678E+03  0.45813158567E+03  0.79138465350E+03  0.10265344487E+04  0.25500000920E-02 0.  1.
</event>
<event>
 5   0  0.1101678E-04  0.1889234E+04  0.7818609E-02  0.8660234E-01
       -2   -1    0    0    0  501  0.00000000000E+00  0.00000000000E+00  0.79700181158E+03  0.79700181158E+03  0.25500000920E-02 0.  1.
        2   -1    0    0  501    0  0.00000000000E+00  0.00000000000E+00 -0.11195729828E+04  0.11195729828E+04  0.25500000920E-02 0. -1.
    10030    2    1    2    0    0  0.00000000000E+00  0.00000000000E+00 -0.32257117123E+03  0.19165747944E+04  0.18892344434E+04 0.  0.
        4    1    3    3  502    0 -0.41928461330E+03  0.40322943853E+03  0.59373389008E+03  0.83121303658E+03  0.12699999809E+01 0.  1.
       -4    1    3    3    0  502  0.41928461330E+03 -0.40322943853E+03 -0.91630506130E+03  0.10853617578E+04  0.12699999809E+01 0. -1.
</event>
<event>
 5   0  0.1182630E-04  0.1893616E+04  0.7818609E-02  0.8658041E-01
        2   -1    0    0  501    0  0.00000000000E+00  0.00000000000E+00  0.19094152843E+04  0.19094152843E+04  0.25500000920E-02 0.  1.
       -2   -1    0    0    0  501  0.00000000000E+00  0.00000000000E+00 -0.46948663096E+03  0.46948663097E+03  0.25500000920E-02 0. -1.
    10030    2    1    2    0    0  0.00000000000E+00  0.00000000000E+00  0.14399286533E+04  0.23789019153E+04  0.18936155354E+04 0.  0.
        5    1    3    3  502    0 -0.66284501930E+03 -0.38617125222E+03  0.22837962943E+02  0.76748642867E+03  0.46999998093E+01 0.  1.
       -5    1    3    3    0  502  0.66284501930E+03  0.38617125222E+03  0.14170906904E+04  0.16114154866E+04  0.46999998093E+01 0. -1.
</event>
<event>
 5   0  0.5841424E-05  0.1896006E+04  0.7818609E-02  0.8656847E-01
        1   -1    0    0  501    0  0.00000000000E+00  0.00000000000E+00  0.19601015761E+04  0.19601015761E+04  0.50400001928E-02 0.  1.
       -1   -1    0    0    0  501  0.00000000000E+00  0.00000000000E+00 -0.45850147445E+03  0.45850147448E+03  0.50400001928E-02 0. -1.
    10030    2    1    2    0    0  0.00000000000E+00  0.00000000000E+00  0.15016001017E+04  0.24186030506E+04  0.18960057624E+04 0.  0.
        1    1    3    3  502    0 -0.40593884230E+03  0.15936376873E+03  0.18245494497E+04  0.18759434557E+04  0.50400001928E-02 0.  1.
       -1    1    3    3    0  502  0.40593884230E+03 -0.15936376873E+03 -0.32294934807E+03  0.54265959489E+03  0.50400001928E-02 0. -1.
</event>
<event>
 5   0  0.1141890E-04  0.1848055E+04  0.7818609E-02  0.8681154E-01
        2   -1    0    0  501    0  0.00000000000E+00  0.00000000000E+00  0.16821691047E+04  0.16821691047E+04  0.25500000920E-02 0. -1.
       -2   -1    0    0    0  501  0.00000000000E+00  0.00000000000E+00 -0.50757502663E+03  0.50757502663E+03  0.25500000920E-02 0.  1.
    10030    2    1    2    0    0  0.00000000000E+00  0.00000000000E+00  0.11745940781E+04  0.21897441313E+04  0.18480552244E+04 0.  0.
        2    1    3    3  502    0 -0.92059621355E+02 -0.22156519228E+03  0.16446162589E+04  0.16620254954E+04  0.25500000920E-02 0. -1.
       -2    1    3    3    0  502  0.92059621355E+02  0.22156519228E+03 -0.47002218079E+03  0.52771863597E+03  0.25500000920E-02 0.  1.
</event>
<event>
 5   0  0.5824956E-05  0.1920954E+04  0.7818609E-02  0.8644496E-01
       -1   -1    0    0    0  501  0.00000000000E+00  0.00000000000E+00  0.88667457586E+03  0.88667457588E+03  0.50400001928E-02 0. -1.
        1   -1    0    0  501    0  0.00000000000E+00  0.00000000000E+00 -0.10404226014E+04  0.10404226014E+04  0.50400001928E-02 0.  1.
    10030    2    1    2    0    0  0.00000000000E+00  0.00000000000E+00 -0.15374802552E+03  0.19270971773E+04  0.19209542096E+04 0.  0.
        2    1    3    3  502    0  0.82242623564E+03 -0.40329086980E+03 -0.36674062145E+03  0.98667478034E+03  0.25500000920E-02 0.  1.
       -2    1    3    3    0  502 -0.82242623564E+03  0.40329086980E+03  0.21299259593E+03  0.94042239693E+03  0.25500000920E-02 0. -1.
</event>
<event>
 5   0  0.1118206E-04  0.1877852E+04  0.7818609E-02  0.8665960E-01
        2   -1    0    0  501    0  0.00000000000E+00  0.00000000000E+00  0.20397297481E+04  0.20397297481E+04  0.25500000920E-02 0.  1.
       -2   -1    0    0    0  501  0.00000000000E+00  0.00000000000E+00 -0.43220549376E+03  0.43220549376E+03  0.25500000920E-02 0. -1.
    10030    2    1    2    0    0  0.00000000000E+00  0.00000000000E+00  0.16075242544E+04  0.24719352419E+04  0.18778523935E+04 0.  0.
        1    1    3    3  502    0  0.33567522635E+03  0.30220488235E+03  0.18873269220E+04  0.19406206634E+04  0.50400001928E-02 0.  1.
       -1    1    3    3    0  502 -0.33567522635E+03 -0.30220488235E+03 -0.27980266765E+03  0.53131457852E+03  0.50400001928E-02 0. -1.
</event>
<event>
 5   0  0.5579109E-05  0.1889939E+04  0.7818609E-02  0.8659881E-01
       -1   -1    0    0    0  501  0.00000000000E+00  0.00000000000E+00  0.87388439409E+03  0.87388439411E+03  0.50400001928E-02 0.  1.
        1   -1    0    0  501    0  0.00000000000E+00  0.00000000000E+00 -0.10218367107E+04  0.10218367107E+04  0.50400001928E-02 0. -1.
    10030    2    1    2    0    0  0.00000000000E+00  0.00000000000E+00 -0.14795231660E+03  0.18957211048E+04  0.18899387872E+04 0.  0.
        3    1    3    3  502    0 -0.76027884416E+03  0.42920956334E+03  0.28868552323E+03  0.91955647551E+03  0.10100000352E+00 0.  1.
       -3    1    3    3    0  502  0.76027884416E+03 -0.42920956334E+03 -0.43663783984E+03  0.97616462931E+03  0.10100000352E+00 0. -1.
</event>
<event>
 5   0  0.5579109E-05  0.1915292E+04  0.7818609E-02  0.8647282E-01
       -1   -1    0    0    0  501  0.00000000000E+00  0.00000000000E+00  0.75829860636E+03  0.75829860638E+03  0.50400001928E-02 0.  1.
        1   -1    0    0  501    0  0.00000000000E+00  0.00000000000E+00 -0.12093998522E+04  0.12093998522E+04  0.50400001928E-02 0. -1.
    10030    2    1    2    0    0  0.00000000000E+00  0.00000000000E+00 -0.45110124587E+03  0.19676984586E+04  0.19152923772E+04 0.  0.
        3    1    3    3  502    0 -0.55265088899E+03  0.18727838715E+03  0.55456149320E+03  0.80500599957E+03  0.10100000352E+00 0.  1.
       -3    1    3    3    0  502  0.55265088899E+03 -0.18727838715E+03 -0.10056627391E+04  0.11626924591E+04  0.10100000352E+00 0. -1.
</event>
<event>
 5   0  0.1101678E-04  0.1922705E+04  0.7818609E-02  0.8643636E-01
        2   -1    0    0  501    0  0.00000000000E+00  0.00000000000E+00  0.12823146454E+04  0.12823146454E+04  0.25500000920E-02 0. -1.
       -2   -1    0    0    0  501  0.00000000000E+00  0.00000000000E+00 -0.72072721499E+03  0.72072721500E+03  0.25500000920E-02 0.  1.
    10030    2    1    2    0    0  0.00000000000E+00  0.00000000000E+00  0.56158743044E+03  0.20030418604E+04  0.19227054513E+04 0.  0.
        4    1    3    3  502    0  0.53388429888E+03 -0.76736600854E+03  0.51447475687E+03  0.10670374520E+04  0.12699999809E+01 0. -1.
       -4    1    3    3    0  502 -0.53388429888E+03  0.76736600854E+03  0.47112673571E+02  0.93600440841E+03  0.12699999809E+01 0.  1.
</event>
<event>
 5   0  0.1118206E-04  0.1891337E+04  0.7818609E-02  0.8659181E-01
        2   -1    0    0  501    0  0.00000000000E+00  0.00000000000E+00  0.10858173635E+04  0.10858173635E+04  0.25500000920E-02 0.  1.
       -2   -1    0    0    0  501  0.00000000000E+00  0.00000000000E+00 -0.82360857016E+03  0.82360857016E+03  0.25500000920E-02 0. -1.
    10030    2    1    2    0    0  0.00000000000E+00  0.00000000000E+00  0.26220879331E+03  0.19094259336E+04  0.18913365498E+04 0.  0.
        1    1    3    3  502    0  0.20880565764E+03 -0.71991209567E+03 -0.45096461180E+03  0.87478129225E+03  0.50400001928E-02 0. -1.
       -1    1    3    3    0  502 -0.20880565764E+03  0.71991209567E+03  0.71317340511E+03  0.10346446414E+04  0.50400001928E-02 0.  1.
</event>
<event>
 5   0  0.4061125E-05  0.1953874E+04  0.7818609E-02  0.8628495E-01
        4   -1    0    0  501    0  0.00000000000E+00  0.00000000000E+00  0.80072208304E+03  0.80072309019E+03  0.12699999809E+01 0.  1.
       -4   -1    0    0    0  501  0.00000000000E+00  0.00000000000E+00 -0.11919290214E+04  0.11919296980E+04  0.12699999809E+01 0. -1.
    10030    2    1    2    0    0  0.00000000000E+00  0.00000000000E+00 -0.39120693833E+03  0.19926527882E+04  0.19538736565E+04 0.  0.
        5    1    3    3  502    0 -0.29747779088E+03  0.18170571827E+03 -0.11263355178E+04  0.11790520738E+04  0.46999998093E+01 0. -1.
       -5    1    3    3    0  502  0.29747779088E+03 -0.18170571827E+03  0.73512857944E+03  0.81360071437E+03  0.46999998093E+01 0.  1.
</event>
<event>
 5   0  0.5614989E-05  0.1856483E+04  0.7818609E-02  0.8676826E-01
        1   -1    0    0  501    0  0.00000000000E+00  0.00000000000E+00  0.10665493527E+04  0.10665493527E+04  0.50400001928E-02 0. -1.
       -1   -1    0    0    0  501  0.00000000000E+00  0.00000000000E+00 -0.80786870676E+03  0.80786870677E+03  0.50400001928E-02 0.  1.
    10030    2    1    2    0    0  0.00000000000E+00  0.00000000000E+00  0.25868064597E+03  0.18744180595E+04  0.18564825303E+04 0.  0.
        4    1    3    3  502    0  0.14128985230E+03  0.78215387468E+03  0.61345433713E+03  0.10040195928E+04  0.12699999809E+01 0. -1.
       -4    1    3    3    0  502 -0.14128985230E+03 -0.78215387468E+03 -0.35477369116E+03  0.87039846673E+03  0.12699999809E+01 0.  1.
</event>
<event>
 5   0  0.5628936E-05  0.1900156E+04  0.7818609E-02  0.8654779E-01
        1   -1    0    0  501    0  0.00000000000E+00  0.00000000000E+00  0.99277065572E+03  0.99277065573E+03  0.50400001928E-02 0.  1.
       -1   -1    0    0    0  501  0.00000000000E+00  0.00000000000E+00 -0.90922127813E+03  0.90922127814E+03  0.50400001928E-02 0. -1.
    10030    2    1    2    0    0  0.00000000000E+00  0.00000000000E+00  0.83549377593E+02  0.19019919339E+04  0.19001559983E+04 0.  0.
        5    1    3    3  502    0  0.37353337201E+03 -0.17391022041E+03  0.89867084645E+03  0.98863710482E+03  0.46999998093E+01 0.  1.
       -5    1    3    3    0  502 -0.37353337201E+03  0.17391022041E+03 -0.81512146886E+03  0.91335482905E+03  0.46999998093E+01 0. -1.
</event>
<event>
 5   0  0.1141890E-04  0.1976074E+04  0.7818609E-02  0.8617889E-01
       -2   -1    0    0    0  501  0.00000000000E+00  0.00000000000E+00  0.72700605723E+03  0.72700605723E+03  0.25500000920E-02 0. -1.
        2   -1    0    0  501    0  0.00000000000E+00  0.00000000000E+00 -0.13427913397E+04  0.13427913397E+04  0.25500000920E-02 0.  1.
    10030    2    1    2    0    0  0.00000000000E+00  0.00000000000E+00 -0.61578528247E+03  0.20697973969E+04  0.19760743281E+04 0.  0.
        2    1    3    3  502    0  0.51457818258E+03 -0.20212881974E+03  0.54982992810E+03  0.77971771533E+03  0.25500000920E-02 0. -1.
       -2    1    3    3    0  502 -0.51457818258E+03  0.20212881974E+03 -0.11656152106E+04  0.12900796816E+04  0.25500000920E-02 0.  1.
</event>
<event>
 5   0  0.5614989E-05  0.1895974E+04  0.7818609E-02  0.8656863E-01
        1   -1    0    0  501    0  0.00000000000E+00  0.00000000000E+00  0.38018002094E+03  0.38018002097E+03  0.50400001928E-02 0. -1.
       -1   -1    0    0    0  501  0.00000000000E+00  0.00000000000E+00 -0.23638257666E+04  0.23638257666E+04  0.50400001928E-02 0.  1.
    10030    2    1    2    0    0  0.00000000000E+00  0.00000000000E+00 -0.19836457457E+04  0.27440057876E+04  0.18959739761E+04 0.  0.
        4    1    3    3  502    0  0.82161125921E+03 -0.47283664013E+03 -0.10028608960E+04  0.13799822967E+04  0.12699999809E+01 0. -1.
       -4    1    3    3    0  502 -0.82161125921E+03  0.47283664013E+03 -0.98078484970E+03  0.13640234909E+04  0.12699999809E+01 0.  1.
</event>
<event>
 5   0  0.1182630E-04  0.1904612E+04  0.7818609E-02  0.8652564E-01
       -2   -1    0    0    0  501  0.00000000000E+00  0.00000000000E+00  0.51708629024E+03  0.51708629025E+03  0.25500000920E-02 0. -1.
        2   -1    0    0  501    0  0.00000000000E+00  0.00000000000E+00 -0.17538404882E+04  0.17538404882E+04  0.25500000920E-02 0.  1.
    10030    2    1    2    0    0  0.00000000000E+00  0.00000000000E+00 -0.12367541979E+04  0.22709267784E+04  0.19046121618E+04 0.  0.
        5    1    3    3  502    0  0.71781338563E+02 -0.33575733911E+03 -0.16774585546E+04  0.17122426357E+04  0.46999998093E+01 0.  1.
       -5    1    3    3    0  502 -0.71781338563E+02  0.33575733911E+03  0.44070435664E+03  0.55868414269E+03  0.46999998093E+01 0. -1.
</event>
<event>
 5   0  0.5628936E-05  0.1883742E+04  0.7818609E-02  0.8662991E-01
        1   -1    0    0  501    0  0.00000000000E+00  0.00000000000E+00  0.14520013450E+04  0.14520013450E+04  0.50400001928E-02 0.  1.
       -1   -1    0    0    0  501  0.00000000000E+00  0.00000000000E+00 -0.61096448843E+03  0.61096448846E+03  0.50400001928E-02 0. -1.
    10030    2    1    2    0    0  0.00000000000E+00  0.00000000000E+00  0.84103685656E+03  0.20629658335E+04  0.18837422955E+04 0.  0.
        5    1    3    3  502    0  0.83309012006E+03  0.41808706224E+03  0.27251924077E+03  0.97114610968E+03  0.46999998093E+01 0. -1.
       -5    1    3    3    0  502 -0.83309012006E+03 -0.41808706224E+03  0.56851761579E+03  0.10918197238E+04  0.46999998093E+01 0.  1.
</event>
<event>
 5   0  0.5841424E-05  0.1894850E+04  0.7818609E-02  0.8657424E-01
        1   -1    0    0  501    0  0.00000000000E+00  0.00000000000E+00  0.92732774357E+03  0.92732774358E+03  0.50400001928E-02 0.  1.
       -1   -1    0    0    0  501  0.00000000000E+00  0.00000000000E+00 -0.96795792635E+03  0.96795792636E+03  0.50400001928E-02 0. -1.
    10030    2    1    2    0    0  0.00000000000E+00  0.00000000000E+00 -0.40630182779E+02  0.18952856699E+04  0.18948501152E+04 0.  0.
        1    1    3    3  502    0  0.51325512260E+03 -0.40894613621E+02 -0.81580353495E+03  0.96469611690E+03  0.50400001928E-02 0. -1.
       -1    1    3    3    0  502 -0.51325512260E+03  0.40894613621E+02  0.77517335217E+03  0.93058955305E+03  0.50400001928E-02 0.  1.
</event>
<event>
 5   0  0.1141890E-04  0.1910558E+04  0.7818609E-02  0.8649619E-01
        2   -1    0    0  501    0  0.00000000000E+00  0.00000000000E+00  0.16603082038E+04  0.16603082038E+04  0.25500000920E-02 0. -1.
       -2   -1    0    0    0  501  0.00000000000E+00  0.00000000000E+00 -0.54963183022E+03  0.54963183022E+03  0.25500000920E-02 0.  1.
    10030    2    1    2    0    0  0.00000000000E+00  0.00000000000E+00  0.11106763736E+04  0.22099400340E+04  0.19105582815E+04 0.  0.
        2    1    3    3  502    0  0.29545731095E+03  0.25669490213E+03 -0.45263083752E+03  0.59838279592E+03  0.25500000920E-02 0.  1.
       -2    1    3    3    0  502 -0.29545731095E+03 -0.25669490213E+03  0.15633072111E+04  0.16115572381E+04  0.25500000920E-02 0. -1.
</event>
<event>
 5   0  0.5628936E-05  0.1907891E+04  0.7818609E-02  0.8650938E-01
        1   -1    0    0  501    0  0.00000000000E+00  0.00000000000E+00  0.59333184019E+03  0.59333184021E+03  0.50400001928E-02 0. -1.
       -1   -1    0    0    0  501  0.00000000000E+00  0.00000000000E+00 -0.15337325596E+04  0.15337325596E+04  0.50400001928E-02 0.  1.
    10030    2    1    2    0    0  0.00000000000E+00  0.00000000000E+00 -0.94040071944E+03  0.21270643998E+04  0.19078913617E+04 0.  0.
        5    1    3    3  502    0 -0.15631752438E+03 -0.83606367474E+03  0.11334454667E+02  0.85063987475E+03  0.46999998093E+01 0. -1.
       -5    1    3    3    0  502  0.15631752438E+03  0.83606367474E+03 -0.95173517411E+03  0.12764245251E+04  0.46999998093E+01 0.  1.
</event>
<event>
 5   0  0.1118206E-04  0.1906464E+04  0.7818609E-02  0.8651646E-01
       -2   -1    0    0    0  501  0.00000000000E+00  0.00000000000E+00  0.40917774889E+03  0.40917774890E+03  0.25500000920E-02 0. -1.
        2   -1    0    0  501    0  0.00000000000E+00  0.00000000000E+00 -0.22206752130E+04  0.22206752130E+04  0.25500000920E-02 0.  1.
    10030    2    1    2    0    0  0.00000000000E+00  0.00000000000E+00 -0.18114974641E+04  0.26298529619E+04  0.19064636211E+04 0.  0.
        1    1    3    3  502    0  0.78992807849E+03 -0.40177286753E+03 -0.13900149940E+04  0.16484991628E+04  0.50400001928E-02 0.  1.
       -1    1    3    3    0  502 -0.78992807849E+03  0.40177286753E+03 -0.42148247006E+03  0.98135379903E+03  0.50400001928E-02 0. -1.
</event>
<event>
 5   0  0.5841424E-05  0.1874082E+04  0.7818609E-02  0.8667866E-01
        1   -1    0    0  501    0  0.00000000000E+00  0.00000000000E+00  0.84237061610E+03  0.84237061611E+03  0.50400001928E-02 0. -1.
       -1   -1    0    0    0  501  0.00000000000E+00  0.00000000000E+00 -0.10423507173E+04  0.10423507173E+04  0.50400001928E-02 0.  1.
    10030    2    1    2    0    0  0.00000000000E+00  0.00000000000E+00 -0.19998010119E+03  0.18847213334E+04  0.18740817655E+04 0.  0.
        1    1    3    3  502    0  0.42723384540E+03  0.20505158762E+03  0.71297461953E+03  0.85610029807E+03  0.50400001928E-02 0. -1.
       -1    1    3    3    0  502 -0.42723384540E+03 -0.20505158762E+03 -0.91295472072E+03  0.10286210353E+04  0.50400001928E-02 0.  1.
</event>
<event>
 5   0  0.5824956E-05  0.1934793E+04  0.7818609E-02  0.8637729E-01
        1   -1    0    0  501    0  0.00000000000E+00  0.00000000000E+00  0.82115457237E+03  0.82115457238E+03  0.50400001928E-02 0.  1.
       -1   -1    0    0    0  501  0.00000000000E+00  0.00000000000E+00 -0.11396830891E+04  0.11396830891E+04  0.50400001928E-02 0. -1.
    10030    2    1    2    0    0  0.00000000000E+00  0.00000000000E+00 -0.31852851674E+03  0.19608376615E+04  0.19347929912E+04 0.  0.
        2    1    3    3  502    0  0.12269806196E+03  0.80112075580E+03 -0.69458546772E+03  0.10673791509E+04  0.25500000920E-02 0. -1.
       -2    1    3    3    0  502 -0.12269806196E+03 -0.80112075580E+03  0.37605695099E+03  0.89345851061E+03  0.25500000920E-02 0.  1.
</event>
<event>
 5   0  0.1101678E-04  0.1893766E+04  0.7818609E-02  0.8657966E-01
       -2   -1    0    0    0  501  0.00000000000E+00  0.00000000000E+00  0.10254209356E+04  0.10254209356E+04  0.25500000920E-02 0. -1.
        2   -1    0    0  501    0  0.00000000000E+00  0.00000000000E+00 -0.87436065141E+03  0.87436065142E+03  0.25500000920E-02 0.  1.
    10030    2    1    2    0    0  0.00000000000E+00  0.00000000000E+00  0.15106028418E+03  0.18997815870E+04  0.18937663184E+04 0.  0.
        4    1    3    3  502    0 -0.19920989420E+03 -0.23960143294E+03  0.97251379991E+03  0.10212140483E+04  0.12699999809E+01 0. -1.
       -4    1    3    3    0  502  0.19920989420E+03  0.23960143294E+03 -0.82145351573E+03  0.87856753867E+03  0.12699999809E+01 0.  1.
</event>
<event>
 5   0  0.1141890E-04  0.1897290E+04  0.7818609E-02  0.8656207E-01
        2   -1    0    0  501    0  0.00000000000E+00  0.00000000000E+00  0.10823342537E+04  0.10823342537E+04  0.25500000920E-02 0.  1.
       -2   -1    0    0    0  501  0.00000000000E+00  0.00000000000E+00 -0.83146875936E+03  0.83146875937E+03  0.25500000920E-02 0. -1.
    10030    2    1    2    0    0  0.00000000000E+00  0.00000000000E+00  0.25086549429E+03  0.19138030130E+04  0.18972897713E+04 0.  0.
        2    1    3    3  502    0  0.11859467271E+03  0.61093567231E+03 -0.59677368695E+03  0.86223310394E+03  0.25500000920E-02 0. -1.
       -2    1    3    3    0  502 -0.11859467271E+03 -0.61093567231E+03  0.84763918124E+03  0.10515699091E+04  0.25500000920E-02 0.  1.
</event>
<event>
 5   0  0.1101678E-04  0.1887435E+04  0.7818609E-02  0.8661136E-01
       -2   -1    0    0    0  501  0.00000000000E+00  0.00000000000E+00  0.12688980294E+04  0.12688980294E+04  0.25500000920E-02 0. -1.
        2   -1    0    0  501    0  0.00000000000E+00  0.00000000000E+00 -0.70187124064E+03  0.70187124065E+03  0.25500000920E-02 0.  1.
    10030    2    1    2    0    0  0.00000000000E+00  0.00000000000E+00  0.56702678875E+03  0.19707692700E+04  0.18874353331E+04 0.  0.
        4    1    3    3  502    0 -0.42392324095E+03  0.67353196123E+03 -0.24607364061E+03  0.83301264487E+03  0.12699999809E+01 0.  1.
       -4    1    3    3    0  502  0.42392324095E+03 -0.67353196123E+03  0.81310042936E+03  0.11377566252E+04  0.12699999809E+01 0. -1.
</event>
<event>
 5   0  0.5824956E-05  0.1901637E+04  0.7818609E-02  0.8654042E-01
        1   -1    0    0  501    0  0.00000000000E+00  0.00000000000E+00  0.56351818931E+03  0.56351818934E+03  0.50400001928E-02 0. -1.
       -1   -1    0    0    0  501  0.00000000000E+00  0.00000000000E+00 -0.16043058896E+04  0.16043058896E+04  0.50400001928E-02 0.  1.
    10030    2    1    2    0    0  0.00000000000E+00  0.00000000000E+00 -0.10407877003E+04  0.21678240789E+04  0.19016367161E+04 0.  0.
        2    1    3    3  502    0 -0.21773908689E+02 -0.80799753529E+03 -0.10912046873E+04  0.13579623668E+04  0.25500000920E-02 0. -1.
       -2    1    3    3    0  502  0.21773908689E+02  0.80799753529E+03  0.50416987042E+02  0.80986171209E+03  0.25500000920E-02 0.  1.
</event>
<event>
 5   0  0.1118206E-04  0.1904840E+04  0.7818609E-02  0.8652451E-01
        2   -1    0    0  501    0  0.00000000000E+00  0.00000000000E+00  0.83649478100E+03  0.83649478101E+03  0.25500000920E-02 0. -1.
       -2   -1    0    0    0  501  0.00000000000E+00  0.00000000000E+00 -0.10844103835E+04  0.10844103835E+04  0.25500000920E-02 0.  1.
    10030    2    1    2    0    0  0.00000000000E+00  0.00000000000E+00 -0.24791560245E+03  0.19209051645E+04  0.19048397583E+04 0.  0.
        1    1    3    3  502    0  0.23105958892E+03 -0.84040962989E+03 -0.51115804115E+03  0.10104253672E+04  0.50400001928E-02 0.  1.
       -1    1    3    3    0  502 -0.23105958892E+03  0.84040962989E+03  0.26324243869E+03  0.91047979725E+03  0.50400001928E-02 0. -1.
</event>
<event>
 5   0  0.5614989E-05  0.1890519E+04  0.7818609E-02  0.8659590E-01
        1   -1    0    0  501    0  0.00000000000E+00  0.00000000000E+00  0.26129780628E+04  0.26129780629E+04  0.50400001928E-02 0.  1.
       -1   -1    0    0    0  501  0.00000000000E+00  0.00000000000E+00 -0.34195285233E+03  0.34195285236E+03  0.50400001928E-02 0. -1.
    10030    2    1    2    0    0  0.00000000000E+00  0.00000000000E+00  0.22710252105E+04  0.29549309152E+04  0.18905187666E+04 0.  0.
        4    1    3    3  502    0 -0.31368381678E+02  0.59763272634E+03 -0.81324612327E+01  0.59851198884E+03  0.12699999809E+01 0. -1.
       -4    1    3    3    0  502  0.31368381678E+02 -0.59763272634E+03  0.22791576718E+04  0.23564189264E+04  0.12699999809E+01 0.  1.
</event>
<event>
 5   0  0.5824956E-05  0.1899694E+04  0.7818609E-02  0.8655009E-01
       -1   -1    0    0    0  501  0.00000000000E+00  0.00000000000E+00  0.93727798031E+03  0.93727798032E+03  0.50400001928E-02 0. -1.
        1   -1    0    0  501    0  0.00000000000E+00  0.00000000000E+00 -0.96258436238E+03  0.96258436239E+03  0.50400001928E-02 0.  1.
    10030    2    1    2    0    0  0.00000000000E+00  0.00000000000E+00 -0.25306382070E+02  0.18998623427E+04  0.18996937933E+04 0.  0.
        2    1    3    3  502    0  0.43885959907E+03  0.68563639914E+03  0.47679201630E+03  0.94341170563E+03  0.25500000920E-02 0. -1.
       -2    1    3    3    0  502 -0.43885959907E+03 -0.68563639914E+03 -0.50209839837E+03  0.95645063708E+03  0.25500000920E-02 0.  1.
</event>
<event>
 5   0  0.5841424E-05  0.1898286E+04  0.7818609E-02  0.8655710E-01
        1   -1    0    0  501    0  0.00000000000E+00  0.00000000000E+00  0.16003716523E+04  0.16003716523E+04  0.50400001928E-02 0.  1.
       -1   -1    0    0    0  501  0.00000000000E+00  0.00000000000E+00 -0.56291427710E+03  0.56291427712E+03  0.50400001928E-02 0. -1.
    10030    2    1    2    0    0  0.00000000000E+00  0.00000000000E+00  0.10374573752E+04  0.21632859294E+04  0.18982855968E+04 0.  0.
        1    1    3    3  502    0  0.61681219986E+03  0.61939423527E+03  0.97283867593E+02  0.87952865757E+03  0.50400001928E-02 0. -1.
       -1    1    3    3    0  502 -0.61681219986E+03 -0.61939423527E+03  0.94017350758E+03  0.12837572718E+04  0.50400001928E-02 0.  1.
</event>
<event>
 5   0  0.1118206E-04  0.1901214E+04  0.7818609E-02  0.8654252E-01
       -2   -1    0    0    0  501  0.00000000000E+00  0.00000000000E+00  0.38933452021E+03  0.38933452022E+03  0.25500000920E-02 0.  1.
        2   -1    0    0  501    0  0.00000000000E+00  0.00000000000E+00 -0.23210205224E+04  0.23210205224E+04  0.25500000920E-02 0. -1.
    10030    2    1    2    0    0  0.00000000000E+00  0.00000000000E+00 -0.19316860021E+04  0.27103550426E+04  0.19012137297E+04 0.  0.
        1    1    3    3  502    0  0.65876230886E+03  0.21407123731E+02  0.10689967224E+02  0.65919672325E+03  0.50400001928E-02 0.  1.
       -1    1    3    3    0  502 -0.65876230886E+03 -0.21407123731E+02 -0.19423759694E+04  0.20511583193E+04  0.50400001928E-02 0. -1.
</event>
<event>
 5   0  0.5579109E-05  0.1782165E+04  0.7818609E-02  0.8715842E-01
        1   -1    0    0  501    0  0.00000000000E+00  0.00000000000E+00  0.16476261900E+04  0.16476261900E+04  0.50400001928E-02 0.  1.
       -1   -1    0    0    0  501  0.00000000000E+00  0.00000000000E+00 -0.48192250166E+03  0.48192250168E+03  0.50400001928E-02 0. -1.
    10030    2    1    2    0    0  0.00000000000E+00  0.00000000000E+00  0.11657036883E+04  0.21295486917E+04  0.17821651274E+04 0.  0.
        3    1    3    3  502    0 -0.36865365244E+03 -0.80798763275E+03  0.66966765054E+03  0.11122968590E+04  0.10100000352E+00 0.  1.
       -3    1    3    3    0  502  0.36865365244E+03  0.80798763275E+03  0.49603603779E+03  0.10172518327E+04  0.10100000352E+00 0. -1.
</event>
<event>
 5   0  0.5628936E-05  0.1900862E+04  0.7818609E-02  0.8654428E-01
        1   -1    0    0  501    0  0.00000000000E+00  0.00000000000E+00  0.90434054006E+03  0.90434054007E+03  0.50400001928E-02 0.  1.
       -1   -1    0    0    0  501  0.00000000000E+00  0.00000000000E+00 -0.99887016072E+03  0.99887016073E+03  0.50400001928E-02 0. -1.
    10030    2    1    2    0    0  0.00000000000E+00  0.00000000000E+00 -0.94529620660E+02  0.19032107008E+04  0.19008616789E+04 0.  0.
        5    1    3    3  502    0 -0.43015667874E+03 -0.13517769340E+03 -0.88495211997E+03  0.99321202253E+03  0.46999998093E+01 0. -1.
       -5    1    3    3    0  502  0.43015667874E+03  0.13517769340E+03  0.79042249931E+03  0.90999867828E+03  0.46999998093E+01 0.  1.
</event>
<event>
 5   0  0.5579109E-05  0.1909378E+04  0.7818609E-02  0.8650202E-01
        1   -1    0    0  501    0  0.00000000000E+00  0.00000000000E+00  0.11929151069E+04  0.11929151069E+04  0.50400001928E-02 0. -1.
       -1   -1    0    0    0  501  0.00000000000E+00  0.00000000000E+00 -0.76403702585E+03  0.76403702586E+03  0.50400001928E-02 0.  1.
    10030    2    1    2    0    0  0.00000000000E+00  0.00000000000E+00  0.42887808101E+03  0.19569521327E+04  0.19093782342E+04 0.  0.
        3    1    3    3  502    0  0.55261654198E+03  0.41555186340E+03  0.88914431150E+03  0.11263418711E+04  0.10100000352E+00 0. -1.
       -3    1    3    3    0  502 -0.55261654198E+03 -0.41555186340E+03 -0.46026623049E+03  0.83061026166E+03  0.10100000352E+00 0.  1.
</event>
<event>
 5   0  0.1141890E-04  0.1898142E+04  0.7818609E-02  0.8655782E-01
        2   -1    0    0  501    0  0.00000000000E+00  0.00000000000E+00  0.24650695253E+04  0.24650695253E+04  0.25500000920E-02 0. -1.
       -2   -1    0    0    0  501  0.00000000000E+00  0.00000000000E+00 -0.36539964191E+03  0.36539964192E+03  0.25500000920E-02 0.  1.
    10030    2    1    2    0    0  0.00000000000E+00  0.00000000000E+00  0.20996698834E+04  0.28304691672E+04  0.18981417458E+04 0.  0.
        2    1    3    3  502    0  0.10401389453E+03  0.13593172047E+03  0.24418641032E+04  0.24478555148E+04  0.25500000920E-02 0. -1.
       -2    1    3    3    0  502 -0.10401389453E+03 -0.13593172047E+03 -0.34219421984E+03  0.38261365238E+03  0.25500000920E-02 0.  1.
</event>
<event>
 5   0  0.1141890E-04  0.1848969E+04  0.7818609E-02  0.8680683E-01
       -2   -1    0    0    0  501  0.00000000000E+00  0.00000000000E+00  0.58059750206E+03  0.58059750206E+03  0.25500000920E-02 0. -1.
        2   -1    0    0  501    0  0.00000000000E+00  0.00000000000E+00 -0.14720558678E+04  0.14720558678E+04  0.25500000920E-02 0.  1.
    10030    2    1    2    0    0  0.00000000000E+00  0.00000000000E+00 -0.89145836571E+03  0.20526533698E+04  0.18489693991E+04 0.  0.
        2    1    3    3  502    0  0.60499729119E+03  0.29469762198E+03  0.25797928531E+03  0.72070918018E+03  0.25500000920E-02 0. -1.
       -2    1    3    3    0  502 -0.60499729119E+03 -0.29469762198E+03 -0.11494376510E+04  0.13319441896E+04  0.25500000920E-02 0.  1.
</event>
<event>
 5   0  0.1101678E-04  0.1899319E+04  0.7818609E-02  0.8655196E-01
       -2   -1    0    0    0  501  0.00000000000E+00  0.00000000000E+00  0.51520495070E+03  0.51520495071E+03  0.25500000920E-02 0. -1.
        2   -1    0    0  501    0  0.00000000000E+00  0.00000000000E+00 -0.17504737459E+04  0.17504737459E+04  0.25500000920E-02 0.  1.
    10030    2    1    2    0    0  0.00000000000E+00  0.00000000000E+00 -0.12352687952E+04  0.22656786966E+04  0.18993185515E+04 0.  0.
        4    1    3    3  502    0  0.29115194710E+03  0.90365335233E+03 -0.59116702436E+03  0.11184090938E+04  0.12699999809E+01 0. -1.
       -4    1    3    3    0  502 -0.29115194710E+03 -0.90365335233E+03 -0.64410177083E+03  0.11472696028E+04  0.12699999809E+01 0.  1.
</event>
<event>
 5   0  0.5579109E-05  0.1895175E+04  0.7818609E-02  0.8657262E-01
        1   -1    0    0  501    0  0.00000000000E+00  0.00000000000E+00  0.83457685084E+03  0.83457685086E+03  0.50400001928E-02 0. -1.
       -1   -1    0    0    0  501  0.00000000000E+00  0.00000000000E+00 -0.10759010645E+04  0.10759010646E+04  0.50400001928E-02 0.  1.
    10030    2    1    2    0    0  0.00000000000E+00  0.00000000000E+00 -0.24132421371E+03  0.19104779154E+04  0.18951750550E+04 0.  0.
        3    1    3    3  502    0 -0.10414147923E+03  0.60933943374E+02 -0.10681255658E+04  0.10749188935E+04  0.10100000352E+00 0.  1.
       -3    1    3    3    0  502  0.10414147923E+03 -0.60933943374E+02  0.82680135206E+03  0.83555902192E+03  0.10100000352E+00 0. -1.
</event>
<event>
 5   0  0.5614989E-05  0.1874481E+04  0.7818609E-02  0.8667664E-01
       -1   -1    0    0    0  501  0.00000000000E+00  0.00000000000E+00  0.69703217642E+03  0.69703217644E+03  0.50400001928E-02 0.  1.
        1   -1    0    0  501    0  0.00000000000E+00  0.00000000000E+00 -0.12602282058E+04  0.12602282058E+04  0.50400001928E-02 0. -1.
    10030    2    1    2    0    0  0.00000000000E+00  0.00000000000E+00 -0.56319602942E+03  0.19572603823E+04  0.18744808445E+04 0.  0.
        4    1    3    3  502    0 -0.86178698350E+03 -0.27370484981E+03 -0.24075473365E+02  0.90452882268E+03  0.12699999809E+01 0.  1.
       -4    1    3    3    0  502  0.86178698350E+03  0.27370484981E+03 -0.53912055605E+03  0.10527315596E+04  0.12699999809E+01 0. -1.
</event>
<event>
 5   0  0.1182630E-04  0.1910881E+04  0.7818609E-02  0.8649459E-01
       -2   -1    0    0    0  501  0.00000000000E+00  0.00000000000E+00  0.52168903679E+03  0.52168903680E+03  0.25500000920E-02 0.  1.
        2   -1    0    0  501    0  0.00000000000E+00  0.00000000000E+00 -0.17498289826E+04  0.17498289826E+04  0.25500000920E-02 0. -1.
    10030    2    1    2    0    0  0.00000000000E+00  0.00000000000E+00 -0.12281399458E+04  0.22715180194E+04  0.19108810497E+04 0.  0.
        5    1    3    3  502    0 -0.65208750772E+03  0.28182011350E+02 -0.14434855052E+04  0.15841984842E+04  0.46999998093E+01 0. -1.
       -5    1    3    3    0  502  0.65208750772E+03 -0.28182011350E+02  0.21534555944E+03  0.68731953520E+03  0.46999998093E+01 0.  1.
</event>
<event>
 5   0  0.5628936E-05  0.1896488E+04  0.7818609E-02  0.8656606E-01
       -1   -1    0    0    0  501  0.00000000000E+00  0.00000000000E+00  0.10148055539E+04  0.10148055539E+04  0.50400001928E-02 0. -1.
        1   -1    0    0  501    0  0.00000000000E+00  0.00000000000E+00 -0.88604833323E+03  0.88604833325E+03  0.50400001928E-02 0.  1.
    10030    2    1    2    0    0  0.00000000000E+00  0.00000000000E+00  0.12875722067E+03  0.19008538872E+04  0.18964880908E+04 0.  0.
        5    1    3    3  502    0  0.57202175626E+03  0.43182730019E+03 -0.55790565804E+03  0.90827557497E+03  0.46999998093E+01 0.  1.
       -5    1    3    3    0  502 -0.57202175626E+03 -0.43182730019E+03  0.68666287871E+03  0.99257831219E+03  0.46999998093E+01 0. -1.
</event>
<event>
 5   0  0.5824956E-05  0.1899386E+04  0.7818609E-02  0.8655162E-01
       -1   -1    0    0    0  501  0.00000000000E+00  0.00000000000E+00  0.10651239373E+04  0.10651239374E+04  0.50400001928E-02 0. -1.
        1   -1    0    0  501    0  0.00000000000E+00  0.00000000000E+00 -0.84677212287E+03  0.84677212288E+03  0.50400001928E-02 0.  1.
    10030    2    1    2    0    0  0.00000000000E+00  0.00000000000E+00  0.21835181448E+03  0.19118960602E+04  0.18993864879E+04 0.  0.
        2    1    3    3  502    0 -0.45728438673E+03  0.51921866611E+03  0.76401430994E+03  0.10307351257E+04  0.25500000920E-02 0. -1.
       -2    1    3    3    0  502  0.45728438673E+03 -0.51921866611E+03 -0.54566249546E+03  0.88116093453E+03  0.25500000920E-02 0.  1.
</event>
<event>
 5   0  0.1133638E-04  0.1896423E+04  0.7818609E-02  0.8656639E-01
       -2   -1    0    0    0  501  0.00000000000E+00  0.00000000000E+00  0.50199466042E+03  0.50199466043E+03  0.25500000920E-02 0.  1.
        2   -1    0    0  501    0  0.00000000000E+00  0.00000000000E+00 -0.17910640708E+04  0.17910640708E+04  0.25500000920E-02 0. -1.
    10030    2    1    2    0    0  0.00000000000E+00  0.00000000000E+00 -0.12890694104E+04  0.22930587313E+04  0.18964225268E+04 0.  0.
        3    1    3    3  502    0 -0.69835447963E+03 -0.38877373195E+03 -0.27678010052E+02  0.79975626057E+03  0.10100000352E+00 0. -1.
       -3    1    3    3    0  502  0.69835447963E+03  0.38877373195E+03 -0.12613914004E+04  0.14933024707E+04  0.10100000352E+00 0.  1.
</event>
<event>
 5   0  0.5579109E-05  0.1899035E+04  0.7818609E-02  0.8655337E-01
        1   -1    0    0  501    0  0.00000000000E+00  0.00000000000E+00  0.53030049800E+03  0.53030049803E+03  0.50400001928E-02 0.  1.
       -1   -1    0    0    0  501  0.00000000000E+00  0.00000000000E+00 -0.17001373454E+04  0.17001373455E+04  0.50400001928E-02 0. -1.
    10030    2    1    2    0    0  0.00000000000E+00  0.00000000000E+00 -0.11698368474E+04  0.22304378435E+04  0.18990352087E+04 0.  0.
        3    1    3    3  502    0  0.67472124447E+03 -0.66219786976E+03 -0.48099646488E+03  0.10607131497E+04  0.10100000352E+00 0.  1.
       -3    1    3    3    0  502 -0.67472124447E+03  0.66219786976E+03 -0.68884038256E+03  0.11697246938E+04  0.10100000352E+00 0. -1.
</event>
<event>
 5   0  0.5579109E-05  0.1907341E+04  0.7818609E-02  0.8651211E-01
        1   -1    0    0  501    0  0.00000000000E+00  0.00000000000E+00  0.11753231982E+04  0.11753231982E+04  0.50400001928E-02 0. -1.
       -1   -1    0    0    0  501  0.00000000000E+00  0.00000000000E+00 -0.77381897532E+03  0.77381897533E+03  0.50400001928E-02 0.  1.
    10030    2    1    2    0    0  0.00000000000E+00  0.00000000000E+00  0.40150422289E+03  0.19491421735E+04  0.19073409689E+04 0.  0.
        3    1    3    3  502    0 -0.53459721940E+03 -0.25841308406E+03 -0.56187102968E+03  0.81747817904E+03  0.10100000352E+00 0.  1.
       -3    1    3    3    0  502  0.53459721940E+03  0.25841308406E+03  0.96337525257E+03  0.11316639945E+04  0.10100000352E+00 0. -1.
</event>
<event>
 5   0  0.5579109E-05  0.1949097E+04  0.7818609E-02  0.8630796E-01
       -1   -1    0    0    0  501  0.00000000000E+00  0.00000000000E+00  0.15974518458E+04  0.15974518458E+04  0.50400001928E-02 0.  1.
        1   -1    0    0  501    0  0.00000000000E+00  0.00000000000E+00 -0.59453723197E+03  0.59453723199E+03  0.50400001928E-02 0. -1.
    10030    2    1    2    0    0  0.00000000000E+00  0.00000000000E+00  0.10029146138E+04  0.21919890778E+04  0.19490968151E+04 0.  0.
        3    1    3    3  502    0  0.56500243986E+03  0.49141573555E+03  0.12029046472E+04  0.14169321729E+04  0.10100000352E+00 0.  1.
       -3    1    3    3    0  502 -0.56500243986E+03 -0.49141573555E+03 -0.19999003334E+03  0.77505690490E+03  0.10100000352E+00 0. -1.
</event>
<event>
 5   0  0.4061125E-05  0.1905447E+04  0.7818609E-02  0.8652150E-01
       -4   -1    0    0    0  501  0.00000000000E+00  0.00000000000E+00  0.61051702612E+03  0.61051834705E+03  0.12699999809E+01 0. -1.
        4   -1    0    0  501    0  0.00000000000E+00  0.00000000000E+00 -0.14867396182E+04  0.14867401606E+04  0.12699999809E+01 0.  1.
    10030    2    1    2    0    0  0.00000000000E+00  0.00000000000E+00 -0.87622259206E+03  0.20972585077E+04  0.19054467238E+04 0.  0.
        5    1    3    3  502    0  0.13061059134E+03 -0.15760361765E+03  0.58601693004E+03  0.62075434687E+03  0.46999998093E+01 0. -1.
       -5    1    3    3    0  502 -0.13061059134E+03  0.15760361765E+03 -0.14622395221E+04  0.14765041608E+04  0.46999998093E+01 0.  1.
</event>
<event>
 5   0  0.5614989E-05  0.1899775E+04  0.7818609E-02  0.8654969E-01
        1   -1    0    0  501    0  0.00000000000E+00  0.00000000000E+00  0.94654971486E+03  0.94654971487E+03  0.50400001928E-02 0. -1.
       -1   -1    0    0    0  501  0.00000000000E+00  0.00000000000E+00 -0.95323679283E+03  0.95323679284E+03  0.50400001928E-02 0.  1.
    10030    2    1    2    0    0  0.00000000000E+00  0.00000000000E+00 -0.66870779749E+01  0.18997865077E+04  0.18997747387E+04 0.  0.
        4    1    3    3  502    0 -0.28439932732E+03 -0.56962382307E+03  0.70159353715E+03  0.94741193863E+03  0.12699999809E+01 0. -1.
       -4    1    3    3    0  502  0.28439932732E+03  0.56962382307E+03 -0.70828061512E+03  0.95237456909E+03  0.12699999809E+01 0.  1.
</event>
<event>
 5   0  0.5614989E-05  0.1896213E+04  0.7818609E-02  0.8656744E-01
        1   -1    0    0  501    0  0.00000000000E+00  0.00000000000E+00  0.78392830370E+03  0.78392830371E+03  0.50400001928E-02 0.  1.
       -1   -1    0    0    0  501  0.00000000000E+00  0.00000000000E+00 -0.11466688337E+04  0.11466688337E+04  0.50400001928E-02 0. -1.
    10030    2    1    2    0    0  0.00000000000E+00  0.00000000000E+00 -0.36274053001E+03  0.19305971374E+04  0.18962132303E+04 0.  0.
        4    1    3    3  502    0 -0.66977939531E+03  0.73707544118E+02 -0.86044836945E+03  0.10928907767E+04  0.12699999809E+01 0. -1.
       -4    1    3    3    0  502  0.66977939531E+03 -0.73707544118E+02  0.49770783944E+03  0.83770636071E+03  0.12699999809E+01 0.  1.
</event>
<event>
 5   0  0.1133638E-04  0.1906936E+04  0.7818609E-02  0.8651411E-01
       -2   -1    0    0    0  501  0.00000000000E+00  0.00000000000E+00  0.73289471882E+03  0.73289471883E+03  0.25500000920E-02 0.  1.
        2   -1    0    0  501    0  0.00000000000E+00  0.00000000000E+00 -0.12404257961E+04  0.12404257961E+04  0.25500000920E-02 0. -1.
    10030    2    1    2    0    0  0.00000000000E+00  0.00000000000E+00 -0.50753107730E+03  0.19733205149E+04  0.19069363021E+04 0.  0.
        3    1    3    3  502    0  0.53810021792E+03 -0.78607710064E+03 -0.21195539290E+03  0.97590683544E+03  0.10100000352E+00 0.  1.
       -3    1    3    3    0  502 -0.53810021792E+03  0.78607710064E+03 -0.29557568439E+03  0.99741367951E+03  0.10100000352E+00 0. -1.
</event>
<event>
 5   0  0.1101678E-04  0.1924911E+04  0.7818609E-02  0.8642555E-01
       -2   -1    0    0    0  501  0.00000000000E+00  0.00000000000E+00  0.11861784113E+04  0.11861784113E+04  0.25500000920E-02 0.  1.
        2   -1    0    0  501    0  0.00000000000E+00  0.00000000000E+00 -0.78092836754E+03  0.78092836755E+03  0.25500000920E-02 0. -1.
    10030    2    1    2    0    0  0.00000000000E+00  0.00000000000E+00  0.40525004374E+03  0.19671067788E+04  0.19249107723E+04 0.  0.
        4    1    3    3  502    0  0.76312178966E+03  0.25548980734E+02 -0.39614669863E+03  0.86019848640E+03  0.12699999809E+01 0. -1.
       -4    1    3    3    0  502 -0.76312178966E+03 -0.25548980734E+02  0.80139674237E+03  0.11069082924E+04  0.12699999809E+01 0.  1.
</event>
<event>
 5   0  0.1101678E-04  0.1901444E+04  0.7818609E-02  0.8654138E-01
       -2   -1    0    0    0  501  0.00000000000E+00  0.00000000000E+00  0.52117917965E+03  0.52117917965E+03  0.25500000920E-02 0.  1.
        2   -1    0    0  501    0  0.00000000000E+00  0.00000000000E+00 -0.17342833414E+04  0.17342833414E+04  0.25500000920E-02 0. -1.
    10030    2    1    2    0    0  0.00000000000E+00  0.00000000000E+00 -0.12131041618E+04  0.22554625211E+04  0.19014440504E+04 0.  0.
        4    1    3    3  502    0 -0.87499587636E+03 -0.24988456998E+03 -0.93315288049E+03  0.13033940284E+04  0.12699999809E+01 0. -1.
       -4    1    3    3    0  502  0.87499587636E+03  0.24988456998E+03 -0.27995128127E+03  0.95206849268E+03  0.12699999809E+01 0.  1.
</event>
<event>
 5   0  0.5628936E-05  0.1909118E+04  0.7818609E-02  0.8650331E-01
        1   -1    0    0  501    0  0.00000000000E+00  0.00000000000E+00  0.10844123621E+04  0.10844123621E+04  0.50400001928E-02 0.  1.
       -1   -1    0    0    0  501  0.00000000000E+00  0.00000000000E+00 -0.84025496740E+03  0.84025496741E+03  0.50400001928E-02 0. -1.
    10030    2    1    2    0    0  0.00000000000E+00  0.00000000000E+00  0.24415739467E+03  0.19246673295E+04  0.19091179890E+04 0.  0.
        5    1    3    3  502    0  0.14716650136E+03  0.71782720421E+03  0.73880207497E+03  0.10405693010E+04  0.46999998093E+01 0.  1.
       -5    1    3    3    0  502 -0.14716650136E+03 -0.71782720421E+03 -0.49464468030E+03  0.88409802848E+03  0.46999998093E+01 0. -1.
</event>
<event>
 5   0  0.5579109E-05  0.1909205E+04  0.7818609E-02  0.8650288E-01
       -1   -1    0    0    0  501  0.00000000000E+00  0.00000000000E+00  0.85457778629E+03  0.85457778631E+03  0.50400001928E-02 0. -1.
        1   -1    0    0  501    0  0.00000000000E+00  0.00000000000E+00 -0.10663351211E+04  0.10663351211E+04  0.50400001928E-02 0.  1.
    10030    2    1    2    0    0  0.00000000000E+00  0.00000000000E+00 -0.21175733481E+03  0.19209129074E+04  0.19092053921E+04 0.  0.
        3    1    3    3  502    0 -0.52962437401E+03  0.76133581886E+03  0.12163201691E+03  0.93537616196E+03  0.10100000352E+00 0.  1.
       -3    1    3    3    0  502  0.52962437401E+03 -0.76133581886E+03 -0.33338935172E+03  0.98553674546E+03  0.10100000352E+00 0. -1.
</event>
<event>
 5   0  0.1101678E-04  0.1880354E+04  0.7818609E-02  0.8664698E-01
        2   -1    0    0  501    0  0.00000000000E+00  0.00000000000E+00  0.17237881769E+04  0.17237881769E+04  0.25500000920E-02 0. -1.
       -2   -1    0    0    0  501  0.00000000000E+00  0.00000000000E+00 -0.51278484134E+03  0.51278484135E+03  0.25500000920E-02 0.  1.
    10030    2    1    2    0    0  0.00000000000E+00  0.00000000000E+00  0.12110033356E+04  0.22365730183E+04  0.18803536336E+04 0.  0.
        4    1    3    3  502    0  0.51462312205E+02  0.92211698967E+03  0.39613702973E+03  0.10049250079E+04  0.12699999809E+01 0.  1.
       -4    1    3    3    0  502 -0.51462312205E+02 -0.92211698967E+03  0.81486630583E+03  0.12316480104E+04  0.12699999809E+01 0. -1.
</event>
<event>
 5   0  0.1182630E-04  0.1917908E+04  0.7818609E-02  0.8645993E-01
        2   -1    0    0  501    0  0.00000000000E+00  0.00000000000E+00  0.85604697891E+03  0.85604697891E+03  0.25500000920E-02 0.  1.
       -2   -1    0    0    0  501  0.00000000000E+00  0.00000000000E+00 -0.10742319818E+04  0.10742319818E+04  0.25500000920E-02 0. -1.
    10030    2    1    2    0    0  0.00000000000E+00  0.00000000000E+00 -0.21818500285E+03  0.19302789607E+04  0.19179082800E+04 0.  0.
        5    1    3    3  502    0  0.18366773554E+03  0.91584702622E+02  0.83367211248E+03  0.85857607465E+03  0.46999998093E+01 0.  1.
       -5    1    3    3    0  502 -0.18366773554E+03 -0.91584702622E+02 -0.10518571153E+04  0.10717028860E+04  0.46999998093E+01 0. -1.
</event>
<event>
 5   0  0.5628936E-05  0.1942646E+04  0.7818609E-02  0.8633915E-01
        1   -1    0    0  501    0  0.00000000000E+00  0.00000000000E+00  0.11860988295E+04  0.11860988295E+04  0.50400001928E-02 0.  1.
       -1   -1    0    0    0  501  0.00000000000E+00  0.00000000000E+00 -0.79543865048E+03  0.79543865049E+03  0.50400001928E-02 0. -1.
    10030    2    1    2    0    0  0.00000000000E+00  0.00000000000E+00  0.39066017901E+03  0.19815374800E+04  0.19426464962E+04 0.  0.
        5    1    3    3  502    0 -0.91143037733E+03 -0.15893465936E+03 -0.10636336436E+03  0.93128986569E+03  0.46999998093E+01 0.  1.
       -5    1    3    3    0  502  0.91143037733E+03  0.15893465936E+03  0.49702354337E+03  0.10502476143E+04  0.46999998093E+01 0. -1.
</event>
<event>
 5   0  0.5579109E-05  0.1898741E+04  0.7818609E-02  0.8655483E-01
       -1   -1    0    0    0  501  0.00000000000E+00  0.00000000000E+00  0.54428159315E+03  0.54428159317E+03  0.50400001928E-02 0. -1.
        1   -1    0    0  501    0  0.00000000000E+00  0.00000000000E+00 -0.16559523156E+04  0.16559523156E+04  0.50400001928E-02 0.  1.
    10030    2    1    2    0    0  0.00000000000E+00  0.00000000000E+00 -0.11116707225E+04  0.22002339088E+04  0.18987410193E+04 0.  0.
        3    1    3    3  502    0  0.42462497788E+03  0.46999122050E+02  0.42659969623E+03  0.60374050745E+03  0.10100000352E+00 0. -1.
       -3    1    3    3    0  502 -0.42462497788E+03 -0.46999122050E+02 -0.15382704187E+04  0.15964934014E+04  0.10100000352E+00 0.  1.
</event>
<event>
 5   0  0.1141890E-04  0.1898572E+04  0.7818609E-02  0.8655567E-01
        2   -1    0    0  501    0  0.00000000000E+00  0.00000000000E+00  0.16845681787E+04  0.16845681787E+04  0.25500000920E-02 0. -1.
       -2   -1    0    0    0  501  0.00000000000E+00  0.00000000000E+00 -0.53494062706E+03  0.53494062707E+03  0.25500000920E-02 0.  1.
    10030    2    1    2    0    0  0.00000000000E+00  0.00000000000E+00  0.11496275516E+04  0.22195088058E+04  0.18985720506E+04 0.  0.
        2    1    3    3  502    0 -0.13165013821E+03 -0.47888395472E+03  0.15205690262E+04  0.15996223819E+04  0.25500000920E-02 0. -1.
       -2    1    3    3    0  502  0.13165013821E+03  0.47888395472E+03 -0.37094147460E+03  0.61988642392E+03  0.25500000920E-02 0.  1.
</event>
<event>
 5   0  0.1182630E-04  0.1903785E+04  0.7818609E-02  0.8652975E-01
        2   -1    0    0  501    0  0.00000000000E+00  0.00000000000E+00  0.22031469477E+04  0.22031469477E+04  0.25500000920E-02 0. -1.
       -2   -1    0    0    0  501  0.00000000000E+00  0.00000000000E+00 -0.41127482960E+03  0.41127482961E+03  0.25500000920E-02 0.  1.
    10030    2    1    2    0    0  0.00000000000E+00  0.00000000000E+00  0.17918721181E+04  0.26144217773E+04  0.19037845314E+04 0.  0.
        5    1    3    3  502    0  0.26339250147E+03  0.84242888409E+03  0.40651240384E+03  0.97176975619E+03  0.46999998093E+01 0.  1.
       -5    1    3    3    0  502 -0.26339250147E+03 -0.84242888409E+03  0.13853597142E+04  0.16426520211E+04  0.46999998093E+01 0. -1.
</event>
<event>
 5   0  0.1118206E-04  0.1869506E+04  0.7818609E-02  0.8670186E-01
       -2   -1    0    0    0  501  0.00000000000E+00  0.00000000000E+00  0.80776764453E+03  0.80776764454E+03  0.25500000920E-02 0.  1.
        2   -1    0    0  501    0  0.00000000000E+00  0.00000000000E+00 -0.10817009878E+04  0.10817009878E+04  0.25500000920E-02 0. -1.
    10030    2    1    2    0    0  0.00000000000E+00  0.00000000000E+00 -0.27393334327E+03  0.18894686324E+04  0.18695058802E+04 0.  0.
        1    1    3    3  502    0 -0.47091675481E+02  0.48017681065E+03  0.67219186685E+03  0.82742329026E+03  0.50400001928E-02 0.  1.
       -1    1    3    3    0  502  0.47091675481E+02 -0.48017681065E+03 -0.94612521013E+03  0.10620453421E+04  0.50400001928E-02 0. -1.
</event>
<event>
 5   0  0.1101678E-04  0.1894298E+04  0.7818609E-02  0.8657700E-01
       -2   -1    0    0    0  501  0.00000000000E+00  0.00000000000E+00  0.67631791839E+03  0.67631791840E+03  0.25500000920E-02 0. -1.
        2   -1    0    0  501    0  0.00000000000E+00  0.00000000000E+00 -0.13264341529E+04  0.13264341529E+04  0.25500000920E-02 0.  1.
    10030    2    1    2    0    0  0.00000000000E+00  0.00000000000E+00 -0.65011623452E+03  0.20027520713E+04  0.18942979546E+04 0.  0.
        4    1    3    3  502    0 -0.70999756369E+03  0.38948244935E+02 -0.98656064334E+03  0.12161073234E+04  0.12699999809E+01 0.  1.
       -4    1    3    3    0  502  0.70999756369E+03 -0.38948244935E+02  0.33644440882E+03  0.78664474788E+03  0.12699999809E+01 0. -1.
</event>
<event>
 5   0  0.1182630E-04  0.1905115E+04  0.7818609E-02  0.8652314E-01
       -2   -1    0    0    0  501  0.00000000000E+00  0.00000000000E+00  0.13728251497E+04  0.13728251497E+04  0.25500000920E-02 0.  1.
        2   -1    0    0  501    0  0.00000000000E+00  0.00000000000E+00 -0.66094803904E+03  0.66094803904E+03  0.25500000920E-02 0. -1.
    10030    2    1    2    0    0  0.00000000000E+00  0.00000000000E+00  0.71187711067E+03  0.20337731888E+04  0.19051153148E+04 0.  0.
        5    1    3    3  502    0 -0.62237747622E+03  0.21742898269E+03 -0.37803582718E+03  0.75997517199E+03  0.46999998093E+01 0. -1.
       -5    1    3    3    0  502  0.62237747622E+03 -0.21742898269E+03  0.10899129379E+04  0.12737980168E+04  0.46999998093E+01 0.  1.
</event>
<event>
 5   0  0.1133638E-04  0.1918230E+04  0.7818609E-02  0.8645835E-01
       -2   -1    0    0    0  501  0.00000000000E+00  0.00000000000E+00  0.95374521186E+03  0.95374521187E+03  0.25500000920E-02 0.  1.
        2   -1    0    0  501    0  0.00000000000E+00  0.00000000000E+00 -0.96451520601E+03  0.96451520601E+03  0.25500000920E-02 0. -1.
    10030    2    1    2    0    0  0.00000000000E+00  0.00000000000E+00 -0.10769994141E+02  0.19182604179E+04  0.19182301838E+04 0.  0.
        3    1    3    3  502    0  0.23810100150E+02 -0.81056192291E+03 -0.51756901366E+03  0.96200584501E+03  0.10100000352E+00 0. -1.
       -3    1    3    3    0  502 -0.23810100150E+02  0.81056192291E+03  0.50679901951E+03  0.95625457286E+03  0.10100000352E+00 0.  1.
</event>
<event>
 5   0  0.5614989E-05  0.1904003E+04  0.7818609E-02  0.8652866E-01
       -1   -1    0    0    0  501  0.00000000000E+00  0.00000000000E+00  0.95096829670E+03  0.95096829671E+03  0.50400001928E-02 0. -1.
        1   -1    0    0  501    0  0.00000000000E+00  0.00000000000E+00 -0.95303576353E+03  0.95303576354E+03  0.50400001928E-02 0.  1.
    10030    2    1    2    0    0  0.00000000000E+00  0.00000000000E+00 -0.20674668286E+01  0.19040040603E+04  0.19040029378E+04 0.  0.
        4    1    3    3  502    0  0.62277400802E+03 -0.39168179416E+03  0.60315458271E+03  0.95134597097E+03  0.12699999809E+01 0. -1.
       -4    1    3    3    0  502 -0.62277400802E+03  0.39168179416E+03 -0.60522204953E+03  0.95265808928E+03  0.12699999809E+01 0.  1.
</event>
<event>
 5   0  0.1182630E-04  0.1889533E+04  0.7818609E-02  0.8660084E-01
       -2   -1    0    0    0  501  0.00000000000E+00  0.00000000000E+00  0.95138837308E+03  0.95138837309E+03  0.25500000920E-02 0.  1.
        2   -1    0    0  501    0  0.00000000000E+00  0.00000000000E+00 -0.93819047102E+03  0.93819047103E+03  0.25500000920E-02 0. -1.
    10030    2    1    2    0    0  0.00000000000E+00  0.00000000000E+00  0.13197902060E+02  0.18895788441E+04  0.18895327527E+04 0.  0.
        5    1    3    3  502    0 -0.67000701971E+02  0.34881002349E+02  0.94835205254E+03  0.95136716568E+03  0.46999998093E+01 0.  1.
       -5    1    3    3    0  502  0.67000701971E+02 -0.34881002349E+02 -0.93515415048E+03  0.93821167843E+03  0.46999998093E+01 0. -1.
</event>
<event>
 5   0  0.5628936E-05  0.1891647E+04  0.7818609E-02  0.8659026E-01
       -1   -1    0    0    0  501  0.00000000000E+00  0.00000000000E+00  0.56421454281E+03  0.56421454283E+03  0.50400001928E-02 0. -1.
        1   -1    0    0  501    0  0.00000000000E+00  0.00000000000E+00 -0.15855348822E+04  0.15855348822E+04  0.50400001928E-02 0.  1.
    10030    2    1    2    0    0  0.00000000000E+00  0.00000000000E+00 -0.10213203394E+04  0.21497494250E+04  0.18916467310E+04 0.  0.
        5    1    3    3  502    0 -0.92524005411E+03  0.16582602693E+03 -0.62980974093E+03  0.11314812542E+04  0.46999998093E+01 0.  1.
       -5    1    3    3    0  502  0.92524005411E+03 -0.16582602693E+03 -0.39151059845E+03  0.10182681708E+04  0.46999998093E+01 0. -1.
</event>
<event>
 5   0  0.5628936E-05  0.1902814E+04  0.7818609E-02  0.8653457E-01
       -1   -1    0    0    0  501  0.00000000000E+00  0.00000000000E+00  0.54745177949E+03  0.54745177951E+03  0.50400001928E-02 0. -1.
        1   -1    0    0  501    0  0.00000000000E+00  0.00000000000E+00 -0.16534346433E+04  0.16534346433E+04  0.50400001928E-02 0.  1.
    10030    2    1    2    0    0  0.00000000000E+00  0.00000000000E+00 -0.11059828638E+04  0.22008864228E+04  0.19028144815E+04 0.  0.
        5    1    3    3  502    0 -0.68662552740E+03 -0.29483891068E+03 -0.12341078476E+04  0.14427157958E+04  0.46999998093E+01 0. -1.
       -5    1    3    3    0  502  0.68662552740E+03  0.29483891068E+03  0.12812498378E+03  0.75817062696E+03  0.46999998093E+01 0.  1.
</event>
<event>
 5   0  0.5628936E-05  0.1905381E+04  0.7818609E-02  0.8652182E-01
       -1   -1    0    0    0  501  0.00000000000E+00  0.00000000000E+00  0.84089381645E+03  0.84089381646E+03  0.50400001928E-02 0. -1.
        1   -1    0    0  501    0  0.00000000000E+00  0.00000000000E+00 -0.10793508300E+04  0.10793508300E+04  0.50400001928E-02 0.  1.
    10030    2    1    2    0    0  0.00000000000E+00  0.00000000000E+00 -0.23845701351E+03  0.19202446464E+04  0.19053812623E+04 0.  0.
        5    1    3    3  502    0  0.49119321817E+03 -0.19536027362E+03  0.67952013933E+03  0.86093328652E+03  0.46999998093E+01 0. -1.
       -5    1    3    3    0  502 -0.49119321817E+03  0.19536027362E+03 -0.91797715284E+03  0.10593113599E+04  0.46999998093E+01 0.  1.
</event>
<event>
 5   0  0.5841424E-05  0.1917916E+04  0.7818609E-02  0.8645989E-01
       -1   -1    0    0    0  501  0.00000000000E+00  0.00000000000E+00  0.61549094833E+03  0.61549094835E+03  0.50400001928E-02 0. -1.
        1   -1    0    0  501    0  0.00000000000E+00  0.00000000000E+00 -0.14940931651E+04  0.14940931651E+04  0.50400001928E-02 0.  1.
    10030    2    1    2    0    0  0.00000000000E+00  0.00000000000E+00 -0.87860221681E+03  0.21095841135E+04  0.19179163893E+04 0.  0.
        1    1    3    3  502    0 -0.66875995407E+03 -0.51046460053E+03 -0.94549471496E+03  0.12656121999E+04  0.50400001928E-02 0.  1.
       -1    1    3    3    0  502  0.66875995407E+03  0.51046460053E+03  0.66892498159E+02  0.84397191357E+03  0.50400001928E-02 0. -1.
</event>
<event>
 5   0  0.1133638E-04  0.1884619E+04  0.7818609E-02  0.8662551E-01
        2   -1    0    0  501    0  0.00000000000E+00  0.00000000000E+00  0.12169590982E+04  0.12169590982E+04  0.25500000920E-02 0. -1.
       -2   -1    0    0    0  501  0.00000000000E+00  0.00000000000E+00 -0.72964424887E+03  0.72964424888E+03  0.25500000920E-02 0.  1.
    10030    2    1    2    0    0  0.00000000000E+00  0.00000000000E+00  0.48731484932E+03  0.19466033471E+04  0.18846190141E+04 0.  0.
        3    1    3    3  502    0 -0.53947407169E+03  0.16898778078E+03 -0.53503312885E+03  0.77836341335E+03  0.10100000352E+00 0.  1.
       -3    1    3    3    0  502  0.53947407169E+03 -0.16898778078E+03  0.10223479782E+04  0.11682399337E+04  0.10100000352E+00 0. -1.
</event>
<event>
 5   0  0.4061125E-05  0.1898242E+04  0.7818609E-02  0.8655732E-01
       -4   -1    0    0    0  501  0.00000000000E+00  0.00000000000E+00  0.59702489502E+03  0.59702624580E+03  0.12699999809E+01 0. -1.
        4   -1    0    0  501    0  0.00000000000E+00  0.00000000000E+00 -0.15088621892E+04  0.15088627236E+04  0.12699999809E+01 0.  1.
    10030    2    1    2    0    0  0.00000000000E+00  0.00000000000E+00 -0.91183729415E+03  0.21058889695E+04  0.18982415812E+04 0.  0.
        3    1    3    3  502    0 -0.19964913161E+03 -0.90822209011E+03 -0.66671174202E+03  0.11442166306E+04  0.10100000352E+00 0.  1.
       -3    1    3    3    0  502  0.19964913161E+03  0.90822209011E+03 -0.24512555213E+03  0.96167233880E+03  0.10100000352E+00 0. -1.
</event>
<event>
 5   0  0.5614989E-05  0.1892385E+04  0.7818609E-02  0.8658656E-01
        1   -1    0    0  501    0  0.00000000000E+00  0.00000000000E+00  0.11387545812E+04  0.11387545812E+04  0.50400001928E-02 0.  1.
       -1   -1    0    0    0  501  0.00000000000E+00  0.00000000000E+00 -0.78619272424E+03  0.78619272426E+03  0.50400001928E-02 0. -1.
    10030    2    1    2    0    0  0.00000000000E+00  0.00000000000E+00  0.35256185695E+03  0.19249473055E+04  0.18923853376E+04 0.  0.
        4    1    3    3  502    0  0.18542001398E+03 -0.83418868339E+03 -0.23694501439E+03  0.88678965591E+03  0.12699999809E+01 0. -1.
       -4    1    3    3    0  502 -0.18542001398E+03  0.83418868339E+03  0.58950687135E+03  0.10381576496E+04  0.12699999809E+01 0.  1.
</event>
<event>
 5   0  0.1101678E-04  0.1912695E+04  0.7818609E-02  0.8648563E-01
        2   -1    0    0  501    0  0.00000000000E+00  0.00000000000E+00  0.12768768476E+04  0.12768768476E+04  0.25500000920E-02 0. -1.
       -2   -1    0    0    0  501  0.00000000000E+00  0.00000000000E+00 -0.71627938832E+03  0.71627938832E+03  0.25500000920E-02 0.  1.
    10030    2    1    2    0    0  0.00000000000E+00  0.00000000000E+00  0.56059745925E+03  0.19931562359E+04  0.19126950278E+04 0.  0.
        4    1    3    3  502    0 -0.60951369375E+02 -0.93797307562E+03  0.96556606803E+02  0.94489859310E+03  0.12699999809E+01 0.  1.
       -4    1    3    3    0  502  0.60951369375E+02  0.93797307562E+03  0.46404085245E+03  0.10482576428E+04  0.12699999809E+01 0. -1.
</event>
<event>
 5   0  0.1141890E-04  0.1908624E+04  0.7818609E-02  0.8650576E-01
        2   -1    0    0  501    0  0.00000000000E+00  0.00000000000E+00  0.15091454898E+04  0.15091454898E+04  0.25500000920E-02 0.  1.
       -2   -1    0    0    0  501  0.00000000000E+00  0.00000000000E+00 -0.60346138536E+03  0.60346138536E+03  0.25500000920E-02 0. -1.
    10030    2    1    2    0    0  0.00000000000E+00  0.00000000000E+00  0.90568410445E+03  0.21126068752E+04  0.19086236172E+04 0.  0.
        2    1    3    3  502    0 -0.34945220731E+03  0.88405595926E+03  0.54570904780E+03  0.10961159378E+04  0.25500000920E-02 0. -1.
       -2    1    3    3    0  502  0.34945220731E+03 -0.88405595926E+03  0.35997505665E+03  0.10164909373E+04  0.25500000920E-02 0.  1.
</event>
<event>
 5   0  0.5841424E-05  0.1916470E+04  0.7818609E-02  0.8646701E-01
        1   -1    0    0  501    0  0.00000000000E+00  0.00000000000E+00  0.12615028262E+04  0.12615028262E+04  0.50400001928E-02 0. -1.
       -1   -1    0    0    0  501  0.00000000000E+00  0.00000000000E+00 -0.72787332159E+03  0.72787332161E+03  0.50400001928E-02 0.  1.
    10030    2    1    2    0    0  0.00000000000E+00  0.00000000000E+00  0.53362950458E+03  0.19893761478E+04  0.19164699343E+04 0.  0.
        1    1    3    3  502    0 -0.14114958806E+03  0.86959342505E+03  0.65811432136E+03  0.10996501221E+04  0.50400001928E-02 0.  1.
       -1    1    3    3    0  502  0.14114958806E+03 -0.86959342505E+03 -0.12448481679E+03  0.88972602565E+03  0.50400001928E-02 0. -1.
</event>
<event>
 5   0  0.1182630E-04  0.1910095E+04  0.7818609E-02  0.8649848E-01
        2   -1    0    0  501    0  0.00000000000E+00  0.00000000000E+00  0.15706305179E+04  0.15706305179E+04  0.25500000920E-02 0.  1.
       -2   -1    0    0    0  501  0.00000000000E+00  0.00000000000E+00 -0.58073223864E+03  0.58073223865E+03  0.25500000920E-02 0. -1.
    10030    2    1    2    0    0  0.00000000000E+00  0.00000000000E+00  0.98989827928E+03  0.21513627566E+04  0.19100950518E+04 0.  0.
        5    1    3    3  502    0 -0.72671754021E+03 -0.15229517551E+03  0.11714693671E+04  0.13869660313E+04  0.46999998093E+01 0.  1.
       -5    1    3    3    0  502  0.72671754021E+03  0.15229517551E+03 -0.18157108785E+03  0.76439672532E+03  0.46999998093E+01 0. -1.
</event>
<event>
 5   0  0.5579109E-05  0.1866210E+04  0.7818609E-02  0.8671861E-01
        1   -1    0    0  501    0  0.00000000000E+00  0.00000000000E+00  0.98803650663E+03  0.98803650664E+03  0.50400001928E-02 0.  1.
       -1   -1    0    0    0  501  0.00000000000E+00  0.00000000000E+00 -0.88122790238E+03  0.88122790240E+03  0.50400001928E-02 0. -1.
    10030    2    1    2    0    0  0.00000000000E+00  0.00000000000E+00  0.10680860424E+03  0.18692644090E+04  0.18662104257E+04 0.  0.
        3    1    3    3  502    0 -0.10673938126E+03  0.88570086829E+03 -0.22058676473E+03  0.91897652559E+03  0.10100000352E+00 0. -1.
       -3    1    3    3    0  502  0.10673938126E+03 -0.88570086829E+03  0.32739536897E+03  0.95028788345E+03  0.10100000352E+00 0.  1.
</event>
<event>
 5   0  0.1101678E-04  0.1896643E+04  0.7818609E-02  0.8656529E-01
       -2   -1    0    0    0  501  0.00000000000E+00  0.00000000000E+00  0.23607371444E+04  0.23607371444E+04  0.25500000920E-02 0.  1.
        2   -1    0    0  501    0  0.00000000000E+00  0.00000000000E+00 -0.38094631087E+03  0.38094631088E+03  0.25500000920E-02 0. -1.
    10030    2    1    2    0    0  0.00000000000E+00  0.00000000000E+00  0.19797908335E+04  0.27416834553E+04  0.18966434627E+04 0.  0.
        4    1    3    3  502    0  0.11995093245E+03 -0.24767862311E+03 -0.32195523195E+03  0.42354422534E+03  0.12699999809E+01 0. -1.
       -4    1    3    3    0  502 -0.11995093245E+03  0.24767862311E+03  0.23017460655E+04  0.23181392299E+04  0.12699999809E+01 0.  1.
</event>
<event>
 5   0  0.4061125E-05  0.1944382E+04  0.7818609E-02  0.8633074E-01
       -4   -1    0    0    0  501  0.00000000000E+00  0.00000000000E+00  0.11334036623E+04  0.11334043738E+04  0.12699999809E+01 0.  1.
        4   -1    0    0  501    0  0.00000000000E+00  0.00000000000E+00 -0.83390761108E+03  0.83390857816E+03  0.12699999809E+01 0. -1.
    10030    2    1    2    0    0  0.00000000000E+00  0.00000000000E+00  0.29949605117E+03  0.19673129519E+04  0.19443822582E+04 0.  0.
        3    1    3    3  502    0 -0.20988680594E+03  0.83345796600E+03  0.60947524934E+03  0.10536435556E+04  0.10100000352E+00 0.  1.
       -3    1    3    3    0  502  0.20988680594E+03 -0.83345796600E+03 -0.30997919817E+03  0.91366939639E+03  0.10100000352E+00 0. -1.
</event>
<event>
 5   0  0.5579109E-05  0.1904491E+04  0.7818609E-02  0.8652624E-01
        1   -1    0    0  501    0  0.00000000000E+00  0.00000000000E+00  0.16662546101E+04  0.16662546101E+04  0.50400001928E-02 0.  1.
       -1   -1    0    0    0  501  0.00000000000E+00  0.00000000000E+00 -0.54419743123E+03  0.54419743126E+03  0.50400001928E-02 0. -1.
    10030    2    1    2    0    0  0.00000000000E+00  0.00000000000E+00  0.11220571789E+04  0.22104520414E+04  0.19044909857E+04 0.  0.
        3    1    3    3  502    0  0.23788290548E+03 -0.83671710069E+03  0.11137847835E+03  0.87697717128E+03  0.10100000352E+00 0. -1.
       -3    1    3    3    0  502 -0.23788290548E+03  0.83671710069E+03  0.10106787006E+04  0.13334748701E+04  0.10100000352E+00 0.  1.
</event>
<event>
 5   0  0.5841424E-05  0.1847210E+04  0.7818609E-02  0.8681589E-01
       -1   -1    0    0    0  501  0.00000000000E+00  0.00000000000E+00  0.58418868741E+03  0.58418868743E+03  0.50400001928E-02 0.  1.
        1   -1    0    0  501    0  0.00000000000E+00  0.00000000000E+00 -0.14602235379E+04  0.14602235379E+04  0.50400001928E-02 0. -1.
    10030    2    1    2    0    0  0.00000000000E+00  0.00000000000E+00 -0.87603485046E+03  0.20444122253E+04  0.18472098656E+04 0.  0.
        1    1    3    3  502    0  0.45671793185E+03 -0.78214538692E+03 -0.63816422890E+03  0.11079694304E+04  0.50400001928E-02 0. -1.
       -1    1    3    3    0  502 -0.45671793185E+03  0.78214538692E+03 -0.23787062156E+03  0.93644279493E+03  0.50400001928E-02 0.  1.
</event>
<event>
 5   0  0.5579109E-05  0.1898066E+04  0.7818609E-02  0.8655820E-01
       -1   -1    0    0    0  501  0.00000000000E+00  0.00000000000E+00  0.66628409802E+03  0.66628409804E+03  0.50400001928E-02 0. -1.
        1   -1    0    0  501    0  0.00000000000E+00  0.00000000000E+00 -0.13517704756E+04  0.13517704756E+04  0.50400001928E-02 0.  1.
    10030    2    1    2    0    0  0.00000000000E+00  0.00000000000E+00 -0.68548637758E+03  0.20180545737E+04  0.18980655121E+04 0.  0.
        3    1    3    3  502    0 -0.55517271590E+03 -0.38387244925E+03 -0.10520674704E+04  0.12499683093E+04  0.10100000352E+00 0.  1.
       -3    1    3    3    0  502  0.55517271590E+03  0.38387244925E+03  0.36658109278E+03  0.76808626439E+03  0.10100000352E+00 0. -1.
</event>
<event>
 5   0  0.1101678E-04  0.1905351E+04  0.7818609E-02  0.8652197E-01
        2   -1    0    0  501    0  0.00000000000E+00  0.00000000000E+00  0.13452597812E+04  0.13452597812E+04  0.25500000920E-02 0.  1.
       -2   -1    0    0    0  501  0.00000000000E+00  0.00000000000E+00 -0.67465853483E+03  0.67465853483E+03  0.25500000920E-02 0. -1.
    10030    2    1    2    0    0  0.00000000000E+00  0.00000000000E+00  0.67060124635E+03  0.20199183160E+04  0.19053514038E+04 0.  0.
        4    1    3    3  502    0  0.39844401562E+03  0.77821578910E+03 -0.65887737636E+02  0.87676693303E+03  0.12699999809E+01 0.  1.
       -4    1    3    3    0  502 -0.39844401562E+03 -0.77821578910E+03  0.73648898399E+03  0.11431513830E+04  0.12699999809E+01 0. -1.
</event>
<event>
 5   0  0.1118206E-04  0.1889216E+04  0.7818609E-02  0.8660243E-01
        2   -1    0    0  501    0  0.00000000000E+00  0.00000000000E+00  0.23100839169E+04  0.23100839169E+04  0.25500000920E-02 0. -1.
       -2   -1    0    0    0  501  0.00000000000E+00  0.00000000000E+00 -0.38625614528E+03  0.38625614529E+03  0.25500000920E-02 0.  1.
    10030    2    1    2    0    0  0.00000000000E+00  0.00000000000E+00  0.19238277717E+04  0.26963400622E+04  0.18892158257E+04 0.  0.
        1    1    3    3  502    0 -0.32119171553E+03  0.60654655433E+03  0.35621198940E+02  0.68726393077E+03  0.50400001928E-02 0.  1.
       -1    1    3    3    0  502  0.32119171553E+03 -0.60654655433E+03  0.18882065727E+04  0.20090761314E+04  0.50400001928E-02 0. -1.
</event>
<event>
 5   0  0.4061125E-05  0.1902173E+04  0.7818609E-02  0.8653776E-01
       -4   -1    0    0    0  501  0.00000000000E+00  0.00000000000E+00  0.80372561796E+03  0.80372662135E+03  0.12699999809E+01 0.  1.
        4   -1    0    0  501    0  0.00000000000E+00  0.00000000000E+00 -0.11254630396E+04  0.11254637561E+04  0.12699999809E+01 0. -1.
    10030    2    1    2    0    0  0.00000000000E+00  0.00000000000E+00 -0.32173742163E+03  0.19291903775E+04  0.19021725853E+04 0.  0.
        3    1    3    3  502    0  0.66428139241E+03 -0.59380136207E+03 -0.49830342513E+03  0.10208702854E+04  0.10100000352E+00 0. -1.
       -3    1    3    3    0  502 -0.66428139241E+03  0.59380136207E+03  0.17656600350E+03  0.90832009209E+03  0.10100000352E+00 0.  1.
</event>
<event>
 5   0  0.5824956E-05  0.1900781E+04  0.7818609E-02  0.8654468E-01
       -1   -1    0    0    0  501  0.00000000000E+00  0.00000000000E+00  0.81280872800E+03  0.81280872802E+03  0.50400001928E-02 0.  1.
        1   -1    0    0  501    0  0.00000000000E+00  0.00000000000E+00 -0.11112607163E+04  0.11112607163E+04  0.50400001928E-02 0. -1.
    10030    2    1    2    0    0  0.00000000000E+00  0.00000000000E+00 -0.29845198828E+03  0.19240694443E+04  0.19007813228E+04 0.  0.
        2    1    3    3  502    0 -0.76834154702E+03 -0.32916333105E+03  0.30858182885E+03  0.89102187206E+03  0.25500000920E-02 0.  1.
       -2    1    3    3    0  502  0.76834154702E+03  0.32916333105E+03 -0.60703381713E+03  0.10330475723E+04  0.25500000920E-02 0. -1.
</event>
<event>
 5   0  0.4061125E-05  0.1892578E+04  0.7818609E-02  0.8658560E-01
        3   -1    0    0  501    0  0.00000000000E+00  0.00000000000E+00  0.13872742154E+04  0.13872742191E+04  0.10100000352E+00 0.  1.
       -3   -1    0    0    0  501  0.00000000000E+00  0.00000000000E+00 -0.64548380423E+03  0.64548381213E+03  0.10100000352E+00 0. -1.
    10030    2    1    2    0    0  0.00000000000E+00  0.00000000000E+00  0.74179041119E+03  0.20327580312E+04  0.18925781884E+04 0.  0.
        3    1    3    3  502    0  0.49721318260E+03 -0.82212480397E+02  0.12311448426E+04  0.13302997687E+04  0.10100000352E+00 0.  1.
       -3    1    3    3    0  502 -0.49721318260E+03  0.82212480397E+02 -0.48935443141E+03  0.70245826255E+03  0.10100000352E+00 0. -1.
</event>
<event>
 5   0  0.1101678E-04  0.1904154E+04  0.7818609E-02  0.8652792E-01
        2   -1    0    0  501    0  0.00000000000E+00  0.00000000000E+00  0.19528868792E+04  0.19528868792E+04  0.25500000920E-02 0.  1.
       -2   -1    0    0    0  501  0.00000000000E+00  0.00000000000E+00 -0.46415913165E+03  0.46415913166E+03  0.25500000920E-02 0. -1.
    10030    2    1    2    0    0  0.00000000000E+00  0.00000000000E+00  0.14887277475E+04  0.24170460108E+04  0.19041536472E+04 0.  0.
        4    1    3    3  502    0  0.25265787932E+03 -0.68689085150E+02  0.19062875225E+04  0.19241850030E+04  0.12699999809E+01 0.  1.
       -4    1    3    3    0  502 -0.25265787932E+03  0.68689085150E+02 -0.41755977502E+03  0.49286100781E+03  0.12699999809E+01 0. -1.
</event>
<event>
 5   0  0.5579109E-05  0.1897718E+04  0.7818609E-02  0.8655993E-01
       -1   -1    0    0    0  501  0.00000000000E+00  0.00000000000E+00  0.56790081831E+03  0.56790081834E+03  0.50400001928E-02 0. -1.
        1   -1    0    0  501    0  0.00000000000E+00  0.00000000000E+00 -0.15853710192E+04  0.15853710192E+04  0.50400001928E-02 0.  1.
    10030    2    1    2    0    0  0.00000000000E+00  0.00000000000E+00 -0.10174702009E+04  0.21532718376E+04  0.18977181026E+04 0.  0.
        3    1    3    3  502    0  0.54145615679E+03  0.20259788223E+03  0.34499118641E+03  0.67323071863E+03  0.10100000352E+00 0. -1.
       -3    1    3    3    0  502 -0.54145615679E+03 -0.20259788223E+03 -0.13624613873E+04  0.14800411189E+04  0.10100000352E+00 0.  1.
</event>
<event>
 5   0  0.1101678E-04  0.1899306E+04  0.7818609E-02  0.8655202E-01
        2   -1    0    0  501    0  0.00000000000E+00  0.00000000000E+00  0.97411422836E+03  0.97411422836E+03  0.25500000920E-02 0. -1.
       -2   -1    0    0    0  501  0.00000000000E+00  0.00000000000E+00 -0.92580634900E+03  0.92580634901E+03  0.25500000920E-02 0.  1.
    10030    2    1    2    0    0  0.00000000000E+00  0.00000000000E+00  0.48307879359E+02  0.18999205774E+04  0.18993063337E+04 0.  0.
        4    1    3    3  502    0 -0.65805618886E+03 -0.31517343913E+03 -0.58388083987E+03  0.93450023676E+03  0.12699999809E+01 0.  1.
       -4    1    3    3    0  502  0.65805618886E+03  0.31517343913E+03  0.63218871923E+03  0.96542034061E+03  0.12699999809E+01 0. -1.
</event>
<event>
 5   0  0.5579109E-05  0.2000020E+04  0.7818609E-02  0.8606611E-01
        1   -1    0    0  501    0  0.00000000000E+00  0.00000000000E+00  0.11985061516E+04  0.11985061517E+04  0.50400001928E-02 0.  1.
       -1   -1    0    0    0  501  0.00000000000E+00  0.00000000000E+00 -0.83438861482E+03  0.83438861484E+03  0.50400001928E-02 0. -1.
    10030    2    1    2    0    0  0.00000000000E+00  0.00000000000E+00  0.36411753683E+03  0.20328947665E+04  0.20000198877E+04 0.  0.
        3    1    3    3  502    0  0.84587339901E+03  0.53122960780E+03  0.23094479652E+03  0.10252034981E+04  0.10100000352E+00 0.  1.
       -3    1    3    3    0  502 -0.84587339901E+03 -0.53122960780E+03  0.13317274030E+03  0.10076912684E+04  0.10100000352E+00 0. -1.
</event>
<event>
 5   0  0.5579109E-05  0.1903008E+04  0.7818609E-02  0.8653361E-01
        1   -1    0    0  501    0  0.00000000000E+00  0.00000000000E+00  0.19207960237E+04  0.19207960237E+04  0.50400001928E-02 0.  1.
       -1   -1    0    0    0  501  0.00000000000E+00  0.00000000000E+00 -0.47134598286E+03  0.47134598289E+03  0.50400001928E-02 0. -1.
    10030    2    1    2    0    0  0.00000000000E+00  0.00000000000E+00  0.14494500408E+04  0.23921420066E+04  0.19030076087E+04 0.  0.
        3    1    3    3  502    0  0.56563811419E+03  0.44688394544E+03  0.15054096181E+04  0.16691045100E+04  0.10100000352E+00 0.  1.
       -3    1    3    3    0  502 -0.56563811419E+03 -0.44688394544E+03 -0.55959577285E+02  0.72303749654E+03  0.10100000352E+00 0. -1.
</event>
<event>
 5   0  0.1101678E-04  0.1923315E+04  0.7818609E-02  0.8643337E-01
        2   -1    0    0  501    0  0.00000000000E+00  0.00000000000E+00  0.17846682525E+04  0.17846682525E+04  0.25500000920E-02 0.  1.
       -2   -1    0    0    0  501  0.00000000000E+00  0.00000000000E+00 -0.51818307979E+03  0.51818307979E+03  0.25500000920E-02 0. -1.
    10030    2    1    2    0    0  0.00000000000E+00  0.00000000000E+00  0.12664851727E+04  0.23028513323E+04  0.19233147340E+04 0.  0.
        4    1    3    3  502    0  0.13401388314E+03  0.77225569273E+03 -0.33883111125E+02  0.78453059466E+03  0.12699999809E+01 0. -1.
       -4    1    3    3    0  502 -0.13401388314E+03 -0.77225569273E+03  0.13003682838E+04  0.15183207376E+04  0.12699999809E+01 0.  1.
</event>
<event>
 5   0  0.1118206E-04  0.1906570E+04  0.7818609E-02  0.8651593E-01
        2   -1    0    0  501    0  0.00000000000E+00  0.00000000000E+00  0.94472853280E+03  0.94472853281E+03  0.25500000920E-02 0. -1.
       -2   -1    0    0    0  501  0.00000000000E+00  0.00000000000E+00 -0.96191900173E+03  0.96191900174E+03  0.25500000920E-02 0.  1.
    10030    2    1    2    0    0  0.00000000000E+00  0.00000000000E+00 -0.17190468928E+02  0.19066475345E+04  0.19065700377E+04 0.  0.
        1    1    3    3  502    0  0.90817449568E+03 -0.13751514462E+03  0.24648570713E+03  0.95102393947E+03  0.50400001928E-02 0.  1.
       -1    1    3    3    0  502 -0.90817449568E+03  0.13751514462E+03 -0.26367617606E+03  0.95562359507E+03  0.50400001928E-02 0. -1.
</event>
<event>
 5   0  0.1101678E-04  0.1908099E+04  0.7818609E-02  0.8650835E-01
        2   -1    0    0  501    0  0.00000000000E+00  0.00000000000E+00  0.80331401678E+03  0.80331401678E+03  0.25500000920E-02 0. -1.
       -2   -1    0    0    0  501  0.00000000000E+00  0.00000000000E+00 -0.11330697253E+04  0.11330697253E+04  0.25500000920E-02 0.  1.
    10030    2    1    2    0    0  0.00000000000E+00  0.00000000000E+00 -0.32975570849E+03  0.19363837420E+04  0.19080993604E+04 0.  0.
        4    1    3    3  502    0  0.37456991168E+02  0.67318830914E+03 -0.84988258819E+03  0.10848444830E+04  0.12699999809E+01 0.  1.
       -4    1    3    3    0  502 -0.37456991168E+02 -0.67318830914E+03  0.52012687970E+03  0.85153925902E+03  0.12699999809E+01 0. -1.
</event>
<event>
 5   0  0.1101678E-04  0.1908193E+04  0.7818609E-02  0.8650789E-01
       -2   -1    0    0    0  501  0.00000000000E+00  0.00000000000E+00  0.49407572699E+03  0.49407572700E+03  0.25500000920E-02 0.  1.
        2   -1    0    0  501    0  0.00000000000E+00  0.00000000000E+00 -0.18424312023E+04  0.18424312023E+04  0.25500000920E-02 0. -1.
    10030    2    1    2    0    0  0.00000000000E+00  0.00000000000E+00 -0.13483554753E+04  0.23365069293E+04  0.19081934238E+04 0.  0.
        4    1    3    3  502    0 -0.92890484440E+03 -0.83317523881E+02 -0.42778146401E+03  0.10260626753E+04  0.12699999809E+01 0.  1.
       -4    1    3    3    0  502  0.92890484440E+03  0.83317523881E+02 -0.92057401126E+03  0.13104442540E+04  0.12699999809E+01 0. -1.
</event>
<event>
 5   0  0.5841424E-05  0.1835335E+04  0.7818609E-02  0.8687731E-01
        1   -1    0    0  501    0  0.00000000000E+00  0.00000000000E+00  0.10873318018E+04  0.10873318018E+04  0.50400001928E-02 0.  1.
       -1   -1    0    0    0  501  0.00000000000E+00  0.00000000000E+00 -0.77447720008E+03  0.77447720010E+03  0.50400001928E-02 0. -1.
    10030    2    1    2    0    0  0.00000000000E+00  0.00000000000E+00  0.31285460173E+03  0.18618090019E+04  0.18353350533E+04 0.  0.
        1    1    3    3  502    0  0.60536265902E+03 -0.68965791030E+03  0.16115361083E+03  0.93169870048E+03  0.50400001928E-02 0. -1.
       -1    1    3    3    0  502 -0.60536265902E+03  0.68965791030E+03  0.15170099090E+03  0.93011030144E+03  0.50400001928E-02 0.  1.
</event>
<event>
 5   0  0.5579109E-05  0.1911756E+04  0.7818609E-02  0.8649027E-01
       -1   -1    0    0    0  501  0.00000000000E+00  0.00000000000E+00  0.60076418782E+03  0.60076418784E+03  0.50400001928E-02 0.  1.
        1   -1    0    0  501    0  0.00000000000E+00  0.00000000000E+00 -0.15209002306E+04  0.15209002307E+04  0.50400001928E-02 0. -1.
    10030    2    1    2    0    0  0.00000000000E+00  0.00000000000E+00 -0.92013604283E+03  0.21216644185E+04  0.19117556244E+04 0.  0.
        3    1    3    3  502    0 -0.70315837626E+03 -0.29855532212E+03  0.17759372435E+03  0.78428727109E+03  0.10100000352E+00 0.  1.
       -3    1    3    3    0  502  0.70315837626E+03  0.29855532212E+03 -0.10977297672E+04  0.13373771474E+04  0.10100000352E+00 0. -1.
</event>
<event>
 5   0  0.1141890E-04  0.1906038E+04  0.7818609E-02  0.8651857E-01
       -2   -1    0    0    0  501  0.00000000000E+00  0.00000000000E+00  0.38446430122E+03  0.38446430123E+03  0.25500000920E-02 0. -1.
        2   -1    0    0  501    0  0.00000000000E+00  0.00000000000E+00 -0.23623649404E+04  0.23623649404E+04  0.25500000920E-02 0.  1.
    10030    2    1    2    0    0  0.00000000000E+00  0.00000000000E+00 -0.19779006392E+04  0.27468292416E+04  0.19060377604E+04 0.  0.
        2    1    3    3  502    0  0.20911576296E+03 -0.90132741960E+03 -0.65993132347E+03  0.11364989535E+04  0.25500000920E-02 0.  1.
       -2    1    3    3    0  502 -0.20911576296E+03  0.90132741960E+03 -0.13179693157E+04  0.16103302881E+04  0.25500000920E-02 0. -1.
</event>
<event>
 5   0  0.5824956E-05  0.1895860E+04  0.7818609E-02  0.8656920E-01
        1   -1    0    0  501    0  0.00000000000E+00  0.00000000000E+00  0.45657039310E+03  0.45657039312E+03  0.50400001928E-02 0. -1.
       -1   -1    0    0    0  501  0.00000000000E+00  0.00000000000E+00 -0.19680896743E+04  0.19680896743E+04  0.50400001928E-02 0.  1.
    10030    2    1    2    0    0  0.00000000000E+00  0.00000000000E+00 -0.15115192812E+04  0.24246600674E+04  0.18958602019E+04 0.  0.
        2    1    3    3  502    0  0.13497515233E+03 -0.78735131183E+02  0.43998519991E+03  0.46690950813E+03  0.25500000920E-02 0. -1.
       -2    1    3    3    0  502 -0.13497515233E+03  0.78735131183E+02 -0.19515044811E+04  0.19577505593E+04  0.25500000920E-02 0.  1.
</event>
<event>
 5   0  0.5614989E-05  0.1910573E+04  0.7818609E-02  0.8649611E-01
        1   -1    0    0  501    0  0.00000000000E+00  0.00000000000E+00  0.19296157996E+04  0.19296157996E+04  0.50400001928E-02 0. -1.
       -1   -1    0    0    0  501  0.00000000000E+00  0.00000000000E+00 -0.47292952115E+03  0.47292952117E+03  0.50400001928E-02 0.  1.
    10030    2    1    2    0    0  0.00000000000E+00  0.00000000000E+00  0.14566862785E+04  0.24025453208E+04  0.19105729781E+04 0.  0.
        4    1    3    3  502    0 -0.19289791459E+03  0.62424947468E+03  0.16046984626E+04  0.17326153009E+04  0.12699999809E+01 0. -1.
       -4    1    3    3    0  502  0.19289791459E+03 -0.62424947468E+03 -0.14801218409E+03  0.66993001995E+03  0.12699999809E+01 0.  1.
</event>
<event>
 5   0  0.5614989E-05  0.1892522E+04  0.7818609E-02  0.8658588E-01
        1   -1    0    0  501    0  0.00000000000E+00  0.00000000000E+00  0.18254985146E+04  0.18254985146E+04  0.50400001928E-02 0.  1.
       -1   -1    0    0    0  501  0.00000000000E+00  0.00000000000E+00 -0.49050147209E+03  0.49050147211E+03  0.50400001928E-02 0. -1.
    10030    2    1    2    0    0  0.00000000000E+00  0.00000000000E+00  0.13349970425E+04  0.23159999867E+04  0.18925218189E+04 0.  0.
        4    1    3    3  502    0 -0.30887613028E+03  0.60223789646E+03 -0.14177237989E+03  0.69151714974E+03  0.12699999809E+01 0. -1.
       -4    1    3    3    0  502  0.30887613028E+03 -0.60223789646E+03  0.14767694224E+04  0.16244828370E+04  0.12699999809E+01 0.  1.
</event>
<event>
 5   0  0.1141890E-04  0.1902113E+04  0.7818609E-02  0.8653805E-01
        2   -1    0    0  501    0  0.00000000000E+00  0.00000000000E+00  0.62367911889E+03  0.62367911889E+03  0.25500000920E-02 0. -1.
       -2   -1    0    0    0  501  0.00000000000E+00  0.00000000000E+00 -0.14502785722E+04  0.14502785722E+04  0.25500000920E-02 0.  1.
    10030    2    1    2    0    0  0.00000000000E+00  0.00000000000E+00 -0.82659945334E+03  0.20739576911E+04  0.19021129957E+04 0.  0.
        2    1    3    3  502    0  0.71297981739E+03 -0.43708882055E+03 -0.90712041759E+03  0.12337967049E+04  0.25500000920E-02 0.  1.
       -2    1    3    3    0  502 -0.71297981739E+03  0.43708882055E+03  0.80520964245E+02  0.84016098620E+03  0.25500000920E-02 0. -1.
</event>
<event>
 5   0  0.5841424E-05  0.1846717E+04  0.7818609E-02  0.8681843E-01
        1   -1    0    0  501    0  0.00000000000E+00  0.00000000000E+00  0.71803748958E+03  0.71803748960E+03  0.50400001928E-02 0. -1.
       -1   -1    0    0    0  501  0.00000000000E+00  0.00000000000E+00 -0.11873904114E+04  0.11873904115E+04  0.50400001928E-02 0.  1.
    10030    2    1    2    0    0  0.00000000000E+00  0.00000000000E+00 -0.46935292186E+03  0.19054279011E+04  0.18467169033E+04 0.  0.
        1    1    3    3  502    0 -0.33495485570E+03  0.72605324259E+03 -0.71113964338E+03  0.10700783424E+04  0.50400001928E-02 0.  1.
       -1    1    3    3    0  502  0.33495485570E+03 -0.72605324259E+03  0.24178672153E+03  0.83534955867E+03  0.50400001928E-02 0. -1.
</event>
<event>
 5   0  0.1141890E-04  0.1886367E+04  0.7818609E-02  0.8661673E-01
        2   -1    0    0  501    0  0.00000000000E+00  0.00000000000E+00  0.21989084797E+04  0.21989084797E+04  0.25500000920E-02 0.  1.
       -2   -1    0    0    0  501  0.00000000000E+00  0.00000000000E+00 -0.40456195557E+03  0.40456195557E+03  0.25500000920E-02 0. -1.
    10030    2    1    2    0    0  0.00000000000E+00  0.00000000000E+00  0.17943465241E+04  0.26034704352E+04  0.18863665759E+04 0.  0.
        2    1    3    3  502    0  0.94177983456E+03  0.21403786988E+02  0.83262503988E+03  0.12572477226E+04  0.25500000920E-02 0. -1.
       -2    1    3    3    0  502 -0.94177983456E+03 -0.21403786988E+02  0.96172148422E+03  0.13462227127E+04  0.25500000920E-02 0.  1.
</event>
<event>
 5   0  0.1141890E-04  0.1956691E+04  0.7818609E-02  0.8627141E-01
        2   -1    0    0  501    0  0.00000000000E+00  0.00000000000E+00  0.94221025236E+03  0.94221025237E+03  0.25500000920E-02 0. -1.
       -2   -1    0    0    0  501  0.00000000000E+00  0.00000000000E+00 -0.10158664232E+04  0.10158664232E+04  0.25500000920E-02 0.  1.
    10030    2    1    2    0    0  0.00000000000E+00  0.00000000000E+00 -0.73656170814E+02  0.19580766755E+04  0.19566908381E+04 0.  0.
        2    1    3    3  502    0  0.19170020164E+02 -0.28747975027E+03  0.89879274651E+03  0.94384347096E+03  0.25500000920E-02 0. -1.
       -2    1    3    3    0  502 -0.19170020164E+02  0.28747975027E+03 -0.97244891732E+03  0.10142332046E+04  0.25500000920E-02 0.  1.
</event>
<event>
 5   0  0.1141890E-04  0.1906195E+04  0.7818609E-02  0.8651779E-01
        2   -1    0    0  501    0  0.00000000000E+00  0.00000000000E+00  0.17416075730E+04  0.17416075730E+04  0.25500000920E-02 0.  1.
       -2   -1    0    0    0  501  0.00000000000E+00  0.00000000000E+00 -0.52158401739E+03  0.52158401740E+03  0.25500000920E-02 0. -1.
    10030    2    1    2    0    0  0.00000000000E+00  0.00000000000E+00  0.12200235557E+04  0.22631915904E+04  0.19061948218E+04 0.  0.
        2    1    3    3  502    0 -0.22721094343E+03 -0.58933246215E+03  0.14574496123E+04  0.15884259303E+04  0.25500000920E-02 0.  1.
       -2    1    3    3    0  502  0.22721094343E+03  0.58933246215E+03 -0.23742605660E+03  0.67476566015E+03  0.25500000920E-02 0. -1.
</event>
<event>
 5   0  0.1118206E-04  0.1895808E+04  0.7818609E-02  0.8656946E-01
       -2   -1    0    0    0  501  0.00000000000E+00  0.00000000000E+00  0.13438012779E+04  0.13438012780E+04  0.25500000920E-02 0.  1.
        2   -1    0    0  501    0  0.00000000000E+00  0.00000000000E+00 -0.66864166337E+03  0.66864166338E+03  0.25500000920E-02 0. -1.
    10030    2    1    2    0    0  0.00000000000E+00  0.00000000000E+00  0.67515961458E+03  0.20124429413E+04  0.18958075026E+04 0.  0.
        1    1    3    3  502    0 -0.16758475666E+03  0.59500064910E+03 -0.42524906412E+03  0.75029806721E+03  0.50400001928E-02 0. -1.
       -1    1    3    3    0  502  0.16758475666E+03 -0.59500064910E+03  0.11004086787E+04  0.12621448741E+04  0.50400001928E-02 0.  1.
</event>
<event>
 5   0  0.5824956E-05  0.1829482E+04  0.7818609E-02  0.8690777E-01
       -1   -1    0    0    0  501  0.00000000000E+00  0.00000000000E+00  0.13346067345E+04  0.13346067345E+04  0.50400001928E-02 0. -1.
        1   -1    0    0  501    0  0.00000000000E+00  0.00000000000E+00 -0.62696451522E+03  0.62696451524E+03  0.50400001928E-02 0.  1.
    10030    2    1    2    0    0  0.00000000000E+00  0.00000000000E+00  0.70764221929E+03  0.19615712498E+04  0.18294819642E+04 0.  0.
        2    1    3    3  502    0  0.15167902030E+03  0.88402536945E+03  0.16129116226E+03  0.91132991724E+03  0.25500000920E-02 0.  1.
       -2    1    3    3    0  502 -0.15167902030E+03 -0.88402536945E+03  0.54635105703E+03  0.10502413325E+04  0.25500000920E-02 0. -1.
</event>
<event>
 5   0  0.1101678E-04  0.1907698E+04  0.7818609E-02  0.8651034E-01
        2   -1    0    0  501    0  0.00000000000E+00  0.00000000000E+00  0.14091106249E+04  0.14091106249E+04  0.25500000920E-02 0. -1.
       -2   -1    0    0    0  501  0.00000000000E+00  0.00000000000E+00 -0.64567554695E+03  0.64567554696E+03  0.25500000920E-02 0.  1.
    10030    2    1    2    0    0  0.00000000000E+00  0.00000000000E+00  0.76343507799E+03  0.20547861719E+04  0.19076983760E+04 0.  0.
        4    1    3    3  502    0  0.32157869921E+03 -0.41720317597E+03 -0.47480246337E+03  0.70916171777E+03  0.12699999809E+01 0.  1.
       -4    1    3    3    0  502 -0.32157869921E+03  0.41720317597E+03  0.12382375414E+04  0.13456244541E+04  0.12699999809E+01 0. -1.
</event>
<event>
 5   0  0.1182630E-04  0.1904309E+04  0.7818609E-02  0.8652715E-01
        2   -1    0    0  501    0  0.00000000000E+00  0.00000000000E+00  0.13071131876E+04  0.13071131876E+04  0.25500000920E-02 0.  1.
       -2   -1    0    0    0  501  0.00000000000E+00  0.00000000000E+00 -0.69358786537E+03  0.69358786538E+03  0.25500000920E-02 0. -1.
    10030    2    1    2    0    0  0.00000000000E+00  0.00000000000E+00  0.61352532227E+03  0.20007010530E+04  0.19043086364E+04 0.  0.
        5    1    3    3  502    0  0.48219104173E+03  0.74365814763E+03 -0.58755976558E+02  0.88826234640E+03  0.46999998093E+01 0. -1.
       -5    1    3    3    0  502 -0.48219104173E+03 -0.74365814763E+03  0.67228129883E+03  0.11124387066E+04  0.46999998093E+01 0.  1.
</event>
<event>
 5   0  0.5628936E-05  0.1895324E+04  0.7818609E-02  0.8657188E-01
        1   -1    0    0  501    0  0.00000000000E+00  0.00000000000E+00  0.12961841603E+04  0.12961841603E+04  0.50400001928E-02 0.  1.
       -1   -1    0    0    0  501  0.00000000000E+00  0.00000000000E+00 -0.69285140989E+03  0.69285140991E+03  0.50400001928E-02 0. -1.
    10030    2    1    2    0    0  0.00000000000E+00  0.00000000000E+00  0.60333275040E+03  0.19890355702E+04  0.18953237433E+04 0.  0.
        5    1    3    3  502    0  0.58141561697E+02  0.30675085303E+03  0.12406484141E+04  0.12793385417E+04  0.46999998093E+01 0.  1.
       -5    1    3    3    0  502 -0.58141561697E+02 -0.30675085303E+03 -0.63731566368E+03  0.70969702846E+03  0.46999998093E+01 0. -1.
</event>
<event>
 5   0  0.1182630E-04  0.1887155E+04  0.7818609E-02  0.8661277E-01
       -2   -1    0    0    0  501  0.00000000000E+00  0.00000000000E+00  0.14497121209E+04  0.14497121209E+04  0.25500000920E-02 0. -1.
        2   -1    0    0  501    0  0.00000000000E+00  0.00000000000E+00 -0.61414846638E+03  0.61414846639E+03  0.25500000920E-02 0.  1.
    10030    2    1    2    0    0  0.00000000000E+00  0.00000000000E+00  0.83556365456E+03  0.20638605873E+04  0.18871549759E+04 0.  0.
        5    1    3    3  502    0 -0.22903102111E+03 -0.91276674158E+03  0.49290158547E+03  0.10623428807E+04  0.46999998093E+01 0.  1.
       -5    1    3    3    0  502  0.22903102111E+03  0.91276674158E+03  0.34266206909E+03  0.10015177067E+04  0.46999998093E+01 0. -1.
</event>
<event>
 5   0  0.5628936E-05  0.1891469E+04  0.7818609E-02  0.8659114E-01
        1   -1    0    0  501    0  0.00000000000E+00  0.00000000000E+00  0.83425188957E+03  0.83425188959E+03  0.50400001928E-02 0.  1.
       -1   -1    0    0    0  501  0.00000000000E+00  0.00000000000E+00 -0.10721148851E+04  0.10721148851E+04  0.50400001928E-02 0. -1.
    10030    2    1    2    0    0  0.00000000000E+00  0.00000000000E+00 -0.23786299549E+03  0.19063667747E+04  0.18914691314E+04 0.  0.
        5    1    3    3  502    0 -0.52341152868E+03 -0.94363072732E+02 -0.90709313212E+03  0.10515246351E+04  0.46999998093E+01 0. -1.
       -5    1    3    3    0  502  0.52341152868E+03  0.94363072732E+02  0.66923013662E+03  0.85484213959E+03  0.46999998093E+01 0.  1.
</event>
<event>
 5   0  0.1182630E-04  0.1836206E+04  0.7818609E-02  0.8687279E-01
       -2   -1    0    0    0  501  0.00000000000E+00  0.00000000000E+00  0.86684553979E+03  0.86684553979E+03  0.25500000920E-02 0. -1.
        2   -1    0    0  501    0  0.00000000000E+00  0.00000000000E+00 -0.97239145518E+03  0.97239145518E+03  0.25500000920E-02 0.  1.
    10030    2    1    2    0    0  0.00000000000E+00  0.00000000000E+00 -0.10554591539E+03  0.18392369950E+04  0.18362060841E+04 0.  0.
        5    1    3    3  502    0 -0.59661994890E+03  0.94770310793E+02  0.63971061009E+03  0.87987983833E+03  0.46999998093E+01 0. -1.
       -5    1    3    3    0  502  0.59661994890E+03 -0.94770310793E+02 -0.74525652548E+03  0.95935715664E+03  0.46999998093E+01 0.  1.
</event>
<event>
 5   0  0.1141890E-04  0.1893702E+04  0.7818609E-02  0.8657998E-01
       -2   -1    0    0    0  501  0.00000000000E+00  0.00000000000E+00  0.70282268436E+03  0.70282268436E+03  0.25500000920E-02 0. -1.
        2   -1    0    0  501    0  0.00000000000E+00  0.00000000000E+00 -0.12756086320E+04  0.12756086320E+04  0.25500000920E-02 0.  1.
    10030    2    1    2    0    0  0.00000000000E+00  0.00000000000E+00 -0.57278594765E+03  0.19784313164E+04  0.18937018593E+04 0.  0.
        2    1    3    3  502    0  0.51346638463E+03 -0.56569408385E+03  0.29798084332E+03  0.82003055286E+03  0.25500000920E-02 0. -1.
       -2    1    3    3    0  502 -0.51346638463E+03  0.56569408385E+03 -0.87076679098E+03  0.11584007635E+04  0.25500000920E-02 0.  1.
</event>
<event>
 5   0  0.5841424E-05  0.1915776E+04  0.7818609E-02  0.8647043E-01
       -1   -1    0    0    0  501  0.00000000000E+00  0.00000000000E+00  0.67455149431E+03  0.67455149433E+03  0.50400001928E-02 0. -1.
        1   -1    0    0  501    0  0.00000000000E+00  0.00000000000E+00 -0.13602363174E+04  0.13602363174E+04  0.50400001928E-02 0.  1.
    10030    2    1    2    0    0  0.00000000000E+00  0.00000000000E+00 -0.68568482306E+03  0.20347878117E+04  0.19157760209E+04 0.  0.
        1    1    3    3  502    0  0.44178016997E+03 -0.14364889730E+02  0.55975717455E+03  0.71323499852E+03  0.50400001928E-02 0. -1.
       -1    1    3    3    0  502 -0.44178016997E+03  0.14364889730E+02 -0.12454419976E+04  0.13215528132E+04  0.50400001928E-02 0.  1.
</event>
<event>
 5   0  0.5579109E-05  0.1807866E+04  0.7818609E-02  0.8702128E-01
        1   -1    0    0  501    0  0.00000000000E+00  0.00000000000E+00  0.84392600808E+03  0.84392600809E+03  0.50400001928E-02 0.  1.
       -1   -1    0    0    0  501  0.00000000000E+00  0.00000000000E+00 -0.96820628140E+03  0.96820628141E+03  0.50400001928E-02 0. -1.
    10030    2    1    2    0    0  0.00000000000E+00  0.00000000000E+00 -0.12428027332E+03  0.18121322895E+04  0.18078655504E+04 0.  0.
        3    1    3    3  502    0 -0.36912805289E+03 -0.21965476018E+03  0.73509269883E+03  0.85139005114E+03  0.10100000352E+00 0.  1.
       -3    1    3    3    0  502  0.36912805289E+03  0.21965476018E+03 -0.85937297216E+03  0.96074223836E+03  0.10100000352E+00 0. -1.
</event>
<event>
 5   0  0.1101678E-04  0.1873599E+04  0.7818609E-02  0.8668111E-01
        2   -1    0    0  501    0  0.00000000000E+00  0.00000000000E+00  0.12148286431E+04  0.12148286431E+04  0.25500000920E-02 0. -1.
       -2   -1    0    0    0  501  0.00000000000E+00  0.00000000000E+00 -0.72240096189E+03  0.72240096190E+03  0.25500000920E-02 0.  1.
    10030    2    1    2    0    0  0.00000000000E+00  0.00000000000E+00  0.49242768121E+03  0.19372296050E+04  0.18735990823E+04 0.  0.
        4    1    3    3  502    0  0.49046503280E+03  0.31268263137E+03  0.10055003907E+04  0.11616191393E+04  0.12699999809E+01 0. -1.
       -4    1    3    3    0  502 -0.49046503280E+03 -0.31268263137E+03 -0.51307270945E+03  0.77561046566E+03  0.12699999809E+01 0.  1.
</event>
<event>
 5   0  0.1101678E-04  0.1893179E+04  0.7818609E-02  0.8658259E-01
       -2   -1    0    0    0  501  0.00000000000E+00  0.00000000000E+00  0.72634986383E+03  0.72634986383E+03  0.25500000920E-02 0. -1.
        2   -1    0    0  501    0  0.00000000000E+00  0.00000000000E+00 -0.12336092329E+04  0.12336092330E+04  0.25500000920E-02 0.  1.
    10030    2    1    2    0    0  0.00000000000E+00  0.00000000000E+00 -0.50725936912E+03  0.19599590968E+04  0.18931792291E+04 0.  0.
        4    1    3    3  502    0  0.41667449476E+03  0.22909330529E+03 -0.11009929570E+04  0.11992866552E+04  0.12699999809E+01 0.  1.
       -4    1    3    3    0  502 -0.41667449476E+03 -0.22909330529E+03  0.59373358787E+03  0.76067244158E+03  0.12699999809E+01 0. -1.
</event>
<event>
 5   0  0.1118206E-04  0.1899578E+04  0.7818609E-02  0.8655066E-01
        2   -1    0    0  501    0  0.00000000000E+00  0.00000000000E+00  0.16784521791E+04  0.16784521791E+04  0.25500000920E-02 0. -1.
       -2   -1    0    0    0  501  0.00000000000E+00  0.00000000000E+00 -0.53745915756E+03  0.53745915756E+03  0.25500000920E-02 0.  1.
    10030    2    1    2    0    0  0.00000000000E+00  0.00000000000E+00  0.11409930216E+04  0.22159113367E+04  0.18995783682E+04 0.  0.
        1    1    3    3  502    0 -0.15972008072E+03  0.42565990339E+03  0.15432735932E+04  0.16088474884E+04  0.50400001928E-02 0. -1.
       -1    1    3    3    0  502  0.15972008072E+03 -0.42565990339E+03 -0.40228057162E+03  0.60706384827E+03  0.50400001928E-02 0.  1.
</event>
<event>
 5   0  0.4061125E-05  0.1906014E+04  0.7818609E-02  0.8651869E-01
       -4   -1    0    0    0  501  0.00000000000E+00  0.00000000000E+00  0.13500486128E+04  0.13500492102E+04  0.12699999809E+01 0. -1.
        4   -1    0    0  501    0  0.00000000000E+00  0.00000000000E+00 -0.67273175404E+03  0.67273295281E+03  0.12699999809E+01 0.  1.
    10030    2    1    2    0    0  0.00000000000E+00  0.00000000000E+00  0.67731685881E+03  0.20227821630E+04  0.19060140482E+04 0.  0.
        2    1    3    3  502    0 -0.61383294673E+03 -0.67115498650E+03  0.36650344646E+02  0.91026542841E+03  0.25500000920E-02 0. -1.
       -2    1    3    3    0  502  0.61383294673E+03  0.67115498650E+03  0.64066651416E+03  0.11125167346E+04  0.25500000920E-02 0.  1.
</event>
<event>
 5   0  0.5579109E-05  0.1910648E+04  0.7818609E-02  0.8649574E-01
       -1   -1    0    0    0  501  0.00000000000E+00  0.00000000000E+00  0.81509266988E+03  0.81509266990E+03  0.50400001928E-02 0. -1.
        1   -1    0    0  501    0  0.00000000000E+00  0.00000000000E+00 -0.11196810049E+04  0.11196810049E+04  0.50400001928E-02 0.  1.
    10030    2    1    2    0    0  0.00000000000E+00  0.00000000000E+00 -0.30458833500E+03  0.19347736748E+04  0.19106478270E+04 0.  0.
        3    1    3    3  502    0 -0.69257409631E+03  0.59045060991E+03 -0.44639733953E+03  0.10136870309E+04  0.10100000352E+00 0.  1.
       -3    1    3    3    0  502  0.69257409631E+03 -0.59045060991E+03  0.14180900453E+03  0.92108664391E+03  0.10100000352E+00 0. -1.
</event>
<event>
 5   0  0.5841424E-05  0.1837277E+04  0.7818609E-02  0.8686724E-01
       -1   -1    0    0    0  501  0.00000000000E+00  0.00000000000E+00  0.85262224938E+03  0.85262224939E+03  0.50400001928E-02 0. -1.
        1   -1    0    0  501    0  0.00000000000E+00  0.00000000000E+00 -0.98976594970E+03  0.98976594971E+03  0.50400001928E-02 0.  1.
    10030    2    1    2    0    0  0.00000000000E+00  0.00000000000E+00 -0.13714370032E+03  0.18423881991E+04  0.18372767570E+04 0.  0.
        1    1    3    3  502    0  0.54933227558E+03 -0.45424811731E+03  0.51251347039E+03  0.87793926808E+03  0.50400001928E-02 0. -1.
       -1    1    3    3    0  502 -0.54933227558E+03  0.45424811731E+03 -0.64965717071E+03  0.96444893103E+03  0.50400001928E-02 0.  1.
</event>
<event>
 5   0  0.1141890E-04  0.1883155E+04  0.7818609E-02  0.8663287E-01
        2   -1    0    0  501    0  0.00000000000E+00  0.00000000000E+00  0.92536747830E+03  0.92536747830E+03  0.25500000920E-02 0. -1.
       -2   -1    0    0    0  501  0.00000000000E+00  0.00000000000E+00 -0.95807105958E+03  0.95807105958E+03  0.25500000920E-02 0.  1.
    10030    2    1    2    0    0  0.00000000000E+00  0.00000000000E+00 -0.32703581280E+02  0.18834385379E+04  0.18831545879E+04 0.  0.
        2    1    3    3  502    0  0.72017283086E+03 -0.60609264467E+03  0.75390506462E+01  0.94130443403E+03  0.25500000920E-02 0. -1.
       -2    1    3    3    0  502 -0.72017283086E+03  0.60609264467E+03 -0.40242631926E+02  0.94213410386E+03  0.25500000920E-02 0.  1.
</event>
<event>
 5   0  0.5628936E-05  0.1891949E+04  0.7818609E-02  0.8658874E-01
        1   -1    0    0  501    0  0.00000000000E+00  0.00000000000E+00  0.10490502146E+04  0.10490502146E+04  0.50400001928E-02 0. -1.
       -1   -1    0    0    0  501  0.00000000000E+00  0.00000000000E+00 -0.85302665616E+03  0.85302665617E+03  0.50400001928E-02 0.  1.
    10030    2    1    2    0    0  0.00000000000E+00  0.00000000000E+00  0.19602355843E+03  0.19020768708E+04  0.18919490445E+04 0.  0.
        5    1    3    3  502    0 -0.58700278517E+03  0.13065849226E+03 -0.63610378310E+03  0.87538221611E+03  0.46999998093E+01 0.  1.
       -5    1    3    3    0  502  0.58700278517E+03 -0.13065849226E+03  0.83212734153E+03  0.10266946547E+04  0.46999998093E+01 0. -1.
</event>
<event>
 5   0  0.5579109E-05  0.1893822E+04  0.7818609E-02  0.8657938E-01
       -1   -1    0    0    0  501  0.00000000000E+00  0.00000000000E+00  0.73937449759E+03  0.73937449760E+03  0.50400001928E-02 0. -1.
        1   -1    0    0  501    0  0.00000000000E+00  0.00000000000E+00 -0.12127012534E+04  0.12127012535E+04  0.50400001928E-02 0.  1.
    10030    2    1    2    0    0  0.00000000000E+00  0.00000000000E+00 -0.47332675585E+03  0.19520757511E+04  0.18938219346E+04 0.  0.
        3    1    3    3  502    0 -0.74977613262E+03 -0.30866963420E+03  0.26746061269E+03  0.85380113707E+03  0.10100000352E+00 0. -1.
       -3    1    3    3    0  502  0.74977613262E+03  0.30866963420E+03 -0.74078736854E+03  0.10982746140E+04  0.10100000352E+00 0.  1.
</event>
<event>
 5   0  0.5824956E-05  0.1893086E+04  0.7818609E-02  0.8658306E-01
        1   -1    0    0  501    0  0.00000000000E+00  0.00000000000E+00  0.94659684703E+03  0.94659684704E+03  0.50400001928E-02 0. -1.
       -1   -1    0    0    0  501  0.00000000000E+00  0.00000000000E+00 -0.94648926493E+03  0.94648926495E+03  0.50400001928E-02 0.  1.
    10030    2    1    2    0    0  0.00000000000E+00  0.00000000000E+00  0.10758209754E+00  0.18930861120E+04  0.18930861089E+04 0.  0.
        2    1    3    3  502    0 -0.13482258602E+03 -0.41517805927E+03  0.83993104734E+03  0.94659078534E+03  0.25500000920E-02 0. -1.
       -2    1    3    3    0  502  0.13482258602E+03  0.41517805927E+03 -0.83982346524E+03  0.94649532665E+03  0.25500000920E-02 0.  1.
</event>
<event>
 5   0  0.1141890E-04  0.1908466E+04  0.7818609E-02  0.8650654E-01
       -2   -1    0    0    0  501  0.00000000000E+00  0.00000000000E+00  0.15064915140E+04  0.15064915140E+04  0.25500000920E-02 0.  1.
        2   -1    0    0  501    0  0.00000000000E+00  0.00000000000E+00 -0.60442461070E+03  0.60442461071E+03  0.25500000920E-02 0. -1.
    10030    2    1    2    0    0  0.00000000000E+00  0.00000000000E+00  0.90206690332E+03  0.21109161247E+04  0.19084659252E+04 0.  0.
        2    1    3    3  502    0 -0.37654627824E+03 -0.11395010954E+03  0.14126165004E+04  0.14663754990E+04  0.25500000920E-02 0.  1.
       -2    1    3    3    0  502  0.37654627824E+03  0.11395010954E+03 -0.51054959704E+03  0.64454062569E+03  0.25500000920E-02 0. -1.
</event>
<event>
 5   0  0.1133638E-04  0.1893760E+04  0.7818609E-02  0.8657969E-01
        2   -1    0    0  501    0  0.00000000000E+00  0.00000000000E+00  0.17332776433E+04  0.17332776433E+04  0.25500000920E-02 0. -1.
       -2   -1    0    0    0  501  0.00000000000E+00  0.00000000000E+00 -0.51727508826E+03  0.51727508827E+03  0.25500000920E-02 0.  1.
    10030    2    1    2    0    0  0.00000000000E+00  0.00000000000E+00  0.12160025551E+04  0.22505527316E+04  0.18937595898E+04 0.  0.
        3    1    3    3  502    0 -0.27088905434E+03 -0.52300206073E+03 -0.27307820695E+03  0.64921780059E+03  0.10100000352E+00 0.  1.
       -3    1    3    3    0  502  0.27088905434E+03  0.52300206073E+03  0.14890807620E+04  0.16013349310E+04  0.10100000352E+00 0. -1.
</event>
<event>
 5   0  0.5628936E-05  0.1839530E+04  0.7818609E-02  0.8685556E-01
        1   -1    0    0  501    0  0.00000000000E+00  0.00000000000E+00  0.81106126828E+03  0.81106126830E+03  0.50400001928E-02 0. -1.
       -1   -1    0    0    0  501  0.00000000000E+00  0.00000000000E+00 -0.10430376374E+04  0.10430376374E+04  0.50400001928E-02 0.  1.
    10030    2    1    2    0    0  0.00000000000E+00  0.00000000000E+00 -0.23197636914E+03  0.18540989057E+04  0.18395297541E+04 0.  0.
        5    1    3    3  502    0 -0.17551232610E+03 -0.82890153649E+03  0.24470499097E+03  0.88192117358E+03  0.46999998093E+01 0. -1.
       -5    1    3    3    0  502  0.17551232610E+03  0.82890153649E+03 -0.47668136011E+03  0.97217773215E+03  0.46999998093E+01 0.  1.
</event>
<event>
 5   0  0.5841424E-05  0.1914506E+04  0.7818609E-02  0.8647669E-01
       -1   -1    0    0    0  501  0.00000000000E+00  0.00000000000E+00  0.53586282804E+03  0.53586282807E+03  0.50400001928E-02 0. -1.
        1   -1    0    0  501    0  0.00000000000E+00  0.00000000000E+00 -0.17100141665E+04  0.17100141665E+04  0.50400001928E-02 0.  1.
    10030    2    1    2    0    0  0.00000000000E+00  0.00000000000E+00 -0.11741513384E+04  0.22458769946E+04  0.19145057088E+04 0.  0.
        1    1    3    3  502    0  0.51941645994E+03 -0.58059447134E+03  0.65490091922E+02  0.78177512826E+03  0.50400001928E-02 0. -1.
       -1    1    3    3    0  502 -0.51941645994E+03  0.58059447134E+03 -0.12396414304E+04  0.14641018663E+04  0.50400001928E-02 0.  1.
</event>
<event>
 5   0  0.5628936E-05  0.1912993E+04  0.7818609E-02  0.8648416E-01
       -1   -1    0    0    0  501  0.00000000000E+00  0.00000000000E+00  0.11747107398E+04  0.11747107398E+04  0.50400001928E-02 0. -1.
        1   -1    0    0  501    0  0.00000000000E+00  0.00000000000E+00 -0.77881794189E+03  0.77881794191E+03  0.50400001928E-02 0.  1.
    10030    2    1    2    0    0  0.00000000000E+00  0.00000000000E+00  0.39589279788E+03  0.19535286817E+04  0.19129932574E+04 0.  0.
        5    1    3    3  502    0  0.80308987136E+03  0.51927979136E+03  0.18151611297E+03  0.97343465752E+03  0.46999998093E+01 0.  1.
       -5    1    3    3    0  502 -0.80308987136E+03 -0.51927979136E+03  0.21437668491E+03  0.98009402417E+03  0.46999998093E+01 0. -1.
</event>
<event>
 5   0  0.1182630E-04  0.1879076E+04  0.7818609E-02  0.8665342E-01
        2   -1    0    0  501    0  0.00000000000E+00  0.00000000000E+00  0.12418625816E+04  0.12418625816E+04  0.25500000920E-02 0.  1.
       -2   -1    0    0    0  501  0.00000000000E+00  0.00000000000E+00 -0.71081268905E+03  0.71081268906E+03  0.25500000920E-02 0. -1.
    10030    2    1    2    0    0  0.00000000000E+00  0.00000000000E+00  0.53104989259E+03  0.19526752707E+04  0.18790760294E+04 0.  0.
        5    1    3    3  502    0  0.60284912024E+03 -0.40726869965E+03 -0.35224674093E+03  0.80832834417E+03  0.46999998093E+01 0.  1.
       -5    1    3    3    0  502 -0.60284912024E+03  0.40726869965E+03  0.88329663352E+03  0.11443469265E+04  0.46999998093E+01 0. -1.
</event>
<event>
 5   0  0.1141890E-04  0.1935151E+04  0.7818609E-02  0.8637555E-01
       -2   -1    0    0    0  501  0.00000000000E+00  0.00000000000E+00  0.51762612631E+03  0.51762612631E+03  0.25500000920E-02 0. -1.
        2   -1    0    0  501    0  0.00000000000E+00  0.00000000000E+00 -0.18086460055E+04  0.18086460055E+04  0.25500000920E-02 0.  1.
    10030    2    1    2    0    0  0.00000000000E+00  0.00000000000E+00 -0.12910198792E+04  0.23262721318E+04  0.19351510801E+04 0.  0.
        2    1    3    3  502    0  0.42471630313E+03 -0.62699699535E+03  0.78451410131E+02  0.76135654859E+03  0.25500000920E-02 0. -1.
       -2    1    3    3    0  502 -0.42471630313E+03  0.62699699535E+03 -0.13694712893E+04  0.15649155832E+04  0.25500000920E-02 0.  1.
</event>
<event>
 5   0  0.1141890E-04  0.1919631E+04  0.7818609E-02  0.8645146E-01
       -2   -1    0    0    0  501  0.00000000000E+00  0.00000000000E+00  0.72017818017E+03  0.72017818018E+03  0.25500000920E-02 0.  1.
        2   -1    0    0  501    0  0.00000000000E+00  0.00000000000E+00 -0.12791920169E+04  0.12791920169E+04  0.25500000920E-02 0. -1.
    10030    2    1    2    0    0  0.00000000000E+00  0.00000000000E+00 -0.55901383670E+03  0.19993701971E+04  0.19196314009E+04 0.  0.
        2    1    3    3  502    0  0.67191005476E+03  0.26994949214E+02  0.43381725765E+03  0.80024325178E+03  0.25500000920E-02 0.  1.
       -2    1    3    3    0  502 -0.67191005476E+03 -0.26994949214E+02 -0.99283109435E+03  0.11991269453E+04  0.25500000920E-02 0. -1.
</event>
<event>
 5   0  0.1182630E-04  0.1826898E+04  0.7818609E-02  0.8692125E-01
       -2   -1    0    0    0  501  0.00000000000E+00  0.00000000000E+00  0.35493268776E+03  0.35493268777E+03  0.25500000920E-02 0. -1.
        2   -1    0    0  501    0  0.00000000000E+00  0.00000000000E+00 -0.23508366067E+04  0.23508366067E+04  0.25500000920E-02 0.  1.
    10030    2    1    2    0    0  0.00000000000E+00  0.00000000000E+00 -0.19959039190E+04  0.27057692945E+04  0.18268976494E+04 0.  0.
        5    1    3    3  502    0 -0.79193593415E+02 -0.88775110385E+03 -0.70176315776E+03  0.11344017221E+04  0.46999998093E+01 0. -1.
       -5    1    3    3    0  502  0.79193593415E+02  0.88775110385E+03 -0.12941407612E+04  0.15713675724E+04  0.46999998093E+01 0.  1.
</event>
<event>
 5   0  0.1118206E-04  0.1898758E+04  0.7818609E-02  0.8655475E-01
       -2   -1    0    0    0  501  0.00000000000E+00  0.00000000000E+00  0.10981373345E+04  0.10981373345E+04  0.25500000920E-02 0. -1.
        2   -1    0    0  501    0  0.00000000000E+00  0.00000000000E+00 -0.82077191933E+03  0.82077191934E+03  0.25500000920E-02 0.  1.
    10030    2    1    2    0    0  0.00000000000E+00  0.00000000000E+00  0.27736541512E+03  0.19189092538E+04  0.18987577915E+04 0.  0.
        1    1    3    3  502    0 -0.50235190561E+03 -0.11136850072E+03 -0.66763186565E+03  0.84290728321E+03  0.50400001928E-02 0.  1.
       -1    1    3    3    0  502  0.50235190561E+03  0.11136850072E+03  0.94499728077E+03  0.10760019706E+04  0.50400001928E-02 0. -1.
</event>
<event>
 5   0  0.1141890E-04  0.1889219E+04  0.7818609E-02  0.8660242E-01
       -2   -1    0    0    0  501  0.00000000000E+00  0.00000000000E+00  0.89214874211E+03  0.89214874212E+03  0.25500000920E-02 0.  1.
        2   -1    0    0  501    0  0.00000000000E+00  0.00000000000E+00 -0.10001549699E+04  0.10001549699E+04  0.25500000920E-02 0. -1.
    10030    2    1    2    0    0  0.00000000000E+00  0.00000000000E+00 -0.10800622777E+03  0.18923037120E+04  0.18892188844E+04 0.  0.
        2    1    3    3  502    0  0.35106853740E+03 -0.70347413106E+03  0.47045669772E+03  0.91621748262E+03  0.25500000920E-02 0.  1.
       -2    1    3    3    0  502 -0.35106853740E+03  0.70347413106E+03 -0.57846292549E+03  0.97608622938E+03  0.25500000920E-02 0. -1.
</event>
<event>
 5   0  0.1118206E-04  0.1898846E+04  0.7818609E-02  0.8655431E-01
        2   -1    0    0  501    0  0.00000000000E+00  0.00000000000E+00  0.74593093723E+03  0.74593093724E+03  0.25500000920E-02 0. -1.
       -2   -1    0    0    0  501  0.00000000000E+00  0.00000000000E+00 -0.12084286400E+04  0.12084286400E+04  0.25500000920E-02 0.  1.
    10030    2    1    2    0    0  0.00000000000E+00  0.00000000000E+00 -0.46249770279E+03  0.19543595773E+04  0.18988462898E+04 0.  0.
        1    1    3    3  502    0 -0.55372365496E+03 -0.64362917921E+03 -0.66856594251E+03  0.10806705446E+04  0.50400001928E-02 0.  1.
       -1    1    3    3    0  502  0.55372365496E+03  0.64362917921E+03  0.20606823972E+03  0.87368903269E+03  0.50400001928E-02 0. -1.
</event>
<event>
 5   0  0.5614989E-05  0.1908218E+04  0.7818609E-02  0.8650776E-01
       -1   -1    0    0    0  501  0.00000000000E+00  0.00000000000E+00  0.50582028405E+03  0.50582028407E+03  0.50400001928E-02 0.  1.
        1   -1    0    0  501    0  0.00000000000E+00  0.00000000000E+00 -0.17996990317E+04  0.17996990317E+04  0.50400001928E-02 0. -1.
    10030    2    1    2    0    0  0.00000000000E+00  0.00000000000E+00 -0.12938787477E+04  0.23055193158E+04  0.19082183056E+04 0.  0.
        4    1    3    3  502    0 -0.13031112236E+03 -0.53766442533E+03  0.29224777575E+03  0.62567914957E+03  0.12699999809E+01 0.  1.
       -4    1    3    3    0  502  0.13031112236E+03  0.53766442533E+03 -0.15861265234E+04  0.16798401662E+04  0.12699999809E+01 0. -1.
</event>
<event>
 5   0  0.5841424E-05  0.1892569E+04  0.7818609E-02  0.8658564E-01
        1   -1    0    0  501    0  0.00000000000E+00  0.00000000000E+00  0.10307278874E+04  0.10307278875E+04  0.50400001928E-02 0. -1.
       -1   -1    0    0    0  501  0.00000000000E+00  0.00000000000E+00 -0.86875921187E+03  0.86875921188E+03  0.50400001928E-02 0.  1.
    10030    2    1    2    0    0  0.00000000000E+00  0.00000000000E+00  0.16196867557E+03  0.18994870993E+04  0.18925689918E+04 0.  0.
        1    1    3    3  502    0 -0.57065957723E+03 -0.53846714159E+03 -0.44996277730E+03  0.90446985391E+03  0.50400001928E-02 0.  1.
       -1    1    3    3    0  502  0.57065957723E+03  0.53846714159E+03  0.61193145287E+03  0.99501724542E+03  0.50400001928E-02 0. -1.
</event>
<event>
 5   0  0.5614989E-05  0.1917153E+04  0.7818609E-02  0.8646365E-01
        1   -1    0    0  501    0  0.00000000000E+00  0.00000000000E+00  0.81402156777E+03  0.81402156779E+03  0.50400001928E-02 0.  1.
       -1   -1    0    0    0  501  0.00000000000E+00  0.00000000000E+00 -0.11288015589E+04  0.11288015589E+04  0.50400001928E-02 0. -1.
    10030    2    1    2    0    0  0.00000000000E+00  0.00000000000E+00 -0.31477999109E+03  0.19428231267E+04  0.19171529044E+04 0.  0.
        4    1    3    3  502    0  0.13328248510E+03  0.42140376142E+03 -0.10193802157E+04  0.11110728995E+04  0.12699999809E+01 0. -1.
       -4    1    3    3    0  502 -0.13328248510E+03 -0.42140376142E+03  0.70460022460E+03  0.83175022716E+03  0.12699999809E+01 0.  1.
</event>
<event>
 5   0  0.1101678E-04  0.1899944E+04  0.7818609E-02  0.8654884E-01
       -2   -1    0    0    0  501  0.00000000000E+00  0.00000000000E+00  0.53290368641E+03  0.53290368642E+03  0.25500000920E-02 0. -1.
        2   -1    0    0  501    0  0.00000000000E+00  0.00000000000E+00 -0.16934522132E+04  0.16934522132E+04  0.25500000920E-02 0.  1.
    10030    2    1    2    0    0  0.00000000000E+00  0.00000000000E+00 -0.11605485268E+04  0.22263558996E+04  0.18999441331E+04 0.  0.
        4    1    3    3  502    0  0.68068883696E+03 -0.23777916583E+03  0.14450990552E+03  0.73536450156E+03  0.12699999809E+01 0. -1.
       -4    1    3    3    0  502 -0.68068883696E+03  0.23777916583E+03 -0.13050584323E+04  0.14909913981E+04  0.12699999809E+01 0.  1.
</event>
<event>
 5   0  0.5628936E-05  0.1917267E+04  0.7818609E-02  0.8646309E-01
       -1   -1    0    0    0  501  0.00000000000E+00  0.00000000000E+00  0.10379000754E+04  0.10379000754E+04  0.50400001928E-02 0. -1.
        1   -1    0    0  501    0  0.00000000000E+00  0.00000000000E+00 -0.88542047503E+03  0.88542047504E+03  0.50400001928E-02 0.  1.
    10030    2    1    2    0    0  0.00000000000E+00  0.00000000000E+00  0.15247960038E+03  0.19233205505E+04  0.19172667815E+04 0.  0.
        5    1    3    3  502    0 -0.47684026633E+03 -0.15594191701E+03 -0.74320011472E+03  0.89669561257E+03  0.46999998093E+01 0.  1.
       -5    1    3    3    0  502  0.47684026633E+03  0.15594191701E+03  0.89567971511E+03  0.10266249379E+04  0.46999998093E+01 0. -1.
</event>
<event>
 5   0  0.5824956E-05  0.1907229E+04  0.7818609E-02  0.8651266E-01
        1   -1    0    0  501    0  0.00000000000E+00  0.00000000000E+00  0.16589635924E+04  0.16589635924E+04  0.50400001928E-02 0.  1.
       -1   -1    0    0    0  501  0.00000000000E+00  0.00000000000E+00 -0.54816213077E+03  0.54816213080E+03  0.50400001928E-02 0. -1.
    10030    2    1    2    0    0  0.00000000000E+00  0.00000000000E+00  0.11108014616E+04  0.22071257232E+04  0.19072294227E+04 0.  0.
        2    1    3    3  502    0 -0.93400227743E+02  0.12588798682E+03 -0.53315095501E+03  0.55571695008E+03  0.25500000920E-02 0. -1.
       -2    1    3    3    0  502  0.93400227743E+02 -0.12588798682E+03  0.16439524166E+04  0.16514087731E+04  0.25500000920E-02 0.  1.
</event>
<event>
 5   0  0.5614989E-05  0.1839940E+04  0.7818609E-02  0.8685343E-01
        1   -1    0    0  501    0  0.00000000000E+00  0.00000000000E+00  0.17167844774E+04  0.17167844774E+04  0.50400001928E-02 0. -1.
       -1   -1    0    0    0  501  0.00000000000E+00  0.00000000000E+00 -0.49298259457E+03  0.49298259460E+03  0.50400001928E-02 0.  1.
    10030    2    1    2    0    0  0.00000000000E+00  0.00000000000E+00  0.12238018828E+04  0.22097670720E+04  0.18399400708E+04 0.  0.
        4    1    3    3  502    0  0.20549097989E+03  0.47632585889E+03  0.15243684578E+04  0.16102216228E+04  0.12699999809E+01 0. -1.
       -4    1    3    3    0  502 -0.20549097989E+03 -0.47632585889E+03 -0.30056657500E+03  0.59954544913E+03  0.12699999809E+01 0.  1.
</event>
<event>
 5   0  0.5841424E-05  0.1861412E+04  0.7818609E-02  0.8674306E-01
        1   -1    0    0  501    0  0.00000000000E+00  0.00000000000E+00  0.74466093610E+03  0.74466093611E+03  0.50400001928E-02 0. -1.
       -1   -1    0    0    0  501  0.00000000000E+00  0.00000000000E+00 -0.11632328122E+04  0.11632328122E+04  0.50400001928E-02 0.  1.
    10030    2    1    2    0    0  0.00000000000E+00  0.00000000000E+00 -0.41857187608E+03  0.19078937483E+04  0.18614124044E+04 0.  0.
        1    1    3    3  502    0  0.17804537389E+03  0.45208591599E+03 -0.10229168104E+04  0.11324489532E+04  0.50400001928E-02 0.  1.
       -1    1    3    3    0  502 -0.17804537389E+03 -0.45208591599E+03  0.60434493431E+03  0.77544479510E+03  0.50400001928E-02 0. -1.
</event>
<event>
 5   0  0.1133638E-04  0.1877858E+04  0.7818609E-02  0.8665957E-01
       -2   -1    0    0    0  501  0.00000000000E+00  0.00000000000E+00  0.52724573807E+03  0.52724573807E+03  0.25500000920E-02 0. -1.
        2   -1    0    0  501    0  0.00000000000E+00  0.00000000000E+00 -0.16720625382E+04  0.16720625382E+04  0.25500000920E-02 0.  1.
    10030    2    1    2    0    0  0.00000000000E+00  0.00000000000E+00 -0.11448168002E+04  0.21993082763E+04  0.18778581917E+04 0.  0.
        3    1    3    3  502    0 -0.60036325228E+03 -0.68172474524E+03 -0.29426094726E+03  0.95486867068E+03  0.10100000352E+00 0.  1.
       -3    1    3    3    0  502  0.60036325228E+03  0.68172474524E+03 -0.85055585290E+03  0.12444396056E+04  0.10100000352E+00 0. -1.
</event>
<event>
 5   0  0.5824956E-05  0.1909529E+04  0.7818609E-02  0.8650128E-01
       -1   -1    0    0    0  501  0.00000000000E+00  0.00000000000E+00  0.55790442513E+03  0.55790442515E+03  0.50400001928E-02 0. -1.
        1   -1    0    0  501    0  0.00000000000E+00  0.00000000000E+00 -0.16339265997E+04  0.16339265997E+04  0.50400001928E-02 0.  1.
    10030    2    1    2    0    0  0.00000000000E+00  0.00000000000E+00 -0.10760221746E+04  0.21918310249E+04  0.19095286123E+04 0.  0.
        2    1    3    3  502    0  0.68997682697E+03  0.44326234174E+03 -0.10991919930E+04  0.13714126159E+04  0.25500000920E-02 0.  1.
       -2    1    3    3    0  502 -0.68997682697E+03 -0.44326234174E+03  0.23169818458E+02  0.82041840901E+03  0.25500000920E-02 0. -1.
</event>
<event>
 5   0  0.1133638E-04  0.1862093E+04  0.7818609E-02  0.8673958E-01
        2   -1    0    0  501    0  0.00000000000E+00  0.00000000000E+00  0.21238897579E+04  0.21238897579E+04  0.25500000920E-02 0.  1.
       -2   -1    0    0    0  501  0.00000000000E+00  0.00000000000E+00 -0.40814168871E+03  0.40814168872E+03  0.25500000920E-02 0. -1.
    10030    2    1    2    0    0  0.00000000000E+00  0.00000000000E+00  0.17157480692E+04  0.25320314467E+04  0.18620933945E+04 0.  0.
        3    1    3    3  502    0 -0.10622273112E+03  0.81035408645E+02  0.21107871426E+04  0.21150112004E+04  0.10100000352E+00 0.  1.
       -3    1    3    3    0  502  0.10622273112E+03 -0.81035408645E+02 -0.39503907342E+03  0.41702024626E+03  0.10100000352E+00 0. -1.
</event>
<event>
 5   0  0.4061125E-05  0.1889007E+04  0.7818609E-02  0.8660348E-01
       -3   -1    0    0    0  501  0.00000000000E+00  0.00000000000E+00  0.10084455343E+04  0.10084455394E+04  0.10100000352E+00 0.  1.
        3   -1    0    0  501    0  0.00000000000E+00  0.00000000000E+00 -0.88461542654E+03  0.88461543230E+03  0.10100000352E+00 0. -1.
    10030    2    1    2    0    0  0.00000000000E+00  0.00000000000E+00  0.12383010781E+03  0.18930609717E+04  0.18890066032E+04 0.  0.
        4    1    3    3  502    0 -0.84202258473E+03 -0.25962934053E+03  0.40275596502E+03  0.96882578822E+03  0.12699999809E+01 0.  1.
       -4    1    3    3    0  502  0.84202258473E+03  0.25962934053E+03 -0.27892585722E+03  0.92423518348E+03  0.12699999809E+01 0. -1.
</event>
<event>
 5   0  0.1133638E-04  0.1907596E+04  0.7818609E-02  0.8651085E-01
        2   -1    0    0  501    0  0.00000000000E+00  0.00000000000E+00  0.14346332700E+04  0.14346332700E+04  0.25500000920E-02 0.  1.
       -2   -1    0    0    0  501  0.00000000000E+00  0.00000000000E+00 -0.63412038827E+03  0.63412038828E+03  0.25500000920E-02 0. -1.
    10030    2    1    2    0    0  0.00000000000E+00  0.00000000000E+00  0.80051288176E+03  0.20687536583E+04  0.19075955611E+04 0.  0.
        3    1    3    3  502    0 -0.47911203877E+03 -0.40292816602E+03  0.11806548785E+04  0.13363552690E+04  0.10100000352E+00 0.  1.
       -3    1    3    3    0  502  0.47911203877E+03  0.40292816602E+03 -0.38014199679E+03  0.73239838926E+03  0.10100000352E+00 0. -1.
</event>
<event>
 5   0  0.5579109E-05  0.1886438E+04  0.7818609E-02  0.8661637E-01
        1   -1    0    0  501    0  0.00000000000E+00  0.00000000000E+00  0.99549612152E+03  0.99549612153E+03  0.50400001928E-02 0. -1.
       -1   -1    0    0    0  501  0.00000000000E+00  0.00000000000E+00 -0.89368724481E+03  0.89368724482E+03  0.50400001928E-02 0.  1.
    10030    2    1    2    0    0  0.00000000000E+00  0.00000000000E+00  0.10180887671E+03  0.18891833664E+04  0.18864381104E+04 0.  0.
        3    1    3    3  502    0 -0.60816887163E+03  0.12064913864E+03  0.76273879754E+03  0.98295273261E+03  0.10100000352E+00 0. -1.
       -3    1    3    3    0  502  0.60816887163E+03 -0.12064913864E+03 -0.66092992083E+03  0.90623063374E+03  0.10100000352E+00 0.  1.
</event>
<event>
 5   0  0.5628936E-05  0.1896564E+04  0.7818609E-02  0.8656568E-01
       -1   -1    0    0    0  501  0.00000000000E+00  0.00000000000E+00  0.11540856868E+04  0.11540856868E+04  0.50400001928E-02 0. -1.
        1   -1    0    0  501    0  0.00000000000E+00  0.00000000000E+00 -0.77917869952E+03  0.77917869954E+03  0.50400001928E-02 0.  1.
    10030    2    1    2    0    0  0.00000000000E+00  0.00000000000E+00  0.37490698729E+03  0.19332643864E+04  0.18965642458E+04 0.  0.
        5    1    3    3  502    0 -0.58866173249E+02  0.57432080394E+03 -0.57937162959E+03  0.81792615031E+03  0.46999998093E+01 0.  1.
       -5    1    3    3    0  502  0.58866173249E+02 -0.57432080394E+03  0.95427861688E+03  0.11153382361E+04  0.46999998093E+01 0. -1.
</event>
<event>
 5   0  0.1182630E-04  0.1897299E+04  0.7818609E-02  0.8656202E-01
        2   -1    0    0  501    0  0.00000000000E+00  0.00000000000E+00  0.10916121255E+04  0.10916121255E+04  0.25500000920E-02 0. -1.
       -2   -1    0    0    0  501  0.00000000000E+00  0.00000000000E+00 -0.82441007759E+03  0.82441007760E+03  0.25500000920E-02 0.  1.
    10030    2    1    2    0    0  0.00000000000E+00  0.00000000000E+00  0.26720204787E+03  0.19160222031E+04  0.18972991720E+04 0.  0.
        5    1    3    3  502    0  0.48198422926E+03  0.10037960766E+03  0.95248468149E+03  0.10722098775E+04  0.46999998093E+01 0. -1.
       -5    1    3    3    0  502 -0.48198422926E+03 -0.10037960766E+03 -0.68528263361E+03  0.84381232559E+03  0.46999998093E+01 0.  1.
</event>
<event>
 5   0  0.5579109E-05  0.1913126E+04  0.7818609E-02  0.8648350E-01
        1   -1    0    0  501    0  0.00000000000E+00  0.00000000000E+00  0.10286849936E+04  0.10286849936E+04  0.50400001928E-02 0.  1.
       -1   -1    0    0    0  501  0.00000000000E+00  0.00000000000E+00 -0.88949749108E+03  0.88949749109E+03  0.50400001928E-02 0. -1.
    10030    2    1    2    0    0  0.00000000000E+00  0.00000000000E+00  0.13918750252E+03  0.19181824847E+04  0.19131259456E+04 0.  0.
        3    1    3    3  502    0  0.90785585839E+02 -0.58264079058E+02  0.10225668257E+04  0.10282410460E+04  0.10100000352E+00 0.  1.
       -3    1    3    3    0  502 -0.90785585839E+02  0.58264079058E+02 -0.88337932317E+03  0.88994143869E+03  0.10100000352E+00 0. -1.
</event>
<event>
 5   0  0.5824956E-05  0.1900181E+04  0.7818609E-02  0.8654766E-01
        1   -1    0    0  501    0  0.00000000000E+00  0.00000000000E+00  0.18888599375E+04  0.18888599375E+04  0.50400001928E-02 0.  1.
       -1   -1    0    0    0  501  0.00000000000E+00  0.00000000000E+00 -0.47789234065E+03  0.47789234068E+03  0.50400001928E-02 0. -1.
    10030    2    1    2    0    0  0.00000000000E+00  0.00000000000E+00  0.14109675968E+04  0.23667522782E+04  0.19001807248E+04 0.  0.
        2    1    3    3  502    0 -0.49931663566E+03  0.10919123370E+03  0.17030303282E+04  0.17780753997E+04  0.25500000920E-02 0.  1.
       -2    1    3    3    0  502  0.49931663566E+03 -0.10919123370E+03 -0.29206273139E+03  0.58867687847E+03  0.25500000920E-02 0. -1.
</event>
<event>
 5   0  0.1141890E-04  0.1907766E+04  0.7818609E-02  0.8651001E-01
       -2   -1    0    0    0  501  0.00000000000E+00  0.00000000000E+00  0.53874500078E+03  0.53874500078E+03  0.25500000920E-02 0.  1.
        2   -1    0    0  501    0  0.00000000000E+00  0.00000000000E+00 -0.16889112381E+04  0.16889112381E+04  0.25500000920E-02 0. -1.
    10030    2    1    2    0    0  0.00000000000E+00  0.00000000000E+00 -0.11501662373E+04  0.22276562389E+04  0.19077656945E+04 0.  0.
        2    1    3    3  502    0 -0.66129021947E+03 -0.12732257282E+03 -0.13639157500E+04  0.15211120817E+04  0.25500000920E-02 0. -1.
       -2    1    3    3    0  502  0.66129021947E+03  0.12732257282E+03  0.21374951268E+03  0.70654415721E+03  0.25500000920E-02 0.  1.
</event>
<event>
 5   0  0.1141890E-04  0.1876340E+04  0.7818609E-02  0.8666724E-01
       -2   -1    0    0    0  501  0.00000000000E+00  0.00000000000E+00  0.48609786118E+03  0.48609786119E+03  0.25500000920E-02 0. -1.
        2   -1    0    0  501    0  0.00000000000E+00  0.00000000000E+00 -0.18106708942E+04  0.18106708942E+04  0.25500000920E-02 0.  1.
    10030    2    1    2    0    0  0.00000000000E+00  0.00000000000E+00 -0.13245730330E+04  0.22967687554E+04  0.18763403199E+04 0.  0.
        2    1    3    3  502    0  0.97150240947E+02  0.85905613114E+03 -0.21630273032E+03  0.89118038406E+03  0.25500000920E-02 0.  1.
       -2    1    3    3    0  502 -0.97150240947E+02 -0.85905613114E+03 -0.11082703027E+04  0.14055883713E+04  0.25500000920E-02 0. -1.
</event>
<event>
 5   0  0.1101678E-04  0.1897150E+04  0.7818609E-02  0.8656276E-01
       -2   -1    0    0    0  501  0.00000000000E+00  0.00000000000E+00  0.10837358289E+04  0.10837358289E+04  0.25500000920E-02 0.  1.
        2   -1    0    0  501    0  0.00000000000E+00  0.00000000000E+00 -0.83027075704E+03  0.83027075704E+03  0.25500000920E-02 0. -1.
    10030    2    1    2    0    0  0.00000000000E+00  0.00000000000E+00  0.25346507190E+03  0.19140065860E+04  0.18971496168E+04 0.  0.
        4    1    3    3  502    0 -0.36212163455E+03 -0.68215372404E+03 -0.42891221708E+03  0.88342123831E+03  0.12699999809E+01 0. -1.
       -4    1    3    3    0  502  0.36212163455E+03  0.68215372404E+03  0.68237728898E+03  0.10305853477E+04  0.12699999809E+01 0.  1.
</event>
<event>
 5   0  0.1118206E-04  0.1900393E+04  0.7818609E-02  0.8654661E-01
        2   -1    0    0  501    0  0.00000000000E+00  0.00000000000E+00  0.11010449816E+04  0.11010449816E+04  0.25500000920E-02 0.  1.
       -2   -1    0    0    0  501  0.00000000000E+00  0.00000000000E+00 -0.82001518805E+03  0.82001518805E+03  0.25500000920E-02 0. -1.
    10030    2    1    2    0    0  0.00000000000E+00  0.00000000000E+00  0.28102979358E+03  0.19210601697E+04  0.19003932305E+04 0.  0.
        1    1    3    3  502    0  0.41762783015E+03  0.82190610952E+03  0.37308417141E+03  0.99455238996E+03  0.50400001928E-02 0.  1.
       -1    1    3    3    0  502 -0.41762783015E+03 -0.82190610952E+03 -0.92054377834E+02  0.92650777972E+03  0.50400001928E-02 0. -1.
</event>
<event>
 5   0  0.4061125E-05  0.1892269E+04  0.7818609E-02  0.8658714E-01
        4   -1    0    0  501    0  0.00000000000E+00  0.00000000000E+00  0.11406237518E+04  0.11406244588E+04  0.12699999809E+01 0.  1.
       -4   -1    0    0    0  501  0.00000000000E+00  0.00000000000E+00 -0.78480656763E+03  0.78480759520E+03  0.12699999809E+01 0. -1.
    10030    2    1    2    0    0  0.00000000000E+00  0.00000000000E+00  0.35581718417E+03  0.19254320540E+04  0.18922692002E+04 0.  0.
        5    1    3    3  502    0  0.29489885772E+03  0.28601403790E+03  0.10451239979E+04  0.11229762362E+04  0.46999998093E+01 0.  1.
       -5    1    3    3    0  502 -0.29489885772E+03 -0.28601403790E+03 -0.68930681369E+03  0.80245581783E+03  0.46999998093E+01 0. -1.
</event>
<event>
 5   0  0.1101678E-04  0.1901084E+04  0.7818609E-02  0.8654317E-01
       -2   -1    0    0    0  501  0.00000000000E+00  0.00000000000E+00  0.12981025525E+04  0.12981025525E+04  0.25500000920E-02 0. -1.
        2   -1    0    0  501    0  0.00000000000E+00  0.00000000000E+00 -0.69603902091E+03  0.69603902091E+03  0.25500000920E-02 0.  1.
    10030    2    1    2    0    0  0.00000000000E+00  0.00000000000E+00  0.60206353163E+03  0.19941415735E+04  0.19010839326E+04 0.  0.
        4    1    3    3  502    0 -0.61546495457E+03  0.70633138942E+03  0.13245644756E+03  0.94617517690E+03  0.12699999809E+01 0.  1.
       -4    1    3    3    0  502  0.61546495457E+03 -0.70633138942E+03  0.46960708407E+03  0.10479663965E+04  0.12699999809E+01 0. -1.
</event>
<event>
 5   0  0.1133638E-04  0.1898067E+04  0.7818609E-02  0.8655819E-01
        2   -1    0    0  501    0  0.00000000000E+00  0.00000000000E+00  0.74516654505E+03  0.74516654506E+03  0.25500000920E-02 0.  1.
       -2   -1    0    0    0  501  0.00000000000E+00  0.00000000000E+00 -0.12086759361E+04  0.12086759361E+04  0.25500000920E-02 0. -1.
    10030    2    1    2    0    0  0.00000000000E+00  0.00000000000E+00 -0.46350939104E+03  0.19538424812E+04  0.18980673027E+04 0.  0.
        3    1    3    3  502    0 -0.75455228345E+03 -0.16747231575E+03  0.33512612142E+03  0.84244029609E+03  0.10100000352E+00 0.  1.
       -3    1    3    3    0  502  0.75455228345E+03  0.16747231575E+03 -0.79863551246E+03  0.11114021851E+04  0.10100000352E+00 0. -1.
</event>
<event>
 5   0  0.5579109E-05  0.1899851E+04  0.7818609E-02  0.8654930E-01
        1   -1    0    0  501    0  0.00000000000E+00  0.00000000000E+00  0.18232316154E+04  0.18232316154E+04  0.50400001928E-02 0.  1.
       -1   -1    0    0    0  501  0.00000000000E+00  0.00000000000E+00 -0.49492266733E+03  0.49492266735E+03  0.50400001928E-02 0. -1.
    10030    2    1    2    0    0  0.00000000000E+00  0.00000000000E+00  0.13283089480E+04  0.23181542827E+04  0.18998512092E+04 0.  0.
        3    1    3    3  502    0 -0.31911190766E+03  0.58196570580E+03 -0.16506507287E+03  0.68393200015E+03  0.10100000352E+00 0. -1.
       -3    1    3    3    0  502  0.31911190766E+03 -0.58196570580E+03  0.14933740209E+04  0.16342222826E+04  0.10100000352E+00 0.  1.
</event>
<event>
 5   0  0.1182630E-04  0.1902075E+04  0.7818609E-02  0.8653824E-01
       -2   -1    0    0    0  501  0.00000000000E+00  0.00000000000E+00  0.11671244007E+04  0.11671244007E+04  0.25500000920E-02 0. -1.
        2   -1    0    0  501    0  0.00000000000E+00  0.00000000000E+00 -0.77495793675E+03  0.77495793675E+03  0.25500000920E-02 0.  1.
    10030    2    1    2    0    0  0.00000000000E+00  0.00000000000E+00  0.39216646399E+03  0.19420823375E+04  0.19020749907E+04 0.  0.
        5    1    3    3  502    0 -0.26255524895E+03 -0.88151319301E+03 -0.50765131493E+02  0.92119485277E+03  0.46999998093E+01 0.  1.
       -5    1    3    3    0  502  0.26255524895E+03  0.88151319301E+03  0.44293159549E+03  0.10208874847E+04  0.46999998093E+01 0. -1.
</event>
<event>
 5   0  0.5614989E-05  0.1883218E+04  0.7818609E-02  0.8663255E-01
       -1   -1    0    0    0  501  0.00000000000E+00  0.00000000000E+00  0.44094569755E+03  0.44094569758E+03  0.50400001928E-02 0.  1.
        1   -1    0    0  501    0  0.00000000000E+00  0.00000000000E+00 -0.20107414318E+04  0.20107414318E+04  0.50400001928E-02 0. -1.
    10030    2    1    2    0    0  0.00000000000E+00  0.00000000000E+00 -0.15697957342E+04  0.24516871294E+04  0.18832182914E+04 0.  0.
        4    1    3    3  502    0  0.88341757408E+03 -0.29306680635E+03 -0.59935921817E+03  0.11070446461E+04  0.12699999809E+01 0.  1.
       -4    1    3    3    0  502 -0.88341757408E+03  0.29306680635E+03 -0.97043651608E+03  0.13446424833E+04  0.12699999809E+01 0. -1.
</event>
<event>
 5   0  0.1118206E-04  0.1897402E+04  0.7818609E-02  0.8656151E-01
        2   -1    0    0  501    0  0.00000000000E+00  0.00000000000E+00  0.15035154553E+04  0.15035154553E+04  0.25500000920E-02 0.  1.
       -2   -1    0    0    0  501  0.00000000000E+00  0.00000000000E+00 -0.59861955688E+03  0.59861955689E+03  0.25500000920E-02 0. -1.
    10030    2    1    2    0    0  0.00000000000E+00  0.00000000000E+00  0.90489589845E+03  0.21021350122E+04  0.18974021773E+04 0.  0.
        1    1    3    3  502    0 -0.59373861612E+03  0.61833360369E+03  0.90271391068E+03  0.12448913183E+04  0.50400001928E-02 0.  1.
       -1    1    3    3    0  502  0.59373861612E+03 -0.61833360369E+03  0.21819877657E+01  0.85724369395E+03  0.50400001928E-02 0. -1.
</event>
<event>
 5   0  0.1141890E-04  0.1899273E+04  0.7818609E-02  0.8655218E-01
       -2   -1    0    0    0  501  0.00000000000E+00  0.00000000000E+00  0.48024704680E+03  0.48024704680E+03  0.25500000920E-02 0.  1.
        2   -1    0    0  501    0  0.00000000000E+00  0.00000000000E+00 -0.18778035896E+04  0.18778035896E+04  0.25500000920E-02 0. -1.
    10030    2    1    2    0    0  0.00000000000E+00  0.00000000000E+00 -0.13975565428E+04  0.23580506364E+04  0.18992731540E+04 0.  0.
        2    1    3    3  502    0 -0.49436810421E+03 -0.46141153506E+03  0.12898485206E+03  0.68843120151E+03  0.25500000920E-02 0.  1.
       -2    1    3    3    0  502  0.49436810421E+03  0.46141153506E+03 -0.15265413948E+04  0.16696194349E+04  0.25500000920E-02 0. -1.
</event>
<event>
 5   0  0.5628936E-05  0.1892619E+04  0.7818609E-02  0.8658539E-01
       -1   -1    0    0    0  501  0.00000000000E+00  0.00000000000E+00  0.16744725273E+04  0.16744725273E+04  0.50400001928E-02 0.  1.
        1   -1    0    0  501    0  0.00000000000E+00  0.00000000000E+00 -0.53479644557E+03  0.53479644559E+03  0.50400001928E-02 0. -1.
    10030    2    1    2    0    0  0.00000000000E+00  0.00000000000E+00  0.11396760817E+04  0.22092689729E+04  0.18926193023E+04 0.  0.
        5    1    3    3  502    0 -0.78602930180E+03 -0.26716018854E+03  0.39691121598E+02  0.83115227532E+03  0.46999998093E+01 0. -1.
       -5    1    3    3    0  502  0.78602930180E+03  0.26716018854E+03  0.10999849601E+04  0.13781166976E+04  0.46999998093E+01 0.  1.
</event>
<event>
 5   0  0.1101678E-04  0.1916358E+04  0.7818609E-02  0.8646756E-01
        2   -1    0    0  501    0  0.00000000000E+00  0.00000000000E+00  0.16454507579E+04  0.16454507579E+04  0.25500000920E-02 0. -1.
       -2   -1    0    0    0  501  0.00000000000E+00  0.00000000000E+00 -0.55796692550E+03  0.55796692551E+03  0.25500000920E-02 0.  1.
    10030    2    1    2    0    0  0.00000000000E+00  0.00000000000E+00  0.10874838324E+04  0.22034176834E+04  0.19163581090E+04 0.  0.
        4    1    3    3  502    0 -0.65945894132E+03  0.67239518712E+03  0.34096009753E+03  0.10016270683E+04  0.12699999809E+01 0.  1.
       -4    1    3    3    0  502  0.65945894132E+03 -0.67239518712E+03  0.74652373488E+03  0.12017906151E+04  0.12699999809E+01 0. -1.
</event>
<event>
 5   0  0.1182630E-04  0.1892817E+04  0.7818609E-02  0.8658440E-01
        2   -1    0    0  501    0  0.00000000000E+00  0.00000000000E+00  0.79882737789E+03  0.79882737789E+03  0.25500000920E-02 0.  1.
       -2   -1    0    0    0  501  0.00000000000E+00  0.00000000000E+00 -0.11212549237E+04  0.11212549237E+04  0.25500000920E-02 0. -1.
    10030    2    1    2    0    0  0.00000000000E+00  0.00000000000E+00 -0.32242754580E+03  0.19200823016E+04  0.18928170864E+04 0.  0.
        5    1    3    3  502    0  0.93175464297E+03 -0.15795015288E+03 -0.10996801443E+03  0.95143576751E+03  0.46999998093E+01 0.  1.
       -5    1    3    3    0  502 -0.93175464297E+03  0.15795015288E+03 -0.21245953137E+03  0.96864653407E+03  0.46999998093E+01 0. -1.
</event>
<event>
 5   0  0.5614989E-05  0.1896500E+04  0.7818609E-02  0.8656600E-01
        1   -1    0    0  501    0  0.00000000000E+00  0.00000000000E+00  0.10393622820E+04  0.10393622820E+04  0.50400001928E-02 0. -1.
       -1   -1    0    0    0  501  0.00000000000E+00  0.00000000000E+00 -0.86512513816E+03  0.86512513817E+03  0.50400001928E-02 0.  1.
    10030    2    1    2    0    0  0.00000000000E+00  0.00000000000E+00  0.17423714382E+03  0.19044874202E+04  0.18965003958E+04 0.  0.
        4    1    3    3  502    0 -0.36697762294E+03 -0.56687504710E+03 -0.58138532507E+03  0.89108383661E+03  0.12699999809E+01 0.  1.
       -4    1    3    3    0  502  0.36697762294E+03  0.56687504710E+03  0.75562246888E+03  0.10134035835E+04  0.12699999809E+01 0. -1.
</event>
<event>
 5   0  0.1133638E-04  0.1955740E+04  0.7818609E-02  0.8627598E-01
       -2   -1    0    0    0  501  0.00000000000E+00  0.00000000000E+00  0.10494231375E+04  0.10494231375E+04  0.25500000920E-02 0. -1.
        2   -1    0    0  501    0  0.00000000000E+00  0.00000000000E+00 -0.91119586070E+03  0.91119586071E+03  0.25500000920E-02 0.  1.
    10030    2    1    2    0    0  0.00000000000E+00  0.00000000000E+00  0.13822727682E+03  0.19606189982E+04  0.19557402885E+04 0.  0.
        3    1    3    3  502    0  0.91756449124E+03  0.24797632823E+03  0.29949804243E+03  0.99655202702E+03  0.10100000352E+00 0.  1.
       -3    1    3    3    0  502 -0.91756449124E+03 -0.24797632823E+03 -0.16127076561E+03  0.96406697121E+03  0.10100000352E+00 0. -1.
</event>
<event>
 5   0  0.4061125E-05  0.1872772E+04  0.7818609E-02  0.8668529E-01
       -3   -1    0    0    0  501  0.00000000000E+00  0.00000000000E+00  0.14862759270E+04  0.14862759305E+04  0.10100000352E+00 0.  1.
        3   -1    0    0  501    0  0.00000000000E+00  0.00000000000E+00 -0.58994339267E+03  0.58994340132E+03  0.10100000352E+00 0. -1.
    10030    2    1    2    0    0  0.00000000000E+00  0.00000000000E+00  0.89633253437E+03  0.20762193318E+04  0.18727719299E+04 0.  0.
        1    1    3    3  502    0  0.68431800887E+03 -0.36620160947E+03  0.10289297760E+04  0.12888332864E+04  0.50400001928E-02 0.  1.
       -1    1    3    3    0  502 -0.68431800887E+03  0.36620160947E+03 -0.13259724163E+03  0.78738604544E+03  0.50400001928E-02 0. -1.
</event>
<event>
 5   0  0.5579109E-05  0.1901486E+04  0.7818609E-02  0.8654117E-01
       -1   -1    0    0    0  501  0.00000000000E+00  0.00000000000E+00  0.69015648394E+03  0.69015648396E+03  0.50400001928E-02 0. -1.
        1   -1    0    0  501    0  0.00000000000E+00  0.00000000000E+00 -0.13097202624E+04  0.13097202624E+04  0.50400001928E-02 0.  1.
    10030    2    1    2    0    0  0.00000000000E+00  0.00000000000E+00 -0.61956377845E+03  0.19998767464E+04  0.19014856626E+04 0.  0.
        3    1    3    3  502    0  0.72993690541E+02 -0.89193986805E+03 -0.64736906686E+03  0.11045232121E+04  0.10100000352E+00 0. -1.
       -3    1    3    3    0  502 -0.72993690541E+02  0.89193986805E+03  0.27805288415E+02  0.89535353428E+03  0.10100000352E+00 0.  1.
</event>
<event>
 5   0  0.5579109E-05  0.1913092E+04  0.7818609E-02  0.8648367E-01
       -1   -1    0    0    0  501  0.00000000000E+00  0.00000000000E+00  0.85287199221E+03  0.85287199222E+03  0.50400001928E-02 0.  1.
        1   -1    0    0  501    0  0.00000000000E+00  0.00000000000E+00 -0.10728223045E+04  0.10728223045E+04  0.50400001928E-02 0. -1.
    10030    2    1    2    0    0  0.00000000000E+00  0.00000000000E+00 -0.21995031232E+03  0.19256942968E+04  0.19130918391E+04 0.  0.
        3    1    3    3  502    0  0.37074506932E+03  0.85226487763E+03  0.11772898910E+03  0.93683907537E+03  0.10100000352E+00 0.  1.
       -3    1    3    3    0  502 -0.37074506932E+03 -0.85226487763E+03 -0.33767930143E+03  0.98885522139E+03  0.10100000352E+00 0. -1.
</event>
<event>
 5   0  0.5841424E-05  0.1882515E+04  0.7818609E-02  0.8663609E-01
       -1   -1    0    0    0  501  0.00000000000E+00  0.00000000000E+00  0.17656502039E+04  0.17656502039E+04  0.50400001928E-02 0. -1.
        1   -1    0    0  501    0  0.00000000000E+00  0.00000000000E+00 -0.50177874883E+03  0.50177874886E+03  0.50400001928E-02 0.  1.
    10030    2    1    2    0    0  0.00000000000E+00  0.00000000000E+00  0.12638714550E+04  0.22674289527E+04  0.18825150732E+04 0.  0.
        1    1    3    3  502    0 -0.88428390484E+02  0.13769330642E+03 -0.48451356869E+03  0.51140241019E+03  0.50400001928E-02 0.  1.
       -1    1    3    3    0  502  0.88428390484E+02 -0.13769330642E+03  0.17483850237E+04  0.17560265425E+04  0.50400001928E-02 0. -1.
</event>
<event>
 5   0  0.1133638E-04  0.1896727E+04  0.7818609E-02  0.8656487E-01
        2   -1    0    0  501    0  0.00000000000E+00  0.00000000000E+00  0.17404227645E+04  0.17404227645E+04  0.25500000920E-02 0. -1.
       -2   -1    0    0    0  501  0.00000000000E+00  0.00000000000E+00 -0.51676733486E+03  0.51676733486E+03  0.25500000920E-02 0.  1.
    10030    2    1    2    0    0  0.00000000000E+00  0.00000000000E+00  0.12236554297E+04  0.22571900994E+04  0.18967273221E+04 0.  0.
        3    1    3    3  502    0  0.16334732524E+03 -0.74351412835E+03 -0.61255886184E+02  0.76370668552E+03  0.10100000352E+00 0.  1.
       -3    1    3    3    0  502 -0.16334732524E+03  0.74351412835E+03  0.12849113159E+04  0.14934834139E+04  0.10100000352E+00 0. -1.
</event>
<event>
 5   0  0.1133638E-04  0.1889637E+04  0.7818609E-02  0.8660032E-01
       -2   -1    0    0    0  501  0.00000000000E+00  0.00000000000E+00  0.71685815628E+03  0.71685815629E+03  0.25500000920E-02 0. -1.
        2   -1    0    0  501    0  0.00000000000E+00  0.00000000000E+00 -0.12452697095E+04  0.12452697095E+04  0.25500000920E-02 0.  1.
    10030    2    1    2    0    0  0.00000000000E+00  0.00000000000E+00 -0.52841155318E+03  0.19621278658E+04  0.18896367355E+04 0.  0.
        3    1    3    3  502    0  0.38238228888E+03 -0.21714986630E+03 -0.11325347745E+04  0.12149095871E+04  0.10100000352E+00 0.  1.
       -3    1    3    3    0  502 -0.38238228888E+03  0.21714986630E+03  0.60412322127E+03  0.74721827866E+03  0.10100000352E+00 0. -1.
</event>
<event>
 5   0  0.1182630E-04  0.1897254E+04  0.7818609E-02  0.8656224E-01
        2   -1    0    0  501    0  0.00000000000E+00  0.00000000000E+00  0.54813823111E+03  0.54813823112E+03  0.25500000920E-02 0.  1.
       -2   -1    0    0    0  501  0.00000000000E+00  0.00000000000E+00 -0.16417274445E+04  0.16417274445E+04  0.25500000920E-02 0. -1.
    10030    2    1    2    0    0  0.00000000000E+00  0.00000000000E+00 -0.10935892134E+04  0.21898656756E+04  0.18972544135E+04 0.  0.
        5    1    3    3  502    0 -0.57262949571E+03  0.51786327790E+03  0.89377704167E+02  0.77723701530E+03  0.46999998093E+01 0.  1.
       -5    1    3    3    0  502  0.57262949571E+03 -0.51786327790E+03 -0.11829669176E+04  0.14126286603E+04  0.46999998093E+01 0. -1.
</event>
<event>
 5   0  0.5614989E-05  0.1967918E+04  0.7818609E-02  0.8621769E-01
       -1   -1    0    0    0  501  0.00000000000E+00  0.00000000000E+00  0.13037581837E+04  0.13037581838E+04  0.50400001928E-02 0.  1.
        1   -1    0    0  501    0  0.00000000000E+00  0.00000000000E+00 -0.74260345232E+03  0.74260345234E+03  0.50400001928E-02 0. -1.
    10030    2    1    2    0    0  0.00000000000E+00  0.00000000000E+00  0.56115473142E+03  0.20463616361E+04  0.19679180148E+04 0.  0.
        4    1    3    3  502    0 -0.22623619337E+03  0.62769858680E+03 -0.47142665033E+03  0.81696574628E+03  0.12699999809E+01 0. -1.
       -4    1    3    3    0  502  0.22623619337E+03 -0.62769858680E+03  0.10325813817E+04  0.12293958898E+04  0.12699999809E+01 0.  1.
</event>
<event>
 5   0  0.5614989E-05  0.1867384E+04  0.7818609E-02  0.8671264E-01
       -1   -1    0    0    0  501  0.00000000000E+00  0.00000000000E+00  0.93422380507E+03  0.93422380508E+03  0.50400001928E-02 0. -1.
        1   -1    0    0  501    0  0.00000000000E+00  0.00000000000E+00 -0.93316001037E+03  0.93316001039E+03  0.50400001928E-02 0.  1.
    10030    2    1    2    0    0  0.00000000000E+00  0.00000000000E+00  0.10637946988E+01  0.18673838155E+04  0.18673835125E+04 0.  0.
        4    1    3    3  502    0 -0.35076261288E+03  0.35054565803E+03 -0.79058264360E+03  0.93324123260E+03  0.12699999809E+01 0.  1.
       -4    1    3    3    0  502  0.35076261288E+03 -0.35054565803E+03  0.79164643830E+03  0.93414258287E+03  0.12699999809E+01 0. -1.
</event>
<event>
 5   0  0.1141890E-04  0.1878540E+04  0.7818609E-02  0.8665613E-01
        2   -1    0    0  501    0  0.00000000000E+00  0.00000000000E+00  0.13971269395E+04  0.13971269395E+04  0.25500000920E-02 0.  1.
       -2   -1    0    0    0  501  0.00000000000E+00  0.00000000000E+00 -0.63145886968E+03  0.63145886968E+03  0.25500000920E-02 0. -1.
    10030    2    1    2    0    0  0.00000000000E+00  0.00000000000E+00  0.76566806978E+03  0.20285858091E+04  0.18785400693E+04 0.  0.
        2    1    3    3  502    0 -0.39338948903E+03 -0.15736251012E+03 -0.52240020194E+03  0.67262190023E+03  0.25500000920E-02 0. -1.
       -2    1    3    3    0  502  0.39338948903E+03  0.15736251012E+03  0.12880682717E+04  0.13559639089E+04  0.25500000920E-02 0.  1.
</event>
<event>
 5   0  0.1133638E-04  0.1923012E+04  0.7818609E-02  0.8643486E-01
       -2   -1    0    0    0  501  0.00000000000E+00  0.00000000000E+00  0.85924836510E+03  0.85924836510E+03  0.25500000920E-02 0.  1.
        2   -1    0    0  501    0  0.00000000000E+00  0.00000000000E+00 -0.10759331447E+04  0.10759331447E+04  0.25500000920E-02 0. -1.
    10030    2    1    2    0    0  0.00000000000E+00  0.00000000000E+00 -0.21668477956E+03  0.19351815098E+04  0.19230120078E+04 0.  0.
        3    1    3    3  502    0 -0.44076649360E+03  0.62522849545E+03  0.47784539874E+03  0.90195454913E+03  0.10100000352E+00 0.  1.
       -3    1    3    3    0  502  0.44076649360E+03 -0.62522849545E+03 -0.69453017830E+03  0.10332269606E+04  0.10100000352E+00 0. -1.
</event>
<event>
 5   0  0.5841424E-05  0.1901012E+04  0.7818609E-02  0.8654353E-01
       -1   -1    0    0    0  501  0.00000000000E+00  0.00000000000E+00  0.55330428186E+03  0.55330428189E+03  0.50400001928E-02 0. -1.
        1   -1    0    0  501    0  0.00000000000E+00  0.00000000000E+00 -0.16328477833E+04  0.16328477833E+04  0.50400001928E-02 0.  1.
    10030    2    1    2    0    0  0.00000000000E+00  0.00000000000E+00 -0.10795435014E+04  0.21861520651E+04  0.19010120148E+04 0.  0.
        1    1    3    3  502    0  0.62267736938E+03 -0.52329087709E+03 -0.11053784394E+04  0.13723782069E+04  0.50400001928E-02 0.  1.
       -1    1    3    3    0  502 -0.62267736938E+03  0.52329087709E+03  0.25834938002E+02  0.81377385828E+03  0.50400001928E-02 0. -1.
</event>
<event>
 5   0  0.1182630E-04  0.1878573E+04  0.7818609E-02  0.8665596E-01
       -2   -1    0    0    0  501  0.00000000000E+00  0.00000000000E+00  0.14971674795E+04  0.14971674795E+04  0.25500000920E-02 0. -1.
        2   -1    0    0  501    0  0.00000000000E+00  0.00000000000E+00 -0.58928540704E+03  0.58928540704E+03  0.25500000920E-02 0.  1.
    10030    2    1    2    0    0  0.00000000000E+00  0.00000000000E+00  0.90788207246E+03  0.20864528865E+04  0.18785728067E+04 0.  0.
        5    1    3    3  502    0  0.37875259282E+03 -0.52019076526E+03  0.12138984425E+04  0.13739081037E+04  0.46999998093E+01 0. -1.
       -5    1    3    3    0  502 -0.37875259282E+03  0.52019076526E+03 -0.30601637000E+03  0.71254478283E+03  0.46999998093E+01 0.  1.
</event>
<event>
 5   0  0.5841424E-05  0.1906535E+04  0.7818609E-02  0.8651610E-01
        1   -1    0    0  501    0  0.00000000000E+00  0.00000000000E+00  0.14910710323E+04  0.14910710324E+04  0.50400001928E-02 0. -1.
       -1   -1    0    0    0  501  0.00000000000E+00  0.00000000000E+00 -0.60944060020E+03  0.60944060022E+03  0.50400001928E-02 0.  1.
    10030    2    1    2    0    0  0.00000000000E+00  0.00000000000E+00  0.88163043214E+03  0.21005116326E+04  0.19065353130E+04 0.  0.
        1    1    3    3  502    0  0.80969218863E+02  0.93532436946E+03  0.25867231725E+03  0.97380647884E+03  0.50400001928E-02 0. -1.
       -1    1    3    3    0  502 -0.80969218863E+02 -0.93532436946E+03  0.62295811490E+03  0.11267051537E+04  0.50400001928E-02 0.  1.
</event>
<event>
 5   0  0.5628936E-05  0.1910793E+04  0.7818609E-02  0.8649503E-01
       -1   -1    0    0    0  501  0.00000000000E+00  0.00000000000E+00  0.92149060486E+03  0.92149060487E+03  0.50400001928E-02 0.  1.
        1   -1    0    0  501    0  0.00000000000E+00  0.00000000000E+00 -0.99054971539E+03  0.99054971541E+03  0.50400001928E-02 0. -1.
    10030    2    1    2    0    0  0.00000000000E+00  0.00000000000E+00 -0.69059110533E+02  0.19120403203E+04  0.19107927741E+04 0.  0.
        5    1    3    3  502    0 -0.67631853176E+03  0.41316221935E+03 -0.56840426456E+03  0.97530265757E+03  0.46999998093E+01 0. -1.
       -5    1    3    3    0  502  0.67631853176E+03 -0.41316221935E+03  0.49934515402E+03  0.93673766271E+03  0.46999998093E+01 0.  1.
</event>
<event>
 5   0  0.1141890E-04  0.1903548E+04  0.7818609E-02  0.8653092E-01
       -2   -1    0    0    0  501  0.00000000000E+00  0.00000000000E+00  0.48948538485E+03  0.48948538486E+03  0.25500000920E-02 0.  1.
        2   -1    0    0  501    0  0.00000000000E+00  0.00000000000E+00 -0.18506654973E+04  0.18506654973E+04  0.25500000920E-02 0. -1.
    10030    2    1    2    0    0  0.00000000000E+00  0.00000000000E+00 -0.13611801125E+04  0.23401508822E+04  0.19035479644E+04 0.  0.
        2    1    3    3  502    0  0.55906826474E+03  0.45800140913E+01 -0.16275149420E+04  0.17208669872E+04  0.25500000920E-02 0. -1.
       -2    1    3    3    0  502 -0.55906826474E+03 -0.45800140913E+01  0.26633482952E+03  0.61928389499E+03  0.25500000920E-02 0.  1.
</event>
<event>
 5   0  0.5841424E-05  0.1901362E+04  0.7818609E-02  0.8654179E-01
        1   -1    0    0  501    0  0.00000000000E+00  0.00000000000E+00  0.20187767187E+04  0.20187767188E+04  0.50400001928E-02 0. -1.
       -1   -1    0    0    0  501  0.00000000000E+00  0.00000000000E+00 -0.44769403176E+03  0.44769403179E+03  0.50400001928E-02 0.  1.
    10030    2    1    2    0    0  0.00000000000E+00  0.00000000000E+00  0.15710826870E+04  0.24664707505E+04  0.19013619208E+04 0.  0.
        1    1    3    3  502    0  0.34833320467E+03 -0.52003080853E+03 -0.14269224697E+03  0.64197285041E+03  0.50400001928E-02 0.  1.
       -1    1    3    3    0  502 -0.34833320467E+03  0.52003080853E+03  0.17137749340E+04  0.18244979001E+04  0.50400001928E-02 0. -1.
</event>
<event>
 5   0  0.5824956E-05  0.1905091E+04  0.7818609E-02  0.8652327E-01
        1   -1    0    0  501    0  0.00000000000E+00  0.00000000000E+00  0.24784071866E+04  0.24784071866E+04  0.50400001928E-02 0. -1.
       -1   -1    0    0    0  501  0.00000000000E+00  0.00000000000E+00 -0.36609912026E+03  0.36609912030E+03  0.50400001928E-02 0.  1.
    10030    2    1    2    0    0  0.00000000000E+00  0.00000000000E+00  0.21123080663E+04  0.28445063069E+04  0.19050907492E+04 0.  0.
        2    1    3    3  502    0 -0.64249791206E+03  0.11362039974E+03  0.20923640485E+04  0.21917345810E+04  0.25500000920E-02 0. -1.
       -2    1    3    3    0  502  0.64249791206E+03 -0.11362039974E+03  0.19944017841E+02  0.65277172587E+03  0.25500000920E-02 0.  1.
</event>
<event>
 5   0  0.1182630E-04  0.1901279E+04  0.7818609E-02  0.8654220E-01
       -2   -1    0    0    0  501  0.00000000000E+00  0.00000000000E+00  0.40192188749E+03  0.40192188750E+03  0.25500000920E-02 0. -1.
        2   -1    0    0  501    0  0.00000000000E+00  0.00000000000E+00 -0.22484852183E+04  0.22484852183E+04  0.25500000920E-02 0.  1.
    10030    2    1    2    0    0  0.00000000000E+00  0.00000000000E+00 -0.18465633308E+04  0.26504071058E+04  0.19012789621E+04 0.  0.
        5    1    3    3  502    0 -0.24004614011E+03 -0.91472690155E+03 -0.10580465752E+04  0.14190955215E+04  0.46999998093E+01 0.  1.
       -5    1    3    3    0  502  0.24004614011E+03  0.91472690155E+03 -0.78851675557E+03  0.12313115843E+04  0.46999998093E+01 0. -1.
</event>
<event>
 5   0  0.1101678E-04  0.1918652E+04  0.7818609E-02  0.8645627E-01
        2   -1    0    0  501    0  0.00000000000E+00  0.00000000000E+00  0.61323785461E+03  0.61323785461E+03  0.25500000920E-02 0. -1.
       -2   -1    0    0    0  501  0.00000000000E+00  0.00000000000E+00 -0.15007337971E+04  0.15007337971E+04  0.25500000920E-02 0.  1.
    10030    2    1    2    0    0  0.00000000000E+00  0.00000000000E+00 -0.88749594246E+03  0.21139716517E+04  0.19186524167E+04 0.  0.
        4    1    3    3  502    0 -0.58312204910E+03  0.34826045403E+03  0.30270723783E+03  0.74360604672E+03  0.12699999809E+01 0. -1.
       -4    1    3    3    0  502  0.58312204910E+03 -0.34826045403E+03 -0.11902031803E+04  0.13703656050E+04  0.12699999809E+01 0.  1.
</event>
<event>
 5   0  0.5824956E-05  0.1890109E+04  0.7818609E-02  0.8659795E-01
       -1   -1    0    0    0  501  0.00000000000E+00  0.00000000000E+00  0.67498330803E+03  0.67498330805E+03  0.50400001928E-02 0.  1.
        1   -1    0    0  501    0  0.00000000000E+00  0.00000000000E+00 -0.13231859155E+04  0.13231859155E+04  0.50400001928E-02 0. -1.
    10030    2    1    2    0    0  0.00000000000E+00  0.00000000000E+00 -0.64820260743E+03  0.19981692235E+04  0.18901094216E+04 0.  0.
        2    1    3    3  502    0 -0.12382124345E+03 -0.42751257201E+03  0.55724584200E+03  0.71317713647E+03  0.25500000920E-02 0.  1.
       -2    1    3    3    0  502  0.12382124345E+03  0.42751257201E+03 -0.12054484494E+04  0.12849920871E+04  0.25500000920E-02 0. -1.
</event>
<event>
 5   0  0.5628936E-05  0.1901398E+04  0.7818609E-02  0.8654161E-01
        1   -1    0    0  501    0  0.00000000000E+00  0.00000000000E+00  0.13664338152E+04  0.13664338152E+04  0.50400001928E-02 0.  1.
       -1   -1    0    0    0  501  0.00000000000E+00  0.00000000000E+00 -0.66145097034E+03  0.66145097036E+03  0.50400001928E-02 0. -1.
    10030    2    1    2    0    0  0.00000000000E+00  0.00000000000E+00  0.70498284488E+03  0.20278847856E+04  0.19013984043E+04 0.  0.
        5    1    3    3  502    0 -0.42312202024E+03 -0.31361834775E+03 -0.49162495279E+03  0.72049003897E+03  0.46999998093E+01 0. -1.
       -5    1    3    3    0  502  0.42312202024E+03  0.31361834775E+03  0.11966077977E+04  0.13073947466E+04  0.46999998093E+01 0.  1.
</event>
<event>
 5   0  0.5824956E-05  0.1905897E+04  0.7818609E-02  0.8651927E-01
        1   -1    0    0  501    0  0.00000000000E+00  0.00000000000E+00  0.84447084319E+03  0.84447084320E+03  0.50400001928E-02 0.  1.
       -1   -1    0    0    0  501  0.00000000000E+00  0.00000000000E+00 -0.10753602674E+04  0.10753602674E+04  0.50400001928E-02 0. -1.
    10030    2    1    2    0    0  0.00000000000E+00  0.00000000000E+00 -0.23088942418E+03  0.19198311106E+04  0.19058965258E+04 0.  0.
        2    1    3    3  502    0 -0.30304369060E+03 -0.65535057208E+03 -0.74191666018E+03  0.10352585095E+04  0.25500000920E-02 0. -1.
       -2    1    3    3    0  502  0.30304369060E+03  0.65535057208E+03  0.51102723600E+03  0.88457260113E+03  0.25500000920E-02 0.  1.
</event>
<event>
 5   0  0.1133638E-04  0.1875905E+04  0.7818609E-02  0.8666944E-01
        2   -1    0    0  501    0  0.00000000000E+00  0.00000000000E+00  0.19230008948E+04  0.19230008948E+04  0.25500000920E-02 0.  1.
       -2   -1    0    0    0  501  0.00000000000E+00  0.00000000000E+00 -0.45749055727E+03  0.45749055727E+03  0.25500000920E-02 0. -1.
    10030    2    1    2    0    0  0.00000000000E+00  0.00000000000E+00  0.14655103375E+04  0.23804914520E+04  0.18759048494E+04 0.  0.
        3    1    3    3  502    0 -0.44651989455E+03  0.51053664849E+03  0.15548829088E+04  0.16963751225E+04  0.10100000352E+00 0.  1.
       -3    1    3    3    0  502  0.44651989455E+03 -0.51053664849E+03 -0.89372571356E+02  0.68411632957E+03  0.10100000352E+00 0. -1.
</event>
<event>
 5   0  0.4061125E-05  0.1882241E+04  0.7818609E-02  0.8663747E-01
       -3   -1    0    0    0  501  0.00000000000E+00  0.00000000000E+00  0.62166990340E+03  0.62166991161E+03  0.10100000352E+00 0.  1.
        3   -1    0    0  501    0  0.00000000000E+00  0.00000000000E+00 -0.14247239181E+04  0.14247239217E+04  0.10100000352E+00 0. -1.
    10030    2    1    2    0    0  0.00000000000E+00  0.00000000000E+00 -0.80305401471E+03  0.20463938333E+04  0.18822412094E+04 0.  0.
        3    1    3    3  502    0  0.65942814756E+03 -0.39684502993E+03 -0.99040675596E+03  0.12542874519E+04  0.10100000352E+00 0. -1.
       -3    1    3    3    0  502 -0.65942814756E+03  0.39684502993E+03  0.18735274125E+03  0.79210638139E+03  0.10100000352E+00 0.  1.
</event>
<event>
 5   0  0.5614989E-05  0.1904702E+04  0.7818609E-02  0.8652520E-01
        1   -1    0    0  501    0  0.00000000000E+00  0.00000000000E+00  0.18406480524E+04  0.18406480524E+04  0.50400001928E-02 0.  1.
       -1   -1    0    0    0  501  0.00000000000E+00  0.00000000000E+00 -0.49274612920E+03  0.49274612922E+03  0.50400001928E-02 0. -1.
    10030    2    1    2    0    0  0.00000000000E+00  0.00000000000E+00  0.13479019232E+04  0.23333941816E+04  0.19047017646E+04 0.  0.
        4    1    3    3  502    0  0.42049600021E+03 -0.68326391246E+03  0.45328402975E+02  0.80356875081E+03  0.12699999809E+01 0. -1.
       -4    1    3    3    0  502 -0.42049600021E+03  0.68326391246E+03  0.13025735202E+04  0.15298254308E+04  0.12699999809E+01 0.  1.
</event>
<event>
 5   0  0.5579109E-05  0.1900649E+04  0.7818609E-02  0.8654533E-01
       -1   -1    0    0    0  501  0.00000000000E+00  0.00000000000E+00  0.52325434375E+03  0.52325434378E+03  0.50400001928E-02 0.  1.
        1   -1    0    0  501    0  0.00000000000E+00  0.00000000000E+00 -0.17259609064E+04  0.17259609064E+04  0.50400001928E-02 0. -1.
    10030    2    1    2    0    0  0.00000000000E+00  0.00000000000E+00 -0.12027065626E+04  0.22492152501E+04  0.19006488802E+04 0.  0.
        3    1    3    3  502    0  0.27001942212E+03 -0.88374134859E+03 -0.33884454066E+03  0.98423822953E+03  0.10100000352E+00 0.  1.
       -3    1    3    3    0  502 -0.27001942212E+03  0.88374134859E+03 -0.86386202195E+03  0.12649770206E+04  0.10100000352E+00 0. -1.
</event>
<event>
 5   0  0.1118206E-04  0.1886654E+04  0.7818609E-02  0.8661528E-01
       -2   -1    0    0    0  501  0.00000000000E+00  0.00000000000E+00  0.39734819636E+03  0.39734819637E+03  0.25500000920E-02 0.  1.
        2   -1    0    0  501    0  0.00000000000E+00  0.00000000000E+00 -0.22395124242E+04  0.22395124242E+04  0.25500000920E-02 0. -1.
    10030    2    1    2    0    0  0.00000000000E+00  0.00000000000E+00 -0.18421642279E+04  0.26368606206E+04  0.18866544172E+04 0.  0.
        1    1    3    3  502    0 -0.25144012756E+03  0.48563744887E+03 -0.19953564252E+04  0.20689400990E+04  0.50400001928E-02 0. -1.
       -1    1    3    3    0  502  0.25144012756E+03 -0.48563744887E+03  0.15319219737E+03  0.56792052160E+03  0.50400001928E-02 0.  1.
</event>
<event>
 5   0  0.5841424E-05  0.1897661E+04  0.7818609E-02  0.8656021E-01
        1   -1    0    0  501    0  0.00000000000E+00  0.00000000000E+00  0.24801642298E+04  0.24801642298E+04  0.50400001928E-02 0.  1.
       -1   -1    0    0    0  501  0.00000000000E+00  0.00000000000E+00 -0.36299198758E+03  0.36299198761E+03  0.50400001928E-02 0. -1.
    10030    2    1    2    0    0  0.00000000000E+00  0.00000000000E+00  0.21171722422E+04  0.28431562174E+04  0.18976614486E+04 0.  0.
        1    1    3    3  502    0  0.72761697568E+03  0.25903649208E+02  0.19701556537E+04  0.21003834798E+04  0.50400001928E-02 0.  1.
       -1    1    3    3    0  502 -0.72761697568E+03 -0.25903649208E+02  0.14701658844E+03  0.74277273755E+03  0.50400001928E-02 0. -1.
</event>
<event>
 5   0  0.1133638E-04  0.1895280E+04  0.7818609E-02  0.8657209E-01
       -2   -1    0    0    0  501  0.00000000000E+00  0.00000000000E+00  0.97371253459E+03  0.97371253460E+03  0.25500000920E-02 0. -1.
        2   -1    0    0  501    0  0.00000000000E+00  0.00000000000E+00 -0.92226566371E+03  0.92226566372E+03  0.25500000920E-02 0.  1.
    10030    2    1    2    0    0  0.00000000000E+00  0.00000000000E+00  0.51446870882E+02  0.18959781983E+04  0.18952800711E+04 0.  0.
        3    1    3    3  502    0  0.44067057967E+02 -0.16672048295E+03 -0.90643737961E+03  0.92269516005E+03  0.10100000352E+00 0.  1.
       -3    1    3    3    0  502 -0.44067057967E+02  0.16672048295E+03  0.95788425049E+03  0.97328303826E+03  0.10100000352E+00 0. -1.
</event>
<event>
 5   0  0.1133638E-04  0.1900616E+04  0.7818609E-02  0.8654550E-01
        2   -1    0    0  501    0  0.00000000000E+00  0.00000000000E+00  0.12134641191E+04  0.12134641191E+04  0.25500000920E-02 0.  1.
       -2   -1    0    0    0  501  0.00000000000E+00  0.00000000000E+00 -0.74422083305E+03  0.74422083305E+03  0.25500000920E-02 0. -1.
    10030    2    1    2    0    0  0.00000000000E+00  0.00000000000E+00  0.46924328608E+03  0.19576849522E+04  0.19006159818E+04 0.  0.
        3    1    3    3  502    0 -0.90223114536E+03 -0.23820287542E+03  0.41980775257E+03  0.10232302814E+04  0.10100000352E+00 0.  1.
       -3    1    3    3    0  502  0.90223114536E+03  0.23820287542E+03  0.49435533502E+02  0.93445467075E+03  0.10100000352E+00 0. -1.
</event>
<event>
 5   0  0.1101678E-04  0.1890526E+04  0.7818609E-02  0.8659587E-01
       -2   -1    0    0    0  501  0.00000000000E+00  0.00000000000E+00  0.46402915435E+03  0.46402915436E+03  0.25500000920E-02 0.  1.
        2   -1    0    0  501    0  0.00000000000E+00  0.00000000000E+00 -0.19255732769E+04  0.19255732769E+04  0.25500000920E-02 0. -1.
    10030    2    1    2    0    0  0.00000000000E+00  0.00000000000E+00 -0.14615441226E+04  0.23896024313E+04  0.18905260002E+04 0.  0.
        4    1    3    3  502    0 -0.58751587321E+03  0.31388662776E+02  0.20437448643E+03  0.62284082480E+03  0.12699999809E+01 0.  1.
       -4    1    3    3    0  502  0.58751587321E+03 -0.31388662776E+02 -0.16659186090E+04  0.17667616065E+04  0.12699999809E+01 0. -1.
</event>
<event>
 5   0  0.5628936E-05  0.1886321E+04  0.7818609E-02  0.8661695E-01
       -1   -1    0    0    0  501  0.00000000000E+00  0.00000000000E+00  0.10985849530E+04  0.10985849530E+04  0.50400001928E-02 0. -1.
        1   -1    0    0  501    0  0.00000000000E+00  0.00000000000E+00 -0.80972505558E+03  0.80972505559E+03  0.50400001928E-02 0.  1.
    10030    2    1    2    0    0  0.00000000000E+00  0.00000000000E+00  0.28885989738E+03  0.19083100086E+04  0.18863210354E+04 0.  0.
        5    1    3    3  502    0 -0.37050312104E+03 -0.34962235451E+03  0.94742143906E+03  0.10757034102E+04  0.46999998093E+01 0. -1.
       -5    1    3    3    0  502  0.37050312104E+03  0.34962235451E+03 -0.65856154169E+03  0.83260659838E+03  0.46999998093E+01 0.  1.
</event>
<event>
 5   0  0.1101678E-04  0.1905870E+04  0.7818609E-02  0.8651940E-01
        2   -1    0    0  501    0  0.00000000000E+00  0.00000000000E+00  0.89569915756E+03  0.89569915756E+03  0.25500000920E-02 0. -1.
       -2   -1    0    0    0  501  0.00000000000E+00  0.00000000000E+00 -0.10138278864E+04  0.10138278864E+04  0.25500000920E-02 0.  1.
    10030    2    1    2    0    0  0.00000000000E+00  0.00000000000E+00 -0.11812872880E+03  0.19095270439E+04  0.19058696532E+04 0.  0.
        4    1    3    3  502    0  0.50691310417E+02 -0.64815265803E+03 -0.75711630023E+03  0.99794698358E+03  0.12699999809E+01 0.  1.
       -4    1    3    3    0  502 -0.50691310417E+02  0.64815265803E+03  0.63898757143E+03  0.91158006034E+03  0.12699999809E+01 0. -1.
</event>
<event>
 5   0  0.5628936E-05  0.1906790E+04  0.7818609E-02  0.8651484E-01
        1   -1    0    0  501    0  0.00000000000E+00  0.00000000000E+00  0.90034639930E+03  0.90034639931E+03  0.50400001928E-02 0. -1.
       -1   -1    0    0    0  501  0.00000000000E+00  0.00000000000E+00 -0.10095687094E+04  0.10095687094E+04  0.50400001928E-02 0.  1.
    10030    2    1    2    0    0  0.00000000000E+00  0.00000000000E+00 -0.10922231005E+03  0.19099151087E+04  0.19067895032E+04 0.  0.
        5    1    3    3  502    0  0.38672991862E+03 -0.80487921167E+03 -0.38914798133E+03  0.97408871090E+03  0.46999998093E+01 0.  1.
       -5    1    3    3    0  502 -0.38672991862E+03  0.80487921167E+03  0.27992567128E+03  0.93582639778E+03  0.46999998093E+01 0. -1.
</event>
<event>
 5   0  0.1118206E-04  0.1899836E+04  0.7818609E-02  0.8654938E-01
        2   -1    0    0  501    0  0.00000000000E+00  0.00000000000E+00  0.16602434947E+04  0.16602434947E+04  0.25500000920E-02 0. -1.
       -2   -1    0    0    0  501  0.00000000000E+00  0.00000000000E+00 -0.54350120095E+03  0.54350120095E+03  0.25500000920E-02 0.  1.
    10030    2    1    2    0    0  0.00000000000E+00  0.00000000000E+00  0.11167422938E+04  0.22037446957E+04  0.18998361332E+04 0.  0.
        1    1    3    3  502    0  0.36732538026E+03  0.31626193293E+03 -0.38925392378E+03  0.62166563554E+03  0.50400001928E-02 0.  1.
       -1    1    3    3    0  502 -0.36732538026E+03 -0.31626193293E+03  0.15059962175E+04  0.15820790601E+04  0.50400001928E-02 0. -1.
</event>
<event>
 5   0  0.5824956E-05  0.1911552E+04  0.7818609E-02  0.8649127E-01
       -1   -1    0    0    0  501  0.00000000000E+00  0.00000000000E+00  0.66384435322E+03  0.66384435324E+03  0.50400001928E-02 0.  1.
        1   -1    0    0  501    0  0.00000000000E+00  0.00000000000E+00 -0.13760876426E+04  0.13760876427E+04  0.50400001928E-02 0. -1.
    10030    2    1    2    0    0  0.00000000000E+00  0.00000000000E+00 -0.71224328942E+03  0.20399319959E+04  0.19115522605E+04 0.  0.
        2    1    3    3  502    0 -0.66619102856E+03 -0.27463494330E+03 -0.10262039160E+04  0.12539255623E+04  0.25500000920E-02 0. -1.
       -2    1    3    3    0  502  0.66619102856E+03  0.27463494330E+03  0.31396062656E+03  0.78600643359E+03  0.25500000920E-02 0.  1.
</event>
<event>
 5   0  0.1182630E-04  0.1904175E+04  0.7818609E-02  0.8652781E-01
        2   -1    0    0  501    0  0.00000000000E+00  0.00000000000E+00  0.79626423202E+03  0.79626423202E+03  0.25500000920E-02 0.  1.
       -2   -1    0    0    0  501  0.00000000000E+00  0.00000000000E+00 -0.11384045459E+04  0.11384045459E+04  0.25500000920E-02 0. -1.
    10030    2    1    2    0    0  0.00000000000E+00  0.00000000000E+00 -0.34214031391E+03  0.19346687780E+04  0.19041752246E+04 0.  0.
        5    1    3    3  502    0  0.68744283236E+03  0.62601892256E+03  0.37079836234E+02  0.93052369310E+03  0.46999998093E+01 0.  1.
       -5    1    3    3    0  502 -0.68744283236E+03 -0.62601892256E+03 -0.37922015015E+03  0.10041450849E+04  0.46999998093E+01 0. -1.
</event>
<event>
 5   0  0.5579109E-05  0.1932527E+04  0.7818609E-02  0.8638833E-01
       -1   -1    0    0    0  501  0.00000000000E+00  0.00000000000E+00  0.74750554235E+03  0.74750554237E+03  0.50400001928E-02 0. -1.
        1   -1    0    0  501    0  0.00000000000E+00  0.00000000000E+00 -0.12490415220E+04  0.12490415220E+04  0.50400001928E-02 0.  1.
    10030    2    1    2    0    0  0.00000000000E+00  0.00000000000E+00 -0.50153597966E+03  0.19965470644E+04  0.19325273197E+04 0.  0.
        3    1    3    3  502    0 -0.30694751061E+03  0.44477089194E+02 -0.11962181936E+04  0.12357722131E+04  0.10100000352E+00 0.  1.
       -3    1    3    3    0  502  0.30694751061E+03 -0.44477089194E+02  0.69468221397E+03  0.76077485128E+03  0.10100000352E+00 0. -1.
</event>
<event>
 5   0  0.5579109E-05  0.1903725E+04  0.7818609E-02  0.8653004E-01
        1   -1    0    0  501    0  0.00000000000E+00  0.00000000000E+00  0.11134569661E+04  0.11134569661E+04  0.50400001928E-02 0.  1.
       -1   -1    0    0    0  501  0.00000000000E+00  0.00000000000E+00 -0.81372037308E+03  0.81372037309E+03  0.50400001928E-02 0. -1.
    10030    2    1    2    0    0  0.00000000000E+00  0.00000000000E+00  0.29973659303E+03  0.19271773392E+04  0.19037254192E+04 0.  0.
        3    1    3    3  502    0  0.92200687272E+03 -0.19673033663E+03  0.16937637331E+02  0.94291377785E+03  0.10100000352E+00 0. -1.
       -3    1    3    3    0  502 -0.92200687272E+03  0.19673033663E+03  0.28279895570E+03  0.98426356137E+03  0.10100000352E+00 0.  1.
</event>
<event>
 5   0  0.5579109E-05  0.1891444E+04  0.7818609E-02  0.8659127E-01
        1   -1    0    0  501    0  0.00000000000E+00  0.00000000000E+00  0.14120788088E+04  0.14120788088E+04  0.50400001928E-02 0.  1.
       -1   -1    0    0    0  501  0.00000000000E+00  0.00000000000E+00 -0.63338559897E+03  0.63338559899E+03  0.50400001928E-02 0. -1.
    10030    2    1    2    0    0  0.00000000000E+00  0.00000000000E+00  0.77869320979E+03  0.20454644078E+04  0.18914442969E+04 0.  0.
        3    1    3    3  502    0 -0.20952691578E+03  0.66900799570E+03 -0.29709918405E+03  0.76140735622E+03  0.10100000352E+00 0. -1.
       -3    1    3    3    0  502  0.20952691578E+03 -0.66900799570E+03  0.10757923938E+04  0.12840570515E+04  0.10100000352E+00 0.  1.
</event>
<event>
 5   0  0.5824956E-05  0.1891209E+04  0.7818609E-02  0.8659244E-01
        1   -1    0    0  501    0  0.00000000000E+00  0.00000000000E+00  0.82808939869E+03  0.82808939870E+03  0.50400001928E-02 0.  1.
       -1   -1    0    0    0  501  0.00000000000E+00  0.00000000000E+00 -0.10797967264E+04  0.10797967264E+04  0.50400001928E-02 0. -1.
    10030    2    1    2    0    0  0.00000000000E+00  0.00000000000E+00 -0.25170732767E+03  0.19078861251E+04  0.18912093717E+04 0.  0.
        2    1    3    3  502    0  0.28809647292E+03  0.51112460208E+03  0.62225159630E+03  0.85524557039E+03  0.25500000920E-02 0.  1.
       -2    1    3    3    0  502 -0.28809647292E+03 -0.51112460208E+03 -0.87395892397E+03  0.10526405547E+04  0.25500000920E-02 0. -1.
</event>
<event>
 5   0  0.5628936E-05  0.1917219E+04  0.7818609E-02  0.8646333E-01
        1   -1    0    0  501    0  0.00000000000E+00  0.00000000000E+00  0.13721473562E+04  0.13721473562E+04  0.50400001928E-02 0. -1.
       -1   -1    0    0    0  501  0.00000000000E+00  0.00000000000E+00 -0.66970357732E+03  0.66970357733E+03  0.50400001928E-02 0.  1.
    10030    2    1    2    0    0  0.00000000000E+00  0.00000000000E+00  0.70244377885E+03  0.20418509335E+04  0.19172188118E+04 0.  0.
        5    1    3    3  502    0  0.69755057991E+03 -0.62156078098E+03  0.57962868357E+03  0.10995026679E+04  0.46999998093E+01 0. -1.
       -5    1    3    3    0  502 -0.69755057991E+03  0.62156078098E+03  0.12281509528E+03  0.94234826557E+03  0.46999998093E+01 0.  1.
</event>
<event>
 5   0  0.1182630E-04  0.1892654E+04  0.7818609E-02  0.8658521E-01
       -2   -1    0    0    0  501  0.00000000000E+00  0.00000000000E+00  0.56028042571E+03  0.56028042571E+03  0.25500000920E-02 0.  1.
        2   -1    0    0  501    0  0.00000000000E+00  0.00000000000E+00 -0.15983694071E+04  0.15983694071E+04  0.25500000920E-02 0. -1.
    10030    2    1    2    0    0  0.00000000000E+00  0.00000000000E+00 -0.10380889814E+04  0.21586498329E+04  0.18926543180E+04 0.  0.
        5    1    3    3  502    0 -0.23698115798E+03 -0.37662503377E+03 -0.14715884636E+04  0.15374007875E+04  0.46999998093E+01 0. -1.
       -5    1    3    3    0  502  0.23698115798E+03  0.37662503377E+03  0.43349948216E+03  0.62124904533E+03  0.46999998093E+01 0.  1.
</event>
<event>
 5   0  0.4061125E-05  0.1929144E+04  0.7818609E-02  0.8640484E-01
        3   -1    0    0  501    0  0.00000000000E+00  0.00000000000E+00  0.15257029659E+04  0.15257029692E+04  0.10100000352E+00 0.  1.
       -3   -1    0    0    0  501  0.00000000000E+00  0.00000000000E+00 -0.60981695853E+03  0.60981696689E+03  0.10100000352E+00 0. -1.
    10030    2    1    2    0    0  0.00000000000E+00  0.00000000000E+00  0.91588600737E+03  0.21355199361E+04  0.19291444267E+04 0.  0.
        3    1    3    3  502    0 -0.69203148324E+03  0.43397059708E+03  0.10258144829E+04  0.13113098095E+04  0.10100000352E+00 0.  1.
       -3    1    3    3    0  502  0.69203148324E+03 -0.43397059708E+03 -0.10992847554E+03  0.82421012664E+03  0.10100000352E+00 0. -1.
</event>
<event>
 5   0  0.1118206E-04  0.1910401E+04  0.7818609E-02  0.8649696E-01
        2   -1    0    0  501    0  0.00000000000E+00  0.00000000000E+00  0.16934503656E+04  0.16934503656E+04  0.25500000920E-02 0. -1.
       -2   -1    0    0    0  501  0.00000000000E+00  0.00000000000E+00 -0.53878627492E+03  0.53878627493E+03  0.25500000920E-02 0.  1.
    10030    2    1    2    0    0  0.00000000000E+00  0.00000000000E+00  0.11546640907E+04  0.22322366406E+04  0.19104008106E+04 0.  0.
        1    1    3    3  502    0  0.85305673436E+03  0.41508989280E+03  0.70745941773E+03  0.11834290173E+04  0.50400001928E-02 0. -1.
       -1    1    3    3    0  502 -0.85305673436E+03 -0.41508989280E+03  0.44720467298E+03  0.10488076233E+04  0.50400001928E-02 0.  1.
</event>
<event>
 5   0  0.5841424E-05  0.1889009E+04  0.7818609E-02  0.8660347E-01
       -1   -1    0    0    0  501  0.00000000000E+00  0.00000000000E+00  0.10537187415E+04  0.10537187415E+04  0.50400001928E-02 0.  1.
        1   -1    0    0  501    0  0.00000000000E+00  0.00000000000E+00 -0.84660979902E+03  0.84660979904E+03  0.50400001928E-02 0. -1.
    10030    2    1    2    0    0  0.00000000000E+00  0.00000000000E+00  0.20710894244E+03  0.19003285405E+04  0.18890088533E+04 0.  0.
        1    1    3    3  502    0  0.20705672726E+03  0.64205164772E+03  0.76856475689E+03  0.10226409889E+04  0.50400001928E-02 0.  1.
       -1    1    3    3    0  502 -0.20705672726E+03 -0.64205164772E+03 -0.56145581445E+03  0.87768755161E+03  0.50400001928E-02 0. -1.
</event>
<event>
 5   0  0.1101678E-04  0.1909213E+04  0.7818609E-02  0.8650284E-01
        2   -1    0    0  501    0  0.00000000000E+00  0.00000000000E+00  0.73497571027E+03  0.73497571028E+03  0.25500000920E-02 0.  1.
       -2   -1    0    0    0  501  0.00000000000E+00  0.00000000000E+00 -0.12398690750E+04  0.12398690750E+04  0.25500000920E-02 0. -1.
    10030    2    1    2    0    0  0.00000000000E+00  0.00000000000E+00 -0.50489336476E+03  0.19748447853E+04  0.19092130882E+04 0.  0.
        4    1    3    3  502    0 -0.23819845425E+03 -0.66930153028E+03 -0.91199359987E+03  0.11560436761E+04  0.12699999809E+01 0. -1.
       -4    1    3    3    0  502  0.23819845425E+03  0.66930153028E+03  0.40710023511E+03  0.81880110917E+03  0.12699999809E+01 0.  1.
</event>
<event>
 5   0  0.1133638E-04  0.1900480E+04  0.7818609E-02  0.8654617E-01
        2   -1    0    0  501    0  0.00000000000E+00  0.00000000000E+00  0.21076438265E+04  0.21076438265E+04  0.25500000920E-02 0. -1.
       -2   -1    0    0    0  501  0.00000000000E+00  0.00000000000E+00 -0.42841987377E+03  0.42841987378E+03  0.25500000920E-02 0.  1.
    10030    2    1    2    0    0  0.00000000000E+00  0.00000000000E+00  0.16792239527E+04  0.25360637003E+04  0.19004804678E+04 0.  0.
        3    1    3    3  502    0 -0.53184799992E+03  0.47575282280E+03  0.22582978080E+01  0.71358822407E+03  0.10100000352E+00 0.  1.
       -3    1    3    3    0  502  0.53184799992E+03 -0.47575282280E+03  0.16769656549E+04  0.18224754762E+04  0.10100000352E+00 0. -1.
</event>
<event>
 5   0  0.5579109E-05  0.1902556E+04  0.7818609E-02  0.8653585E-01
       -1   -1    0    0    0  501  0.00000000000E+00  0.00000000000E+00  0.48157843665E+03  0.48157843668E+03  0.50400001928E-02 0. -1.
        1   -1    0    0  501    0  0.00000000000E+00  0.00000000000E+00 -0.18790919556E+04  0.18790919556E+04  0.50400001928E-02 0.  1.
    10030    2    1    2    0    0  0.00000000000E+00  0.00000000000E+00 -0.13975135190E+04  0.23606703923E+04  0.19025563501E+04 0.  0.
        3    1    3    3  502    0  0.84549843684E+03 -0.23400634118E+03 -0.24234957610E+03  0.91014279190E+03  0.10100000352E+00 0. -1.
       -3    1    3    3    0  502 -0.84549843684E+03  0.23400634118E+03 -0.11551639429E+04  0.14505276004E+04  0.10100000352E+00 0.  1.
</event>
<event>
 5   0  0.5628936E-05  0.1893926E+04  0.7818609E-02  0.8657886E-01
       -1   -1    0    0    0  501  0.00000000000E+00  0.00000000000E+00  0.31798117211E+03  0.31798117215E+03  0.50400001928E-02 0.  1.
        1   -1    0    0  501    0  0.00000000000E+00  0.00000000000E+00 -0.28200992821E+04  0.28200992821E+04  0.50400001928E-02 0. -1.
    10030    2    1    2    0    0  0.00000000000E+00  0.00000000000E+00 -0.25021181100E+04  0.31380804543E+04  0.18939255268E+04 0.  0.
        5    1    3    3  502    0 -0.14616597616E+03 -0.11427780650E+03 -0.27896687848E+04  0.27958358193E+04  0.46999998093E+01 0. -1.
       -5    1    3    3    0  502  0.14616597616E+03  0.11427780650E+03  0.28755067475E+03  0.34224463501E+03  0.46999998093E+01 0.  1.
</event>
<event>
 5   0  0.5614989E-05  0.1913527E+04  0.7818609E-02  0.8648152E-01
       -1   -1    0    0    0  501  0.00000000000E+00  0.00000000000E+00  0.10225084338E+04  0.10225084338E+04  0.50400001928E-02 0.  1.
        1   -1    0    0  501    0  0.00000000000E+00  0.00000000000E+00 -0.89524595768E+03  0.89524595770E+03  0.50400001928E-02 0. -1.
    10030    2    1    2    0    0  0.00000000000E+00  0.00000000000E+00  0.12726247613E+03  0.19177543915E+04  0.19135271538E+04 0.  0.
        4    1    3    3  502    0 -0.15429729647E+03 -0.78459470300E+03  0.59014734174E+03  0.99381688531E+03  0.12699999809E+01 0.  1.
       -4    1    3    3    0  502  0.15429729647E+03  0.78459470300E+03 -0.46288486560E+03  0.92393750621E+03  0.12699999809E+01 0. -1.
</event>
<event>
 5   0  0.1133638E-04  0.1900147E+04  0.7818609E-02  0.8654783E-01
        2   -1    0    0  501    0  0.00000000000E+00  0.00000000000E+00  0.15573819196E+04  0.15573819196E+04  0.25500000920E-02 0. -1.
       -2   -1    0    0    0  501  0.00000000000E+00  0.00000000000E+00 -0.57958805361E+03  0.57958805362E+03  0.25500000920E-02 0.  1.
    10030    2    1    2    0    0  0.00000000000E+00  0.00000000000E+00  0.97779386601E+03  0.21369699732E+04  0.19001473159E+04 0.  0.
        3    1    3    3  502    0 -0.66315649841E+03  0.57998368654E+03  0.88928173192E+02  0.88547492806E+03  0.10100000352E+00 0.  1.
       -3    1    3    3    0  502  0.66315649841E+03 -0.57998368654E+03  0.88886569281E+03  0.12514950452E+04  0.10100000352E+00 0. -1.
</event>
<event>
 5   0  0.1141890E-04  0.2033070E+04  0.7818609E-02  0.8591314E-01
        2   -1    0    0  501    0  0.00000000000E+00  0.00000000000E+00  0.11612945293E+04  0.11612945293E+04  0.25500000920E-02 0.  1.
       -2   -1    0    0    0  501  0.00000000000E+00  0.00000000000E+00 -0.88982026209E+03  0.88982026210E+03  0.25500000920E-02 0. -1.
    10030    2    1    2    0    0  0.00000000000E+00  0.00000000000E+00  0.27147426722E+03  0.20511147914E+04  0.20330699963E+04 0.  0.
        2    1    3    3  502    0  0.55135523791E+03  0.77110046329E+03  0.50608503284E+03  0.10745746058E+04  0.25500000920E-02 0.  1.
       -2    1    3    3    0  502 -0.55135523791E+03 -0.77110046329E+03 -0.23461076562E+03  0.97654018566E+03  0.25500000920E-02 0. -1.
</event>
<event>
 5   0  0.1133638E-04  0.1865558E+04  0.7818609E-02  0.8672193E-01
        2   -1    0    0  501    0  0.00000000000E+00  0.00000000000E+00  0.99000218918E+03  0.99000218919E+03  0.25500000920E-02 0.  1.
       -2   -1    0    0    0  501  0.00000000000E+00  0.00000000000E+00 -0.87886312952E+03  0.87886312953E+03  0.25500000920E-02 0. -1.
    10030    2    1    2    0    0  0.00000000000E+00  0.00000000000E+00  0.11113905966E+03  0.18688653187E+04  0.18655577420E+04 0.  0.
        3    1    3    3  502    0  0.16776323770E+03  0.67095257049E+03 -0.57144316967E+03  0.89714500619E+03  0.10100000352E+00 0. -1.
       -3    1    3    3    0  502 -0.16776323770E+03 -0.67095257049E+03  0.68258222933E+03  0.97172031252E+03  0.10100000352E+00 0.  1.
</event>
<event>
 5   0  0.1141890E-04  0.1900287E+04  0.7818609E-02  0.8654714E-01
        2   -1    0    0  501    0  0.00000000000E+00  0.00000000000E+00  0.22322781294E+04  0.22322781294E+04  0.25500000920E-02 0. -1.
       -2   -1    0    0    0  501  0.00000000000E+00  0.00000000000E+00 -0.40441753845E+03  0.40441753846E+03  0.25500000920E-02 0.  1.
    10030    2    1    2    0    0  0.00000000000E+00  0.00000000000E+00  0.18278605909E+04  0.26366956678E+04  0.19002867428E+04 0.  0.
        2    1    3    3  502    0 -0.18301041561E+03  0.72320328931E+03  0.17303996856E+04  0.18843563574E+04  0.25500000920E-02 0. -1.
       -2    1    3    3    0  502  0.18301041561E+03 -0.72320328931E+03  0.97460905324E+02  0.75233931039E+03  0.25500000920E-02 0.  1.
</event>
<event>
 5   0  0.1133638E-04  0.1893408E+04  0.7818609E-02  0.8658144E-01
        2   -1    0    0  501    0  0.00000000000E+00  0.00000000000E+00  0.26942716338E+04  0.26942716338E+04  0.25500000920E-02 0. -1.
       -2   -1    0    0    0  501  0.00000000000E+00  0.00000000000E+00 -0.33264974495E+03  0.33264974496E+03  0.25500000920E-02 0.  1.
    10030    2    1    2    0    0  0.00000000000E+00  0.00000000000E+00  0.23616218889E+04  0.30269213788E+04  0.18934083256E+04 0.  0.
        3    1    3    3  502    0 -0.45704429776E+03 -0.31100853070E+03  0.24094256233E+04  0.24720330986E+04  0.10100000352E+00 0. -1.
       -3    1    3    3    0  502  0.45704429776E+03  0.31100853070E+03 -0.47803734383E+02  0.55488828020E+03  0.10100000352E+00 0.  1.
</event>
<event>
 5   0  0.1182630E-04  0.1897178E+04  0.7818609E-02  0.8656262E-01
       -2   -1    0    0    0  501  0.00000000000E+00  0.00000000000E+00  0.12728178301E+04  0.12728178301E+04  0.25500000920E-02 0.  1.
        2   -1    0    0  501    0  0.00000000000E+00  0.00000000000E+00 -0.70695202517E+03  0.70695202517E+03  0.25500000920E-02 0. -1.
    10030    2    1    2    0    0  0.00000000000E+00  0.00000000000E+00  0.56586580495E+03  0.19797698553E+04  0.18971780546E+04 0.  0.
        5    1    3    3  502    0 -0.86786610707E+03 -0.38106144777E+03  0.32197343224E+03  0.10010436493E+04  0.46999998093E+01 0. -1.
       -5    1    3    3    0  502  0.86786610707E+03  0.38106144777E+03  0.24389237271E+03  0.97872620596E+03  0.46999998093E+01 0.  1.
</event>
<event>
 5   0  0.1101678E-04  0.1898262E+04  0.7818609E-02  0.8655722E-01
       -2   -1    0    0    0  501  0.00000000000E+00  0.00000000000E+00  0.53238798765E+03  0.53238798765E+03  0.25500000920E-02 0.  1.
        2   -1    0    0  501    0  0.00000000000E+00  0.00000000000E+00 -0.16920923726E+04  0.16920923726E+04  0.25500000920E-02 0. -1.
    10030    2    1    2    0    0  0.00000000000E+00  0.00000000000E+00 -0.11597043849E+04  0.22244803602E+04  0.18982619979E+04 0.  0.
        4    1    3    3  502    0 -0.89071963418E+03 -0.23731361101E+03 -0.84487926956E+03  0.12504086571E+04  0.12699999809E+01 0. -1.
       -4    1    3    3    0  502  0.89071963418E+03  0.23731361101E+03 -0.31482511536E+03  0.97407170314E+03  0.12699999809E+01 0.  1.
</event>
<event>
 5   0  0.1101678E-04  0.1889449E+04  0.7818609E-02  0.8660126E-01
       -2   -1    0    0    0  501  0.00000000000E+00  0.00000000000E+00  0.86568823819E+03  0.86568823819E+03  0.25500000920E-02 0. -1.
        2   -1    0    0  501    0  0.00000000000E+00  0.00000000000E+00 -0.10309762719E+04  0.10309762719E+04  0.25500000920E-02 0.  1.
    10030    2    1    2    0    0  0.00000000000E+00  0.00000000000E+00 -0.16528803369E+03  0.18966645101E+04  0.18894486311E+04 0.  0.
        4    1    3    3  502    0  0.30235522204E+03 -0.89020630879E+03  0.10535411951E+02  0.94021197626E+03  0.12699999809E+01 0.  1.
       -4    1    3    3    0  502 -0.30235522204E+03  0.89020630879E+03 -0.17582344564E+03  0.95645253381E+03  0.12699999809E+01 0. -1.
</event>
<event>
 5   0  0.5841424E-05  0.1785251E+04  0.7818609E-02  0.8714182E-01
       -1   -1    0    0    0  501  0.00000000000E+00  0.00000000000E+00  0.77137551551E+03  0.77137551552E+03  0.50400001928E-02 0.  1.
        1   -1    0    0  501    0  0.00000000000E+00  0.00000000000E+00 -0.10329346860E+04  0.10329346860E+04  0.50400001928E-02 0. -1.
    10030    2    1    2    0    0  0.00000000000E+00  0.00000000000E+00 -0.26155917049E+03  0.18043102015E+04  0.17852512719E+04 0.  0.
        1    1    3    3  502    0 -0.25211989442E+03 -0.19789779793E+03  0.71121253931E+03  0.78009695274E+03  0.50400001928E-02 0.  1.
       -1    1    3    3    0  502  0.25211989442E+03  0.19789779793E+03 -0.97277170979E+03  0.10242132488E+04  0.50400001928E-02 0. -1.
</event>
<event>
 5   0  0.1141890E-04  0.1904937E+04  0.7818609E-02  0.8652403E-01
        2   -1    0    0  501    0  0.00000000000E+00  0.00000000000E+00  0.23758618131E+04  0.23758618131E+04  0.25500000920E-02 0.  1.
       -2   -1    0    0    0  501  0.00000000000E+00  0.00000000000E+00 -0.38183888259E+03  0.38183888259E+03  0.25500000920E-02 0. -1.
    10030    2    1    2    0    0  0.00000000000E+00  0.00000000000E+00  0.19940229305E+04  0.27577006957E+04  0.19049371852E+04 0.  0.
        2    1    3    3  502    0 -0.61222438873E+03  0.62926058285E+03  0.46233912010E+03  0.99224243271E+03  0.25500000920E-02 0. -1.
       -2    1    3    3    0  502  0.61222438873E+03 -0.62926058285E+03  0.15316838104E+04  0.17654582630E+04  0.25500000920E-02 0.  1.
</event>
<event>
 5   0  0.5628936E-05  0.1899044E+04  0.7818609E-02  0.8655332E-01
        1   -1    0    0  501    0  0.00000000000E+00  0.00000000000E+00  0.96030160117E+03  0.96030160118E+03  0.50400001928E-02 0.  1.
       -1   -1    0    0    0  501  0.00000000000E+00  0.00000000000E+00 -0.93886340369E+03  0.93886340370E+03  0.50400001928E-02 0. -1.
    10030    2    1    2    0    0  0.00000000000E+00  0.00000000000E+00  0.21438197479E+02  0.18991650049E+04  0.18990440015E+04 0.  0.
        5    1    3    3  502    0 -0.22486290624E+03  0.87176057184E+03 -0.29102867811E+03  0.94617630635E+03  0.46999998093E+01 0. -1.
       -5    1    3    3    0  502  0.22486290624E+03 -0.87176057184E+03  0.31246687559E+03  0.95298869854E+03  0.46999998093E+01 0.  1.
</event>
<event>
 5   0  0.5841424E-05  0.1898202E+04  0.7818609E-02  0.8655752E-01
        1   -1    0    0  501    0  0.00000000000E+00  0.00000000000E+00  0.16007340608E+04  0.16007340608E+04  0.50400001928E-02 0.  1.
       -1   -1    0    0    0  501  0.00000000000E+00  0.00000000000E+00 -0.56273730882E+03  0.56273730884E+03  0.50400001928E-02 0. -1.
    10030    2    1    2    0    0  0.00000000000E+00  0.00000000000E+00  0.10379967520E+04  0.21634713697E+04  0.18982020731E+04 0.  0.
        1    1    3    3  502    0 -0.73562760953E+02  0.91973669978E+03  0.26550839892E+03  0.96011550693E+03  0.50400001928E-02 0. -1.
       -1    1    3    3    0  502  0.73562760953E+02 -0.91973669978E+03  0.77248835310E+03  0.12033558628E+04  0.50400001928E-02 0.  1.
</event>
<event>
 5   0  0.5628936E-05  0.1864053E+04  0.7818609E-02  0.8672959E-01
       -1   -1    0    0    0  501  0.00000000000E+00  0.00000000000E+00  0.79421842011E+03  0.79421842013E+03  0.50400001928E-02 0. -1.
        1   -1    0    0  501    0  0.00000000000E+00  0.00000000000E+00 -0.10937460658E+04  0.10937460659E+04  0.50400001928E-02 0.  1.
    10030    2    1    2    0    0  0.00000000000E+00  0.00000000000E+00 -0.29952764573E+03  0.18879644860E+04  0.18640528667E+04 0.  0.
        5    1    3    3  502    0  0.63817014973E+02  0.71847495792E+03  0.44803823667E+03  0.84914028763E+03  0.46999998093E+01 0. -1.
       -5    1    3    3    0  502 -0.63817014973E+02 -0.71847495792E+03 -0.74756588240E+03  0.10388241984E+04  0.46999998093E+01 0.  1.
</event>
<event>
 5   0  0.1118206E-04  0.1895328E+04  0.7818609E-02  0.8657186E-01
       -2   -1    0    0    0  501  0.00000000000E+00  0.00000000000E+00  0.83876521035E+03  0.83876521035E+03  0.25500000920E-02 0.  1.
        2   -1    0    0  501    0  0.00000000000E+00  0.00000000000E+00 -0.10707010691E+04  0.10707010691E+04  0.25500000920E-02 0. -1.
    10030    2    1    2    0    0  0.00000000000E+00  0.00000000000E+00 -0.23193585873E+03  0.19094662794E+04  0.18953277368E+04 0.  0.
        1    1    3    3  502    0  0.26880758743E+03 -0.55203379848E+03 -0.84320308563E+03  0.10430677242E+04  0.50400001928E-02 0. -1.
       -1    1    3    3    0  502 -0.26880758743E+03  0.55203379848E+03  0.61126722690E+03  0.86639855519E+03  0.50400001928E-02 0.  1.
</event>
<event>
 5   0  0.1133638E-04  0.1887220E+04  0.7818609E-02  0.8661244E-01
        2   -1    0    0  501    0  0.00000000000E+00  0.00000000000E+00  0.71087533004E+03  0.71087533005E+03  0.25500000920E-02 0.  1.
       -2   -1    0    0    0  501  0.00000000000E+00  0.00000000000E+00 -0.12525404993E+04  0.12525404993E+04  0.25500000920E-02 0. -1.
    10030    2    1    2    0    0  0.00000000000E+00  0.00000000000E+00 -0.54166516924E+03  0.19634158293E+04  0.18872203272E+04 0.  0.
        3    1    3    3  502    0  0.82597202812E+03 -0.32511623260E+03  0.62200648048E+02  0.88983104394E+03  0.10100000352E+00 0.  1.
       -3    1    3    3    0  502 -0.82597202812E+03  0.32511623260E+03 -0.60386581729E+03  0.10735847854E+04  0.10100000352E+00 0. -1.
</event>
<event>
 5   0  0.1182630E-04  0.1876079E+04  0.7818609E-02  0.8666856E-01
        2   -1    0    0  501    0  0.00000000000E+00  0.00000000000E+00  0.92631674225E+03  0.92631674225E+03  0.25500000920E-02 0.  1.
       -2   -1    0    0    0  501  0.00000000000E+00  0.00000000000E+00 -0.94991034042E+03  0.94991034042E+03  0.25500000920E-02 0. -1.
    10030    2    1    2    0    0  0.00000000000E+00  0.00000000000E+00 -0.23593598165E+02  0.18762270827E+04  0.18760787318E+04 0.  0.
        5    1    3    3  502    0 -0.20539531321E+03  0.23514204317E+03  0.87281638807E+03  0.92698951042E+03  0.46999998093E+01 0.  1.
       -5    1    3    3    0  502  0.20539531321E+03 -0.23514204317E+03 -0.89640998623E+03  0.94923757225E+03  0.46999998093E+01 0. -1.
</event>
<event>
 5   0  0.5628936E-05  0.1897927E+04  0.7818609E-02  0.8655889E-01
        1   -1    0    0  501    0  0.00000000000E+00  0.00000000000E+00  0.80616389808E+03  0.80616389810E+03  0.50400001928E-02 0. -1.
       -1   -1    0    0    0  501  0.00000000000E+00  0.00000000000E+00 -0.11170582005E+04  0.11170582005E+04  0.50400001928E-02 0.  1.
    10030    2    1    2    0    0  0.00000000000E+00  0.00000000000E+00 -0.31089430240E+03  0.19232220986E+04  0.18979272834E+04 0.  0.
        5    1    3    3  502    0  0.55885142008E+03 -0.46934695452E+02  0.62025636936E+03  0.83621637696E+03  0.46999998093E+01 0. -1.
       -5    1    3    3    0  502 -0.55885142008E+03  0.46934695452E+02 -0.93115067176E+03  0.10870057216E+04  0.46999998093E+01 0.  1.
</event>
<event>
 5   0  0.1133638E-04  0.1871581E+04  0.7818609E-02  0.8669133E-01
        2   -1    0    0  501    0  0.00000000000E+00  0.00000000000E+00  0.10094978477E+04  0.10094978477E+04  0.25500000920E-02 0. -1.
       -2   -1    0    0    0  501  0.00000000000E+00  0.00000000000E+00 -0.86746471274E+03  0.86746471274E+03  0.25500000920E-02 0.  1.
    10030    2    1    2    0    0  0.00000000000E+00  0.00000000000E+00  0.14203313494E+03  0.18769625604E+04  0.18715808937E+04 0.  0.
        3    1    3    3  502    0  0.38485319621E+03  0.30541389957E+03  0.86974509410E+03  0.99892250531E+03  0.10100000352E+00 0. -1.
       -3    1    3    3    0  502 -0.38485319621E+03 -0.30541389957E+03 -0.72771195916E+03  0.87804005512E+03  0.10100000352E+00 0.  1.
</event>
<event>
 5   0  0.1101678E-04  0.1923394E+04  0.7818609E-02  0.8643299E-01
       -2   -1    0    0    0  501  0.00000000000E+00  0.00000000000E+00  0.65201758203E+03  0.65201758204E+03  0.25500000920E-02 0.  1.
        2   -1    0    0  501    0  0.00000000000E+00  0.00000000000E+00 -0.14184602687E+04  0.14184602687E+04  0.25500000920E-02 0. -1.
    10030    2    1    2    0    0  0.00000000000E+00  0.00000000000E+00 -0.76644268670E+03  0.20704778508E+04  0.19233939114E+04 0.  0.
        4    1    3    3  502    0 -0.51777512046E+03  0.77647595750E+03 -0.13341178475E+03  0.94276524392E+03  0.12699999809E+01 0. -1.
       -4    1    3    3    0  502  0.51777512046E+03 -0.77647595750E+03 -0.63303090195E+03  0.11277126069E+04  0.12699999809E+01 0.  1.
</event>
<event>
 5   0  0.1182630E-04  0.1896618E+04  0.7818609E-02  0.8656542E-01
        2   -1    0    0  501    0  0.00000000000E+00  0.00000000000E+00  0.69879537976E+03  0.69879537976E+03  0.25500000920E-02 0. -1.
       -2   -1    0    0    0  501  0.00000000000E+00  0.00000000000E+00 -0.12869143331E+04  0.12869143331E+04  0.25500000920E-02 0.  1.
    10030    2    1    2    0    0  0.00000000000E+00  0.00000000000E+00 -0.58811895332E+03  0.19857097128E+04  0.18966178214E+04 0.  0.
        5    1    3    3  502    0 -0.36156854101E+03  0.43433009216E+03  0.50321886054E+03  0.75672039117E+03  0.46999998093E+01 0. -1.
       -5    1    3    3    0  502  0.36156854101E+03 -0.43433009216E+03 -0.10913378139E+04  0.12289893217E+04  0.46999998093E+01 0.  1.
</event>
<event>
 5   0  0.5628936E-05  0.1878364E+04  0.7818609E-02  0.8665701E-01
        1   -1    0    0  501    0  0.00000000000E+00  0.00000000000E+00  0.10362453699E+04  0.10362453699E+04  0.50400001928E-02 0. -1.
       -1   -1    0    0    0  501  0.00000000000E+00  0.00000000000E+00 -0.85121059030E+03  0.85121059031E+03  0.50400001928E-02 0.  1.
    10030    2    1    2    0    0  0.00000000000E+00  0.00000000000E+00  0.18503477957E+03  0.18874559602E+04  0.18783642171E+04 0.  0.
        5    1    3    3  502    0 -0.69710863047E+03  0.55313430324E+03 -0.20914051011E+03  0.91415526201E+03  0.46999998093E+01 0.  1.
       -5    1    3    3    0  502  0.69710863047E+03 -0.55313430324E+03  0.39417528968E+03  0.97330069819E+03  0.46999998093E+01 0. -1.
</event>
<event>
 5   0  0.1133638E-04  0.1888865E+04  0.7818609E-02  0.8660419E-01
        2   -1    0    0  501    0  0.00000000000E+00  0.00000000000E+00  0.21555089389E+04  0.21555089389E+04  0.25500000920E-02 0.  1.
       -2   -1    0    0    0  501  0.00000000000E+00  0.00000000000E+00 -0.41380127057E+03  0.41380127058E+03  0.25500000920E-02 0. -1.
    10030    2    1    2    0    0  0.00000000000E+00  0.00000000000E+00  0.17417076683E+04  0.25693102094E+04  0.18888645665E+04 0.  0.
        3    1    3    3  502    0 -0.86578885629E+03  0.30975501805E+03  0.11639022277E+04  0.14833094487E+04  0.10100000352E+00 0. -1.
       -3    1    3    3    0  502  0.86578885629E+03 -0.30975501805E+03  0.57780544063E+03  0.10860007607E+04  0.10100000352E+00 0.  1.
</event>
<event>
 5   0  0.1118206E-04  0.1900263E+04  0.7818609E-02  0.8654726E-01
        2   -1    0    0  501    0  0.00000000000E+00  0.00000000000E+00  0.91867580828E+03  0.91867580829E+03  0.25500000920E-02 0. -1.
       -2   -1    0    0    0  501  0.00000000000E+00  0.00000000000E+00 -0.98266398903E+03  0.98266398903E+03  0.25500000920E-02 0.  1.
    10030    2    1    2    0    0  0.00000000000E+00  0.00000000000E+00 -0.63988180746E+02  0.19013397973E+04  0.19002627549E+04 0.  0.
        1    1    3    3  502    0  0.77445463800E+02 -0.31158570830E+03 -0.92674149443E+03  0.98078195895E+03  0.50400001928E-02 0.  1.
       -1    1    3    3    0  502 -0.77445463800E+02  0.31158570830E+03  0.86275331368E+03  0.92055783837E+03  0.50400001928E-02 0. -1.
</event>
<event>
 5   0  0.1101678E-04  0.1900696E+04  0.7818609E-02  0.8654510E-01
       -2   -1    0    0    0  501  0.00000000000E+00  0.00000000000E+00  0.47449734717E+03  0.47449734717E+03  0.25500000920E-02 0. -1.
        2   -1    0    0  501    0  0.00000000000E+00  0.00000000000E+00 -0.19034058787E+04  0.19034058787E+04  0.25500000920E-02 0.  1.
    10030    2    1    2    0    0  0.00000000000E+00  0.00000000000E+00 -0.14289085315E+04  0.23779032259E+04  0.19006957043E+04 0.  0.
        4    1    3    3  502    0  0.11076516054E+03  0.92374549906E+03 -0.95699655350E+03  0.13346979749E+04  0.12699999809E+01 0. -1.
       -4    1    3    3    0  502 -0.11076516054E+03 -0.92374549906E+03 -0.47191197804E+03  0.10432052510E+04  0.12699999809E+01 0.  1.
</event>
<event>
 5   0  0.1118206E-04  0.1898224E+04  0.7818609E-02  0.8655741E-01
        2   -1    0    0  501    0  0.00000000000E+00  0.00000000000E+00  0.11010568848E+04  0.11010568848E+04  0.25500000920E-02 0. -1.
       -2   -1    0    0    0  501  0.00000000000E+00  0.00000000000E+00 -0.81813529532E+03  0.81813529532E+03  0.25500000920E-02 0.  1.
    10030    2    1    2    0    0  0.00000000000E+00  0.00000000000E+00  0.28292158951E+03  0.19191921802E+04  0.18982239063E+04 0.  0.
        1    1    3    3  502    0 -0.35271169784E+03  0.45459101964E+03  0.90461989116E+03  0.10720987289E+04  0.50400001928E-02 0. -1.
       -1    1    3    3    0  502  0.35271169784E+03 -0.45459101964E+03 -0.62169830165E+03  0.84709345129E+03  0.50400001928E-02 0.  1.
</event>
<event>
 5   0  0.1133638E-04  0.1899103E+04  0.7818609E-02  0.8655303E-01
        2   -1    0    0  501    0  0.00000000000E+00  0.00000000000E+00  0.16685248913E+04  0.16685248913E+04  0.25500000920E-02 0.  1.
       -2   -1    0    0    0  501  0.00000000000E+00  0.00000000000E+00 -0.54038609149E+03  0.54038609149E+03  0.25500000920E-02 0. -1.
    10030    2    1    2    0    0  0.00000000000E+00  0.00000000000E+00  0.11281387998E+04  0.22089109828E+04  0.18991025718E+04 0.  0.
        3    1    3    3  502    0  0.37385773761E+02  0.66065996117E+03  0.13561785499E+04  0.15090028330E+04  0.10100000352E+00 0.  1.
       -3    1    3    3    0  502 -0.37385773761E+02 -0.66065996117E+03 -0.22803975012E+03  0.69990814984E+03  0.10100000352E+00 0. -1.
</event>
<event>
 5   0  0.1141890E-04  0.1846684E+04  0.7818609E-02  0.8681860E-01
       -2   -1    0    0    0  501  0.00000000000E+00  0.00000000000E+00  0.78684381057E+03  0.78684381057E+03  0.25500000920E-02 0. -1.
        2   -1    0    0  501    0  0.00000000000E+00  0.00000000000E+00 -0.10835191754E+04  0.10835191754E+04  0.25500000920E-02 0.  1.
    10030    2    1    2    0    0  0.00000000000E+00  0.00000000000E+00 -0.29667536484E+03  0.18703629860E+04  0.18466839002E+04 0.  0.
        2    1    3    3  502    0 -0.68045820710E+03 -0.36727810941E+03 -0.65943060707E+03  0.10162506122E+04  0.25500000920E-02 0. -1.
       -2    1    3    3    0  502  0.68045820710E+03  0.36727810941E+03  0.36275524223E+03  0.85411237378E+03  0.25500000920E-02 0.  1.
</event>
<event>
 5   0  0.1118206E-04  0.1889842E+04  0.7818609E-02  0.8659929E-01
       -2   -1    0    0    0  501  0.00000000000E+00  0.00000000000E+00  0.92448409372E+03  0.92448409372E+03  0.25500000920E-02 0. -1.
        2   -1    0    0  501    0  0.00000000000E+00  0.00000000000E+00 -0.96581001019E+03  0.96581001019E+03  0.25500000920E-02 0.  1.
    10030    2    1    2    0    0  0.00000000000E+00  0.00000000000E+00 -0.41325916468E+02  0.18902941039E+04  0.18898423130E+04 0.  0.
        1    1    3    3  502    0  0.31685933302E+03 -0.70167231304E+03  0.52731116353E+03  0.93316715278E+03  0.50400001928E-02 0. -1.
       -1    1    3    3    0  502 -0.31685933302E+03  0.70167231304E+03 -0.56863708000E+03  0.95712695113E+03  0.50400001928E-02 0.  1.
</event>
<event>
 5   0  0.1141890E-04  0.1934756E+04  0.7818609E-02  0.8637747E-01
        2   -1    0    0  501    0  0.00000000000E+00  0.00000000000E+00  0.24081408031E+04  0.24081408031E+04  0.25500000920E-02 0.  1.
       -2   -1    0    0    0  501  0.00000000000E+00  0.00000000000E+00 -0.38860701691E+03  0.38860701692E+03  0.25500000920E-02 0. -1.
    10030    2    1    2    0    0  0.00000000000E+00  0.00000000000E+00  0.20195337862E+04  0.27967478200E+04  0.19347562263E+04 0.  0.
        2    1    3    3  502    0 -0.87864497274E+03 -0.40274670608E+03  0.95197251337E+03  0.13566405433E+04  0.25500000920E-02 0. -1.
       -2    1    3    3    0  502  0.87864497274E+03  0.40274670608E+03  0.10675612728E+04  0.14401072768E+04  0.25500000920E-02 0.  1.
</event>
<event>
 5   0  0.5841424E-05  0.1851995E+04  0.7818609E-02  0.8679128E-01
        1   -1    0    0  501    0  0.00000000000E+00  0.00000000000E+00  0.87041836783E+03  0.87041836785E+03  0.50400001928E-02 0.  1.
       -1   -1    0    0    0  501  0.00000000000E+00  0.00000000000E+00 -0.98512558725E+03  0.98512558727E+03  0.50400001928E-02 0. -1.
    10030    2    1    2    0    0  0.00000000000E+00  0.00000000000E+00 -0.11470721942E+03  0.18555439551E+04  0.18519950386E+04 0.  0.
        1    1    3    3  502    0  0.17890073056E+03 -0.72304375034E+03  0.49385849817E+03  0.89369679005E+03  0.50400001928E-02 0.  1.
       -1    1    3    3    0  502 -0.17890073056E+03  0.72304375034E+03 -0.60856571759E+03  0.96184716507E+03  0.50400001928E-02 0. -1.
</event>
<event>
 5   0  0.5824956E-05  0.1911344E+04  0.7818609E-02  0.8649230E-01
       -1   -1    0    0    0  501  0.00000000000E+00  0.00000000000E+00  0.93632300066E+03  0.93632300067E+03  0.50400001928E-02 0. -1.
        1   -1    0    0  501    0  0.00000000000E+00  0.00000000000E+00 -0.97542081057E+03  0.97542081058E+03  0.50400001928E-02 0.  1.
    10030    2    1    2    0    0  0.00000000000E+00  0.00000000000E+00 -0.39097809911E+02  0.19117438113E+04  0.19113439672E+04 0.  0.
        2    1    3    3  502    0  0.55495209505E+03  0.67697655921E+03 -0.40308687864E+03  0.96371578863E+03  0.25500000920E-02 0. -1.
       -2    1    3    3    0  502 -0.55495209505E+03 -0.67697655921E+03  0.36398906873E+03  0.94802802262E+03  0.25500000920E-02 0.  1.
</event>
<event>
 5   0  0.5614989E-05  0.1886374E+04  0.7818609E-02  0.8661669E-01
        1   -1    0    0  501    0  0.00000000000E+00  0.00000000000E+00  0.11717061429E+04  0.11717061429E+04  0.50400001928E-02 0.  1.
       -1   -1    0    0    0  501  0.00000000000E+00  0.00000000000E+00 -0.75923619667E+03  0.75923619668E+03  0.50400001928E-02 0. -1.
    10030    2    1    2    0    0  0.00000000000E+00  0.00000000000E+00  0.41246994619E+03  0.19309423396E+04  0.18863739985E+04 0.  0.
        4    1    3    3  502    0 -0.18446719981E+03 -0.26595246478E+03 -0.70060866761E+03  0.77175966425E+03  0.12699999809E+01 0. -1.
       -4    1    3    3    0  502  0.18446719981E+03  0.26595246478E+03  0.11130786138E+04  0.11591826753E+04  0.12699999809E+01 0.  1.
</event>
<event>
 5   0  0.4061125E-05  0.1901353E+04  0.7818609E-02  0.8654183E-01
       -3   -1    0    0    0  501  0.00000000000E+00  0.00000000000E+00  0.20720850635E+04  0.20720850660E+04  0.10100000352E+00 0.  1.
        3   -1    0    0  501    0  0.00000000000E+00  0.00000000000E+00 -0.43617195272E+03  0.43617196441E+03  0.10100000352E+00 0. -1.
    10030    2    1    2    0    0  0.00000000000E+00  0.00000000000E+00  0.16359131108E+04  0.25082570304E+04  0.19013525776E+04 0.  0.
        4    1    3    3  502    0 -0.91853679812E+03 -0.63324623546E+02  0.11303135041E+04  0.14578511885E+04  0.12699999809E+01 0. -1.
       -4    1    3    3    0  502  0.91853679812E+03  0.63324623546E+02  0.50559960673E+03  0.10504058419E+04  0.12699999809E+01 0.  1.
</event>
<event>
 5   0  0.1133638E-04  0.1943634E+04  0.7818609E-02  0.8633437E-01
       -2   -1    0    0    0  501  0.00000000000E+00  0.00000000000E+00  0.46623279228E+03  0.46623279229E+03  0.25500000920E-02 0.  1.
        2   -1    0    0  501    0  0.00000000000E+00  0.00000000000E+00 -0.20256582644E+04  0.20256582644E+04  0.25500000920E-02 0. -1.
    10030    2    1    2    0    0  0.00000000000E+00  0.00000000000E+00 -0.15594254721E+04  0.24918910566E+04  0.19436340281E+04 0.  0.
        3    1    3    3  502    0  0.42577814074E+03  0.40990203998E+03 -0.17687608314E+04  0.18648918458E+04  0.10100000352E+00 0. -1.
       -3    1    3    3    0  502 -0.42577814074E+03 -0.40990203998E+03  0.20933535936E+03  0.62699921084E+03  0.10100000352E+00 0.  1.
</event>
<event>
 5   0  0.1133638E-04  0.1941241E+04  0.7818609E-02  0.8634596E-01
       -2   -1    0    0    0  501  0.00000000000E+00  0.00000000000E+00  0.15057200466E+04  0.15057200466E+04  0.25500000920E-02 0. -1.
        2   -1    0    0  501    0  0.00000000000E+00  0.00000000000E+00 -0.62568371761E+03  0.62568371761E+03  0.25500000920E-02 0.  1.
    10030    2    1    2    0    0  0.00000000000E+00  0.00000000000E+00  0.88003632899E+03  0.21314037642E+04  0.19412413724E+04 0.  0.
        3    1    3    3  502    0 -0.61380860354E+03  0.10522403240E+03  0.12574422455E+04  0.14032085055E+04  0.10100000352E+00 0. -1.
       -3    1    3    3    0  502  0.61380860354E+03 -0.10522403240E+03 -0.37740591656E+03  0.72819525873E+03  0.10100000352E+00 0.  1.
</event>
<event>
 5   0  0.5579109E-05  0.1893981E+04  0.7818609E-02  0.8657858E-01
        1   -1    0    0  501    0  0.00000000000E+00  0.00000000000E+00  0.12583438358E+04  0.12583438358E+04  0.50400001928E-02 0.  1.
       -1   -1    0    0    0  501  0.00000000000E+00  0.00000000000E+00 -0.71267545708E+03  0.71267545710E+03  0.50400001928E-02 0. -1.
    10030    2    1    2    0    0  0.00000000000E+00  0.00000000000E+00  0.54566837869E+03  0.19710192929E+04  0.18939807479E+04 0.  0.
        3    1    3    3  502    0  0.91304592767E+02 -0.92757480399E+03  0.44715653222E+03  0.10337700519E+04  0.10100000352E+00 0.  1.
       -3    1    3    3    0  502 -0.91304592767E+02  0.92757480399E+03  0.98511846473E+02  0.93724924100E+03  0.10100000352E+00 0. -1.
</event>
<event>
 5   0  0.5614989E-05  0.1948008E+04  0.7818609E-02  0.8631322E-01
        1   -1    0    0  501    0  0.00000000000E+00  0.00000000000E+00  0.75550106876E+03  0.75550106877E+03  0.50400001928E-02 0. -1.
       -1   -1    0    0    0  501  0.00000000000E+00  0.00000000000E+00 -0.12557012277E+04  0.12557012277E+04  0.50400001928E-02 0.  1.
    10030    2    1    2    0    0  0.00000000000E+00  0.00000000000E+00 -0.50020015889E+03  0.20112022964E+04  0.19480078229E+04 0.  0.
        4    1    3    3  502    0  0.70754518387E+03  0.63114807679E+03 -0.48029942481E+03  0.10628533447E+04  0.12699999809E+01 0.  1.
       -4    1    3    3    0  502 -0.70754518387E+03 -0.63114807679E+03 -0.19900734084E+02  0.94834895169E+03  0.12699999809E+01 0. -1.
</event>
<event>
 5   0  0.4061125E-05  0.1886673E+04  0.7818609E-02  0.8661519E-01
       -3   -1    0    0    0  501  0.00000000000E+00  0.00000000000E+00  0.37877204577E+03  0.37877205924E+03  0.10100000352E+00 0. -1.
        3   -1    0    0  501    0  0.00000000000E+00  0.00000000000E+00 -0.23493905003E+04  0.23493905024E+04  0.10100000352E+00 0.  1.
    10030    2    1    2    0    0  0.00000000000E+00  0.00000000000E+00 -0.19706184545E+04  0.27281625617E+04  0.18866726981E+04 0.  0.
        2    1    3    3  502    0 -0.12865631254E+03 -0.58129565818E+03 -0.20434015462E+04  0.21283672071E+04  0.25500000920E-02 0.  1.
       -2    1    3    3    0  502  0.12865631254E+03  0.58129565818E+03  0.72783091714E+02  0.59979535462E+03  0.25500000920E-02 0. -1.
</event>
<event>
 5   0  0.1101678E-04  0.1853195E+04  0.7818609E-02  0.8678511E-01
       -2   -1    0    0    0  501  0.00000000000E+00  0.00000000000E+00  0.51954684083E+03  0.51954684083E+03  0.25500000920E-02 0.  1.
        2   -1    0    0  501    0  0.00000000000E+00  0.00000000000E+00 -0.16525620432E+04  0.16525620432E+04  0.25500000920E-02 0. -1.
    10030    2    1    2    0    0  0.00000000000E+00  0.00000000000E+00 -0.11330152023E+04  0.21721088840E+04  0.18531954984E+04 0.  0.
        4    1    3    3  502    0 -0.67868470810E+03  0.37574603217E+03  0.27434531505E+02  0.77624241067E+03  0.12699999809E+01 0.  1.
       -4    1    3    3    0  502  0.67868470810E+03 -0.37574603217E+03 -0.11604497338E+04  0.13958664733E+04  0.12699999809E+01 0. -1.
</event>
<event>
 5   0  0.1101678E-04  0.1891894E+04  0.7818609E-02  0.8658902E-01
        2   -1    0    0  501    0  0.00000000000E+00  0.00000000000E+00  0.16897247699E+04  0.16897247699E+04  0.25500000920E-02 0.  1.
       -2   -1    0    0    0  501  0.00000000000E+00  0.00000000000E+00 -0.52956298214E+03  0.52956298214E+03  0.25500000920E-02 0. -1.
    10030    2    1    2    0    0  0.00000000000E+00  0.00000000000E+00  0.11601617878E+04  0.22192877521E+04  0.18918939592E+04 0.  0.
        4    1    3    3  502    0  0.59908638297E+03 -0.55686830976E+03  0.11375050470E+04  0.14010446650E+04  0.12699999809E+01 0.  1.
       -4    1    3    3    0  502 -0.59908638297E+03  0.55686830976E+03  0.22656740834E+02  0.81824308704E+03  0.12699999809E+01 0. -1.
</event>
<event>
 5   0  0.1133638E-04  0.1903939E+04  0.7818609E-02  0.8652898E-01
        2   -1    0    0  501    0  0.00000000000E+00  0.00000000000E+00  0.89082810394E+03  0.89082810394E+03  0.25500000920E-02 0. -1.
       -2   -1    0    0    0  501  0.00000000000E+00  0.00000000000E+00 -0.10173069516E+04  0.10173069516E+04  0.25500000920E-02 0.  1.
    10030    2    1    2    0    0  0.00000000000E+00  0.00000000000E+00 -0.12647884767E+03  0.19081350556E+04  0.19039386785E+04 0.  0.
        3    1    3    3  502    0 -0.59849172390E+03 -0.44242354257E+03 -0.65810867690E+03  0.99349784872E+03  0.10100000352E+00 0.  1.
       -3    1    3    3    0  502  0.59849172390E+03  0.44242354257E+03  0.53162982923E+03  0.91463720684E+03  0.10100000352E+00 0. -1.
</event>
<event>
 5   0  0.5841424E-05  0.1897669E+04  0.7818609E-02  0.8656018E-01
        1   -1    0    0  501    0  0.00000000000E+00  0.00000000000E+00  0.11247565000E+04  0.11247565000E+04  0.50400001928E-02 0. -1.
       -1   -1    0    0    0  501  0.00000000000E+00  0.00000000000E+00 -0.80042787274E+03  0.80042787276E+03  0.50400001928E-02 0.  1.
    10030    2    1    2    0    0  0.00000000000E+00  0.00000000000E+00  0.32432862726E+03  0.19251843728E+04  0.18976685197E+04 0.  0.
        1    1    3    3  502    0 -0.68707088420E+03 -0.63699051558E+03  0.10114054099E+02  0.93697684655E+03  0.50400001928E-02 0.  1.
       -1    1    3    3    0  502  0.68707088420E+03  0.63699051558E+03  0.31421457316E+03  0.98820752622E+03  0.50400001928E-02 0. -1.
</event>
<event>
 5   0  0.1101678E-04  0.1995076E+04  0.7818609E-02  0.8608926E-01
       -2   -1    0    0    0  501  0.00000000000E+00  0.00000000000E+00  0.94203649827E+03  0.94203649827E+03  0.25500000920E-02 0.  1.
        2   -1    0    0  501    0  0.00000000000E+00  0.00000000000E+00 -0.10563093899E+04  0.10563093899E+04  0.25500000920E-02 0. -1.
    10030    2    1    2    0    0  0.00000000000E+00  0.00000000000E+00 -0.11427289167E+03  0.19983458882E+04  0.19950759372E+04 0.  0.
        4    1    3    3  502    0 -0.79596538401E+03 -0.51909129502E+03 -0.36105379475E+03  0.10165520748E+04  0.12699999809E+01 0. -1.
       -4    1    3    3    0  502  0.79596538401E+03  0.51909129502E+03  0.24678090308E+03  0.98179381345E+03  0.12699999809E+01 0.  1.
</event>
<event>
 5   0  0.5614989E-05  0.1912284E+04  0.7818609E-02  0.8648766E-01
        1   -1    0    0  501    0  0.00000000000E+00  0.00000000000E+00  0.18502626605E+04  0.18502626605E+04  0.50400001928E-02 0.  1.
       -1   -1    0    0    0  501  0.00000000000E+00  0.00000000000E+00 -0.49409626236E+03  0.49409626239E+03  0.50400001928E-02 0. -1.
    10030    2    1    2    0    0  0.00000000000E+00  0.00000000000E+00  0.13561663982E+04  0.23443589229E+04  0.19122843565E+04 0.  0.
        4    1    3    3  502    0 -0.40553243978E+02 -0.31949440114E+03 -0.42559922234E+03  0.53372047826E+03  0.12699999809E+01 0. -1.
       -4    1    3    3    0  502  0.40553243978E+02  0.31949440114E+03  0.17817656205E+04  0.18106384447E+04  0.12699999809E+01 0.  1.
</event>
<event>
 5   0  0.1118206E-04  0.1891412E+04  0.7818609E-02  0.8659143E-01
        2   -1    0    0  501    0  0.00000000000E+00  0.00000000000E+00  0.31433601722E+03  0.31433601723E+03  0.25500000920E-02 0. -1.
       -2   -1    0    0    0  501  0.00000000000E+00  0.00000000000E+00 -0.28452342546E+04  0.28452342546E+04  0.25500000920E-02 0.  1.
    10030    2    1    2    0    0  0.00000000000E+00  0.00000000000E+00 -0.25308982374E+04  0.31595702718E+04  0.18914117517E+04 0.  0.
        1    1    3    3  502    0  0.12212802243E+03  0.93587217688E+03 -0.11653926776E+04  0.14996373156E+04  0.50400001928E-02 0. -1.
       -1    1    3    3    0  502 -0.12212802243E+03 -0.93587217688E+03 -0.13655055598E+04  0.16599329562E+04  0.50400001928E-02 0.  1.
</event>
<event>
 5   0  0.1182630E-04  0.1946157E+04  0.7818609E-02  0.8632216E-01
        2   -1    0    0  501    0  0.00000000000E+00  0.00000000000E+00  0.19501496134E+04  0.19501496134E+04  0.25500000920E-02 0.  1.
       -2   -1    0    0    0  501  0.00000000000E+00  0.00000000000E+00 -0.48554323820E+03  0.48554323821E+03  0.25500000920E-02 0. -1.
    10030    2    1    2    0    0  0.00000000000E+00  0.00000000000E+00  0.14646063752E+04  0.24356928516E+04  0.19461571964E+04 0.  0.
        5    1    3    3  502    0 -0.21968871826E+03  0.77199151265E+03  0.14207931434E+04  0.16318422947E+04  0.46999998093E+01 0.  1.
       -5    1    3    3    0  502  0.21968871826E+03 -0.77199151265E+03  0.43813231817E+02  0.80385055689E+03  0.46999998093E+01 0. -1.
</event>
<event>
 5   0  0.5841424E-05  0.1877575E+04  0.7818609E-02  0.8666100E-01
        1   -1    0    0  501    0  0.00000000000E+00  0.00000000000E+00  0.10305730784E+04  0.10305730784E+04  0.50400001928E-02 0. -1.
       -1   -1    0    0    0  501  0.00000000000E+00  0.00000000000E+00 -0.85517623722E+03  0.85517623723E+03  0.50400001928E-02 0.  1.
    10030    2    1    2    0    0  0.00000000000E+00  0.00000000000E+00  0.17539684121E+03  0.18857493157E+04  0.18775746136E+04 0.  0.
        1    1    3    3  502    0 -0.27104103855E+03 -0.68039032111E+03  0.67756064612E+03  0.99773877485E+03  0.50400001928E-02 0. -1.
       -1    1    3    3    0  502  0.27104103855E+03  0.68039032111E+03 -0.50216380491E+03  0.88801054083E+03  0.50400001928E-02 0.  1.
</event>
<event>
 5   0  0.5841424E-05  0.1890290E+04  0.7818609E-02  0.8659705E-01
        1   -1    0    0  501    0  0.00000000000E+00  0.00000000000E+00  0.10328032011E+04  0.10328032011E+04  0.50400001928E-02 0. -1.
       -1   -1    0    0    0  501  0.00000000000E+00  0.00000000000E+00 -0.86492626366E+03  0.86492626367E+03  0.50400001928E-02 0.  1.
    10030    2    1    2    0    0  0.00000000000E+00  0.00000000000E+00  0.16787693744E+03  0.18977294648E+04  0.18902895163E+04 0.  0.
        1    1    3    3  502    0  0.13071891767E+03  0.91738058491E+03  0.27074620186E+03  0.96539011744E+03  0.50400001928E-02 0.  1.
       -1    1    3    3    0  502 -0.13071891767E+03 -0.91738058491E+03 -0.10286926442E+03  0.93233934734E+03  0.50400001928E-02 0. -1.
</event>
<event>
 5   0  0.5614989E-05  0.1904335E+04  0.7818609E-02  0.8652702E-01
        1   -1    0    0  501    0  0.00000000000E+00  0.00000000000E+00  0.10591418106E+04  0.10591418106E+04  0.50400001928E-02 0.  1.
       -1   -1    0    0    0  501  0.00000000000E+00  0.00000000000E+00 -0.85599743600E+03  0.85599743601E+03  0.50400001928E-02 0. -1.
    10030    2    1    2    0    0  0.00000000000E+00  0.00000000000E+00  0.20314437457E+03  0.19151392466E+04  0.19043347124E+04 0.  0.
        4    1    3    3  502    0 -0.21517514772E+03  0.24011799085E+03 -0.79942613695E+03  0.86199811778E+03  0.12699999809E+01 0. -1.
       -4    1    3    3    0  502  0.21517514772E+03 -0.24011799085E+03  0.10025705115E+04  0.10531411288E+04  0.12699999809E+01 0.  1.
</event>
<event>
 5   0  0.1101678E-04  0.1917406E+04  0.7818609E-02  0.8646240E-01
       -2   -1    0    0    0  501  0.00000000000E+00  0.00000000000E+00  0.10448336313E+04  0.10448336313E+04  0.25500000920E-02 0. -1.
        2   -1    0    0  501    0  0.00000000000E+00  0.00000000000E+00 -0.87967252686E+03  0.87967252687E+03  0.25500000920E-02 0.  1.
    10030    2    1    2    0    0  0.00000000000E+00  0.00000000000E+00  0.16516110448E+03  0.19245061582E+04  0.19174059984E+04 0.  0.
        4    1    3    3  502    0 -0.63542263014E+03  0.64466486772E+03  0.39959044484E+03  0.98945886578E+03  0.12699999809E+01 0. -1.
       -4    1    3    3    0  502  0.63542263014E+03 -0.64466486772E+03 -0.23442934035E+03  0.93504729243E+03  0.12699999809E+01 0.  1.
</event>
<event>
 5   0  0.5841424E-05  0.1905727E+04  0.7818609E-02  0.8652011E-01
       -1   -1    0    0    0  501  0.00000000000E+00  0.00000000000E+00  0.58685341504E+03  0.58685341506E+03  0.50400001928E-02 0.  1.
        1   -1    0    0  501    0  0.00000000000E+00  0.00000000000E+00 -0.15471477101E+04  0.15471477101E+04  0.50400001928E-02 0. -1.
    10030    2    1    2    0    0  0.00000000000E+00  0.00000000000E+00 -0.96029429504E+03  0.21340011251E+04  0.19057270710E+04 0.  0.
        1    1    3    3  502    0  0.39719596796E+03 -0.18941088286E+03 -0.14265512984E+04  0.14928796759E+04  0.50400001928E-02 0. -1.
       -1    1    3    3    0  502 -0.39719596796E+03  0.18941088286E+03  0.46625700339E+03  0.64112144929E+03  0.50400001928E-02 0.  1.
</event>
<event>
 5   0  0.1118206E-04  0.2035288E+04  0.7818609E-02  0.8590298E-01
       -2   -1    0    0    0  501  0.00000000000E+00  0.00000000000E+00  0.13144914761E+04  0.13144914761E+04  0.25500000920E-02 0. -1.
        2   -1    0    0  501    0  0.00000000000E+00  0.00000000000E+00 -0.78783238335E+03  0.78783238336E+03  0.25500000920E-02 0.  1.
    10030    2    1    2    0    0  0.00000000000E+00  0.00000000000E+00  0.52665909277E+03  0.21023238595E+04  0.20352876480E+04 0.  0.
        1    1    3    3  502    0 -0.63367114179E+02 -0.68467742062E+03 -0.51158001139E+03  0.85703714595E+03  0.50400001928E-02 0.  1.
       -1    1    3    3    0  502  0.63367114179E+02  0.68467742062E+03  0.10382391042E+04  0.12452867135E+04  0.50400001928E-02 0. -1.
</event>
<event>
 5   0  0.4061125E-05  0.1893367E+04  0.7818609E-02  0.8658165E-01
        3   -1    0    0  501    0  0.00000000000E+00  0.00000000000E+00  0.58122795020E+03  0.58122795897E+03  0.10100000352E+00 0. -1.
       -3   -1    0    0    0  501  0.00000000000E+00  0.00000000000E+00 -0.15419245302E+04  0.15419245335E+04  0.10100000352E+00 0.  1.
    10030    2    1    2    0    0  0.00000000000E+00  0.00000000000E+00 -0.96069658004E+03  0.21231524925E+04  0.18933669976E+04 0.  0.
        1    1    3    3  502    0  0.36439320826E+03  0.50289175912E+03  0.32087910824E+03  0.69903214071E+03  0.50400001928E-02 0. -1.
       -1    1    3    3    0  502 -0.36439320826E+03 -0.50289175912E+03 -0.12815756883E+04  0.14241203518E+04  0.50400001928E-02 0.  1.
</event>
<event>
 5   0  0.1133638E-04  0.1914437E+04  0.7818609E-02  0.8647703E-01
       -2   -1    0    0    0  501  0.00000000000E+00  0.00000000000E+00  0.16248970771E+04  0.16248970771E+04  0.25500000920E-02 0. -1.
        2   -1    0    0  501    0  0.00000000000E+00  0.00000000000E+00 -0.56389250533E+03  0.56389250534E+03  0.25500000920E-02 0.  1.
    10030    2    1    2    0    0  0.00000000000E+00  0.00000000000E+00  0.10610045718E+04  0.21887895825E+04  0.19144370282E+04 0.  0.
        3    1    3    3  502    0 -0.73597863403E+03 -0.35931103616E+03 -0.35981096747E+02  0.81979486457E+03  0.10100000352E+00 0.  1.
       -3    1    3    3    0  502  0.73597863403E+03  0.35931103616E+03  0.10969856685E+04  0.13689947179E+04  0.10100000352E+00 0. -1.
</event>
<event>
 5   0  0.5841424E-05  0.1908584E+04  0.7818609E-02  0.8650595E-01
        1   -1    0    0  501    0  0.00000000000E+00  0.00000000000E+00  0.83876082887E+03  0.83876082889E+03  0.50400001928E-02 0. -1.
       -1   -1    0    0    0  501  0.00000000000E+00  0.00000000000E+00 -0.10857364223E+04  0.10857364223E+04  0.50400001928E-02 0.  1.
    10030    2    1    2    0    0  0.00000000000E+00  0.00000000000E+00 -0.24697559339E+03  0.19244972512E+04  0.19085839583E+04 0.  0.
        1    1    3    3  502    0 -0.58982846005E+03 -0.27962943840E+03  0.57843619847E+03  0.87216894627E+03  0.50400001928E-02 0. -1.
       -1    1    3    3    0  502  0.58982846005E+03  0.27962943840E+03 -0.82541179186E+03  0.10523283049E+04  0.50400001928E-02 0.  1.
</event>
<event>
 5   0  0.4061125E-05  0.1906903E+04  0.7818609E-02  0.8651428E-01
       -3   -1    0    0    0  501  0.00000000000E+00  0.00000000000E+00  0.70258221192E+03  0.70258221918E+03  0.10100000352E+00 0.  1.
        3   -1    0    0  501    0  0.00000000000E+00  0.00000000000E+00 -0.12938982279E+04  0.12938982319E+04  0.10100000352E+00 0. -1.
    10030    2    1    2    0    0  0.00000000000E+00  0.00000000000E+00 -0.59131601602E+03  0.19964804511E+04  0.19069031335E+04 0.  0.
        1    1    3    3  502    0 -0.10531357488E+03  0.11721767612E+03  0.68885453182E+03  0.70664807272E+03  0.50400001928E-02 0.  1.
       -1    1    3    3    0  502  0.10531357488E+03 -0.11721767612E+03 -0.12801705478E+04  0.12898323783E+04  0.50400001928E-02 0. -1.
</event>
<event>
 5   0  0.1182630E-04  0.1900953E+04  0.7818609E-02  0.8654382E-01
       -2   -1    0    0    0  501  0.00000000000E+00  0.00000000000E+00  0.86514687857E+03  0.86514687857E+03  0.25500000920E-02 0. -1.
        2   -1    0    0  501    0  0.00000000000E+00  0.00000000000E+00 -0.10442226753E+04  0.10442226753E+04  0.25500000920E-02 0.  1.
    10030    2    1    2    0    0  0.00000000000E+00  0.00000000000E+00 -0.17907579672E+03  0.19093695539E+04  0.19009534324E+04 0.  0.
        5    1    3    3  502    0 -0.98089113283E+02 -0.75788046688E+03 -0.65717675452E+03  0.10079224439E+04  0.46999998093E+01 0.  1.
       -5    1    3    3    0  502  0.98089113283E+02  0.75788046688E+03  0.47810095780E+03  0.90144710997E+03  0.46999998093E+01 0. -1.
</event>
<event>
 5   0  0.5841424E-05  0.1898860E+04  0.7818609E-02  0.8655424E-01
       -1   -1    0    0    0  501  0.00000000000E+00  0.00000000000E+00  0.11476125421E+04  0.11476125421E+04  0.50400001928E-02 0.  1.
        1   -1    0    0  501    0  0.00000000000E+00  0.00000000000E+00 -0.78547180357E+03  0.78547180358E+03  0.50400001928E-02 0. -1.
    10030    2    1    2    0    0  0.00000000000E+00  0.00000000000E+00  0.36214073855E+03  0.19330843457E+04  0.18988599667E+04 0.  0.
        1    1    3    3  502    0  0.28032244156E+03 -0.48472708821E+02  0.11032037054E+04  0.11392930661E+04  0.50400001928E-02 0.  1.
       -1    1    3    3    0  502 -0.28032244156E+03  0.48472708821E+02 -0.74106296686E+03  0.79379127963E+03  0.50400001928E-02 0. -1.
</event>
<event>
 5   0  0.5628936E-05  0.1866295E+04  0.7818609E-02  0.8671818E-01
       -1   -1    0    0    0  501  0.00000000000E+00  0.00000000000E+00  0.97110026567E+03  0.97110026568E+03  0.50400001928E-02 0. -1.
        1   -1    0    0  501    0  0.00000000000E+00  0.00000000000E+00 -0.89667755321E+03  0.89667755322E+03  0.50400001928E-02 0.  1.
    10030    2    1    2    0    0  0.00000000000E+00  0.00000000000E+00  0.74422712462E+02  0.18677778189E+04  0.18662945214E+04 0.  0.
        5    1    3    3  502    0  0.14690090228E+03  0.78150219166E+03  0.52587821404E+03  0.95336012957E+03  0.46999998093E+01 0. -1.
       -5    1    3    3    0  502 -0.14690090228E+03 -0.78150219166E+03 -0.45145550158E+03  0.91441768933E+03  0.46999998093E+01 0.  1.
</event>
<event>
 5   0  0.5579109E-05  0.1895761E+04  0.7818609E-02  0.8656969E-01
       -1   -1    0    0    0  501  0.00000000000E+00  0.00000000000E+00  0.96049227180E+03  0.96049227182E+03  0.50400001928E-02 0. -1.
        1   -1    0    0  501    0  0.00000000000E+00  0.00000000000E+00 -0.93543402721E+03  0.93543402723E+03  0.50400001928E-02 0.  1.
    10030    2    1    2    0    0  0.00000000000E+00  0.00000000000E+00  0.25058244590E+02  0.18959262990E+04  0.18957606958E+04 0.  0.
        3    1    3    3  502    0 -0.76158615384E+03 -0.41454366619E+03  0.39546885557E+03  0.95302442089E+03  0.10100000352E+00 0. -1.
       -3    1    3    3    0  502  0.76158615384E+03  0.41454366619E+03 -0.37041061098E+03  0.94290187815E+03  0.10100000352E+00 0.  1.
</event>
<event>
 5   0  0.1101678E-04  0.1880881E+04  0.7818609E-02  0.8664432E-01
       -2   -1    0    0    0  501  0.00000000000E+00  0.00000000000E+00  0.56572556308E+03  0.56572556308E+03  0.25500000920E-02 0.  1.
        2   -1    0    0  501    0  0.00000000000E+00  0.00000000000E+00 -0.15633514396E+04  0.15633514396E+04  0.25500000920E-02 0. -1.
    10030    2    1    2    0    0  0.00000000000E+00  0.00000000000E+00 -0.99762587650E+03  0.21290770027E+04  0.18808805102E+04 0.  0.
        4    1    3    3  502    0  0.86840722337E+03  0.26018107407E+03 -0.21559505545E+03  0.93183053060E+03  0.12699999809E+01 0. -1.
       -4    1    3    3    0  502 -0.86840722337E+03 -0.26018107407E+03 -0.78203082104E+03  0.11972464721E+04  0.12699999809E+01 0.  1.
</event>
<event>
 5   0  0.5824956E-05  0.1891132E+04  0.7818609E-02  0.8659283E-01
       -1   -1    0    0    0  501  0.00000000000E+00  0.00000000000E+00  0.75559218588E+03  0.75559218590E+03  0.50400001928E-02 0. -1.
        1   -1    0    0  501    0  0.00000000000E+00  0.00000000000E+00 -0.11833039305E+04  0.11833039305E+04  0.50400001928E-02 0.  1.
    10030    2    1    2    0    0  0.00000000000E+00  0.00000000000E+00 -0.42771174463E+03  0.19388961164E+04  0.18911321513E+04 0.  0.
        2    1    3    3  502    0 -0.17543348909E+03  0.75663016086E+03  0.33905049046E+03  0.84747940654E+03  0.25500000920E-02 0. -1.
       -2    1    3    3    0  502  0.17543348909E+03 -0.75663016086E+03 -0.76676223509E+03  0.10914167099E+04  0.25500000920E-02 0.  1.
</event>
<event>
 5   0  0.1118206E-04  0.1904130E+04  0.7818609E-02  0.8652803E-01
        2   -1    0    0  501    0  0.00000000000E+00  0.00000000000E+00  0.25270765811E+04  0.25270765811E+04  0.25500000920E-02 0. -1.
       -2   -1    0    0    0  501  0.00000000000E+00  0.00000000000E+00 -0.35868625738E+03  0.35868625739E+03  0.25500000920E-02 0.  1.
    10030    2    1    2    0    0  0.00000000000E+00  0.00000000000E+00  0.21683903237E+04  0.28857628385E+04  0.19041298706E+04 0.  0.
        1    1    3    3  502    0 -0.64381199912E+03 -0.65279288168E+03  0.69545340715E+03  0.11507770758E+04  0.50400001928E-02 0.  1.
       -1    1    3    3    0  502  0.64381199912E+03  0.65279288168E+03  0.14729369166E+04  0.17349857627E+04  0.50400001928E-02 0. -1.
</event>
<event>
 5   0  0.1101678E-04  0.1901499E+04  0.7818609E-02  0.8654111E-01
       -2   -1    0    0    0  501  0.00000000000E+00  0.00000000000E+00  0.63542693631E+03  0.63542693631E+03  0.25500000920E-02 0. -1.
        2   -1    0    0  501    0  0.00000000000E+00  0.00000000000E+00 -0.14225463720E+04  0.14225463720E+04  0.25500000920E-02 0.  1.
    10030    2    1    2    0    0  0.00000000000E+00  0.00000000000E+00 -0.78711943571E+03  0.20579733083E+04  0.19014986541E+04 0.  0.
        4    1    3    3  502    0  0.33278510711E+03  0.80648859708E+03 -0.80247765645E+03  0.11853867667E+04  0.12699999809E+01 0.  1.
       -4    1    3    3    0  502 -0.33278510711E+03 -0.80648859708E+03  0.15358220739E+02  0.87258654160E+03  0.12699999809E+01 0. -1.
</event>
<event>
 5   0  0.1101678E-04  0.1900010E+04  0.7818609E-02  0.8654851E-01
       -2   -1    0    0    0  501  0.00000000000E+00  0.00000000000E+00  0.53113849054E+03  0.53113849055E+03  0.25500000920E-02 0. -1.
        2   -1    0    0  501    0  0.00000000000E+00  0.00000000000E+00 -0.16991977593E+04  0.16991977593E+04  0.25500000920E-02 0.  1.
    10030    2    1    2    0    0  0.00000000000E+00  0.00000000000E+00 -0.11680592688E+04  0.22303362499E+04  0.19000098242E+04 0.  0.
        4    1    3    3  502    0  0.89113390986E+02  0.12217335852E+02  0.52612782743E+03  0.53376264711E+03  0.12699999809E+01 0. -1.
       -4    1    3    3    0  502 -0.89113390986E+02 -0.12217335852E+02 -0.16941870962E+04  0.16965736028E+04  0.12699999809E+01 0.  1.
</event>
<event>
 5   0  0.1141890E-04  0.1903575E+04  0.7818609E-02  0.8653079E-01
       -2   -1    0    0    0  501  0.00000000000E+00  0.00000000000E+00  0.38443945851E+03  0.38443945852E+03  0.25500000920E-02 0. -1.
        2   -1    0    0  501    0  0.00000000000E+00  0.00000000000E+00 -0.23564167648E+04  0.23564167648E+04  0.25500000920E-02 0.  1.
    10030    2    1    2    0    0  0.00000000000E+00  0.00000000000E+00 -0.19719773063E+04  0.27408562233E+04  0.19035751470E+04 0.  0.
        2    1    3    3  502    0 -0.72829030629E+03  0.59685363624E+03 -0.11858036318E+04  0.15141899770E+04  0.25500000920E-02 0.  1.
       -2    1    3    3    0  502  0.72829030629E+03 -0.59685363624E+03 -0.78617367453E+03  0.12266662463E+04  0.25500000920E-02 0. -1.
</event>
<event>
 5   0  0.1133638E-04  0.2064517E+04  0.7818609E-02  0.8577037E-01
        2   -1    0    0  501    0  0.00000000000E+00  0.00000000000E+00  0.11042569167E+04  0.11042569167E+04  0.25500000920E-02 0.  1.
       -2   -1    0    0    0  501  0.00000000000E+00  0.00000000000E+00 -0.96495479935E+03  0.96495479935E+03  0.25500000920E-02 0. -1.
    10030    2    1    2    0    0  0.00000000000E+00  0.00000000000E+00  0.13930211732E+03  0.20692117160E+04  0.20645173881E+04 0.  0.
        3    1    3    3  502    0 -0.10318112907E+04 -0.22727828439E+02  0.89868875677E+02  0.10359669487E+04  0.10100000352E+00 0. -1.
       -3    1    3    3    0  502  0.10318112907E+04  0.22727828439E+02  0.49433241647E+02  0.10332447674E+04  0.10100000352E+00 0.  1.
</event>
<event>
 5   0  0.5579109E-05  0.1881697E+04  0.7818609E-02  0.8664021E-01
        1   -1    0    0  501    0  0.00000000000E+00  0.00000000000E+00  0.22668131558E+04  0.22668131558E+04  0.50400001928E-02 0.  1.
       -1   -1    0    0    0  501  0.00000000000E+00  0.00000000000E+00 -0.39050218309E+03  0.39050218312E+03  0.50400001928E-02 0. -1.
    10030    2    1    2    0    0  0.00000000000E+00  0.00000000000E+00  0.18763109727E+04  0.26573153389E+04  0.18816965601E+04 0.  0.
        3    1    3    3  502    0 -0.32306093712E+03 -0.51289803313E+03 -0.77997012875E+02  0.61115980373E+03  0.10100000352E+00 0. -1.
       -3    1    3    3    0  502  0.32306093712E+03  0.51289803313E+03  0.19543079856E+04  0.20461555352E+04  0.10100000352E+00 0.  1.
</event>
<event>
 5   0  0.5614989E-05  0.1901820E+04  0.7818609E-02  0.8653951E-01
       -1   -1    0    0    0  501  0.00000000000E+00  0.00000000000E+00  0.55671227593E+03  0.55671227596E+03  0.50400001928E-02 0.  1.
        1   -1    0    0  501    0  0.00000000000E+00  0.00000000000E+00 -0.16242310367E+04  0.16242310367E+04  0.50400001928E-02 0. -1.
    10030    2    1    2    0    0  0.00000000000E+00  0.00000000000E+00 -0.10675187608E+04  0.21809433127E+04  0.19018195047E+04 0.  0.
        4    1    3    3  502    0 -0.66532803629E+02 -0.42382975371E+03 -0.15069377189E+04  0.15668188076E+04  0.12699999809E+01 0. -1.
       -4    1    3    3    0  502  0.66532803629E+02  0.42382975371E+03  0.43941895816E+03  0.61412450511E+03  0.12699999809E+01 0.  1.
</event>
<event>
 5   0  0.1133638E-04  0.1903075E+04  0.7818609E-02  0.8653327E-01
        2   -1    0    0  501    0  0.00000000000E+00  0.00000000000E+00  0.11230733067E+04  0.11230733067E+04  0.25500000920E-02 0.  1.
       -2   -1    0    0    0  501  0.00000000000E+00  0.00000000000E+00 -0.80620203937E+03  0.80620203937E+03  0.25500000920E-02 0. -1.
    10030    2    1    2    0    0  0.00000000000E+00  0.00000000000E+00  0.31687126729E+03  0.19292753460E+04  0.19030753954E+04 0.  0.
        3    1    3    3  502    0 -0.39996654956E+03  0.94699386421E+02  0.10284361579E+04  0.11075297538E+04  0.10100000352E+00 0.  1.
       -3    1    3    3    0  502  0.39996654956E+03 -0.94699386421E+02 -0.71156489060E+03  0.82174559220E+03  0.10100000352E+00 0. -1.
</event>
<event>
 5   0  0.1141890E-04  0.1899980E+04  0.7818609E-02  0.8654867E-01
       -2   -1    0    0    0  501  0.00000000000E+00  0.00000000000E+00  0.11329062061E+04  0.11329062061E+04  0.25500000920E-02 0.  1.
        2   -1    0    0  501    0  0.00000000000E+00  0.00000000000E+00 -0.79660657635E+03  0.79660657636E+03  0.25500000920E-02 0. -1.
    10030    2    1    2    0    0  0.00000000000E+00  0.00000000000E+00  0.33629962974E+03  0.19295127825E+04  0.18999795095E+04 0.  0.
        2    1    3    3  502    0 -0.37814416066E+03  0.14176186694E+03  0.10413943015E+04  0.11169563664E+04  0.25500000920E-02 0.  1.
       -2    1    3    3    0  502  0.37814416066E+03 -0.14176186694E+03 -0.70509467177E+03  0.81255641608E+03  0.25500000920E-02 0. -1.
</event>
<event>
 5   0  0.5841424E-05  0.1890417E+04  0.7818609E-02  0.8659641E-01
       -1   -1    0    0    0  501  0.00000000000E+00  0.00000000000E+00  0.79531344191E+03  0.79531344193E+03  0.50400001928E-02 0. -1.
        1   -1    0    0  501    0  0.00000000000E+00  0.00000000000E+00 -0.11233552266E+04  0.11233552267E+04  0.50400001928E-02 0.  1.
    10030    2    1    2    0    0  0.00000000000E+00  0.00000000000E+00 -0.32804178473E+03  0.19186686686E+04  0.18904174267E+04 0.  0.
        1    1    3    3  502    0  0.45289820281E+03 -0.63430329104E+03 -0.70676670754E+03  0.10521295671E+04  0.50400001928E-02 0.  1.
       -1    1    3    3    0  502 -0.45289820281E+03  0.63430329104E+03  0.37872492281E+03  0.86653910144E+03  0.50400001928E-02 0. -1.
</event>
<event>
 5   0  0.1118206E-04  0.1900122E+04  0.7818609E-02  0.8654795E-01
       -2   -1    0    0    0  501  0.00000000000E+00  0.00000000000E+00  0.46754101025E+03  0.46754101026E+03  0.25500000920E-02 0. -1.
        2   -1    0    0  501    0  0.00000000000E+00  0.00000000000E+00 -0.19305605462E+04  0.19305605462E+04  0.25500000920E-02 0.  1.
    10030    2    1    2    0    0  0.00000000000E+00  0.00000000000E+00 -0.14630195359E+04  0.23981015564E+04  0.19001223415E+04 0.  0.
        1    1    3    3  502    0 -0.76711003280E+03 -0.49977834953E+03 -0.41128008611E+03  0.10036869583E+04  0.50400001928E-02 0. -1.
       -1    1    3    3    0  502  0.76711003280E+03  0.49977834953E+03 -0.10517394498E+04  0.13944145981E+04  0.50400001928E-02 0.  1.
</event>
<event>
 5   0  0.5824956E-05  0.1892819E+04  0.7818609E-02  0.8658439E-01
        1   -1    0    0  501    0  0.00000000000E+00  0.00000000000E+00  0.85452400612E+03  0.85452400613E+03  0.50400001928E-02 0. -1.
       -1   -1    0    0    0  501  0.00000000000E+00  0.00000000000E+00 -0.10481755964E+04  0.10481755964E+04  0.50400001928E-02 0.  1.
    10030    2    1    2    0    0  0.00000000000E+00  0.00000000000E+00 -0.19365159027E+03  0.19026996025E+04  0.18928192833E+04 0.  0.
        2    1    3    3  502    0  0.10374829634E+03 -0.49641164119E+03 -0.90006064169E+03  0.10331008592E+04  0.25500000920E-02 0.  1.
       -2    1    3    3    0  502 -0.10374829634E+03  0.49641164119E+03  0.70640905142E+03  0.86959874335E+03  0.25500000920E-02 0. -1.
</event>
<event>
 5   0  0.1182630E-04  0.1900300E+04  0.7818609E-02  0.8654707E-01
       -2   -1    0    0    0  501  0.00000000000E+00  0.00000000000E+00  0.43854242069E+03  0.43854242070E+03  0.25500000920E-02 0. -1.
        2   -1    0    0  501    0  0.00000000000E+00  0.00000000000E+00 -0.20586033707E+04  0.20586033707E+04  0.25500000920E-02 0.  1.
    10030    2    1    2    0    0  0.00000000000E+00  0.00000000000E+00 -0.16200609501E+04  0.24971457914E+04  0.19002998768E+04 0.  0.
        5    1    3    3  502    0  0.93171460565E+03 -0.17726642902E+03 -0.88491368463E+03  0.12971545060E+04  0.46999998093E+01 0.  1.
       -5    1    3    3    0  502 -0.93171460565E+03  0.17726642902E+03 -0.73514726543E+03  0.11999912854E+04  0.46999998093E+01 0. -1.
</event>
<event>
 5   0  0.5824956E-05  0.1901094E+04  0.7818609E-02  0.8654312E-01
        1   -1    0    0  501    0  0.00000000000E+00  0.00000000000E+00  0.23034059254E+04  0.23034059254E+04  0.50400001928E-02 0. -1.
       -1   -1    0    0    0  501  0.00000000000E+00  0.00000000000E+00 -0.39226251823E+03  0.39226251826E+03  0.50400001928E-02 0.  1.
    10030    2    1    2    0    0  0.00000000000E+00  0.00000000000E+00  0.19111434072E+04  0.26956684437E+04  0.19010942206E+04 0.  0.
        2    1    3    3  502    0 -0.85333569684E+03  0.27308604038E+02  0.15480878258E+04  0.17679093550E+04  0.25500000920E-02 0.  1.
       -2    1    3    3    0  502  0.85333569684E+03 -0.27308604038E+02  0.36305558144E+03  0.92775908866E+03  0.25500000920E-02 0. -1.
</event>
<event>
 5   0  0.5579109E-05  0.1901367E+04  0.7818609E-02  0.8654176E-01
       -1   -1    0    0    0  501  0.00000000000E+00  0.00000000000E+00  0.10856645963E+04  0.10856645963E+04  0.50400001928E-02 0. -1.
        1   -1    0    0  501    0  0.00000000000E+00  0.00000000000E+00 -0.83248429869E+03  0.83248429871E+03  0.50400001928E-02 0.  1.
    10030    2    1    2    0    0  0.00000000000E+00  0.00000000000E+00  0.25318029760E+03  0.19181488950E+04  0.19013665928E+04 0.  0.
        3    1    3    3  502    0  0.53434291971E+03  0.43242909853E+03  0.78910686522E+03  0.10465213500E+04  0.10100000352E+00 0. -1.
       -3    1    3    3    0  502 -0.53434291971E+03 -0.43242909853E+03 -0.53592656762E+03  0.87162754499E+03  0.10100000352E+00 0.  1.
</event>
<event>
 5   0  0.4061125E-05  0.1877850E+04  0.7818609E-02  0.8665961E-01
        3   -1    0    0  501    0  0.00000000000E+00  0.00000000000E+00  0.11440463023E+04  0.11440463067E+04  0.10100000352E+00 0.  1.
       -3   -1    0    0    0  501  0.00000000000E+00  0.00000000000E+00 -0.77058105648E+03  0.77058106310E+03  0.10100000352E+00 0. -1.
    10030    2    1    2    0    0  0.00000000000E+00  0.00000000000E+00  0.37346524578E+03  0.19146273698E+04  0.18778502804E+04 0.  0.
        2    1    3    3  502    0  0.40028666401E+03 -0.28531653809E+03 -0.62890037396E+03  0.79821715133E+03  0.25500000920E-02 0. -1.
       -2    1    3    3    0  502 -0.40028666401E+03  0.28531653809E+03  0.10023656197E+04  0.11164102185E+04  0.25500000920E-02 0.  1.
</event>
<event>
 5   0  0.1118206E-04  0.1901749E+04  0.7818609E-02  0.8653986E-01
        2   -1    0    0  501    0  0.00000000000E+00  0.00000000000E+00  0.65241728589E+03  0.65241728589E+03  0.25500000920E-02 0. -1.
       -2   -1    0    0    0  501  0.00000000000E+00  0.00000000000E+00 -0.13858650557E+04  0.13858650557E+04  0.25500000920E-02 0.  1.
    10030    2    1    2    0    0  0.00000000000E+00  0.00000000000E+00 -0.73344776985E+03  0.20382823416E+04  0.19017490037E+04 0.  0.
        1    1    3    3  502    0 -0.20865450212E+03  0.79557941702E+03 -0.87813791719E+03  0.12031664522E+04  0.50400001928E-02 0.  1.
       -1    1    3    3    0  502  0.20865450212E+03 -0.79557941702E+03  0.14469014734E+03  0.83511588944E+03  0.50400001928E-02 0. -1.
</event>
<event>
 5   0  0.5579109E-05  0.1894981E+04  0.7818609E-02  0.8657359E-01
        1   -1    0    0  501    0  0.00000000000E+00  0.00000000000E+00  0.62978694493E+03  0.62978694495E+03  0.50400001928E-02 0. -1.
       -1   -1    0    0    0  501  0.00000000000E+00  0.00000000000E+00 -0.14254638398E+04  0.14254638398E+04  0.50400001928E-02 0.  1.
    10030    2    1    2    0    0  0.00000000000E+00  0.00000000000E+00 -0.79567689489E+03  0.20552507848E+04  0.18949812841E+04 0.  0.
        3    1    3    3  502    0  0.36122529108E+03  0.74840133098E+03  0.95792775581E+02  0.83651929396E+03  0.10100000352E+00 0. -1.
       -3    1    3    3    0  502 -0.36122529108E+03 -0.74840133098E+03 -0.89146967047E+03  0.12187314908E+04  0.10100000352E+00 0.  1.
</event>
<event>
 5   0  0.1141890E-04  0.1890812E+04  0.7818609E-02  0.8659443E-01
        2   -1    0    0  501    0  0.00000000000E+00  0.00000000000E+00  0.10752047814E+04  0.10752047814E+04  0.25500000920E-02 0.  1.
       -2   -1    0    0    0  501  0.00000000000E+00  0.00000000000E+00 -0.83127686334E+03  0.83127686334E+03  0.25500000920E-02 0. -1.
    10030    2    1    2    0    0  0.00000000000E+00  0.00000000000E+00  0.24392791802E+03  0.19064816447E+04  0.18908123737E+04 0.  0.
        2    1    3    3  502    0  0.53764963161E+03  0.27247324113E+03  0.85634315244E+03  0.10472021716E+04  0.25500000920E-02 0.  1.
       -2    1    3    3    0  502 -0.53764963161E+03 -0.27247324113E+03 -0.61241523442E+03  0.85927947308E+03  0.25500000920E-02 0. -1.
</event>
<event>
 5   0  0.5614989E-05  0.1883202E+04  0.7818609E-02  0.8663263E-01
       -1   -1    0    0    0  501  0.00000000000E+00  0.00000000000E+00  0.71438549370E+03  0.71438549372E+03  0.50400001928E-02 0. -1.
        1   -1    0    0  501    0  0.00000000000E+00  0.00000000000E+00 -0.12410835153E+04  0.12410835153E+04  0.50400001928E-02 0.  1.
    10030    2    1    2    0    0  0.00000000000E+00  0.00000000000E+00 -0.52669802161E+03  0.19554690090E+04  0.18832015929E+04 0.  0.
        4    1    3    3  502    0  0.20054535158E+03 -0.41203459108E+03  0.59078571920E+03  0.74767661539E+03  0.12699999809E+01 0. -1.
       -4    1    3    3    0  502 -0.20054535158E+03  0.41203459108E+03 -0.11174837408E+04  0.12077923936E+04  0.12699999809E+01 0.  1.
</event>
<event>
 5   0  0.5628936E-05  0.1883166E+04  0.7818609E-02  0.8663281E-01
       -1   -1    0    0    0  501  0.00000000000E+00  0.00000000000E+00  0.68359953716E+03  0.68359953718E+03  0.50400001928E-02 0. -1.
        1   -1    0    0  501    0  0.00000000000E+00  0.00000000000E+00 -0.12969267654E+04  0.12969267654E+04  0.50400001928E-02 0.  1.
    10030    2    1    2    0    0  0.00000000000E+00  0.00000000000E+00 -0.61332722825E+03  0.19805263026E+04  0.18831659901E+04 0.  0.
        5    1    3    3  502    0  0.19101616067E+03  0.36455358209E+03  0.58397815122E+03  0.71445017947E+03  0.46999998093E+01 0. -1.
       -5    1    3    3    0  502 -0.19101616067E+03 -0.36455358209E+03 -0.11973053795E+04  0.12660761231E+04  0.46999998093E+01 0.  1.
</event>
<event>
 5   0  0.1182630E-04  0.1900637E+04  0.7818609E-02  0.8654539E-01
       -2   -1    0    0    0  501  0.00000000000E+00  0.00000000000E+00  0.58152736278E+03  0.58152736278E+03  0.25500000920E-02 0. -1.
        2   -1    0    0  501    0  0.00000000000E+00  0.00000000000E+00 -0.15529888440E+04  0.15529888440E+04  0.25500000920E-02 0.  1.
    10030    2    1    2    0    0  0.00000000000E+00  0.00000000000E+00 -0.97146148117E+03  0.21345162067E+04  0.19006372688E+04 0.  0.
        5    1    3    3  502    0 -0.55768632314E+03 -0.76941533059E+03 -0.47637287884E+03  0.10629991513E+04  0.46999998093E+01 0. -1.
       -5    1    3    3    0  502  0.55768632314E+03  0.76941533059E+03 -0.49508860234E+03  0.10715170554E+04  0.46999998093E+01 0.  1.
</event>
<event>
 5   0  0.5628936E-05  0.1884793E+04  0.7818609E-02  0.8662463E-01
        1   -1    0    0  501    0  0.00000000000E+00  0.00000000000E+00  0.83799090322E+03  0.83799090324E+03  0.50400001928E-02 0. -1.
       -1   -1    0    0    0  501  0.00000000000E+00  0.00000000000E+00 -0.10598102328E+04  0.10598102329E+04  0.50400001928E-02 0.  1.
    10030    2    1    2    0    0  0.00000000000E+00  0.00000000000E+00 -0.22181932962E+03  0.18978011361E+04  0.18847931815E+04 0.  0.
        5    1    3    3  502    0 -0.18762986899E+03  0.86523115002E+03 -0.43603025347E+03  0.98690140472E+03  0.46999998093E+01 0.  1.
       -5    1    3    3    0  502  0.18762986899E+03 -0.86523115002E+03  0.21421092385E+03  0.91089973136E+03  0.46999998093E+01 0. -1.
</event>
<event>
 5   0  0.5824956E-05  0.1917901E+04  0.7818609E-02  0.8645997E-01
       -1   -1    0    0    0  501  0.00000000000E+00  0.00000000000E+00  0.71359348675E+03  0.71359348676E+03  0.50400001928E-02 0.  1.
        1   -1    0    0  501    0  0.00000000000E+00  0.00000000000E+00 -0.12886690233E+04  0.12886690233E+04  0.50400001928E-02 0. -1.
    10030    2    1    2    0    0  0.00000000000E+00  0.00000000000E+00 -0.57507553656E+03  0.20022625101E+04  0.19179007499E+04 0.  0.
        2    1    3    3  502    0 -0.36971324302E+03  0.77043949596E+03 -0.74178699112E+03  0.11315974723E+04  0.25500000920E-02 0. -1.
       -2    1    3    3    0  502  0.36971324302E+03 -0.77043949596E+03  0.16671145457E+03  0.87066503783E+03  0.25500000920E-02 0.  1.
</event>
<event>
 5   0  0.1118206E-04  0.1879185E+04  0.7818609E-02  0.8665287E-01
        2   -1    0    0  501    0  0.00000000000E+00  0.00000000000E+00  0.87575415660E+03  0.87575415660E+03  0.25500000920E-02 0. -1.
       -2   -1    0    0    0  501  0.00000000000E+00  0.00000000000E+00 -0.10080848242E+04  0.10080848242E+04  0.25500000920E-02 0.  1.
    10030    2    1    2    0    0  0.00000000000E+00  0.00000000000E+00 -0.13233066762E+03  0.18838389808E+04  0.18791854353E+04 0.  0.
        1    1    3    3  502    0  0.49791311621E+03 -0.36581514373E+03  0.64346918478E+03  0.89207106357E+03  0.50400001928E-02 0. -1.
       -1    1    3    3    0  502 -0.49791311621E+03  0.36581514373E+03 -0.77579985240E+03  0.99176791725E+03  0.50400001928E-02 0.  1.
</event>
<event>
 5   0  0.5614989E-05  0.1885153E+04  0.7818609E-02  0.8662282E-01
        1   -1    0    0  501    0  0.00000000000E+00  0.00000000000E+00  0.15229938468E+04  0.15229938468E+04  0.50400001928E-02 0.  1.
       -1   -1    0    0    0  501  0.00000000000E+00  0.00000000000E+00 -0.58335816447E+03  0.58335816449E+03  0.50400001928E-02 0. -1.
    10030    2    1    2    0    0  0.00000000000E+00  0.00000000000E+00  0.93963568233E+03  0.21063520113E+04  0.18851534632E+04 0.  0.
        4    1    3    3  502    0  0.39612710623E+03 -0.25400515551E+03  0.13823574189E+04  0.14602564671E+04  0.12699999809E+01 0.  1.
       -4    1    3    3    0  502 -0.39612710623E+03  0.25400515551E+03 -0.44272173655E+03  0.64609554419E+03  0.12699999809E+01 0. -1.
</event>
<event>
 5   0  0.1118206E-04  0.1923524E+04  0.7818609E-02  0.8643235E-01
        2   -1    0    0  501    0  0.00000000000E+00  0.00000000000E+00  0.79997254537E+03  0.79997254538E+03  0.25500000920E-02 0.  1.
       -2   -1    0    0    0  501  0.00000000000E+00  0.00000000000E+00 -0.11562722943E+04  0.11562722943E+04  0.25500000920E-02 0. -1.
    10030    2    1    2    0    0  0.00000000000E+00  0.00000000000E+00 -0.35629974889E+03  0.19562448396E+04  0.19235239436E+04 0.  0.
        1    1    3    3  502    0 -0.44370011446E+03 -0.85220727326E+03 -0.22200017475E+03  0.98610907398E+03  0.50400001928E-02 0. -1.
       -1    1    3    3    0  502  0.44370011446E+03  0.85220727326E+03 -0.13429957413E+03  0.97013576566E+03  0.50400001928E-02 0.  1.
</event>
<event>
 5   0  0.1118206E-04  0.1890858E+04  0.7818609E-02  0.8659420E-01
       -2   -1    0    0    0  501  0.00000000000E+00  0.00000000000E+00  0.10963872753E+04  0.10963872753E+04  0.25500000920E-02 0.  1.
        2   -1    0    0  501    0  0.00000000000E+00  0.00000000000E+00 -0.81525567191E+03  0.81525567192E+03  0.25500000920E-02 0. -1.
    10030    2    1    2    0    0  0.00000000000E+00  0.00000000000E+00  0.28113160338E+03  0.19116429472E+04  0.18908579479E+04 0.  0.
        1    1    3    3  502    0  0.50913629952E+03 -0.55842647919E+03  0.71494475843E+03  0.10402912630E+04  0.50400001928E-02 0.  1.
       -1    1    3    3    0  502 -0.50913629952E+03  0.55842647919E+03 -0.43381315505E+03  0.87135168426E+03  0.50400001928E-02 0. -1.
</event>
<event>
 5   0  0.5614989E-05  0.1896393E+04  0.7818609E-02  0.8656654E-01
        1   -1    0    0  501    0  0.00000000000E+00  0.00000000000E+00  0.84967012886E+03  0.84967012887E+03  0.50400001928E-02 0. -1.
       -1   -1    0    0    0  501  0.00000000000E+00  0.00000000000E+00 -0.10581476324E+04  0.10581476324E+04  0.50400001928E-02 0.  1.
    10030    2    1    2    0    0  0.00000000000E+00  0.00000000000E+00 -0.20847750351E+03  0.19078177613E+04  0.18963928234E+04 0.  0.
        4    1    3    3  502    0 -0.77423276974E+03  0.42755244311E+03  0.23963532038E+03  0.91633191204E+03  0.12699999809E+01 0. -1.
       -4    1    3    3    0  502  0.77423276974E+03 -0.42755244311E+03 -0.44811282390E+03  0.99148584922E+03  0.12699999809E+01 0.  1.
</event>
<event>
 5   0  0.5628936E-05  0.1904502E+04  0.7818609E-02  0.8652619E-01
        1   -1    0    0  501    0  0.00000000000E+00  0.00000000000E+00  0.10417339744E+04  0.10417339744E+04  0.50400001928E-02 0. -1.
       -1   -1    0    0    0  501  0.00000000000E+00  0.00000000000E+00 -0.87045399531E+03  0.87045399532E+03  0.50400001928E-02 0.  1.
    10030    2    1    2    0    0  0.00000000000E+00  0.00000000000E+00  0.17127997909E+03  0.19121879697E+04  0.19045015097E+04 0.  0.
        5    1    3    3  502    0 -0.74061394270E+03 -0.38532003843E+03 -0.37422476690E+03  0.91490262339E+03  0.46999998093E+01 0. -1.
       -5    1    3    3    0  502  0.74061394270E+03  0.38532003843E+03  0.54550474599E+03  0.99728534634E+03  0.46999998093E+01 0.  1.
</event>
<event>
 5   0  0.1101678E-04  0.1930092E+04  0.7818609E-02  0.8640021E-01
       -2   -1    0    0    0  501  0.00000000000E+00  0.00000000000E+00  0.55872937507E+03  0.55872937507E+03  0.25500000920E-02 0. -1.
        2   -1    0    0  501    0  0.00000000000E+00  0.00000000000E+00 -0.16668419844E+04  0.16668419844E+04  0.25500000920E-02 0.  1.
    10030    2    1    2    0    0  0.00000000000E+00  0.00000000000E+00 -0.11081126093E+04  0.22255713594E+04  0.19300917908E+04 0.  0.
        4    1    3    3  502    0 -0.68333575675E+03 -0.36758438206E+02 -0.13386777351E+04  0.15034489118E+04  0.12699999809E+01 0.  1.
       -4    1    3    3    0  502  0.68333575675E+03  0.36758438206E+02  0.23056512576E+03  0.72212244762E+03  0.12699999809E+01 0. -1.
</event>
<event>
 5   0  0.5614989E-05  0.1876634E+04  0.7818609E-02  0.8666575E-01
       -1   -1    0    0    0  501  0.00000000000E+00  0.00000000000E+00  0.61378474242E+03  0.61378474244E+03  0.50400001928E-02 0.  1.
        1   -1    0    0  501    0  0.00000000000E+00  0.00000000000E+00 -0.14344421282E+04  0.14344421282E+04  0.50400001928E-02 0. -1.
    10030    2    1    2    0    0  0.00000000000E+00  0.00000000000E+00 -0.82065738581E+03  0.20482268707E+04  0.18766338931E+04 0.  0.
        4    1    3    3  502    0 -0.19062903708E+03  0.22831246150E+03  0.56097080059E+03  0.63494555820E+03  0.12699999809E+01 0.  1.
       -4    1    3    3    0  502  0.19062903708E+03 -0.22831246150E+03 -0.13816281864E+04  0.14132813125E+04  0.12699999809E+01 0. -1.
</event>
<event>
 5   0  0.5841424E-05  0.1901964E+04  0.7818609E-02  0.8653880E-01
       -1   -1    0    0    0  501  0.00000000000E+00  0.00000000000E+00  0.94136612783E+03  0.94136612785E+03  0.50400001928E-02 0. -1.
        1   -1    0    0  501    0  0.00000000000E+00  0.00000000000E+00 -0.96069566055E+03  0.96069566056E+03  0.50400001928E-02 0.  1.
    10030    2    1    2    0    0  0.00000000000E+00  0.00000000000E+00 -0.19329532713E+02  0.19020617884E+04  0.19019635685E+04 0.  0.
        1    1    3    3  502    0  0.17444222543E+03 -0.19367648463E+03  0.90494557347E+03  0.94173624847E+03  0.50400001928E-02 0. -1.
       -1    1    3    3    0  502 -0.17444222543E+03  0.19367648463E+03 -0.92427510619E+03  0.96032553994E+03  0.50400001928E-02 0.  1.
</event>
<event>
 5   0  0.5628936E-05  0.1868956E+04  0.7818609E-02  0.8670465E-01
       -1   -1    0    0    0  501  0.00000000000E+00  0.00000000000E+00  0.14072949827E+04  0.14072949827E+04  0.50400001928E-02 0.  1.
        1   -1    0    0  501    0  0.00000000000E+00  0.00000000000E+00 -0.62051613250E+03  0.62051613252E+03  0.50400001928E-02 0. -1.
    10030    2    1    2    0    0  0.00000000000E+00  0.00000000000E+00  0.78677885023E+03  0.20278111153E+04  0.18689561151E+04 0.  0.
        5    1    3    3  502    0 -0.29411423593E+03  0.47345439553E+03 -0.42040500293E+03  0.69815808017E+03  0.46999998093E+01 0. -1.
       -5    1    3    3    0  502  0.29411423593E+03 -0.47345439553E+03  0.12071838532E+04  0.13296530351E+04  0.46999998093E+01 0.  1.
</event>
<event>
 5   0  0.1101678E-04  0.1902622E+04  0.7818609E-02  0.8653552E-01
       -2   -1    0    0    0  501  0.00000000000E+00  0.00000000000E+00  0.34733411310E+03  0.34733411311E+03  0.25500000920E-02 0. -1.
        2   -1    0    0  501    0  0.00000000000E+00  0.00000000000E+00 -0.26055397727E+04  0.26055397727E+04  0.25500000920E-02 0.  1.
    10030    2    1    2    0    0  0.00000000000E+00  0.00000000000E+00 -0.22582056596E+04  0.29528738858E+04  0.19026222390E+04 0.  0.
        4    1    3    3  502    0 -0.21521151361E+03 -0.76088671767E+03 -0.30826144362E+03  0.84869978392E+03  0.12699999809E+01 0. -1.
       -4    1    3    3    0  502  0.21521151361E+03  0.76088671767E+03 -0.19499442160E+04  0.21041741019E+04  0.12699999809E+01 0.  1.
</event>
<event>
 5   0  0.1141890E-04  0.1897431E+04  0.7818609E-02  0.8656136E-01
       -2   -1    0    0    0  501  0.00000000000E+00  0.00000000000E+00  0.46896115463E+03  0.46896115464E+03  0.25500000920E-02 0.  1.
        2   -1    0    0  501    0  0.00000000000E+00  0.00000000000E+00 -0.19192648764E+04  0.19192648764E+04  0.25500000920E-02 0. -1.
    10030    2    1    2    0    0  0.00000000000E+00  0.00000000000E+00 -0.14503037217E+04  0.23882260310E+04  0.18974305494E+04 0.  0.
        2    1    3    3  502    0 -0.77083823657E+03 -0.15954144964E+03 -0.58635778211E+02  0.78935620324E+03  0.25500000920E-02 0.  1.
       -2    1    3    3    0  502  0.77083823657E+03  0.15954144964E+03 -0.13916679435E+04  0.15988698278E+04  0.25500000920E-02 0. -1.
</event>
<event>
 5   0  0.5628936E-05  0.1924738E+04  0.7818609E-02  0.8642640E-01
       -1   -1    0    0    0  501  0.00000000000E+00  0.00000000000E+00  0.62636580675E+03  0.62636580677E+03  0.50400001928E-02 0.  1.
        1   -1    0    0  501    0  0.00000000000E+00  0.00000000000E+00 -0.14786149101E+04  0.14786149101E+04  0.50400001928E-02 0. -1.
    10030    2    1    2    0    0  0.00000000000E+00  0.00000000000E+00 -0.85224910337E+03  0.21049807169E+04  0.19247377183E+04 0.  0.
        5    1    3    3  502    0  0.12569086211E+03  0.70922565268E+02  0.61445112732E+03  0.63118973450E+03  0.46999998093E+01 0.  1.
       -5    1    3    3    0  502 -0.12569086211E+03 -0.70922565268E+02 -0.14667002307E+04  0.14737909824E+04  0.46999998093E+01 0. -1.
</event>
<event>
 5   0  0.5841424E-05  0.1901057E+04  0.7818609E-02  0.8654331E-01
        1   -1    0    0  501    0  0.00000000000E+00  0.00000000000E+00  0.18183952386E+04  0.18183952386E+04  0.50400001928E-02 0.  1.
       -1   -1    0    0    0  501  0.00000000000E+00  0.00000000000E+00 -0.49686896322E+03  0.49686896325E+03  0.50400001928E-02 0. -1.
    10030    2    1    2    0    0  0.00000000000E+00  0.00000000000E+00  0.13215262754E+04  0.23152642019E+04  0.19010567135E+04 0.  0.
        1    1    3    3  502    0 -0.46683375502E+03  0.14668764481E+03 -0.33168289499E+03  0.59115527809E+03  0.50400001928E-02 0. -1.
       -1    1    3    3    0  502  0.46683375502E+03 -0.14668764481E+03  0.16532091704E+04  0.17241089238E+04  0.50400001928E-02 0.  1.
</event>
<event>
 5   0  0.1133638E-04  0.1779872E+04  0.7818609E-02  0.8717077E-01
       -2   -1    0    0    0  501  0.00000000000E+00  0.00000000000E+00  0.53776467406E+03  0.53776467406E+03  0.25500000920E-02 0. -1.
        2   -1    0    0  501    0  0.00000000000E+00  0.00000000000E+00 -0.14727379883E+04  0.14727379884E+04  0.25500000920E-02 0.  1.
    10030    2    1    2    0    0  0.00000000000E+00  0.00000000000E+00 -0.93497331429E+03  0.20105026624E+04  0.17798724272E+04 0.  0.
        3    1    3    3  502    0 -0.47366143977E+03  0.42702295203E+03  0.23365460762E+03  0.67918940433E+03  0.10100000352E+00 0. -1.
       -3    1    3    3    0  502  0.47366143977E+03 -0.42702295203E+03 -0.11686279219E+04  0.13313132581E+04  0.10100000352E+00 0.  1.
</event>
<event>
 5   0  0.1101678E-04  0.1904518E+04  0.7818609E-02  0.8652611E-01
       -2   -1    0    0    0  501  0.00000000000E+00  0.00000000000E+00  0.64728967028E+03  0.64728967029E+03  0.25500000920E-02 0. -1.
        2   -1    0    0  501    0  0.00000000000E+00  0.00000000000E+00 -0.14009140515E+04  0.14009140516E+04  0.25500000920E-02 0.  1.
    10030    2    1    2    0    0  0.00000000000E+00  0.00000000000E+00 -0.75362438127E+03  0.20482037218E+04  0.19045179910E+04 0.  0.
        4    1    3    3  502    0  0.37601684066E+02  0.48120699688E+03  0.50598412159E+03  0.69928220676E+03  0.12699999809E+01 0. -1.
       -4    1    3    3    0  502 -0.37601684066E+02 -0.48120699688E+03 -0.12596085029E+04  0.13489215151E+04  0.12699999809E+01 0.  1.
</event>
<event>
 5   0  0.1101678E-04  0.1904878E+04  0.7818609E-02  0.8652432E-01
        2   -1    0    0  501    0  0.00000000000E+00  0.00000000000E+00  0.14809164501E+04  0.14809164501E+04  0.25500000920E-02 0. -1.
       -2   -1    0    0    0  501  0.00000000000E+00  0.00000000000E+00 -0.61255324287E+03  0.61255324287E+03  0.25500000920E-02 0.  1.
    10030    2    1    2    0    0  0.00000000000E+00  0.00000000000E+00  0.86836320719E+03  0.20934696929E+04  0.19048781314E+04 0.  0.
        4    1    3    3  502    0  0.26935020250E+03 -0.55141686867E+02  0.14363558873E+04  0.14624328994E+04  0.12699999809E+01 0. -1.
       -4    1    3    3    0  502 -0.26935020250E+03  0.55141686867E+02 -0.56799268015E+03  0.63103679355E+03  0.12699999809E+01 0.  1.
</event>
<event>
 5   0  0.5579109E-05  0.1819302E+04  0.7818609E-02  0.8696102E-01
       -1   -1    0    0    0  501  0.00000000000E+00  0.00000000000E+00  0.87975651635E+03  0.87975651636E+03  0.50400001928E-02 0.  1.
        1   -1    0    0  501    0  0.00000000000E+00  0.00000000000E+00 -0.94056135826E+03  0.94056135827E+03  0.50400001928E-02 0. -1.
    10030    2    1    2    0    0  0.00000000000E+00  0.00000000000E+00 -0.60804841909E+02  0.18203178746E+04  0.18193020464E+04 0.  0.
        3    1    3    3  502    0 -0.27136206849E+03 -0.10089568895E+02 -0.89906100759E+03  0.93917510464E+03  0.10100000352E+00 0. -1.
       -3    1    3    3    0  502  0.27136206849E+03  0.10089568895E+02  0.83825616568E+03  0.88114277000E+03  0.10100000352E+00 0.  1.
</event>
<event>
 5   0  0.5628936E-05  0.1911502E+04  0.7818609E-02  0.8649152E-01
       -1   -1    0    0    0  501  0.00000000000E+00  0.00000000000E+00  0.60486661721E+03  0.60486661723E+03  0.50400001928E-02 0. -1.
        1   -1    0    0  501    0  0.00000000000E+00  0.00000000000E+00 -0.15101843181E+04  0.15101843181E+04  0.50400001928E-02 0.  1.
    10030    2    1    2    0    0  0.00000000000E+00  0.00000000000E+00 -0.90531770086E+03  0.21150509353E+04  0.19115021108E+04 0.  0.
        5    1    3    3  502    0 -0.54316777813E+03  0.23453813977E+03 -0.12831861962E+04  0.14130209759E+04  0.46999998093E+01 0.  1.
       -5    1    3    3    0  502  0.54316777813E+03 -0.23453813977E+03  0.37786849531E+03  0.70202995944E+03  0.46999998093E+01 0. -1.
</event>
<event>
 5   0  0.5579109E-05  0.1863795E+04  0.7818609E-02  0.8673091E-01
       -1   -1    0    0    0  501  0.00000000000E+00  0.00000000000E+00  0.45356704712E+03  0.45356704715E+03  0.50400001928E-02 0. -1.
        1   -1    0    0  501    0  0.00000000000E+00  0.00000000000E+00 -0.19146734411E+04  0.19146734411E+04  0.50400001928E-02 0.  1.
    10030    2    1    2    0    0  0.00000000000E+00  0.00000000000E+00 -0.14611063940E+04  0.23682404882E+04  0.18637948159E+04 0.  0.
        3    1    3    3  502    0  0.92384899256E+03  0.10313198406E+03 -0.81387176681E+03  0.12355243544E+04  0.10100000352E+00 0.  1.
       -3    1    3    3    0  502 -0.92384899256E+03 -0.10313198406E+03 -0.64723462716E+03  0.11327161339E+04  0.10100000352E+00 0. -1.
</event>
<event>
 5   0  0.5824956E-05  0.1900999E+04  0.7818609E-02  0.8654359E-01
       -1   -1    0    0    0  501  0.00000000000E+00  0.00000000000E+00  0.84743897575E+03  0.84743897576E+03  0.50400001928E-02 0. -1.
        1   -1    0    0  501    0  0.00000000000E+00  0.00000000000E+00 -0.10660933124E+04  0.10660933125E+04  0.50400001928E-02 0.  1.
    10030    2    1    2    0    0  0.00000000000E+00  0.00000000000E+00 -0.21865433669E+03  0.19135322882E+04  0.19009987110E+04 0.  0.
        2    1    3    3  502    0  0.96069149723E+02  0.93627499254E+03 -0.24290053082E+03  0.97202922336E+03  0.25500000920E-02 0. -1.
       -2    1    3    3    0  502 -0.96069149723E+02 -0.93627499254E+03  0.24246194130E+02  0.94150306485E+03  0.25500000920E-02 0.  1.
</event>
<event>
 5   0  0.1133638E-04  0.1703258E+04  0.7818609E-02  0.8759508E-01
       -2   -1    0    0    0  501  0.00000000000E+00  0.00000000000E+00  0.29757793625E+03  0.29757793627E+03  0.25500000920E-02 0.  1.
        2   -1    0    0  501    0  0.00000000000E+00  0.00000000000E+00 -0.24372500206E+04  0.24372500206E+04  0.25500000920E-02 0. -1.
    10030    2    1    2    0    0  0.00000000000E+00  0.00000000000E+00 -0.21396720843E+04  0.27348279569E+04  0.17032578563E+04 0.  0.
        3    1    3    3  502    0 -0.85139598042E+03 -0.57370189270E+01 -0.11004610573E+04  0.13913743485E+04  0.10100000352E+00 0.  1.
       -3    1    3    3    0  502  0.85139598042E+03  0.57370189270E+01 -0.10392110271E+04  0.13434536084E+04  0.10100000352E+00 0. -1.
</event>
<event>
 5   0  0.1133638E-04  0.1899218E+04  0.7818609E-02  0.8655246E-01
       -2   -1    0    0    0  501  0.00000000000E+00  0.00000000000E+00  0.10662259589E+04  0.10662259589E+04  0.25500000920E-02 0. -1.
        2   -1    0    0  501    0  0.00000000000E+00  0.00000000000E+00 -0.84574726131E+03  0.84574726132E+03  0.25500000920E-02 0.  1.
    10030    2    1    2    0    0  0.00000000000E+00  0.00000000000E+00  0.22047869762E+03  0.19119732202E+04  0.18992184547E+04 0.  0.
        3    1    3    3  502    0 -0.82769596851E+03  0.25828982988E+03  0.50009115839E+03  0.10009422708E+04  0.10100000352E+00 0. -1.
       -3    1    3    3    0  502  0.82769596851E+03 -0.25828982988E+03 -0.27961246077E+03  0.91103094949E+03  0.10100000352E+00 0.  1.
</event>
<event>
 5   0  0.5628936E-05  0.1738066E+04  0.7818609E-02  0.8739947E-01
        1   -1    0    0  501    0  0.00000000000E+00  0.00000000000E+00  0.13158342764E+04  0.13158342764E+04  0.50400001928E-02 0. -1.
       -1   -1    0    0    0  501  0.00000000000E+00  0.00000000000E+00 -0.57394646728E+03  0.57394646730E+03  0.50400001928E-02 0.  1.
    10030    2    1    2    0    0  0.00000000000E+00  0.00000000000E+00  0.74188780910E+03  0.18897807437E+04  0.17380660914E+04 0.  0.
        5    1    3    3  502    0 -0.72493761880E+03 -0.14741393829E+03  0.86674179479E+03  0.11395301002E+04  0.46999998093E+01 0. -1.
       -5    1    3    3    0  502  0.72493761880E+03  0.14741393829E+03 -0.12485398570E+03  0.75025064351E+03  0.46999998093E+01 0.  1.
</event>
<event>
 5   0  0.1141890E-04  0.1784539E+04  0.7818609E-02  0.8714565E-01
       -2   -1    0    0    0  501  0.00000000000E+00  0.00000000000E+00  0.98154795108E+03  0.98154795108E+03  0.25500000920E-02 0.  1.
        2   -1    0    0  501    0  0.00000000000E+00  0.00000000000E+00 -0.81111119975E+03  0.81111119975E+03  0.25500000920E-02 0. -1.
    10030    2    1    2    0    0  0.00000000000E+00  0.00000000000E+00  0.17043675133E+03  0.17926591508E+04  0.17845386364E+04 0.  0.
        2    1    3    3  502    0  0.17407947629E+03  0.83460423652E+03  0.34962064403E+03  0.92146757426E+03  0.25500000920E-02 0.  1.
       -2    1    3    3    0  502 -0.17407947629E+03 -0.83460423652E+03 -0.17918389270E+03  0.87119157657E+03  0.25500000920E-02 0. -1.
</event>
<event>
 5   0  0.1118206E-04  0.1887482E+04  0.7818609E-02  0.8661112E-01
        2   -1    0    0  501    0  0.00000000000E+00  0.00000000000E+00  0.69876943963E+03  0.69876943963E+03  0.25500000920E-02 0.  1.
       -2   -1    0    0    0  501  0.00000000000E+00  0.00000000000E+00 -0.12745940886E+04  0.12745940886E+04  0.25500000920E-02 0. -1.
    10030    2    1    2    0    0  0.00000000000E+00  0.00000000000E+00 -0.57582464900E+03  0.19733635283E+04  0.18874823412E+04 0.  0.
        1    1    3    3  502    0  0.11767743583E+03 -0.37378981352E+03  0.60968528761E+03  0.72476406750E+03  0.50400001928E-02 0.  1.
       -1    1    3    3    0  502 -0.11767743583E+03  0.37378981352E+03 -0.11855099366E+04  0.12485994608E+04  0.50400001928E-02 0. -1.
</event>
<event>
 5   0  0.1101678E-04  0.1906119E+04  0.7818609E-02  0.8651817E-01
       -2   -1    0    0    0  501  0.00000000000E+00  0.00000000000E+00  0.43416380352E+03  0.43416380353E+03  0.25500000920E-02 0.  1.
        2   -1    0    0  501    0  0.00000000000E+00  0.00000000000E+00 -0.20921185021E+04  0.20921185021E+04  0.25500000920E-02 0. -1.
    10030    2    1    2    0    0  0.00000000000E+00  0.00000000000E+00 -0.16579546986E+04  0.25262823057E+04  0.19061187018E+04 0.  0.
        4    1    3    3  502    0  0.18062870126E+03 -0.48166926921E+03 -0.18923116249E+04  0.19609887586E+04  0.12699999809E+01 0. -1.
       -4    1    3    3    0  502 -0.18062870126E+03  0.48166926921E+03  0.23435692626E+03  0.56529354711E+03  0.12699999809E+01 0.  1.
</event>
<event>
 5   0  0.5628936E-05  0.1892500E+04  0.7818609E-02  0.8658598E-01
        1   -1    0    0  501    0  0.00000000000E+00  0.00000000000E+00  0.16854679350E+04  0.16854679350E+04  0.50400001928E-02 0.  1.
       -1   -1    0    0    0  501  0.00000000000E+00  0.00000000000E+00 -0.53124090276E+03  0.53124090278E+03  0.50400001928E-02 0. -1.
    10030    2    1    2    0    0  0.00000000000E+00  0.00000000000E+00  0.11542270322E+04  0.22167088378E+04  0.18925004701E+04 0.  0.
        5    1    3    3  502    0  0.80628700661E+03  0.14033939510E+03  0.20803692500E+02  0.81868722138E+03  0.46999998093E+01 0. -1.
       -5    1    3    3    0  502 -0.80628700661E+03 -0.14033939510E+03  0.11334233397E+04  0.13980216164E+04  0.46999998093E+01 0.  1.
</event>
<event>
 5   0  0.1118206E-04  0.1907718E+04  0.7818609E-02  0.8651024E-01
        2   -1    0    0  501    0  0.00000000000E+00  0.00000000000E+00  0.92951398055E+03  0.92951398055E+03  0.25500000920E-02 0. -1.
       -2   -1    0    0    0  501  0.00000000000E+00  0.00000000000E+00 -0.97884202891E+03  0.97884202892E+03  0.25500000920E-02 0.  1.
    10030    2    1    2    0    0  0.00000000000E+00  0.00000000000E+00 -0.49328048364E+02  0.19083560095E+04  0.19077183761E+04 0.  0.
        1    1    3    3  502    0 -0.46893089227E+02 -0.59271915286E+03 -0.77079025508E+03  0.97346421266E+03  0.50400001928E-02 0.  1.
       -1    1    3    3    0  502  0.46893089227E+02  0.59271915286E+03  0.72146220672E+03  0.93489179680E+03  0.50400001928E-02 0. -1.
</event>
<event>
 5   0  0.1133638E-04  0.1907876E+04  0.7818609E-02  0.8650946E-01
       -2   -1    0    0    0  501  0.00000000000E+00  0.00000000000E+00  0.40832451147E+03  0.40832451148E+03  0.25500000920E-02 0.  1.
        2   -1    0    0  501    0  0.00000000000E+00  0.00000000000E+00 -0.22286128017E+04  0.22286128017E+04  0.25500000920E-02 0. -1.
    10030    2    1    2    0    0  0.00000000000E+00  0.00000000000E+00 -0.18202882903E+04  0.26369373132E+04  0.19078755028E+04 0.  0.
        3    1    3    3  502    0 -0.52100591832E+03 -0.20461338027E+03 -0.19777765805E+04  0.20554595629E+04  0.10100000352E+00 0. -1.
       -3    1    3    3    0  502  0.52100591832E+03  0.20461338027E+03  0.15748829023E+03  0.58147775028E+03  0.10100000352E+00 0.  1.
</event>
<event>
 5   0  0.5614989E-05  0.1908966E+04  0.7818609E-02  0.8650406E-01
       -1   -1    0    0    0  501  0.00000000000E+00  0.00000000000E+00  0.75762062779E+03  0.75762062780E+03  0.50400001928E-02 0.  1.
        1   -1    0    0  501    0  0.00000000000E+00  0.00000000000E+00 -0.12024988478E+04  0.12024988478E+04  0.50400001928E-02 0. -1.
    10030    2    1    2    0    0  0.00000000000E+00  0.00000000000E+00 -0.44487822003E+03  0.19601194756E+04  0.19089661412E+04 0.  0.
        4    1    3    3  502    0  0.49549536563E+02  0.69958421255E+02  0.75365868419E+03  0.75851984973E+03  0.12699999809E+01 0.  1.
       -4    1    3    3    0  502 -0.49549536563E+02 -0.69958421255E+02 -0.11985369042E+04  0.12015996259E+04  0.12699999809E+01 0. -1.
</event>
<event>
 5   0  0.1182630E-04  0.1868409E+04  0.7818609E-02  0.8670743E-01
        2   -1    0    0  501    0  0.00000000000E+00  0.00000000000E+00  0.12053333610E+04  0.12053333610E+04  0.25500000920E-02 0. -1.
       -2   -1    0    0    0  501  0.00000000000E+00  0.00000000000E+00 -0.72406355616E+03  0.72406355617E+03  0.25500000920E-02 0.  1.
    10030    2    1    2    0    0  0.00000000000E+00  0.00000000000E+00  0.48126980482E+03  0.19293969172E+04  0.18684089057E+04 0.  0.
        5    1    3    3  502    0 -0.43089402791E+03 -0.77235083002E+03  0.55132176403E+03  0.10421963565E+04  0.46999998093E+01 0.  1.
       -5    1    3    3    0  502  0.43089402791E+03  0.77235083002E+03 -0.70051959202E+02  0.88720056070E+03  0.46999998093E+01 0. -1.
</event>
<event>
 5   0  0.1141890E-04  0.1913528E+04  0.7818609E-02  0.8648152E-01
        2   -1    0    0  501    0  0.00000000000E+00  0.00000000000E+00  0.14233571785E+04  0.14233571785E+04  0.25500000920E-02 0. -1.
       -2   -1    0    0    0  501  0.00000000000E+00  0.00000000000E+00 -0.64312576757E+03  0.64312576757E+03  0.25500000920E-02 0.  1.
    10030    2    1    2    0    0  0.00000000000E+00  0.00000000000E+00  0.78023141093E+03  0.20664829461E+04  0.19135283410E+04 0.  0.
        2    1    3    3  502    0 -0.68848125515E+03  0.43318531626E+03  0.93410814926E+03  0.12386339215E+04  0.25500000920E-02 0. -1.
       -2    1    3    3    0  502  0.68848125515E+03 -0.43318531626E+03 -0.15387673833E+03  0.82784902460E+03  0.25500000920E-02 0.  1.
</event>
<event>
 5   0  0.1141890E-04  0.1906658E+04  0.7818609E-02  0.8651550E-01
       -2   -1    0    0    0  501  0.00000000000E+00  0.00000000000E+00  0.11978679965E+04  0.11978679965E+04  0.25500000920E-02 0. -1.
        2   -1    0    0  501    0  0.00000000000E+00  0.00000000000E+00 -0.75871108072E+03  0.75871108073E+03  0.25500000920E-02 0.  1.
    10030    2    1    2    0    0  0.00000000000E+00  0.00000000000E+00  0.43915691573E+03  0.19565790772E+04  0.19066575174E+04 0.  0.
        2    1    3    3  502    0 -0.67086877104E+03 -0.38413196068E+02  0.91352026968E+03  0.11340457507E+04  0.25500000920E-02 0. -1.
       -2    1    3    3    0  502  0.67086877104E+03  0.38413196068E+02 -0.47436335395E+03  0.82253332647E+03  0.25500000920E-02 0.  1.
</event>
<event>
 5   0  0.5579109E-05  0.1915088E+04  0.7818609E-02  0.8647382E-01
       -1   -1    0    0    0  501  0.00000000000E+00  0.00000000000E+00  0.88295811562E+03  0.88295811563E+03  0.50400001928E-02 0. -1.
        1   -1    0    0  501    0  0.00000000000E+00  0.00000000000E+00 -0.10384304859E+04  0.10384304859E+04  0.50400001928E-02 0.  1.
    10030    2    1    2    0    0  0.00000000000E+00  0.00000000000E+00 -0.15547237024E+03  0.19213886015E+04  0.19150881181E+04 0.  0.
        3    1    3    3  502    0  0.17757763852E+03 -0.58841727403E+03  0.65892864911E+03  0.90108583437E+03  0.10100000352E+00 0. -1.
       -3    1    3    3    0  502 -0.17757763852E+03  0.58841727403E+03 -0.81440101936E+03  0.10203027671E+04  0.10100000352E+00 0.  1.
</event>
<event>
 5   0  0.5824956E-05  0.1904922E+04  0.7818609E-02  0.8652410E-01
        1   -1    0    0  501    0  0.00000000000E+00  0.00000000000E+00  0.16925065181E+04  0.16925065181E+04  0.50400001928E-02 0.  1.
       -1   -1    0    0    0  501  0.00000000000E+00  0.00000000000E+00 -0.53599937131E+03  0.53599937134E+03  0.50400001928E-02 0. -1.
    10030    2    1    2    0    0  0.00000000000E+00  0.00000000000E+00  0.11565071468E+04  0.22285058894E+04  0.19049224968E+04 0.  0.
        2    1    3    3  502    0 -0.42991799958E+03  0.63905532354E+03  0.12337562826E+04  0.14544331397E+04  0.25500000920E-02 0.  1.
       -2    1    3    3    0  502  0.42991799958E+03 -0.63905532354E+03 -0.77249135845E+02  0.77407274974E+03  0.25500000920E-02 0. -1.
</event>
<event>
 5   0  0.1118206E-04  0.1887031E+04  0.7818609E-02  0.8661339E-01
        2   -1    0    0  501    0  0.00000000000E+00  0.00000000000E+00  0.10905675067E+04  0.10905675068E+04  0.25500000920E-02 0.  1.
       -2   -1    0    0    0  501  0.00000000000E+00  0.00000000000E+00 -0.81629238943E+03  0.81629238944E+03  0.25500000920E-02 0. -1.
    10030    2    1    2    0    0  0.00000000000E+00  0.00000000000E+00  0.27427511731E+03  0.19068598962E+04  0.18870314846E+04 0.  0.
        1    1    3    3  502    0  0.58203569817E+02 -0.86320212045E+03 -0.24327048716E+03  0.89871357297E+03  0.50400001928E-02 0. -1.
       -1    1    3    3    0  502 -0.58203569817E+02  0.86320212045E+03  0.51754560447E+03  0.10081463232E+04  0.50400001928E-02 0.  1.
</event>
<event>
 5   0  0.5824956E-05  0.1884999E+04  0.7818609E-02  0.8662360E-01
        1   -1    0    0  501    0  0.00000000000E+00  0.00000000000E+00  0.96294314908E+03  0.96294314910E+03  0.50400001928E-02 0. -1.
       -1   -1    0    0    0  501  0.00000000000E+00  0.00000000000E+00 -0.92248946175E+03  0.92248946176E+03  0.50400001928E-02 0.  1.
    10030    2    1    2    0    0  0.00000000000E+00  0.00000000000E+00  0.40453687336E+02  0.18854326109E+04  0.18849985754E+04 0.  0.
        2    1    3    3  502    0 -0.40779792679E+02 -0.90072928826E+03  0.29475072076E+03  0.94860646720E+03  0.25500000920E-02 0. -1.
       -2    1    3    3    0  502  0.40779792679E+02  0.90072928826E+03 -0.25429703342E+03  0.93682614365E+03  0.25500000920E-02 0.  1.
</event>
<event>
 5   0  0.5628936E-05  0.1905892E+04  0.7818609E-02  0.8651929E-01
        1   -1    0    0  501    0  0.00000000000E+00  0.00000000000E+00  0.93518578505E+03  0.93518578506E+03  0.50400001928E-02 0.  1.
       -1   -1    0    0    0  501  0.00000000000E+00  0.00000000000E+00 -0.97104384925E+03  0.97104384926E+03  0.50400001928E-02 0. -1.
    10030    2    1    2    0    0  0.00000000000E+00  0.00000000000E+00 -0.35858064197E+02  0.19062296343E+04  0.19058923417E+04 0.  0.
        5    1    3    3  502    0  0.47010204620E+03  0.72658483450E+03  0.38109377323E+03  0.94560880366E+03  0.46999998093E+01 0. -1.
       -5    1    3    3    0  502 -0.47010204620E+03 -0.72658483450E+03 -0.41695183743E+03  0.96062083066E+03  0.46999998093E+01 0.  1.
</event>
<event>
 5   0  0.1182630E-04  0.1892227E+04  0.7818609E-02  0.8658735E-01
       -2   -1    0    0    0  501  0.00000000000E+00  0.00000000000E+00  0.10657393824E+04  0.10657393824E+04  0.25500000920E-02 0.  1.
        2   -1    0    0  501    0  0.00000000000E+00  0.00000000000E+00 -0.83991510050E+03  0.83991510051E+03  0.25500000920E-02 0. -1.
    10030    2    1    2    0    0  0.00000000000E+00  0.00000000000E+00  0.22582428194E+03  0.19056544830E+04  0.18922268369E+04 0.  0.
        5    1    3    3  502    0 -0.20029432896E+03  0.55568451178E+03 -0.63138947887E+03  0.86462584907E+03  0.46999998093E+01 0. -1.
       -5    1    3    3    0  502  0.20029432896E+03 -0.55568451178E+03  0.85721376081E+03  0.10410286339E+04  0.46999998093E+01 0.  1.
</event>
<event>
 5   0  0.5824956E-05  0.1884279E+04  0.7818609E-02  0.8662721E-01
        1   -1    0    0  501    0  0.00000000000E+00  0.00000000000E+00  0.16260059418E+04  0.16260059418E+04  0.50400001928E-02 0. -1.
       -1   -1    0    0    0  501  0.00000000000E+00  0.00000000000E+00 -0.54589405424E+03  0.54589405426E+03  0.50400001928E-02 0.  1.
    10030    2    1    2    0    0  0.00000000000E+00  0.00000000000E+00  0.10801118876E+04  0.21718999961E+04  0.18842791469E+04 0.  0.
        2    1    3    3  502    0 -0.36351104638E+03  0.76672368158E+03  0.10119662178E+04  0.13206366308E+04  0.25500000920E-02 0. -1.
       -2    1    3    3    0  502  0.36351104638E+03 -0.76672368158E+03  0.68145669817E+02  0.85126336528E+03  0.25500000920E-02 0.  1.
</event>
<event>
 5   0  0.5579109E-05  0.1896709E+04  0.7818609E-02  0.8656496E-01
       -1   -1    0    0    0  501  0.00000000000E+00  0.00000000000E+00  0.98961366646E+03  0.98961366648E+03  0.50400001928E-02 0. -1.
        1   -1    0    0  501    0  0.00000000000E+00  0.00000000000E+00 -0.90881509184E+03  0.90881509186E+03  0.50400001928E-02 0.  1.
    10030    2    1    2    0    0  0.00000000000E+00  0.00000000000E+00  0.80798574621E+02  0.18984287583E+04  0.18967085545E+04 0.  0.
        3    1    3    3  502    0  0.69844628979E+03 -0.62876644997E+03 -0.87000702325E+02  0.94379213853E+03  0.10100000352E+00 0. -1.
       -3    1    3    3    0  502 -0.69844628979E+03  0.62876644997E+03  0.16779927695E+03  0.95463661981E+03  0.10100000352E+00 0.  1.
</event>
<event>
 5   0  0.5628936E-05  0.1903339E+04  0.7818609E-02  0.8653196E-01
       -1   -1    0    0    0  501  0.00000000000E+00  0.00000000000E+00  0.10027486253E+04  0.10027486253E+04  0.50400001928E-02 0. -1.
        1   -1    0    0  501    0  0.00000000000E+00  0.00000000000E+00 -0.90319255856E+03  0.90319255857E+03  0.50400001928E-02 0.  1.
    10030    2    1    2    0    0  0.00000000000E+00  0.00000000000E+00  0.99556066753E+02  0.19059411839E+04  0.19033392725E+04 0.  0.
        5    1    3    3  502    0  0.85775851467E+03  0.13243620254E+03 -0.34109386973E+03  0.93255355621E+03  0.46999998093E+01 0.  1.
       -5    1    3    3    0  502 -0.85775851467E+03 -0.13243620254E+03  0.44064993648E+03  0.97338762769E+03  0.46999998093E+01 0. -1.
</event>
<event>
 5   0  0.1141890E-04  0.1905712E+04  0.7818609E-02  0.8652018E-01
       -2   -1    0    0    0  501  0.00000000000E+00  0.00000000000E+00  0.88728567769E+03  0.88728567770E+03  0.25500000920E-02 0. -1.
        2   -1    0    0  501    0  0.00000000000E+00  0.00000000000E+00 -0.10232724742E+04  0.10232724742E+04  0.25500000920E-02 0.  1.
    10030    2    1    2    0    0  0.00000000000E+00  0.00000000000E+00 -0.13598679649E+03  0.19105581519E+04  0.19057124765E+04 0.  0.
        2    1    3    3  502    0  0.84063659211E+03  0.10013866777E+03  0.37042550761E+03  0.92407396320E+03  0.25500000920E-02 0. -1.
       -2    1    3    3    0  502 -0.84063659211E+03 -0.10013866777E+03 -0.50641230410E+03  0.98648418868E+03  0.25500000920E-02 0.  1.
</event>
<event>
 5   0  0.1118206E-04  0.1904185E+04  0.7818609E-02  0.8652776E-01
        2   -1    0    0  501    0  0.00000000000E+00  0.00000000000E+00  0.89718976864E+03  0.89718976864E+03  0.25500000920E-02 0. -1.
       -2   -1    0    0    0  501  0.00000000000E+00  0.00000000000E+00 -0.10103546118E+04  0.10103546118E+04  0.25500000920E-02 0.  1.
    10030    2    1    2    0    0  0.00000000000E+00  0.00000000000E+00 -0.11316484320E+03  0.19075443805E+04  0.19041846764E+04 0.  0.
        1    1    3    3  502    0 -0.86900466341E+03 -0.38783067383E+03 -0.86603343390E+02  0.95555317785E+03  0.50400001928E-02 0.  1.
       -1    1    3    3    0  502  0.86900466341E+03  0.38783067383E+03 -0.26561499809E+02  0.95199120263E+03  0.50400001928E-02 0. -1.
</event>
<event>
 5   0  0.5579109E-05  0.1894390E+04  0.7818609E-02  0.8657654E-01
       -1   -1    0    0    0  501  0.00000000000E+00  0.00000000000E+00  0.73077096554E+03  0.73077096555E+03  0.50400001928E-02 0. -1.
        1   -1    0    0  501    0  0.00000000000E+00  0.00000000000E+00 -0.12277149525E+04  0.12277149525E+04  0.50400001928E-02 0.  1.
    10030    2    1    2    0    0  0.00000000000E+00  0.00000000000E+00 -0.49694398697E+03  0.19584859181E+04  0.18943900773E+04 0.  0.
        3    1    3    3  502    0 -0.95892859420E+02  0.38259604894E+03 -0.11387729835E+04  0.12051469186E+04  0.10100000352E+00 0.  1.
       -3    1    3    3    0  502  0.95892859420E+02 -0.38259604894E+03  0.64182899655E+03  0.75333899950E+03  0.10100000352E+00 0. -1.
</event>
<event>
 5   0  0.1118206E-04  0.1891033E+04  0.7818609E-02  0.8659333E-01
        2   -1    0    0  501    0  0.00000000000E+00  0.00000000000E+00  0.18737594544E+04  0.18737594544E+04  0.25500000920E-02 0.  1.
       -2   -1    0    0    0  501  0.00000000000E+00  0.00000000000E+00 -0.47711643613E+03  0.47711643613E+03  0.25500000920E-02 0. -1.
    10030    2    1    2    0    0  0.00000000000E+00  0.00000000000E+00  0.13966430183E+04  0.23508758905E+04  0.18910329802E+04 0.  0.
        1    1    3    3  502    0  0.39710077251E+03 -0.59541004741E+03 -0.69832239502E+02  0.71908183803E+03  0.50400001928E-02 0. -1.
       -1    1    3    3    0  502 -0.39710077251E+03  0.59541004741E+03  0.14664752578E+04  0.16317940525E+04  0.50400001928E-02 0.  1.
</event>
<event>
 5   0  0.1118206E-04  0.1866140E+04  0.7818609E-02  0.8671897E-01
       -2   -1    0    0    0  501  0.00000000000E+00  0.00000000000E+00  0.64860388257E+03  0.64860388258E+03  0.25500000920E-02 0. -1.
        2   -1    0    0  501    0  0.00000000000E+00  0.00000000000E+00 -0.13422983398E+04  0.13422983398E+04  0.25500000920E-02 0.  1.
    10030    2    1    2    0    0  0.00000000000E+00  0.00000000000E+00 -0.69369445721E+03  0.19909022224E+04  0.18661403107E+04 0.  0.
        1    1    3    3  502    0  0.34659738671E+03  0.29838730075E+02  0.57683028892E+03  0.67361211429E+03  0.50400001928E-02 0. -1.
       -1    1    3    3    0  502 -0.34659738671E+03 -0.29838730075E+02 -0.12705247461E+04  0.13172901081E+04  0.50400001928E-02 0.  1.
</event>
<event>
 5   0  0.1182630E-04  0.1905370E+04  0.7818609E-02  0.8652188E-01
        2   -1    0    0  501    0  0.00000000000E+00  0.00000000000E+00  0.17301793710E+04  0.17301793710E+04  0.25500000920E-02 0. -1.
       -2   -1    0    0    0  501  0.00000000000E+00  0.00000000000E+00 -0.52457510252E+03  0.52457510253E+03  0.25500000920E-02 0.  1.
    10030    2    1    2    0    0  0.00000000000E+00  0.00000000000E+00  0.12056042684E+04  0.22547544735E+04  0.19053703272E+04 0.  0.
        5    1    3    3  502    0 -0.88228322342E+03  0.29085431432E+03  0.85262179867E+03  0.12609543767E+04  0.46999998093E+01 0. -1.
       -5    1    3    3    0  502  0.88228322342E+03 -0.29085431432E+03  0.35298246977E+03  0.99380009682E+03  0.46999998093E+01 0.  1.
</event>
<event>
 5   0  0.1133638E-04  0.1911013E+04  0.7818609E-02  0.8649394E-01
        2   -1    0    0  501    0  0.00000000000E+00  0.00000000000E+00  0.13252081638E+04  0.13252081638E+04  0.25500000920E-02 0. -1.
       -2   -1    0    0    0  501  0.00000000000E+00  0.00000000000E+00 -0.68894295184E+03  0.68894295184E+03  0.25500000920E-02 0.  1.
    10030    2    1    2    0    0  0.00000000000E+00  0.00000000000E+00  0.63626521193E+03  0.20141511156E+04  0.19110131597E+04 0.  0.
        3    1    3    3  502    0 -0.21160661358E+03  0.45795708953E+03 -0.53713734909E+03  0.73689795545E+03  0.10100000352E+00 0.  1.
       -3    1    3    3    0  502  0.21160661358E+03 -0.45795708953E+03  0.11734025610E+04  0.12772531602E+04  0.10100000352E+00 0. -1.
</event>
<event>
 5   0  0.5841424E-05  0.1906759E+04  0.7818609E-02  0.8651499E-01
       -1   -1    0    0    0  501  0.00000000000E+00  0.00000000000E+00  0.87965270161E+03  0.87965270162E+03  0.50400001928E-02 0.  1.
        1   -1    0    0  501    0  0.00000000000E+00  0.00000000000E+00 -0.10332857652E+04  0.10332857652E+04  0.50400001928E-02 0. -1.
    10030    2    1    2    0    0  0.00000000000E+00  0.00000000000E+00 -0.15363306356E+03  0.19129384668E+04  0.19067591509E+04 0.  0.
        1    1    3    3  502    0 -0.37358640197E+03 -0.17815430729E+03  0.78481884503E+03  0.88726905529E+03  0.50400001928E-02 0.  1.
       -1    1    3    3    0  502  0.37358640197E+03  0.17815430729E+03 -0.93845190859E+03  0.10256694115E+04  0.50400001928E-02 0. -1.
</event>
<event>
 5   0  0.5841424E-05  0.1906289E+04  0.7818609E-02  0.8651732E-01
        1   -1    0    0  501    0  0.00000000000E+00  0.00000000000E+00  0.17257941021E+04  0.17257941021E+04  0.50400001928E-02 0. -1.
       -1   -1    0    0    0  501  0.00000000000E+00  0.00000000000E+00 -0.52641537203E+03  0.52641537206E+03  0.50400001928E-02 0.  1.
    10030    2    1    2    0    0  0.00000000000E+00  0.00000000000E+00  0.11993787300E+04  0.22522094741E+04  0.19062891117E+04 0.  0.
        1    1    3    3  502    0  0.24601836321E+02 -0.41663782463E+03  0.16120948194E+04  0.16652453375E+04  0.50400001928E-02 0. -1.
       -1    1    3    3    0  502 -0.24601836321E+02  0.41663782463E+03 -0.41271608936E+03  0.58696413665E+03  0.50400001928E-02 0.  1.
</event>
<event>
 5   0  0.5579109E-05  0.1874248E+04  0.7818609E-02  0.8667782E-01
       -1   -1    0    0    0  501  0.00000000000E+00  0.00000000000E+00  0.50101851481E+03  0.50101851483E+03  0.50400001928E-02 0. -1.
        1   -1    0    0  501    0  0.00000000000E+00  0.00000000000E+00 -0.17528315414E+04  0.17528315415E+04  0.50400001928E-02 0.  1.
    10030    2    1    2    0    0  0.00000000000E+00  0.00000000000E+00 -0.12518130266E+04  0.22538500563E+04  0.18742476417E+04 0.  0.
        3    1    3    3  502    0  0.24120685805E+03  0.52528124646E+03 -0.15129346045E+04  0.16195901530E+04  0.10100000352E+00 0.  1.
       -3    1    3    3    0  502 -0.24120685805E+03 -0.52528124646E+03  0.26112157782E+03  0.63425990324E+03  0.10100000352E+00 0. -1.
</event>
<event>
 5   0  0.1182630E-04  0.1906241E+04  0.7818609E-02  0.8651756E-01
        2   -1    0    0  501    0  0.00000000000E+00  0.00000000000E+00  0.16019154814E+04  0.16019154814E+04  0.25500000920E-02 0.  1.
       -2   -1    0    0    0  501  0.00000000000E+00  0.00000000000E+00 -0.56709538406E+03  0.56709538407E+03  0.25500000920E-02 0. -1.
    10030    2    1    2    0    0  0.00000000000E+00  0.00000000000E+00  0.10348200973E+04  0.21690108654E+04  0.19062411969E+04 0.  0.
        5    1    3    3  502    0  0.20968403675E+02  0.81493127489E+03 -0.44488405566E+02  0.81642756260E+03  0.46999998093E+01 0. -1.
       -5    1    3    3    0  502 -0.20968403675E+02 -0.81493127489E+03  0.10793085029E+04  0.13525833028E+04  0.46999998093E+01 0.  1.
</event>
<event>
 5   0  0.1118206E-04  0.1893445E+04  0.7818609E-02  0.8658126E-01
       -2   -1    0    0    0  501  0.00000000000E+00  0.00000000000E+00  0.63542668299E+03  0.63542668300E+03  0.25500000920E-02 0. -1.
        2   -1    0    0  501    0  0.00000000000E+00  0.00000000000E+00 -0.14105222744E+04  0.14105222744E+04  0.25500000920E-02 0.  1.
    10030    2    1    2    0    0  0.00000000000E+00  0.00000000000E+00 -0.77509559136E+03  0.20459489574E+04  0.18934449980E+04 0.  0.
        1    1    3    3  502    0 -0.57637799551E+03  0.55904798417E+03 -0.92947787032E+03  0.12282814636E+04  0.50400001928E-02 0.  1.
       -1    1    3    3    0  502  0.57637799551E+03 -0.55904798417E+03  0.15438227896E+03  0.81766749379E+03  0.50400001928E-02 0. -1.
</event>
<event>
 5   0  0.5628936E-05  0.1877565E+04  0.7818609E-02  0.8666105E-01
        1   -1    0    0  501    0  0.00000000000E+00  0.00000000000E+00  0.86549192922E+03  0.86549192924E+03  0.50400001928E-02 0.  1.
       -1   -1    0    0    0  501  0.00000000000E+00  0.00000000000E+00 -0.10182788928E+04  0.10182788928E+04  0.50400001928E-02 0. -1.
    10030    2    1    2    0    0  0.00000000000E+00  0.00000000000E+00 -0.15278696358E+03  0.18837708221E+04  0.18775645538E+04 0.  0.
        5    1    3    3  502    0  0.21813736085E+03  0.16639532133E+03  0.82435961463E+03  0.86882804708E+03  0.46999998093E+01 0.  1.
       -5    1    3    3    0  502 -0.21813736085E+03 -0.16639532133E+03 -0.97714657821E+03  0.10149427750E+04  0.46999998093E+01 0. -1.
</event>
<event>
 5   0  0.5628936E-05  0.1899728E+04  0.7818609E-02  0.8654992E-01
       -1   -1    0    0    0  501  0.00000000000E+00  0.00000000000E+00  0.10340876756E+04  0.10340876756E+04  0.50400001928E-02 0. -1.
        1   -1    0    0  501    0  0.00000000000E+00  0.00000000000E+00 -0.87250000420E+03  0.87250000421E+03  0.50400001928E-02 0.  1.
    10030    2    1    2    0    0  0.00000000000E+00  0.00000000000E+00  0.16158767143E+03  0.19065876798E+04  0.18997278767E+04 0.  0.
        5    1    3    3  502    0 -0.76015562833E+03 -0.50983538909E+03  0.33558199032E+03  0.97488771942E+03  0.46999998093E+01 0. -1.
       -5    1    3    3    0  502  0.76015562833E+03  0.50983538909E+03 -0.17399431889E+03  0.93169996043E+03  0.46999998093E+01 0.  1.
</event>
<event>
 5   0  0.1118206E-04  0.1902662E+04  0.7818609E-02  0.8653532E-01
       -2   -1    0    0    0  501  0.00000000000E+00  0.00000000000E+00  0.89749010406E+03  0.89749010406E+03  0.25500000920E-02 0.  1.
        2   -1    0    0  501    0  0.00000000000E+00  0.00000000000E+00 -0.10084021316E+04  0.10084021316E+04  0.25500000920E-02 0. -1.
    10030    2    1    2    0    0  0.00000000000E+00  0.00000000000E+00 -0.11091202753E+03  0.19058922356E+04  0.19026622759E+04 0.  0.
        1    1    3    3  502    0 -0.61303734341E+03 -0.54173296953E+02  0.67122806540E+03  0.91065726062E+03  0.50400001928E-02 0.  1.
       -1    1    3    3    0  502  0.61303734341E+03  0.54173296953E+02 -0.78214009293E+03  0.99523497502E+03  0.50400001928E-02 0. -1.
</event>
<event>
 5   0  0.5579109E-05  0.2071785E+04  0.7818609E-02  0.8573775E-01
       -1   -1    0    0    0  501  0.00000000000E+00  0.00000000000E+00  0.10070991474E+04  0.10070991474E+04  0.50400001928E-02 0. -1.
        1   -1    0    0  501    0  0.00000000000E+00  0.00000000000E+00 -0.10655094950E+04  0.10655094950E+04  0.50400001928E-02 0.  1.
    10030    2    1    2    0    0  0.00000000000E+00  0.00000000000E+00 -0.58410347621E+02  0.20726086424E+04  0.20717854174E+04 0.  0.
        3    1    3    3  502    0 -0.93736832199E+03  0.42643951465E+03  0.82927111311E+02  0.10331442042E+04  0.10100000352E+00 0. -1.
       -3    1    3    3    0  502  0.93736832199E+03 -0.42643951465E+03 -0.14133745893E+03  0.10394644382E+04  0.10100000352E+00 0.  1.
</event>
<event>
 5   0  0.5824956E-05  0.1921013E+04  0.7818609E-02  0.8644467E-01
       -1   -1    0    0    0  501  0.00000000000E+00  0.00000000000E+00  0.14256043343E+04  0.14256043343E+04  0.50400001928E-02 0. -1.
        1   -1    0    0  501    0  0.00000000000E+00  0.00000000000E+00 -0.64714474113E+03  0.64714474115E+03  0.50400001928E-02 0.  1.
    10030    2    1    2    0    0  0.00000000000E+00  0.00000000000E+00  0.77845959313E+03  0.20727490754E+04  0.19210125954E+04 0.  0.
        2    1    3    3  502    0  0.52912577112E+03 -0.75943991896E+03  0.66611007238E+03  0.11403620919E+04  0.25500000920E-02 0. -1.
       -2    1    3    3    0  502 -0.52912577112E+03  0.75943991896E+03  0.11234952075E+03  0.93238698349E+03  0.25500000920E-02 0.  1.
</event>
<event>
 5   0  0.5614989E-05  0.1916512E+04  0.7818609E-02  0.8646681E-01
       -1   -1    0    0    0  501  0.00000000000E+00  0.00000000000E+00  0.98722898004E+03  0.98722898005E+03  0.50400001928E-02 0. -1.
        1   -1    0    0  501    0  0.00000000000E+00  0.00000000000E+00 -0.93013300427E+03  0.93013300428E+03  0.50400001928E-02 0.  1.
    10030    2    1    2    0    0  0.00000000000E+00  0.00000000000E+00  0.57095975764E+02  0.19173619843E+04  0.19165116823E+04 0.  0.
        4    1    3    3  502    0  0.28187031368E+03 -0.48110503409E+03  0.80821378495E+03  0.98189819362E+03  0.12699999809E+01 0. -1.
       -4    1    3    3    0  502 -0.28187031368E+03  0.48110503409E+03 -0.75111780918E+03  0.93546379071E+03  0.12699999809E+01 0.  1.
</event>
<event>
 5   0  0.5614989E-05  0.1902883E+04  0.7818609E-02  0.8653422E-01
        1   -1    0    0  501    0  0.00000000000E+00  0.00000000000E+00  0.23973275708E+04  0.23973275708E+04  0.50400001928E-02 0.  1.
       -1   -1    0    0    0  501  0.00000000000E+00  0.00000000000E+00 -0.37760432922E+03  0.37760432926E+03  0.50400001928E-02 0. -1.
    10030    2    1    2    0    0  0.00000000000E+00  0.00000000000E+00  0.20197232415E+04  0.27749319000E+04  0.19028833588E+04 0.  0.
        4    1    3    3  502    0  0.19131556853E+03 -0.90245705977E+03  0.67033258460E+03  0.11403410798E+04  0.12699999809E+01 0. -1.
       -4    1    3    3    0  502 -0.19131556853E+03  0.90245705977E+03  0.13493906569E+04  0.16345908202E+04  0.12699999809E+01 0.  1.
</event>
<event>
 5   0  0.5841424E-05  0.1868323E+04  0.7818609E-02  0.8670787E-01
        1   -1    0    0  501    0  0.00000000000E+00  0.00000000000E+00  0.10528790934E+04  0.10528790934E+04  0.50400001928E-02 0.  1.
       -1   -1    0    0    0  501  0.00000000000E+00  0.00000000000E+00 -0.82882966315E+03  0.82882966316E+03  0.50400001928E-02 0. -1.
    10030    2    1    2    0    0  0.00000000000E+00  0.00000000000E+00  0.22404943029E+03  0.18817087566E+04  0.18683226963E+04 0.  0.
        1    1    3    3  502    0  0.25432214732E+03 -0.61277892961E+03  0.77436833358E+03  0.10197176508E+04  0.50400001928E-02 0.  1.
       -1    1    3    3    0  502 -0.25432214732E+03  0.61277892961E+03 -0.55031890330E+03  0.86199110584E+03  0.50400001928E-02 0. -1.
</event>
<event>
 5   0  0.5579109E-05  0.1902682E+04  0.7818609E-02  0.8653523E-01
        1   -1    0    0  501    0  0.00000000000E+00  0.00000000000E+00  0.12025853253E+04  0.12025853253E+04  0.50400001928E-02 0. -1.
       -1   -1    0    0    0  501  0.00000000000E+00  0.00000000000E+00 -0.75258631723E+03  0.75258631725E+03  0.50400001928E-02 0.  1.
    10030    2    1    2    0    0  0.00000000000E+00  0.00000000000E+00  0.44999900802E+03  0.19551716425E+04  0.19026815405E+04 0.  0.
        3    1    3    3  502    0 -0.73587940900E+03 -0.52564910722E+03 -0.78484770916E+02  0.90773639234E+03  0.10100000352E+00 0.  1.
       -3    1    3    3    0  502  0.73587940900E+03  0.52564910722E+03  0.52848377893E+03  0.10474352502E+04  0.10100000352E+00 0. -1.
</event>
<event>
 5   0  0.5614989E-05  0.1914276E+04  0.7818609E-02  0.8647783E-01
       -1   -1    0    0    0  501  0.00000000000E+00  0.00000000000E+00  0.91175158606E+03  0.91175158607E+03  0.50400001928E-02 0.  1.
        1   -1    0    0  501    0  0.00000000000E+00  0.00000000000E+00 -0.10047832220E+04  0.10047832220E+04  0.50400001928E-02 0. -1.
    10030    2    1    2    0    0  0.00000000000E+00  0.00000000000E+00 -0.93031635945E+02  0.19165348081E+04  0.19142755249E+04 0.  0.
        4    1    3    3  502    0  0.84397049520E+03 -0.30135348128E+03 -0.38308361351E+03  0.97460493806E+03  0.12699999809E+01 0. -1.
       -4    1    3    3    0  502 -0.84397049520E+03  0.30135348128E+03  0.29005197757E+03  0.94192987002E+03  0.12699999809E+01 0.  1.
</event>
<event>
 5   0  0.1133638E-04  0.1902376E+04  0.7818609E-02  0.8653675E-01
        2   -1    0    0  501    0  0.00000000000E+00  0.00000000000E+00  0.89858964800E+03  0.89858964800E+03  0.25500000920E-02 0. -1.
       -2   -1    0    0    0  501  0.00000000000E+00  0.00000000000E+00 -0.10068651240E+04  0.10068651240E+04  0.25500000920E-02 0.  1.
    10030    2    1    2    0    0  0.00000000000E+00  0.00000000000E+00 -0.10827547603E+03  0.19054547720E+04  0.19023759643E+04 0.  0.
        3    1    3    3  502    0 -0.76873405392E+03  0.30438672419E+03  0.41689480734E+03  0.92596145390E+03  0.10100000352E+00 0. -1.
       -3    1    3    3    0  502  0.76873405392E+03 -0.30438672419E+03 -0.52517028337E+03  0.97949331813E+03  0.10100000352E+00 0.  1.
</event>
<event>
 5   0  0.5824956E-05  0.1923057E+04  0.7818609E-02  0.8643464E-01
        1   -1    0    0  501    0  0.00000000000E+00  0.00000000000E+00  0.12418955580E+04  0.12418955580E+04  0.50400001928E-02 0. -1.
       -1   -1    0    0    0  501  0.00000000000E+00  0.00000000000E+00 -0.74445614374E+03  0.74445614375E+03  0.50400001928E-02 0.  1.
    10030    2    1    2    0    0  0.00000000000E+00  0.00000000000E+00  0.49743941424E+03  0.19863517017E+04  0.19230567106E+04 0.  0.
        2    1    3    3  502    0  0.29559507678E+03 -0.86138601304E+03  0.56737730466E+03  0.10729768491E+04  0.25500000920E-02 0. -1.
       -2    1    3    3    0  502 -0.29559507678E+03  0.86138601304E+03 -0.69937890419E+02  0.91337485262E+03  0.25500000920E-02 0.  1.
</event>
<event>
 5   0  0.5579109E-05  0.1887281E+04  0.7818609E-02  0.8661214E-01
        1   -1    0    0  501    0  0.00000000000E+00  0.00000000000E+00  0.25856399373E+04  0.25856399373E+04  0.50400001928E-02 0. -1.
       -1   -1    0    0    0  501  0.00000000000E+00  0.00000000000E+00 -0.34438564611E+03  0.34438564614E+03  0.50400001928E-02 0.  1.
    10030    2    1    2    0    0  0.00000000000E+00  0.00000000000E+00  0.22412542911E+04  0.29300255834E+04  0.18872808805E+04 0.  0.
        3    1    3    3  502    0 -0.86194952783E+03  0.30606745107E+03  0.14808064964E+04  0.17405235314E+04  0.10100000352E+00 0. -1.
       -3    1    3    3    0  502  0.86194952783E+03 -0.30606745107E+03  0.76044779471E+03  0.11895020520E+04  0.10100000352E+00 0.  1.
</event>
<event>
 5   0  0.5824956E-05  0.1895814E+04  0.7818609E-02  0.8656943E-01
        1   -1    0    0  501    0  0.00000000000E+00  0.00000000000E+00  0.10519704374E+04  0.10519704374E+04  0.50400001928E-02 0. -1.
       -1   -1    0    0    0  501  0.00000000000E+00  0.00000000000E+00 -0.85413783088E+03  0.85413783089E+03  0.50400001928E-02 0.  1.
    10030    2    1    2    0    0  0.00000000000E+00  0.00000000000E+00  0.19783260655E+03  0.19061082683E+04  0.18958140706E+04 0.  0.
        2    1    3    3  502    0 -0.15483113241E+03  0.29147146815E+03  0.99233542199E+03  0.10457809933E+04  0.25500000920E-02 0. -1.
       -2    1    3    3    0  502  0.15483113241E+03 -0.29147146815E+03 -0.79450281544E+03  0.86032727497E+03  0.25500000920E-02 0.  1.
</event>
<event>
 5   0  0.1118206E-04  0.1877041E+04  0.7818609E-02  0.8666370E-01
        2   -1    0    0  501    0  0.00000000000E+00  0.00000000000E+00  0.14618830573E+04  0.14618830573E+04  0.25500000920E-02 0.  1.
       -2   -1    0    0    0  501  0.00000000000E+00  0.00000000000E+00 -0.60252481819E+03  0.60252481820E+03  0.25500000920E-02 0. -1.
    10030    2    1    2    0    0  0.00000000000E+00  0.00000000000E+00  0.85935823910E+03  0.20644078755E+04  0.18770411006E+04 0.  0.
        1    1    3    3  502    0 -0.72835670801E+03 -0.36668089185E+03 -0.81308383159E+02  0.81949339457E+03  0.50400001928E-02 0. -1.
       -1    1    3    3    0  502  0.72835670801E+03  0.36668089185E+03  0.94066662226E+03  0.12449144809E+04  0.50400001928E-02 0.  1.
</event>
<event>
 5   0  0.5841424E-05  0.1899887E+04  0.7818609E-02  0.8654913E-01
       -1   -1    0    0    0  501  0.00000000000E+00  0.00000000000E+00  0.10331307691E+04  0.10331307692E+04  0.50400001928E-02 0.  1.
        1   -1    0    0  501    0  0.00000000000E+00  0.00000000000E+00 -0.87345399576E+03  0.87345399577E+03  0.50400001928E-02 0. -1.
    10030    2    1    2    0    0  0.00000000000E+00  0.00000000000E+00  0.15967677339E+03  0.19065847649E+04  0.18998865213E+04 0.  0.
        1    1    3    3  502    0 -0.68431974502E+03 -0.65656160724E+03  0.13503722945E+03  0.95791529421E+03  0.50400001928E-02 0.  1.
       -1    1    3    3    0  502  0.68431974502E+03  0.65656160724E+03  0.24639543941E+02  0.94866947072E+03  0.50400001928E-02 0. -1.
</event>
<event>
 5   0  0.1141890E-04  0.1762319E+04  0.7818609E-02  0.8726599E-01
       -2   -1    0    0    0  501  0.00000000000E+00  0.00000000000E+00  0.10921984555E+04  0.10921984555E+04  0.25500000920E-02 0.  1.
        2   -1    0    0  501    0  0.00000000000E+00  0.00000000000E+00 -0.71089805370E+03  0.71089805371E+03  0.25500000920E-02 0. -1.
    10030    2    1    2    0    0  0.00000000000E+00  0.00000000000E+00  0.38130040175E+03  0.18030965092E+04  0.17623186502E+04 0.  0.
        2    1    3    3  502    0  0.55754707978E+03 -0.22346146796E+03 -0.46897520385E+03  0.76205742281E+03  0.25500000920E-02 0. -1.
       -2    1    3    3    0  502 -0.55754707978E+03  0.22346146796E+03  0.85027560560E+03  0.10410390864E+04  0.25500000920E-02 0.  1.
</event>
<event>
 5   0  0.4061125E-05  0.1916346E+04  0.7818609E-02  0.8646763E-01
        3   -1    0    0  501    0  0.00000000000E+00  0.00000000000E+00  0.43035751546E+03  0.43035752731E+03  0.10100000352E+00 0. -1.
       -3   -1    0    0    0  501  0.00000000000E+00  0.00000000000E+00 -0.21333317677E+04  0.21333317701E+04  0.10100000352E+00 0.  1.
    10030    2    1    2    0    0  0.00000000000E+00  0.00000000000E+00 -0.17029742523E+04  0.25636892974E+04  0.19163458743E+04 0.  0.
        3    1    3    3  502    0  0.24780339653E+03 -0.66610866315E+03  0.82392668629E+01  0.71075675880E+03  0.10100000352E+00 0. -1.
       -3    1    3    3    0  502 -0.24780339653E+03  0.66610866315E+03 -0.17112135191E+04  0.18529325386E+04  0.10100000352E+00 0.  1.
</event>
<event>
 5   0  0.5841424E-05  0.1890252E+04  0.7818609E-02  0.8659724E-01
       -1   -1    0    0    0  501  0.00000000000E+00  0.00000000000E+00  0.39917002201E+03  0.39917002204E+03  0.50400001928E-02 0. -1.
        1   -1    0    0  501    0  0.00000000000E+00  0.00000000000E+00 -0.22378006191E+04  0.22378006191E+04  0.50400001928E-02 0.  1.
    10030    2    1    2    0    0  0.00000000000E+00  0.00000000000E+00 -0.18386305971E+04  0.26369706412E+04  0.18902517530E+04 0.  0.
        1    1    3    3  502    0  0.83432976621E+03  0.33014135483E+03 -0.50509637850E+03  0.10296707360E+04  0.50400001928E-02 0. -1.
       -1    1    3    3    0  502 -0.83432976621E+03 -0.33014135483E+03 -0.13335342186E+04  0.16072999052E+04  0.50400001928E-02 0.  1.
</event>
<event>
 5   0  0.5579109E-05  0.1887515E+04  0.7818609E-02  0.8661096E-01
        1   -1    0    0  501    0  0.00000000000E+00  0.00000000000E+00  0.84844780836E+03  0.84844780838E+03  0.50400001928E-02 0. -1.
       -1   -1    0    0    0  501  0.00000000000E+00  0.00000000000E+00 -0.10497738209E+04  0.10497738209E+04  0.50400001928E-02 0.  1.
    10030    2    1    2    0    0  0.00000000000E+00  0.00000000000E+00 -0.20132601252E+03  0.18982216293E+04  0.18875150835E+04 0.  0.
        3    1    3    3  502    0 -0.61837198596E+03 -0.50366916206E+03 -0.60811586962E+03  0.10029314328E+04  0.10100000352E+00 0.  1.
       -3    1    3    3    0  502  0.61837198596E+03  0.50366916206E+03  0.40678985710E+03  0.89529019646E+03  0.10100000352E+00 0. -1.
</event>
<event>
 5   0  0.1133638E-04  0.1913660E+04  0.7818609E-02  0.8648087E-01
       -2   -1    0    0    0  501  0.00000000000E+00  0.00000000000E+00  0.51044250413E+03  0.51044250414E+03  0.25500000920E-02 0.  1.
        2   -1    0    0  501    0  0.00000000000E+00  0.00000000000E+00 -0.17935884325E+04  0.17935884325E+04  0.25500000920E-02 0. -1.
    10030    2    1    2    0    0  0.00000000000E+00  0.00000000000E+00 -0.12831459283E+04  0.23040309366E+04  0.19136601275E+04 0.  0.
        3    1    3    3  502    0  0.30565214434E+03 -0.28231993706E+03  0.39581523637E+03  0.57427997679E+03  0.10100000352E+00 0.  1.
       -3    1    3    3    0  502 -0.30565214434E+03  0.28231993706E+03 -0.16789611647E+04  0.17297509598E+04  0.10100000352E+00 0. -1.
</event>
<event>
 5   0  0.1101678E-04  0.1902961E+04  0.7818609E-02  0.8653384E-01
       -2   -1    0    0    0  501  0.00000000000E+00  0.00000000000E+00  0.97410026026E+03  0.97410026026E+03  0.25500000920E-02 0.  1.
        2   -1    0    0  501    0  0.00000000000E+00  0.00000000000E+00 -0.92938610558E+03  0.92938610558E+03  0.25500000920E-02 0. -1.
    10030    2    1    2    0    0  0.00000000000E+00  0.00000000000E+00  0.44714154681E+02  0.19034863658E+04  0.19029611108E+04 0.  0.
        4    1    3    3  502    0 -0.71218742730E+03 -0.26695162747E+02 -0.60820574783E+03  0.93693084478E+03  0.12699999809E+01 0. -1.
       -4    1    3    3    0  502  0.71218742730E+03  0.26695162747E+02  0.65291990251E+03  0.96655552107E+03  0.12699999809E+01 0.  1.
</event>
<event>
 5   0  0.5841424E-05  0.1901808E+04  0.7818609E-02  0.8653957E-01
       -1   -1    0    0    0  501  0.00000000000E+00  0.00000000000E+00  0.34860635065E+03  0.34860635069E+03  0.50400001928E-02 0.  1.
        1   -1    0    0  501    0  0.00000000000E+00  0.00000000000E+00 -0.25938081604E+04  0.25938081604E+04  0.50400001928E-02 0. -1.
    10030    2    1    2    0    0  0.00000000000E+00  0.00000000000E+00 -0.22452018098E+04  0.29424145111E+04  0.19018075583E+04 0.  0.
        1    1    3    3  502    0 -0.30153360453E+03  0.13801843767E+03  0.25624238617E+03  0.41908443575E+03  0.50400001928E-02 0.  1.
       -1    1    3    3    0  502  0.30153360453E+03 -0.13801843767E+03 -0.25014441960E+04  0.25233300754E+04  0.50400001928E-02 0. -1.
</event>
<event>
 5   0  0.5628936E-05  0.1890926E+04  0.7818609E-02  0.8659386E-01
       -1   -1    0    0    0  501  0.00000000000E+00  0.00000000000E+00  0.59909010613E+03  0.59909010615E+03  0.50400001928E-02 0. -1.
        1   -1    0    0  501    0  0.00000000000E+00  0.00000000000E+00 -0.14920959651E+04  0.14920959651E+04  0.50400001928E-02 0.  1.
    10030    2    1    2    0    0  0.00000000000E+00  0.00000000000E+00 -0.89300585900E+03  0.20911860713E+04  0.18909256253E+04 0.  0.
        5    1    3    3  502    0 -0.33188664077E+03  0.64610717186E+03  0.22279833208E+03  0.75977918281E+03  0.46999998093E+01 0. -1.
       -5    1    3    3    0  502  0.33188664077E+03 -0.64610717186E+03 -0.11158041911E+04  0.13314068885E+04  0.46999998093E+01 0.  1.
</event>
<event>
 5   0  0.1133638E-04  0.1896706E+04  0.7818609E-02  0.8656498E-01
        2   -1    0    0  501    0  0.00000000000E+00  0.00000000000E+00  0.12904924337E+04  0.12904924337E+04  0.25500000920E-02 0. -1.
       -2   -1    0    0    0  501  0.00000000000E+00  0.00000000000E+00 -0.69692274284E+03  0.69692274284E+03  0.25500000920E-02 0.  1.
    10030    2    1    2    0    0  0.00000000000E+00  0.00000000000E+00  0.59356969083E+03  0.19874151765E+04  0.18967061201E+04 0.  0.
        3    1    3    3  502    0 -0.55839984018E+03  0.76646750479E+03  0.30676390229E+03  0.99668797493E+03  0.10100000352E+00 0. -1.
       -3    1    3    3    0  502  0.55839984018E+03 -0.76646750479E+03  0.28680578854E+03  0.99072720158E+03  0.10100000352E+00 0.  1.
</event>
<event>
 5   0  0.5614989E-05  0.1905959E+04  0.7818609E-02  0.8651896E-01
        1   -1    0    0  501    0  0.00000000000E+00  0.00000000000E+00  0.12026613231E+04  0.12026613231E+04  0.50400001928E-02 0.  1.
       -1   -1    0    0    0  501  0.00000000000E+00  0.00000000000E+00 -0.75513337274E+03  0.75513337276E+03  0.50400001928E-02 0. -1.
    10030    2    1    2    0    0  0.00000000000E+00  0.00000000000E+00  0.44752795036E+03  0.19577946959E+04  0.19059587626E+04 0.  0.
        4    1    3    3  502    0  0.53646712571E+03  0.71759673230E+03  0.55728836387E+03  0.10551369487E+04  0.12699999809E+01 0.  1.
       -4    1    3    3    0  502 -0.53646712571E+03 -0.71759673230E+03 -0.10976041351E+03  0.90265774713E+03  0.12699999809E+01 0. -1.
</event>
<event>
 5   0  0.1133638E-04  0.1871731E+04  0.7818609E-02  0.8669057E-01
       -2   -1    0    0    0  501  0.00000000000E+00  0.00000000000E+00  0.55663674081E+03  0.55663674082E+03  0.25500000920E-02 0.  1.
        2   -1    0    0  501    0  0.00000000000E+00  0.00000000000E+00 -0.15734573861E+04  0.15734573861E+04  0.25500000920E-02 0. -1.
    10030    2    1    2    0    0  0.00000000000E+00  0.00000000000E+00 -0.10168206453E+04  0.21300941269E+04  0.18717309542E+04 0.  0.
        3    1    3    3  502    0  0.83478897502E+03 -0.94486344333E+02 -0.39126185954E+02  0.84102982748E+03  0.10100000352E+00 0.  1.
       -3    1    3    3    0  502 -0.83478897502E+03  0.94486344333E+02 -0.97769445930E+03  0.12890642994E+04  0.10100000352E+00 0. -1.
</event>
<event>
 5   0  0.4061125E-05  0.1898563E+04  0.7818609E-02  0.8655572E-01
        3   -1    0    0  501    0  0.00000000000E+00  0.00000000000E+00  0.93753319227E+03  0.93753319771E+03  0.10100000352E+00 0. -1.
       -3   -1    0    0    0  501  0.00000000000E+00  0.00000000000E+00 -0.96117686257E+03  0.96117686788E+03  0.10100000352E+00 0.  1.
    10030    2    1    2    0    0  0.00000000000E+00  0.00000000000E+00 -0.23643670301E+02  0.18987100656E+04  0.18985628486E+04 0.  0.
        1    1    3    3  502    0 -0.11912822717E+03  0.56509694005E+03  0.74163497583E+03  0.93997261852E+03  0.50400001928E-02 0. -1.
       -1    1    3    3    0  502  0.11912822717E+03 -0.56509694005E+03 -0.76527864613E+03  0.95873744707E+03  0.50400001928E-02 0.  1.
</event>
<event>
 5   0  0.5824956E-05  0.1889698E+04  0.7818609E-02  0.8660001E-01
       -1   -1    0    0    0  501  0.00000000000E+00  0.00000000000E+00  0.56897649727E+03  0.56897649730E+03  0.50400001928E-02 0. -1.
        1   -1    0    0  501    0  0.00000000000E+00  0.00000000000E+00 -0.15690277636E+04  0.15690277636E+04  0.50400001928E-02 0.  1.
    10030    2    1    2    0    0  0.00000000000E+00  0.00000000000E+00 -0.10000512663E+04  0.21380042609E+04  0.18896983051E+04 0.  0.
        2    1    3    3  502    0 -0.24729541050E+03  0.86808833868E+03 -0.81602366415E+03  0.12168101759E+04  0.25500000920E-02 0.  1.
       -2    1    3    3    0  502  0.24729541050E+03 -0.86808833868E+03 -0.18402760217E+03  0.92119408496E+03  0.25500000920E-02 0. -1.
</event>
<event>
 5   0  0.1182630E-04  0.1906100E+04  0.7818609E-02  0.8651826E-01
        2   -1    0    0  501    0  0.00000000000E+00  0.00000000000E+00  0.15506421262E+04  0.15506421262E+04  0.25500000920E-02 0. -1.
       -2   -1    0    0    0  501  0.00000000000E+00  0.00000000000E+00 -0.58576030179E+03  0.58576030179E+03  0.25500000920E-02 0.  1.
    10030    2    1    2    0    0  0.00000000000E+00  0.00000000000E+00  0.96488182440E+03  0.21364024280E+04  0.19061003120E+04 0.  0.
        5    1    3    3  502    0 -0.23289769443E+03 -0.44534538802E+03 -0.42515549886E+03  0.65829563185E+03  0.46999998093E+01 0.  1.
       -5    1    3    3    0  502  0.23289769443E+03  0.44534538802E+03  0.13900373233E+04  0.14781067961E+04  0.46999998093E+01 0. -1.
</event>
<event>
 5   0  0.5841424E-05  0.1926836E+04  0.7818609E-02  0.8641612E-01
       -1   -1    0    0    0  501  0.00000000000E+00  0.00000000000E+00  0.89863750019E+03  0.89863750021E+03  0.50400001928E-02 0.  1.
        1   -1    0    0  501    0  0.00000000000E+00  0.00000000000E+00 -0.10328685193E+04  0.10328685193E+04  0.50400001928E-02 0. -1.
    10030    2    1    2    0    0  0.00000000000E+00  0.00000000000E+00 -0.13423101910E+03  0.19315060195E+04  0.19268361469E+04 0.  0.
        1    1    3    3  502    0 -0.49154890645E+03  0.52834784981E+01 -0.89769235629E+03  0.10234743813E+04  0.50400001928E-02 0. -1.
       -1    1    3    3    0  502  0.49154890645E+03 -0.52834784981E+01  0.76346133720E+03  0.90803163822E+03  0.50400001928E-02 0.  1.
</event>
<event>
 5   0  0.5841424E-05  0.1890383E+04  0.7818609E-02  0.8659658E-01
        1   -1    0    0  501    0  0.00000000000E+00  0.00000000000E+00  0.14228061010E+04  0.14228061010E+04  0.50400001928E-02 0. -1.
       -1   -1    0    0    0  501  0.00000000000E+00  0.00000000000E+00 -0.62790492236E+03  0.62790492238E+03  0.50400001928E-02 0.  1.
    10030    2    1    2    0    0  0.00000000000E+00  0.00000000000E+00  0.79490117861E+03  0.20507110234E+04  0.18903829817E+04 0.  0.
        1    1    3    3  502    0 -0.66098607587E+03  0.35390115343E+03  0.10217960576E+04  0.12673656940E+04  0.50400001928E-02 0. -1.
       -1    1    3    3    0  502  0.66098607587E+03 -0.35390115343E+03 -0.22689487901E+03  0.78334532937E+03  0.50400001928E-02 0.  1.
</event>
<event>
 5   0  0.1133638E-04  0.1881870E+04  0.7818609E-02  0.8663934E-01
        2   -1    0    0  501    0  0.00000000000E+00  0.00000000000E+00  0.18039880181E+04  0.18039880181E+04  0.25500000920E-02 0.  1.
       -2   -1    0    0    0  501  0.00000000000E+00  0.00000000000E+00 -0.49077866988E+03  0.49077866989E+03  0.25500000920E-02 0. -1.
    10030    2    1    2    0    0  0.00000000000E+00  0.00000000000E+00  0.13132093482E+04  0.22947666880E+04  0.18818701762E+04 0.  0.
        3    1    3    3  502    0 -0.92791368712E+03 -0.15076186583E+03  0.60773884499E+03  0.11194192534E+04  0.10100000352E+00 0.  1.
       -3    1    3    3    0  502  0.92791368712E+03  0.15076186583E+03  0.70547050325E+03  0.11753474346E+04  0.10100000352E+00 0. -1.
</event>
<event>
 5   0  0.5614989E-05  0.1891646E+04  0.7818609E-02  0.8659026E-01
       -1   -1    0    0    0  501  0.00000000000E+00  0.00000000000E+00  0.81007474666E+03  0.81007474668E+03  0.50400001928E-02 0. -1.
        1   -1    0    0  501    0  0.00000000000E+00  0.00000000000E+00 -0.11043191114E+04  0.11043191114E+04  0.50400001928E-02 0.  1.
    10030    2    1    2    0    0  0.00000000000E+00  0.00000000000E+00 -0.29424436474E+03  0.19143938581E+04  0.18916458701E+04 0.  0.
        4    1    3    3  502    0 -0.42940056041E+03  0.17011472025E+03  0.68818551430E+03  0.82880925086E+03  0.12699999809E+01 0. -1.
       -4    1    3    3    0  502  0.42940056041E+03 -0.17011472025E+03 -0.98242987903E+03  0.10855846072E+04  0.12699999809E+01 0.  1.
</event>
<event>
 5   0  0.5841424E-05  0.1937074E+04  0.7818609E-02  0.8636619E-01
       -1   -1    0    0    0  501  0.00000000000E+00  0.00000000000E+00  0.12985441197E+04  0.12985441197E+04  0.50400001928E-02 0.  1.
        1   -1    0    0  501    0  0.00000000000E+00  0.00000000000E+00 -0.72239686413E+03  0.72239686415E+03  0.50400001928E-02 0. -1.
    10030    2    1    2    0    0  0.00000000000E+00  0.00000000000E+00  0.57614725559E+03  0.20209409839E+04  0.19370742888E+04 0.  0.
        1    1    3    3  502    0  0.56441147936E+03  0.49349228842E+03 -0.35163692320E+03  0.82809630028E+03  0.50400001928E-02 0. -1.
       -1    1    3    3    0  502 -0.56441147936E+03 -0.49349228842E+03  0.92778417879E+03  0.11928446836E+04  0.50400001928E-02 0.  1.
</event>
<event>
 5   0  0.1182630E-04  0.1899542E+04  0.7818609E-02  0.8655084E-01
        2   -1    0    0  501    0  0.00000000000E+00  0.00000000000E+00  0.15611361387E+04  0.15611361387E+04  0.25500000920E-02 0. -1.
       -2   -1    0    0    0  501  0.00000000000E+00  0.00000000000E+00 -0.57782620815E+03  0.57782620816E+03  0.25500000920E-02 0.  1.
    10030    2    1    2    0    0  0.00000000000E+00  0.00000000000E+00  0.98330993054E+03  0.21389623469E+04  0.18995424454E+04 0.  0.
        5    1    3    3  502    0 -0.60363589544E+03 -0.41226636039E+03 -0.19115992491E+03  0.75558193008E+03  0.46999998093E+01 0.  1.
       -5    1    3    3    0  502  0.60363589544E+03  0.41226636039E+03  0.11744698555E+04  0.13833804168E+04  0.46999998093E+01 0. -1.
</event>
<event>
 5   0  0.5628936E-05  0.1903606E+04  0.7818609E-02  0.8653064E-01
       -1   -1    0    0    0  501  0.00000000000E+00  0.00000000000E+00  0.93719224945E+03  0.93719224946E+03  0.50400001928E-02 0.  1.
        1   -1    0    0  501    0  0.00000000000E+00  0.00000000000E+00 -0.96664126967E+03  0.96664126968E+03  0.50400001928E-02 0. -1.
    10030    2    1    2    0    0  0.00000000000E+00  0.00000000000E+00 -0.29449020218E+02  0.19038335191E+04  0.19036057427E+04 0.  0.
        5    1    3    3  502    0  0.16316794939E+03 -0.36963483108E+03  0.84715173574E+03  0.93858502088E+03  0.46999998093E+01 0.  1.
       -5    1    3    3    0  502 -0.16316794939E+03  0.36963483108E+03 -0.87660075596E+03  0.96524849826E+03  0.46999998093E+01 0. -1.
</event>
<event>
 5   0  0.1133638E-04  0.1872819E+04  0.7818609E-02  0.8668506E-01
        2   -1    0    0  501    0  0.00000000000E+00  0.00000000000E+00  0.81769969075E+03  0.81769969076E+03  0.25500000920E-02 0.  1.
       -2   -1    0    0    0  501  0.00000000000E+00  0.00000000000E+00 -0.10723527176E+04  0.10723527176E+04  0.25500000920E-02 0. -1.
    10030    2    1    2    0    0  0.00000000000E+00  0.00000000000E+00 -0.25465302686E+03  0.18900524084E+04  0.18728187158E+04 0.  0.
        3    1    3    3  502    0 -0.19477732821E+03  0.64997730245E+03  0.52394413686E+03  0.85727835039E+03  0.10100000352E+00 0.  1.
       -3    1    3    3    0  502  0.19477732821E+03 -0.64997730245E+03 -0.77859716373E+03  0.10327740580E+04  0.10100000352E+00 0. -1.
</event>
<event>
 5   0  0.5824956E-05  0.1918223E+04  0.7818609E-02  0.8645838E-01
        1   -1    0    0  501    0  0.00000000000E+00  0.00000000000E+00  0.92984443100E+03  0.92984443102E+03  0.50400001928E-02 0. -1.
       -1   -1    0    0    0  501  0.00000000000E+00  0.00000000000E+00 -0.98930008367E+03  0.98930008368E+03  0.50400001928E-02 0.  1.
    10030    2    1    2    0    0  0.00000000000E+00  0.00000000000E+00 -0.59455652669E+02  0.19191445147E+04  0.19182233169E+04 0.  0.
        2    1    3    3  502    0  0.35653838923E+03 -0.68676330039E+03 -0.59668481856E+03  0.97713674911E+03  0.25500000920E-02 0.  1.
       -2    1    3    3    0  502 -0.35653838923E+03  0.68676330039E+03  0.53722916589E+03  0.94200776559E+03  0.25500000920E-02 0. -1.
</event>
<event>
 5   0  0.5614989E-05  0.1903759E+04  0.7818609E-02  0.8652987E-01
       -1   -1    0    0    0  501  0.00000000000E+00  0.00000000000E+00  0.16792062773E+04  0.16792062773E+04  0.50400001928E-02 0.  1.
        1   -1    0    0  501    0  0.00000000000E+00  0.00000000000E+00 -0.53958512572E+03  0.53958512574E+03  0.50400001928E-02 0. -1.
    10030    2    1    2    0    0  0.00000000000E+00  0.00000000000E+00  0.11396211516E+04  0.22187914031E+04  0.19037591552E+04 0.  0.
        4    1    3    3  502    0 -0.58334653844E+03  0.48327304728E+03 -0.10196157270E+03  0.76435842204E+03  0.12699999809E+01 0. -1.
       -4    1    3    3    0  502  0.58334653844E+03 -0.48327304728E+03  0.12415827243E+04  0.14544329810E+04  0.12699999809E+01 0.  1.
</event>
<event>
 5   0  0.5841424E-05  0.1924362E+04  0.7818609E-02  0.8642824E-01
       -1   -1    0    0    0  501  0.00000000000E+00  0.00000000000E+00  0.57602518674E+03  0.57602518676E+03  0.50400001928E-02 0.  1.
        1   -1    0    0  501    0  0.00000000000E+00  0.00000000000E+00 -0.16072083354E+04  0.16072083354E+04  0.50400001928E-02 0. -1.
    10030    2    1    2    0    0  0.00000000000E+00  0.00000000000E+00 -0.10311831486E+04  0.21832335221E+04  0.19243622128E+04 0.  0.
        1    1    3    3  502    0  0.39534532992E+03 -0.37680329811E+03 -0.14143128442E+04  0.15161000879E+04  0.50400001928E-02 0. -1.
       -1    1    3    3    0  502 -0.39534532992E+03  0.37680329811E+03  0.38312969559E+03  0.66713343419E+03  0.50400001928E-02 0.  1.
</event>
<event>
 5   0  0.5614989E-05  0.1896580E+04  0.7818609E-02  0.8656560E-01
        1   -1    0    0  501    0  0.00000000000E+00  0.00000000000E+00  0.64904702698E+03  0.64904702700E+03  0.50400001928E-02 0. -1.
       -1   -1    0    0    0  501  0.00000000000E+00  0.00000000000E+00 -0.13854995399E+04  0.13854995399E+04  0.50400001928E-02 0.  1.
    10030    2    1    2    0    0  0.00000000000E+00  0.00000000000E+00 -0.73645251289E+03  0.20345465669E+04  0.18965804568E+04 0.  0.
        4    1    3    3  502    0  0.40882715327E+03 -0.56696934146E+03  0.31921717519E+03  0.76843678546E+03  0.12699999809E+01 0. -1.
       -4    1    3    3    0  502 -0.40882715327E+03  0.56696934146E+03 -0.10556696881E+04  0.12661097814E+04  0.12699999809E+01 0.  1.
</event>
<event>
 5   0  0.1141890E-04  0.1877943E+04  0.7818609E-02  0.8665914E-01
        2   -1    0    0  501    0  0.00000000000E+00  0.00000000000E+00  0.14038739213E+04  0.14038739213E+04  0.25500000920E-02 0.  1.
       -2   -1    0    0    0  501  0.00000000000E+00  0.00000000000E+00 -0.62802480036E+03  0.62802480036E+03  0.25500000920E-02 0. -1.
    10030    2    1    2    0    0  0.00000000000E+00  0.00000000000E+00  0.77584912097E+03  0.20318987217E+04  0.18779431719E+04 0.  0.
        2    1    3    3  502    0 -0.58209318361E+03  0.64209755851E+03 -0.30074319794E+01  0.86667802194E+03  0.25500000920E-02 0.  1.
       -2    1    3    3    0  502  0.58209318361E+03 -0.64209755851E+03  0.77885655295E+03  0.11652206998E+04  0.25500000920E-02 0. -1.
</event>
<event>
 5   0  0.1118206E-04  0.1884525E+04  0.7818609E-02  0.8662598E-01
       -2   -1    0    0    0  501  0.00000000000E+00  0.00000000000E+00  0.40272656229E+03  0.40272656230E+03  0.25500000920E-02 0. -1.
        2   -1    0    0  501    0  0.00000000000E+00  0.00000000000E+00 -0.22046184518E+04  0.22046184518E+04  0.25500000920E-02 0.  1.
    10030    2    1    2    0    0  0.00000000000E+00  0.00000000000E+00 -0.18018918895E+04  0.26073450141E+04  0.18845247786E+04 0.  0.
        1    1    3    3  502    0 -0.89023227138E+03  0.13775637972E+03 -0.51860340247E+03  0.10394420649E+04  0.50400001928E-02 0. -1.
       -1    1    3    3    0  502  0.89023227138E+03 -0.13775637972E+03 -0.12832884870E+04  0.15679029492E+04  0.50400001928E-02 0.  1.
</event>
<event>
 5   0  0.1133638E-04  0.1890368E+04  0.7818609E-02  0.8659666E-01
       -2   -1    0    0    0  501  0.00000000000E+00  0.00000000000E+00  0.47343750082E+03  0.47343750083E+03  0.25500000920E-02 0. -1.
        2   -1    0    0  501    0  0.00000000000E+00  0.00000000000E+00 -0.18869916495E+04  0.18869916495E+04  0.25500000920E-02 0.  1.
    10030    2    1    2    0    0  0.00000000000E+00  0.00000000000E+00 -0.14135541487E+04  0.23604291503E+04  0.18903678061E+04 0.  0.
        3    1    3    3  502    0  0.89127019879E+03 -0.21378164435E+03 -0.41848110063E+03  0.10075671692E+04  0.10100000352E+00 0. -1.
       -3    1    3    3    0  502 -0.89127019879E+03  0.21378164435E+03 -0.99507304802E+03  0.13528619811E+04  0.10100000352E+00 0.  1.
</event>
<event>
 5   0  0.1118206E-04  0.1897986E+04  0.7818609E-02  0.8655860E-01
       -2   -1    0    0    0  501  0.00000000000E+00  0.00000000000E+00  0.47632428974E+03  0.47632428974E+03  0.25500000920E-02 0. -1.
        2   -1    0    0  501    0  0.00000000000E+00  0.00000000000E+00 -0.18907020707E+04  0.18907020707E+04  0.25500000920E-02 0.  1.
    10030    2    1    2    0    0  0.00000000000E+00  0.00000000000E+00 -0.14143777809E+04  0.23670263604E+04  0.18979855857E+04 0.  0.
        1    1    3    3  502    0  0.17074225840E+03  0.14509253797E+03 -0.18572405697E+04  0.18707076996E+04  0.50400001928E-02 0.  1.
       -1    1    3    3    0  502 -0.17074225840E+03 -0.14509253797E+03  0.44286278879E+03  0.49631866084E+03  0.50400001928E-02 0. -1.
</event>
<event>
 5   0  0.1101678E-04  0.1885862E+04  0.7818609E-02  0.8661926E-01
       -2   -1    0    0    0  501  0.00000000000E+00  0.00000000000E+00  0.12144951519E+04  0.12144951519E+04  0.25500000920E-02 0.  1.
        2   -1    0    0  501    0  0.00000000000E+00  0.00000000000E+00 -0.73208917341E+03  0.73208917342E+03  0.25500000920E-02 0. -1.
    10030    2    1    2    0    0  0.00000000000E+00  0.00000000000E+00  0.48240597852E+03  0.19465843254E+04  0.18858618739E+04 0.  0.
        4    1    3    3  502    0 -0.60659237909E+03  0.59067976374E+03  0.66960930726E+03  0.10794605759E+04  0.12699999809E+01 0. -1.
       -4    1    3    3    0  502  0.60659237909E+03 -0.59067976374E+03 -0.18720332874E+03  0.86712374945E+03  0.12699999809E+01 0.  1.
</event>
<event>
 5   0  0.5579109E-05  0.1894765E+04  0.7818609E-02  0.8657466E-01
        1   -1    0    0  501    0  0.00000000000E+00  0.00000000000E+00  0.54173943055E+03  0.54173943058E+03  0.50400001928E-02 0.  1.
       -1   -1    0    0    0  501  0.00000000000E+00  0.00000000000E+00 -0.16567631009E+04  0.16567631009E+04  0.50400001928E-02 0. -1.
    10030    2    1    2    0    0  0.00000000000E+00  0.00000000000E+00 -0.11150236703E+04  0.21985025315E+04  0.18947653141E+04 0.  0.
        3    1    3    3  502    0  0.85337147443E+03 -0.41083433359E+03 -0.58361648518E+03  0.11124908696E+04  0.10100000352E+00 0.  1.
       -3    1    3    3    0  502 -0.85337147443E+03  0.41083433359E+03 -0.53140718514E+03  0.10860116618E+04  0.10100000352E+00 0. -1.
</event>
<event>
 5   0  0.5841424E-05  0.1934244E+04  0.7818609E-02  0.8637996E-01
        1   -1    0    0  501    0  0.00000000000E+00  0.00000000000E+00  0.10372354096E+04  0.10372354096E+04  0.50400001928E-02 0. -1.
       -1   -1    0    0    0  501  0.00000000000E+00  0.00000000000E+00 -0.90174808331E+03  0.90174808332E+03  0.50400001928E-02 0.  1.
    10030    2    1    2    0    0  0.00000000000E+00  0.00000000000E+00  0.13548732624E+03  0.19389834929E+04  0.19342440824E+04 0.  0.
        1    1    3    3  502    0 -0.70898001622E+02  0.57057700633E+03  0.84729967451E+03  0.10239635664E+04  0.50400001928E-02 0. -1.
       -1    1    3    3    0  502  0.70898001622E+02 -0.57057700633E+03 -0.71181234826E+03  0.91501992653E+03  0.50400001928E-02 0.  1.
</event>
<event>
 5   0  0.4061125E-05  0.1909363E+04  0.7818609E-02  0.8650210E-01
       -3   -1    0    0    0  501  0.00000000000E+00  0.00000000000E+00  0.52426722990E+03  0.52426723962E+03  0.10100000352E+00 0. -1.
        3   -1    0    0  501    0  0.00000000000E+00  0.00000000000E+00 -0.17384592699E+04  0.17384592728E+04  0.10100000352E+00 0.  1.
    10030    2    1    2    0    0  0.00000000000E+00  0.00000000000E+00 -0.12141920400E+04  0.22627265124E+04  0.19093634961E+04 0.  0.
        3    1    3    3  502    0  0.14029725895E+03  0.62126315107E+03  0.23569183419E+03  0.67911845406E+03  0.10100000352E+00 0. -1.
       -3    1    3    3    0  502 -0.14029725895E+03 -0.62126315107E+03 -0.14498838742E+04  0.15836080584E+04  0.10100000352E+00 0.  1.
</event>
<event>
 5   0  0.5841424E-05  0.1916587E+04  0.7818609E-02  0.8646644E-01
       -1   -1    0    0    0  501  0.00000000000E+00  0.00000000000E+00  0.63329835666E+03  0.63329835668E+03  0.50400001928E-02 0.  1.
        1   -1    0    0  501    0  0.00000000000E+00  0.00000000000E+00 -0.14500687467E+04  0.14500687467E+04  0.50400001928E-02 0. -1.
    10030    2    1    2    0    0  0.00000000000E+00  0.00000000000E+00 -0.81677039007E+03  0.20833671034E+04  0.19165867101E+04 0.  0.
        1    1    3    3  502    0  0.95571716522E+01 -0.20854846046E+02  0.63299983568E+03  0.63341538987E+03  0.50400001928E-02 0.  1.
       -1    1    3    3    0  502 -0.95571716522E+01  0.20854846046E+02 -0.14497702257E+04  0.14499517135E+04  0.50400001928E-02 0. -1.
</event>
<event>
 5   0  0.5614989E-05  0.1900229E+04  0.7818609E-02  0.8654742E-01
       -1   -1    0    0    0  501  0.00000000000E+00  0.00000000000E+00  0.56879559342E+03  0.56879559344E+03  0.50400001928E-02 0. -1.
        1   -1    0    0  501    0  0.00000000000E+00  0.00000000000E+00 -0.15870688483E+04  0.15870688483E+04  0.50400001928E-02 0.  1.
    10030    2    1    2    0    0  0.00000000000E+00  0.00000000000E+00 -0.10182732548E+04  0.21558644417E+04  0.19002292150E+04 0.  0.
        4    1    3    3  502    0  0.24504797377E+03  0.50247243286E+03  0.36245098775E+03  0.66625774791E+03  0.12699999809E+01 0. -1.
       -4    1    3    3    0  502 -0.24504797377E+03 -0.50247243286E+03 -0.13807242426E+04  0.14896066938E+04  0.12699999809E+01 0.  1.
</event>
<event>
 5   0  0.5579109E-05  0.1898850E+04  0.7818609E-02  0.8655429E-01
       -1   -1    0    0    0  501  0.00000000000E+00  0.00000000000E+00  0.38645891265E+03  0.38645891268E+03  0.50400001928E-02 0. -1.
        1   -1    0    0  501    0  0.00000000000E+00  0.00000000000E+00 -0.23324799409E+04  0.23324799409E+04  0.50400001928E-02 0.  1.
    10030    2    1    2    0    0  0.00000000000E+00  0.00000000000E+00 -0.19460210282E+04  0.27189388536E+04  0.18988498222E+04 0.  0.
        3    1    3    3  502    0 -0.37364580483E+03 -0.80397278012E+03 -0.14594819234E+04  0.17076507001E+04  0.10100000352E+00 0.  1.
       -3    1    3    3    0  502  0.37364580483E+03  0.80397278012E+03 -0.48653910485E+03  0.10112881535E+04  0.10100000352E+00 0. -1.
</event>
<event>
 5   0  0.1101678E-04  0.1909721E+04  0.7818609E-02  0.8650033E-01
       -2   -1    0    0    0  501  0.00000000000E+00  0.00000000000E+00  0.46085934114E+03  0.46085934115E+03  0.25500000920E-02 0.  1.
        2   -1    0    0  501    0  0.00000000000E+00  0.00000000000E+00 -0.19783874412E+04  0.19783874412E+04  0.25500000920E-02 0. -1.
    10030    2    1    2    0    0  0.00000000000E+00  0.00000000000E+00 -0.15175281001E+04  0.24392467823E+04  0.19097207468E+04 0.  0.
        4    1    3    3  502    0 -0.34533040054E+02  0.39684662654E+03  0.34965900467E+03  0.53004038365E+03  0.12699999809E+01 0.  1.
       -4    1    3    3    0  502  0.34533040054E+02 -0.39684662654E+03 -0.18671871047E+04  0.19092063987E+04  0.12699999809E+01 0. -1.
</event>
<event>
 5   0  0.5824956E-05  0.1892940E+04  0.7818609E-02  0.8658378E-01
       -1   -1    0    0    0  501  0.00000000000E+00  0.00000000000E+00  0.90429558386E+03  0.90429558387E+03  0.50400001928E-02 0.  1.
        1   -1    0    0  501    0  0.00000000000E+00  0.00000000000E+00 -0.99061178493E+03  0.99061178495E+03  0.50400001928E-02 0. -1.
    10030    2    1    2    0    0  0.00000000000E+00  0.00000000000E+00 -0.86316201074E+02  0.18949073688E+04  0.18929404243E+04 0.  0.
        2    1    3    3  502    0  0.64163226528E+03 -0.44092846793E+03  0.49563531140E+03  0.92291074303E+03  0.25500000920E-02 0.  1.
       -2    1    3    3    0  502 -0.64163226528E+03  0.44092846793E+03 -0.58195151247E+03  0.97199662580E+03  0.25500000920E-02 0. -1.
</event>
<event>
 5   0  0.5579109E-05  0.1894696E+04  0.7818609E-02  0.8657501E-01
        1   -1    0    0  501    0  0.00000000000E+00  0.00000000000E+00  0.12169760043E+04  0.12169760043E+04  0.50400001928E-02 0.  1.
       -1   -1    0    0    0  501  0.00000000000E+00  0.00000000000E+00 -0.73745740594E+03  0.73745740596E+03  0.50400001928E-02 0. -1.
    10030    2    1    2    0    0  0.00000000000E+00  0.00000000000E+00  0.47951859838E+03  0.19544334103E+04  0.18946957194E+04 0.  0.
        3    1    3    3  502    0 -0.30258737043E+03  0.59771728671E+03  0.93068571442E+03  0.11467349218E+04  0.10100000352E+00 0.  1.
       -3    1    3    3    0  502  0.30258737043E+03 -0.59771728671E+03 -0.45116711604E+03  0.80769848853E+03  0.10100000352E+00 0. -1.
</event>
<event>
 5   0  0.1182630E-04  0.1899944E+04  0.7818609E-02  0.8654884E-01
        2   -1    0    0  501    0  0.00000000000E+00  0.00000000000E+00  0.12870800927E+04  0.12870800927E+04  0.25500000920E-02 0. -1.
       -2   -1    0    0    0  501  0.00000000000E+00  0.00000000000E+00 -0.70115851718E+03  0.70115851718E+03  0.25500000920E-02 0.  1.
    10030    2    1    2    0    0  0.00000000000E+00  0.00000000000E+00  0.58592157552E+03  0.19882386099E+04  0.18999443879E+04 0.  0.
        5    1    3    3  502    0 -0.70258139729E+03 -0.25346405401E+03 -0.32131064159E+03  0.81309732806E+03  0.46999998093E+01 0.  1.
       -5    1    3    3    0  502  0.70258139729E+03  0.25346405401E+03  0.90723221710E+03  0.11751412818E+04  0.46999998093E+01 0. -1.
</event>
<event>
 5   0  0.5824956E-05  0.1915001E+04  0.7818609E-02  0.8647425E-01
       -1   -1    0    0    0  501  0.00000000000E+00  0.00000000000E+00  0.80348359280E+03  0.80348359282E+03  0.50400001928E-02 0. -1.
        1   -1    0    0  501    0  0.00000000000E+00  0.00000000000E+00 -0.11410407788E+04  0.11410407788E+04  0.50400001928E-02 0.  1.
    10030    2    1    2    0    0  0.00000000000E+00  0.00000000000E+00 -0.33755718603E+03  0.19445243717E+04  0.19150013520E+04 0.  0.
        2    1    3    3  502    0 -0.49019689706E+03 -0.82105162668E+03 -0.11915002509E+03  0.96364697896E+03  0.25500000920E-02 0. -1.
       -2    1    3    3    0  502  0.49019689706E+03  0.82105162668E+03 -0.21840716094E+03  0.98087739271E+03  0.25500000920E-02 0.  1.
</event>
<event>
 5   0  0.5628936E-05  0.1892940E+04  0.7818609E-02  0.8658379E-01
        1   -1    0    0  501    0  0.00000000000E+00  0.00000000000E+00  0.66234480476E+03  0.66234480478E+03  0.50400001928E-02 0.  1.
       -1   -1    0    0    0  501  0.00000000000E+00  0.00000000000E+00 -0.13524758615E+04  0.13524758615E+04  0.50400001928E-02 0. -1.
    10030    2    1    2    0    0  0.00000000000E+00  0.00000000000E+00 -0.69013105674E+03  0.20148206663E+04  0.18929398939E+04 0.  0.
        5    1    3    3  502    0 -0.39914321241E+03  0.58118253698E+03  0.32701276997E+03  0.77720517692E+03  0.46999998093E+01 0.  1.
       -5    1    3    3    0  502  0.39914321241E+03 -0.58118253698E+03 -0.10171438267E+04  0.12376154894E+04  0.46999998093E+01 0. -1.
</event>
<event>
 5   0  0.5628936E-05  0.1900089E+04  0.7818609E-02  0.8654812E-01
        1   -1    0    0  501    0  0.00000000000E+00  0.00000000000E+00  0.14871163136E+04  0.14871163136E+04  0.50400001928E-02 0. -1.
       -1   -1    0    0    0  501  0.00000000000E+00  0.00000000000E+00 -0.60693630582E+03  0.60693630584E+03  0.50400001928E-02 0.  1.
    10030    2    1    2    0    0  0.00000000000E+00  0.00000000000E+00  0.88018000777E+03  0.20940526194E+04  0.19000893471E+04 0.  0.
        5    1    3    3  502    0  0.77976730769E+03  0.99783242889E+02 -0.14781532036E+03  0.79991575096E+03  0.46999998093E+01 0.  1.
       -5    1    3    3    0  502 -0.77976730769E+03 -0.99783242889E+02  0.10279953281E+04  0.12941368685E+04  0.46999998093E+01 0. -1.
</event>
<event>
 5   0  0.1141890E-04  0.1895936E+04  0.7818609E-02  0.8656882E-01
       -2   -1    0    0    0  501  0.00000000000E+00  0.00000000000E+00  0.46235788530E+03  0.46235788530E+03  0.25500000920E-02 0.  1.
        2   -1    0    0  501    0  0.00000000000E+00  0.00000000000E+00 -0.19436103631E+04  0.19436103631E+04  0.25500000920E-02 0. -1.
    10030    2    1    2    0    0  0.00000000000E+00  0.00000000000E+00 -0.14812524778E+04  0.24059682484E+04  0.18959362619E+04 0.  0.
        2    1    3    3  502    0 -0.64855794306E+03 -0.59119208019E+02  0.13353977687E+03  0.66479723095E+03  0.25500000920E-02 0.  1.
       -2    1    3    3    0  502  0.64855794306E+03  0.59119208019E+02 -0.16147922547E+04  0.17411710175E+04  0.25500000920E-02 0. -1.
</event>
<event>
 5   0  0.1141890E-04  0.1902351E+04  0.7818609E-02  0.8653687E-01
        2   -1    0    0  501    0  0.00000000000E+00  0.00000000000E+00  0.94981162451E+03  0.94981162451E+03  0.25500000920E-02 0.  1.
       -2   -1    0    0    0  501  0.00000000000E+00  0.00000000000E+00 -0.95254111906E+03  0.95254111906E+03  0.25500000920E-02 0. -1.
    10030    2    1    2    0    0  0.00000000000E+00  0.00000000000E+00 -0.27294945538E+01  0.19023527436E+04  0.19023507854E+04 0.  0.
        2    1    3    3  502    0 -0.47667544997E+03 -0.81850219818E+03  0.85637035861E+02  0.95105154168E+03  0.25500000920E-02 0. -1.
       -2    1    3    3    0  502  0.47667544997E+03  0.81850219818E+03 -0.88366530415E+02  0.95130120189E+03  0.25500000920E-02 0.  1.
</event>
<event>
 5   0  0.1133638E-04  0.1900131E+04  0.7818609E-02  0.8654791E-01
       -2   -1    0    0    0  501  0.00000000000E+00  0.00000000000E+00  0.71651970946E+03  0.71651970947E+03  0.25500000920E-02 0. -1.
        2   -1    0    0  501    0  0.00000000000E+00  0.00000000000E+00 -0.12597344703E+04  0.12597344703E+04  0.25500000920E-02 0.  1.
    10030    2    1    2    0    0  0.00000000000E+00  0.00000000000E+00 -0.54321476088E+03  0.19762541798E+04  0.19001311288E+04 0.  0.
        3    1    3    3  502    0  0.92943033837E+03  0.19446137577E+03 -0.30397630812E+03  0.99702436612E+03  0.10100000352E+00 0. -1.
       -3    1    3    3    0  502 -0.92943033837E+03 -0.19446137577E+03 -0.23923845277E+03  0.97922981369E+03  0.10100000352E+00 0.  1.
</event>
<event>
 5   0  0.1101678E-04  0.1690212E+04  0.7818609E-02  0.8766967E-01
        2   -1    0    0  501    0  0.00000000000E+00  0.00000000000E+00  0.12390026047E+04  0.12390026047E+04  0.25500000920E-02 0. -1.
       -2   -1    0    0    0  501  0.00000000000E+00  0.00000000000E+00 -0.57643471137E+03  0.57643471137E+03  0.25500000920E-02 0.  1.
    10030    2    1    2    0    0  0.00000000000E+00  0.00000000000E+00  0.66256789335E+03  0.18154373161E+04  0.16902119498E+04 0.  0.
        4    1    3    3  502    0  0.61443934478E+03  0.50079609535E+03  0.64603049014E+03  0.10225895778E+04  0.12699999809E+01 0. -1.
       -4    1    3    3    0  502 -0.61443934478E+03 -0.50079609535E+03  0.16537403218E+02  0.79284773830E+03  0.12699999809E+01 0.  1.
</event>
<event>
 5   0  0.5841424E-05  0.1922647E+04  0.7818609E-02  0.8643665E-01
       -1   -1    0    0    0  501  0.00000000000E+00  0.00000000000E+00  0.71460378960E+03  0.71460378962E+03  0.50400001928E-02 0. -1.
        1   -1    0    0  501    0  0.00000000000E+00  0.00000000000E+00 -0.12932247333E+04  0.12932247333E+04  0.50400001928E-02 0.  1.
    10030    2    1    2    0    0  0.00000000000E+00  0.00000000000E+00 -0.57862094366E+03  0.20078285229E+04  0.19226474406E+04 0.  0.
        1    1    3    3  502    0 -0.26831091291E+03 -0.67737138831E+03 -0.94424861625E+03  0.11926559407E+04  0.50400001928E-02 0.  1.
       -1    1    3    3    0  502  0.26831091291E+03  0.67737138831E+03  0.36562767259E+03  0.81517258214E+03  0.50400001928E-02 0. -1.
</event>
<event>
 5   0  0.1101678E-04  0.1898398E+04  0.7818609E-02  0.8655654E-01
       -2   -1    0    0    0  501  0.00000000000E+00  0.00000000000E+00  0.66689695866E+03  0.66689695866E+03  0.25500000920E-02 0.  1.
        2   -1    0    0  501    0  0.00000000000E+00  0.00000000000E+00 -0.13510018004E+04  0.13510018004E+04  0.25500000920E-02 0. -1.
    10030    2    1    2    0    0  0.00000000000E+00  0.00000000000E+00 -0.68410484179E+03  0.20178987591E+04  0.18983982637E+04 0.  0.
        4    1    3    3  502    0 -0.63562873260E+03 -0.69529720110E+03 -0.46562576982E+03  0.10508430206E+04  0.12699999809E+01 0.  1.
       -4    1    3    3    0  502  0.63562873260E+03  0.69529720110E+03 -0.21847907197E+03  0.96705573849E+03  0.12699999809E+01 0. -1.
</event>
<event>
 5   0  0.5614989E-05  0.1899307E+04  0.7818609E-02  0.8655202E-01
       -1   -1    0    0    0  501  0.00000000000E+00  0.00000000000E+00  0.11531800303E+04  0.11531800303E+04  0.50400001928E-02 0. -1.
        1   -1    0    0  501    0  0.00000000000E+00  0.00000000000E+00 -0.78204738048E+03  0.78204738050E+03  0.50400001928E-02 0.  1.
    10030    2    1    2    0    0  0.00000000000E+00  0.00000000000E+00  0.37113264978E+03  0.19352274108E+04  0.18993066334E+04 0.  0.
        4    1    3    3  502    0 -0.77660478364E+03 -0.47587106912E+03  0.45948433629E+03  0.10201449567E+04  0.12699999809E+01 0. -1.
       -4    1    3    3    0  502  0.77660478364E+03  0.47587106912E+03 -0.88351686517E+02  0.91508245410E+03  0.12699999809E+01 0.  1.
</event>
<event>
 5   0  0.1118206E-04  0.1823291E+04  0.7818609E-02  0.8694011E-01
        2   -1    0    0  501    0  0.00000000000E+00  0.00000000000E+00  0.65400428065E+03  0.65400428066E+03  0.25500000920E-02 0. -1.
       -2   -1    0    0    0  501  0.00000000000E+00  0.00000000000E+00 -0.12707828468E+04  0.12707828468E+04  0.25500000920E-02 0.  1.
    10030    2    1    2    0    0  0.00000000000E+00  0.00000000000E+00 -0.61677856610E+03  0.19247871274E+04  0.18232908946E+04 0.  0.
        1    1    3    3  502    0 -0.39853048107E+03 -0.28738678921E+03  0.50226341955E+03  0.70262810476E+03  0.50400001928E-02 0. -1.
       -1    1    3    3    0  502  0.39853048107E+03  0.28738678921E+03 -0.11190419857E+04  0.12221590227E+04  0.50400001928E-02 0.  1.
</event>
<event>
 5   0  0.5579109E-05  0.1909667E+04  0.7818609E-02  0.8650059E-01
        1   -1    0    0  501    0  0.00000000000E+00  0.00000000000E+00  0.33470541257E+03  0.33470541260E+03  0.50400001928E-02 0.  1.
       -1   -1    0    0    0  501  0.00000000000E+00  0.00000000000E+00 -0.27239091072E+04  0.27239091072E+04  0.50400001928E-02 0. -1.
    10030    2    1    2    0    0  0.00000000000E+00  0.00000000000E+00 -0.23892036947E+04  0.30586145198E+04  0.19096671140E+04 0.  0.
        3    1    3    3  502    0  0.94177044990E+02  0.85958370053E+03 -0.54607549026E+03  0.10227179011E+04  0.10100000352E+00 0.  1.
       -3    1    3    3    0  502 -0.94177044990E+02 -0.85958370053E+03 -0.18431282044E+04  0.20358966187E+04  0.10100000352E+00 0. -1.
</event>
<event>
 5   0  0.1133638E-04  0.1879862E+04  0.7818609E-02  0.8664946E-01
       -2   -1    0    0    0  501  0.00000000000E+00  0.00000000000E+00  0.65341780601E+03  0.65341780602E+03  0.25500000920E-02 0.  1.
        2   -1    0    0  501    0  0.00000000000E+00  0.00000000000E+00 -0.13520761812E+04  0.13520761812E+04  0.25500000920E-02 0. -1.
    10030    2    1    2    0    0  0.00000000000E+00  0.00000000000E+00 -0.69865837517E+03  0.20054939872E+04  0.18798623906E+04 0.  0.
        3    1    3    3  502    0 -0.26025740029E+03  0.95745490994E+02  0.60878265947E+03  0.66896745072E+03  0.10100000352E+00 0.  1.
       -3    1    3    3    0  502  0.26025740029E+03 -0.95745490994E+02 -0.13074410346E+04  0.13365265365E+04  0.10100000352E+00 0. -1.
</event>
<event>
 5   0  0.5628936E-05  0.1892897E+04  0.7818609E-02  0.8658400E-01
       -1   -1    0    0    0  501  0.00000000000E+00  0.00000000000E+00  0.99641660510E+03  0.99641660511E+03  0.50400001928E-02 0.  1.
        1   -1    0    0  501    0  0.00000000000E+00  0.00000000000E+00 -0.89898644565E+03  0.89898644566E+03  0.50400001928E-02 0. -1.
    10030    2    1    2    0    0  0.00000000000E+00  0.00000000000E+00  0.97430159449E+02  0.18954030508E+04  0.18928972737E+04 0.  0.
        5    1    3    3  502    0 -0.45340724787E+03 -0.46046083849E+03 -0.64367740912E+03  0.91211019796E+03  0.46999998093E+01 0. -1.
       -5    1    3    3    0  502  0.45340724787E+03  0.46046083849E+03  0.74110756857E+03  0.98329285281E+03  0.46999998093E+01 0.  1.
</event>
<event>
 5   0  0.1118206E-04  0.1896971E+04  0.7818609E-02  0.8656366E-01
       -2   -1    0    0    0  501  0.00000000000E+00  0.00000000000E+00  0.16824062585E+04  0.16824062585E+04  0.25500000920E-02 0.  1.
        2   -1    0    0  501    0  0.00000000000E+00  0.00000000000E+00 -0.53472495819E+03  0.53472495820E+03  0.25500000920E-02 0. -1.
    10030    2    1    2    0    0  0.00000000000E+00  0.00000000000E+00  0.11476813003E+04  0.22171312167E+04  0.18969708656E+04 0.  0.
        1    1    3    3  502    0  0.40327616653E+03  0.85543887600E+03  0.65826209340E+03  0.11522657335E+04  0.50400001928E-02 0. -1.
       -1    1    3    3    0  502 -0.40327616653E+03 -0.85543887600E+03  0.48941920687E+03  0.10648654831E+04  0.50400001928E-02 0.  1.
</event>
<event>
 5   0  0.1133638E-04  0.1890715E+04  0.7818609E-02  0.8659492E-01
       -2   -1    0    0    0  501  0.00000000000E+00  0.00000000000E+00  0.11039553607E+04  0.11039553607E+04  0.25500000920E-02 0.  1.
        2   -1    0    0  501    0  0.00000000000E+00  0.00000000000E+00 -0.80954432956E+03  0.80954432957E+03  0.25500000920E-02 0. -1.
    10030    2    1    2    0    0  0.00000000000E+00  0.00000000000E+00  0.29441103114E+03  0.19134996903E+04  0.18907149995E+04 0.  0.
        3    1    3    3  502    0  0.51589191291E+02 -0.32166863913E+03 -0.75093964143E+03  0.81856124593E+03  0.10100000352E+00 0. -1.
       -3    1    3    3    0  502 -0.51589191291E+02  0.32166863913E+03  0.10453506726E+04  0.10949384443E+04  0.10100000352E+00 0.  1.
</event>
<event>
 5   0  0.4061125E-05  0.1895972E+04  0.7818609E-02  0.8656864E-01
        3   -1    0    0  501    0  0.00000000000E+00  0.00000000000E+00  0.11949152617E+04  0.11949152659E+04  0.10100000352E+00 0. -1.
       -3   -1    0    0    0  501  0.00000000000E+00  0.00000000000E+00 -0.75208475611E+03  0.75208476289E+03  0.10100000352E+00 0.  1.
    10030    2    1    2    0    0  0.00000000000E+00  0.00000000000E+00  0.44283050557E+03  0.19470000288E+04  0.18959721136E+04 0.  0.
        3    1    3    3  502    0 -0.56264815277E+03  0.70022088018E+03 -0.89716477067E+02  0.90273544370E+03  0.10100000352E+00 0.  1.
       -3    1    3    3    0  502  0.56264815277E+03 -0.70022088018E+03  0.53254698264E+03  0.10442645851E+04  0.10100000352E+00 0. -1.
</event>
<event>
 5   0  0.5614989E-05  0.1875524E+04  0.7818609E-02  0.8667136E-01
       -1   -1    0    0    0  501  0.00000000000E+00  0.00000000000E+00  0.12159005638E+04  0.12159005638E+04  0.50400001928E-02 0. -1.
        1   -1    0    0  501    0  0.00000000000E+00  0.00000000000E+00 -0.72324817508E+03  0.72324817510E+03  0.50400001928E-02 0.  1.
    10030    2    1    2    0    0  0.00000000000E+00  0.00000000000E+00  0.49265238869E+03  0.19391487389E+04  0.18755243148E+04 0.  0.
        4    1    3    3  502    0 -0.50067065716E+03  0.53756808185E+03  0.84897653802E+03  0.11226813103E+04  0.12699999809E+01 0. -1.
       -4    1    3    3    0  502  0.50067065716E+03 -0.53756808185E+03 -0.35632414933E+03  0.81646742854E+03  0.12699999809E+01 0.  1.
</event>
<event>
 5   0  0.5824956E-05  0.1901192E+04  0.7818609E-02  0.8654263E-01
       -1   -1    0    0    0  501  0.00000000000E+00  0.00000000000E+00  0.73645202354E+03  0.73645202356E+03  0.50400001928E-02 0.  1.
        1   -1    0    0  501    0  0.00000000000E+00  0.00000000000E+00 -0.12270086649E+04  0.12270086649E+04  0.50400001928E-02 0. -1.
    10030    2    1    2    0    0  0.00000000000E+00  0.00000000000E+00 -0.49055664132E+03  0.19634606884E+04  0.19011922724E+04 0.  0.
        2    1    3    3  502    0 -0.31114281402E+03  0.89811113864E+03 -0.26058070239E+03  0.98555353509E+03  0.25500000920E-02 0.  1.
       -2    1    3    3    0  502  0.31114281402E+03 -0.89811113864E+03 -0.22997593893E+03  0.97790715334E+03  0.25500000920E-02 0. -1.
</event>
<event>
 5   0  0.1101678E-04  0.1922853E+04  0.7818609E-02  0.8643564E-01
       -2   -1    0    0    0  501  0.00000000000E+00  0.00000000000E+00  0.55876752976E+03  0.55876752976E+03  0.25500000920E-02 0.  1.
        2   -1    0    0  501    0  0.00000000000E+00  0.00000000000E+00 -0.16542496864E+04  0.16542496864E+04  0.25500000920E-02 0. -1.
    10030    2    1    2    0    0  0.00000000000E+00  0.00000000000E+00 -0.10954821566E+04  0.22130172161E+04  0.19228530998E+04 0.  0.
        4    1    3    3  502    0 -0.39923208394E+03 -0.53007927220E+03 -0.13483999232E+04  0.15028487141E+04  0.12699999809E+01 0. -1.
       -4    1    3    3    0  502  0.39923208394E+03  0.53007927220E+03  0.25291776663E+03  0.71016850200E+03  0.12699999809E+01 0.  1.
</event>
<event>
 5   0  0.1118206E-04  0.1895713E+04  0.7818609E-02  0.8656993E-01
       -2   -1    0    0    0  501  0.00000000000E+00  0.00000000000E+00  0.54013579244E+03  0.54013579245E+03  0.25500000920E-02 0. -1.
        2   -1    0    0  501    0  0.00000000000E+00  0.00000000000E+00 -0.16633442183E+04  0.16633442183E+04  0.25500000920E-02 0.  1.
    10030    2    1    2    0    0  0.00000000000E+00  0.00000000000E+00 -0.11232084258E+04  0.22034800107E+04  0.18957127920E+04 0.  0.
        1    1    3    3  502    0  0.11317963636E+03 -0.59805915310E+03 -0.14061668964E+04  0.15322498886E+04  0.50400001928E-02 0.  1.
       -1    1    3    3    0  502 -0.11317963636E+03  0.59805915310E+03  0.28295847057E+03  0.67123012208E+03  0.50400001928E-02 0. -1.
</event>
<event>
 5   0  0.5841424E-05  0.1899525E+04  0.7818609E-02  0.8655093E-01
       -1   -1    0    0    0  501  0.00000000000E+00  0.00000000000E+00  0.71461549495E+03  0.71461549497E+03  0.50400001928E-02 0. -1.
        1   -1    0    0  501    0  0.00000000000E+00  0.00000000000E+00 -0.12622853173E+04  0.12622853173E+04  0.50400001928E-02 0.  1.
    10030    2    1    2    0    0  0.00000000000E+00  0.00000000000E+00 -0.54766982233E+03  0.19769008123E+04  0.18995248320E+04 0.  0.
        1    1    3    3  502    0  0.77269792081E+03  0.31565385301E+03  0.19777880571E+03  0.85779711340E+03  0.50400001928E-02 0. -1.
       -1    1    3    3    0  502 -0.77269792081E+03 -0.31565385301E+03 -0.74544862804E+03  0.11191036989E+04  0.50400001928E-02 0.  1.
</event>
<event>
 5   0  0.1182630E-04  0.1902951E+04  0.7818609E-02  0.8653389E-01
       -2   -1    0    0    0  501  0.00000000000E+00  0.00000000000E+00  0.78128061351E+03  0.78128061351E+03  0.25500000920E-02 0. -1.
        2   -1    0    0  501    0  0.00000000000E+00  0.00000000000E+00 -0.11587457782E+04  0.11587457782E+04  0.25500000920E-02 0.  1.
    10030    2    1    2    0    0  0.00000000000E+00  0.00000000000E+00 -0.37746516468E+03  0.19400263917E+04  0.19029509846E+04 0.  0.
        5    1    3    3  502    0 -0.56594427042E+03 -0.66217135180E+03  0.20150406824E+03  0.89408601146E+03  0.46999998093E+01 0. -1.
       -5    1    3    3    0  502  0.56594427042E+03  0.66217135180E+03 -0.57896923292E+03  0.10459403802E+04  0.46999998093E+01 0.  1.
</event>
<event>
 5   0  0.5614989E-05  0.2009837E+04  0.7818609E-02  0.8602035E-01
       -1   -1    0    0    0  501  0.00000000000E+00  0.00000000000E+00  0.91559996494E+03  0.91559996495E+03  0.50400001928E-02 0.  1.
        1   -1    0    0  501    0  0.00000000000E+00  0.00000000000E+00 -0.11029500069E+04  0.11029500069E+04  0.50400001928E-02 0. -1.
    10030    2    1    2    0    0  0.00000000000E+00  0.00000000000E+00 -0.18735004197E+03  0.20185499719E+04  0.20098367970E+04 0.  0.
        4    1    3    3  502    0  0.36974716366E+03 -0.16003577208E+03  0.83093271610E+03  0.92345828545E+03  0.12699999809E+01 0.  1.
       -4    1    3    3    0  502 -0.36974716366E+03  0.16003577208E+03 -0.10182827581E+04  0.10950916864E+04  0.12699999809E+01 0. -1.
</event>
<event>
 5   0  0.5628936E-05  0.1904053E+04  0.7818609E-02  0.8652842E-01
       -1   -1    0    0    0  501  0.00000000000E+00  0.00000000000E+00  0.15555413952E+04  0.15555413952E+04  0.50400001928E-02 0.  1.
        1   -1    0    0  501    0  0.00000000000E+00  0.00000000000E+00 -0.58266176236E+03  0.58266176238E+03  0.50400001928E-02 0. -1.
    10030    2    1    2    0    0  0.00000000000E+00  0.00000000000E+00  0.97287963287E+03  0.21382031576E+04  0.19040530358E+04 0.  0.
        5    1    3    3  502    0  0.12283834201E+03 -0.46960320892E+03 -0.43324549141E+03  0.65064596973E+03  0.46999998093E+01 0. -1.
       -5    1    3    3    0  502 -0.12283834201E+03  0.46960320892E+03  0.14061251243E+04  0.14875571879E+04  0.46999998093E+01 0.  1.
</event>
<event>
 5   0  0.5824956E-05  0.1922558E+04  0.7818609E-02  0.8643709E-01
       -1   -1    0    0    0  501  0.00000000000E+00  0.00000000000E+00  0.78696469166E+03  0.78696469167E+03  0.50400001928E-02 0. -1.
        1   -1    0    0  501    0  0.00000000000E+00  0.00000000000E+00 -0.11742041846E+04  0.11742041846E+04  0.50400001928E-02 0.  1.
    10030    2    1    2    0    0  0.00000000000E+00  0.00000000000E+00 -0.38723949296E+03  0.19611688763E+04  0.19225579150E+04 0.  0.
        2    1    3    3  502    0 -0.76751398847E+02 -0.17565336683E+03 -0.11545100803E+04  0.11703155165E+04  0.25500000920E-02 0.  1.
       -2    1    3    3    0  502  0.76751398847E+02  0.17565336683E+03  0.76727058737E+03  0.79085335983E+03  0.25500000920E-02 0. -1.
</event>
<event>
 5   0  0.1101678E-04  0.1892774E+04  0.7818609E-02  0.8658462E-01
        2   -1    0    0  501    0  0.00000000000E+00  0.00000000000E+00  0.12027044402E+04  0.12027044402E+04  0.25500000920E-02 0. -1.
       -2   -1    0    0    0  501  0.00000000000E+00  0.00000000000E+00 -0.74469495983E+03  0.74469495984E+03  0.25500000920E-02 0.  1.
    10030    2    1    2    0    0  0.00000000000E+00  0.00000000000E+00  0.45800948039E+03  0.19473994001E+04  0.18927735573E+04 0.  0.
        4    1    3    3  502    0 -0.53747988004E+03 -0.61094063379E+03  0.72618299886E+03  0.10906312118E+04  0.12699999809E+01 0. -1.
       -4    1    3    3    0  502  0.53747988004E+03  0.61094063379E+03 -0.26817351847E+03  0.85676818824E+03  0.12699999809E+01 0.  1.
</event>
<event>
 5   0  0.5841424E-05  0.1852366E+04  0.7818609E-02  0.8678937E-01
        1   -1    0    0  501    0  0.00000000000E+00  0.00000000000E+00  0.13122923993E+04  0.13122923993E+04  0.50400001928E-02 0. -1.
       -1   -1    0    0    0  501  0.00000000000E+00  0.00000000000E+00 -0.65367647771E+03  0.65367647773E+03  0.50400001928E-02 0.  1.
    10030    2    1    2    0    0  0.00000000000E+00  0.00000000000E+00  0.65861592157E+03  0.19659688770E+04  0.18523657018E+04 0.  0.
        1    1    3    3  502    0  0.29102642034E+02 -0.90943272776E+03  0.51282830597E+03  0.10444652802E+04  0.50400001928E-02 0. -1.
       -1    1    3    3    0  502 -0.29102642034E+02  0.90943272776E+03  0.14578761560E+03  0.92150359683E+03  0.50400001928E-02 0.  1.
</event>
<event>
 5   0  0.5579109E-05  0.1907246E+04  0.7818609E-02  0.8651258E-01
        1   -1    0    0  501    0  0.00000000000E+00  0.00000000000E+00  0.81957067588E+03  0.81957067589E+03  0.50400001928E-02 0.  1.
       -1   -1    0    0    0  501  0.00000000000E+00  0.00000000000E+00 -0.11096010495E+04  0.11096010495E+04  0.50400001928E-02 0. -1.
    10030    2    1    2    0    0  0.00000000000E+00  0.00000000000E+00 -0.29003037359E+03  0.19291717254E+04  0.19072456392E+04 0.  0.
        3    1    3    3  502    0  0.89868112729E+03  0.21366983724E+03 -0.38462218587E+03  0.10006082170E+04  0.10100000352E+00 0. -1.
       -3    1    3    3    0  502 -0.89868112729E+03 -0.21366983724E+03  0.94591812278E+02  0.92856350835E+03  0.10100000352E+00 0.  1.
</event>
<event>
 5   0  0.1141890E-04  0.1895601E+04  0.7818609E-02  0.8657049E-01
       -2   -1    0    0    0  501  0.00000000000E+00  0.00000000000E+00  0.10154371372E+04  0.10154371372E+04  0.25500000920E-02 0. -1.
        2   -1    0    0  501    0  0.00000000000E+00  0.00000000000E+00 -0.88466886894E+03  0.88466886894E+03  0.25500000920E-02 0.  1.
    10030    2    1    2    0    0  0.00000000000E+00  0.00000000000E+00  0.13076826829E+03  0.19001060062E+04  0.18956008268E+04 0.  0.
        2    1    3    3  502    0  0.42972725999E+03  0.32475045571E+03 -0.71633936321E+03  0.89625356890E+03  0.25500000920E-02 0.  1.
       -2    1    3    3    0  502 -0.42972725999E+03 -0.32475045571E+03  0.84710763150E+03  0.10038524373E+04  0.25500000920E-02 0. -1.
</event>
<event>
 5   0  0.1101678E-04  0.1908879E+04  0.7818609E-02  0.8650449E-01
       -2   -1    0    0    0  501  0.00000000000E+00  0.00000000000E+00  0.10019568047E+04  0.10019568047E+04  0.25500000920E-02 0.  1.
        2   -1    0    0  501    0  0.00000000000E+00  0.00000000000E+00 -0.90917561773E+03  0.90917561774E+03  0.25500000920E-02 0. -1.
    10030    2    1    2    0    0  0.00000000000E+00  0.00000000000E+00  0.92781186996E+02  0.19111324225E+04  0.19088789348E+04 0.  0.
        4    1    3    3  502    0  0.60112592514E+03 -0.48860002208E+03  0.60460662859E+03  0.98266634607E+03  0.12699999809E+01 0. -1.
       -4    1    3    3    0  502 -0.60112592514E+03  0.48860002208E+03 -0.51182544160E+03  0.92846607640E+03  0.12699999809E+01 0.  1.
</event>
<event>
 5   0  0.5628936E-05  0.1905367E+04  0.7818609E-02  0.8652189E-01
       -1   -1    0    0    0  501  0.00000000000E+00  0.00000000000E+00  0.58268048801E+03  0.58268048803E+03  0.50400001928E-02 0. -1.
        1   -1    0    0  501    0  0.00000000000E+00  0.00000000000E+00 -0.15576389544E+04  0.15576389544E+04  0.50400001928E-02 0.  1.
    10030    2    1    2    0    0  0.00000000000E+00  0.00000000000E+00 -0.97495846638E+03  0.21403194424E+04  0.19053669737E+04 0.  0.
        5    1    3    3  502    0  0.25104877536E+03 -0.28695661382E+03 -0.14681844080E+04  0.15168906130E+04  0.46999998093E+01 0.  1.
       -5    1    3    3    0  502 -0.25104877536E+03  0.28695661382E+03  0.49322594166E+03  0.62342882942E+03  0.46999998093E+01 0. -1.
</event>
<event>
 5   0  0.1101678E-04  0.1906385E+04  0.7818609E-02  0.8651685E-01
       -2   -1    0    0    0  501  0.00000000000E+00  0.00000000000E+00  0.86526651519E+03  0.86526651519E+03  0.25500000920E-02 0. -1.
        2   -1    0    0  501    0  0.00000000000E+00  0.00000000000E+00 -0.10500532047E+04  0.10500532047E+04  0.25500000920E-02 0.  1.
    10030    2    1    2    0    0  0.00000000000E+00  0.00000000000E+00 -0.18478668947E+03  0.19153197199E+04  0.19063849319E+04 0.  0.
        4    1    3    3  502    0 -0.55355587384E+03 -0.56032143770E+03 -0.63174270885E+03  0.10096953412E+04  0.12699999809E+01 0.  1.
       -4    1    3    3    0  502  0.55355587384E+03  0.56032143770E+03  0.44695601938E+03  0.90562437863E+03  0.12699999809E+01 0. -1.
</event>
<event>
 5   0  0.5824956E-05  0.1899028E+04  0.7818609E-02  0.8655340E-01
       -1   -1    0    0    0  501  0.00000000000E+00  0.00000000000E+00  0.11115918276E+04  0.11115918276E+04  0.50400001928E-02 0.  1.
        1   -1    0    0  501    0  0.00000000000E+00  0.00000000000E+00 -0.81106815127E+03  0.81106815128E+03  0.50400001928E-02 0. -1.
    10030    2    1    2    0    0  0.00000000000E+00  0.00000000000E+00  0.30052367633E+03  0.19226599789E+04  0.18990278867E+04 0.  0.
        2    1    3    3  502    0  0.29339821267E+03 -0.68893401769E+03 -0.44083930488E+03  0.86893721561E+03  0.25500000920E-02 0. -1.
       -2    1    3    3    0  502 -0.29339821267E+03  0.68893401769E+03  0.74136298121E+03  0.10537227633E+04  0.25500000920E-02 0.  1.
</event>
<event>
 5   0  0.1182630E-04  0.1888906E+04  0.7818609E-02  0.8660398E-01
       -2   -1    0    0    0  501  0.00000000000E+00  0.00000000000E+00  0.45022902490E+03  0.45022902490E+03  0.25500000920E-02 0. -1.
        2   -1    0    0  501    0  0.00000000000E+00  0.00000000000E+00 -0.19811957504E+04  0.19811957504E+04  0.25500000920E-02 0.  1.
    10030    2    1    2    0    0  0.00000000000E+00  0.00000000000E+00 -0.15309667255E+04  0.24314247753E+04  0.18889063829E+04 0.  0.
        5    1    3    3  502    0 -0.85091530783E+03 -0.34951272104E+03 -0.10408198023E+04  0.13890802547E+04  0.46999998093E+01 0.  1.
       -5    1    3    3    0  502  0.85091530783E+03  0.34951272104E+03 -0.49014692325E+03  0.10423445206E+04  0.46999998093E+01 0. -1.
</event>
<event>
 5   0  0.5614989E-05  0.1891972E+04  0.7818609E-02  0.8658863E-01
        1   -1    0    0  501    0  0.00000000000E+00  0.00000000000E+00  0.86269926830E+03  0.86269926832E+03  0.50400001928E-02 0. -1.
       -1   -1    0    0    0  501  0.00000000000E+00  0.00000000000E+00 -0.10373138663E+04  0.10373138663E+04  0.50400001928E-02 0.  1.
    10030    2    1    2    0    0  0.00000000000E+00  0.00000000000E+00 -0.17461459798E+03  0.19000131346E+04  0.18919724242E+04 0.  0.
        4    1    3    3  502    0 -0.21505337132E+03  0.17890793792E+03 -0.99482494253E+03  0.10334090584E+04  0.12699999809E+01 0.  1.
       -4    1    3    3    0  502  0.21505337132E+03 -0.17890793792E+03  0.82021034454E+03  0.86660407624E+03  0.12699999809E+01 0. -1.
</event>
<event>
 5   0  0.1133638E-04  0.1895622E+04  0.7818609E-02  0.8657039E-01
       -2   -1    0    0    0  501  0.00000000000E+00  0.00000000000E+00  0.61433769835E+03  0.61433769836E+03  0.25500000920E-02 0. -1.
        2   -1    0    0  501    0  0.00000000000E+00  0.00000000000E+00 -0.14622997876E+04  0.14622997876E+04  0.25500000920E-02 0.  1.
    10030    2    1    2    0    0  0.00000000000E+00  0.00000000000E+00 -0.84796208928E+03  0.20766374860E+04  0.18956222048E+04 0.  0.
        3    1    3    3  502    0  0.76199025517E+03 -0.26809419139E+03 -0.96715275959E+03  0.12601143262E+04  0.10100000352E+00 0.  1.
       -3    1    3    3    0  502 -0.76199025517E+03  0.26809419139E+03  0.11919067031E+03  0.81652315982E+03  0.10100000352E+00 0. -1.
</event>
<event>
 5   0  0.5824956E-05  0.1917394E+04  0.7818609E-02  0.8646247E-01
       -1   -1    0    0    0  501  0.00000000000E+00  0.00000000000E+00  0.76804513400E+03  0.76804513402E+03  0.50400001928E-02 0.  1.
        1   -1    0    0  501    0  0.00000000000E+00  0.00000000000E+00 -0.11966740005E+04  0.11966740005E+04  0.50400001928E-02 0. -1.
    10030    2    1    2    0    0  0.00000000000E+00  0.00000000000E+00 -0.42862886647E+03  0.19647191345E+04  0.19173936926E+04 0.  0.
        2    1    3    3  502    0  0.39791003051E+03 -0.28941387219E+03 -0.10574272968E+04  0.11662955328E+04  0.25500000920E-02 0. -1.
       -2    1    3    3    0  502 -0.39791003051E+03  0.28941387219E+03  0.62879843032E+03  0.79842360171E+03  0.25500000920E-02 0.  1.
</event>
<event>
 5   0  0.1141890E-04  0.1899523E+04  0.7818609E-02  0.8655094E-01
        2   -1    0    0  501    0  0.00000000000E+00  0.00000000000E+00  0.16775630214E+04  0.16775630214E+04  0.25500000920E-02 0. -1.
       -2   -1    0    0    0  501  0.00000000000E+00  0.00000000000E+00 -0.53771271680E+03  0.53771271681E+03  0.25500000920E-02 0.  1.
    10030    2    1    2    0    0  0.00000000000E+00  0.00000000000E+00  0.11398503046E+04  0.22152757382E+04  0.18995230663E+04 0.  0.
        2    1    3    3  502    0  0.64748345862E+03  0.58492285339E+03  0.10073418728E+04  0.13327067278E+04  0.25500000920E-02 0. -1.
       -2    1    3    3    0  502 -0.64748345862E+03 -0.58492285339E+03  0.13250843177E+03  0.88256901039E+03  0.25500000920E-02 0.  1.
</event>
<event>
 5   0  0.1101678E-04  0.1901025E+04  0.7818609E-02  0.8654346E-01
        2   -1    0    0  501    0  0.00000000000E+00  0.00000000000E+00  0.14005836650E+04  0.14005836650E+04  0.25500000920E-02 0.  1.
       -2   -1    0    0    0  501  0.00000000000E+00  0.00000000000E+00 -0.64506993515E+03  0.64506993516E+03  0.25500000920E-02 0. -1.
    10030    2    1    2    0    0  0.00000000000E+00  0.00000000000E+00  0.75551372988E+03  0.20456536002E+04  0.19010254222E+04 0.  0.
        4    1    3    3  502    0 -0.55021565359E+03 -0.75282669066E+03  0.17937414490E+03  0.94955883882E+03  0.12699999809E+01 0. -1.
       -4    1    3    3    0  502  0.55021565359E+03  0.75282669066E+03  0.57613958498E+03  0.10960947614E+04  0.12699999809E+01 0.  1.
</event>
<event>
 5   0  0.1182630E-04  0.1909672E+04  0.7818609E-02  0.8650057E-01
        2   -1    0    0  501    0  0.00000000000E+00  0.00000000000E+00  0.20370850245E+04  0.20370850245E+04  0.25500000920E-02 0.  1.
       -2   -1    0    0    0  501  0.00000000000E+00  0.00000000000E+00 -0.44755717498E+03  0.44755717499E+03  0.25500000920E-02 0. -1.
    10030    2    1    2    0    0  0.00000000000E+00  0.00000000000E+00  0.15895278495E+04  0.24846421995E+04  0.19096722428E+04 0.  0.
        5    1    3    3  502    0  0.91496788235E+03 -0.62300272930E+02  0.11405740297E+04  0.14635500528E+04  0.46999998093E+01 0.  1.
       -5    1    3    3    0  502 -0.91496788235E+03  0.62300272930E+02  0.44895381979E+03  0.10210921467E+04  0.46999998093E+01 0. -1.
</event>
<event>
 5   0  0.5841424E-05  0.1878040E+04  0.7818609E-02  0.8665865E-01
        1   -1    0    0  501    0  0.00000000000E+00  0.00000000000E+00  0.57844589778E+03  0.57844589780E+03  0.50400001928E-02 0. -1.
       -1   -1    0    0    0  501  0.00000000000E+00  0.00000000000E+00 -0.15243580347E+04  0.15243580347E+04  0.50400001928E-02 0.  1.
    10030    2    1    2    0    0  0.00000000000E+00  0.00000000000E+00 -0.94591213696E+03  0.21028039325E+04  0.18780400975E+04 0.  0.
        1    1    3    3  502    0  0.76996760240E+03  0.45906194032E+03 -0.15990451749E+03  0.91058081933E+03  0.50400001928E-02 0. -1.
       -1    1    3    3    0  502 -0.76996760240E+03 -0.45906194032E+03 -0.78600761947E+03  0.11922231132E+04  0.50400001928E-02 0.  1.
</event>
<event>
 5   0  0.5824956E-05  0.1882967E+04  0.7818609E-02  0.8663382E-01
        1   -1    0    0  501    0  0.00000000000E+00  0.00000000000E+00  0.57659734633E+03  0.57659734635E+03  0.50400001928E-02 0.  1.
       -1   -1    0    0    0  501  0.00000000000E+00  0.00000000000E+00 -0.15372793143E+04  0.15372793143E+04  0.50400001928E-02 0. -1.
    10030    2    1    2    0    0  0.00000000000E+00  0.00000000000E+00 -0.96068196794E+03  0.21138766606E+04  0.18829669920E+04 0.  0.
        2    1    3    3  502    0 -0.66892220975E+00 -0.53935290238E+03  0.38597010075E+03  0.66323066835E+03  0.25500000920E-02 0.  1.
       -2    1    3    3    0  502  0.66892220975E+00  0.53935290238E+03 -0.13466520687E+04  0.14506459923E+04  0.25500000920E-02 0. -1.
</event>
<event>
 5   0  0.1182630E-04  0.1909769E+04  0.7818609E-02  0.8650009E-01
        2   -1    0    0  501    0  0.00000000000E+00  0.00000000000E+00  0.55134393556E+03  0.55134393557E+03  0.25500000920E-02 0.  1.
       -2   -1    0    0    0  501  0.00000000000E+00  0.00000000000E+00 -0.16537845320E+04  0.16537845320E+04  0.25500000920E-02 0. -1.
    10030    2    1    2    0    0  0.00000000000E+00  0.00000000000E+00 -0.11024405964E+04  0.22051284676E+04  0.19097686482E+04 0.  0.
        5    1    3    3  502    0  0.38215735203E+03 -0.31388325579E+03 -0.14943817688E+04  0.15740920878E+04  0.46999998093E+01 0. -1.
       -5    1    3    3    0  502 -0.38215735203E+03  0.31388325579E+03  0.39194117237E+03  0.63103637975E+03  0.46999998093E+01 0.  1.
</event>
<event>
 5   0  0.5579109E-05  0.1909512E+04  0.7818609E-02  0.8650136E-01
        1   -1    0    0  501    0  0.00000000000E+00  0.00000000000E+00  0.14379105963E+04  0.14379105963E+04  0.50400001928E-02 0.  1.
       -1   -1    0    0    0  501  0.00000000000E+00  0.00000000000E+00 -0.63394698191E+03  0.63394698193E+03  0.50400001928E-02 0. -1.
    10030    2    1    2    0    0  0.00000000000E+00  0.00000000000E+00  0.80396361438E+03  0.20718575782E+04  0.19095120663E+04 0.  0.
        3    1    3    3  502    0  0.71183138004E+03 -0.37113133799E+03 -0.15879236451E+03  0.81832597960E+03  0.10100000352E+00 0. -1.
       -3    1    3    3    0  502 -0.71183138004E+03  0.37113133799E+03  0.96275597889E+03  0.12535315986E+04  0.10100000352E+00 0.  1.
</event>
<event>
 5   0  0.1118206E-04  0.1917225E+04  0.7818609E-02  0.8646330E-01
       -2   -1    0    0    0  501  0.00000000000E+00  0.00000000000E+00  0.51450354747E+03  0.51450354747E+03  0.25500000920E-02 0. -1.
        2   -1    0    0  501    0  0.00000000000E+00  0.00000000000E+00 -0.17860673510E+04  0.17860673510E+04  0.25500000920E-02 0.  1.
    10030    2    1    2    0    0  0.00000000000E+00  0.00000000000E+00 -0.12715638036E+04  0.23005708985E+04  0.19172250657E+04 0.  0.
        1    1    3    3  502    0 -0.41511073947E+02  0.13987409214E+03 -0.17726656413E+04  0.17786600031E+04  0.50400001928E-02 0.  1.
       -1    1    3    3    0  502  0.41511073947E+02 -0.13987409214E+03  0.50110183773E+03  0.52191089537E+03  0.50400001928E-02 0. -1.
</event>
<event>
 5   0  0.5841424E-05  0.1912515E+04  0.7818609E-02  0.8648652E-01
        1   -1    0    0  501    0  0.00000000000E+00  0.00000000000E+00  0.21996165455E+04  0.21996165455E+04  0.50400001928E-02 0.  1.
       -1   -1    0    0    0  501  0.00000000000E+00  0.00000000000E+00 -0.41572179794E+03  0.41572179797E+03  0.50400001928E-02 0. -1.
    10030    2    1    2    0    0  0.00000000000E+00  0.00000000000E+00  0.17838947475E+04  0.26153383434E+04  0.19125151452E+04 0.  0.
        1    1    3    3  502    0 -0.71458085416E+03  0.22603197118E+03  0.79802891580E+02  0.75371397138E+03  0.50400001928E-02 0. -1.
       -1    1    3    3    0  502  0.71458085416E+03 -0.22603197118E+03  0.17040918559E+04  0.18616243721E+04  0.50400001928E-02 0.  1.
</event>
<event>
 5   0  0.1118206E-04  0.1876011E+04  0.7818609E-02  0.8666890E-01
       -2   -1    0    0    0  501  0.00000000000E+00  0.00000000000E+00  0.55595335354E+03  0.55595335354E+03  0.25500000920E-02 0. -1.
        2   -1    0    0  501    0  0.00000000000E+00  0.00000000000E+00 -0.15826052350E+04  0.15826052350E+04  0.25500000920E-02 0.  1.
    10030    2    1    2    0    0  0.00000000000E+00  0.00000000000E+00 -0.10266518815E+04  0.21385585886E+04  0.18760113941E+04 0.  0.
        1    1    3    3  502    0  0.90223812353E+03  0.90625437953E+02 -0.23971881440E+03  0.93792948112E+03  0.50400001928E-02 0. -1.
       -1    1    3    3    0  502 -0.90223812353E+03 -0.90625437953E+02 -0.78693306708E+03  0.12006291074E+04  0.50400001928E-02 0.  1.
</event>
<event>
 5   0  0.1118206E-04  0.1911839E+04  0.7818609E-02  0.8648986E-01
        2   -1    0    0  501    0  0.00000000000E+00  0.00000000000E+00  0.24246732596E+04  0.24246732596E+04  0.25500000920E-02 0.  1.
       -2   -1    0    0    0  501  0.00000000000E+00  0.00000000000E+00 -0.37686810902E+03  0.37686810903E+03  0.25500000920E-02 0. -1.
    10030    2    1    2    0    0  0.00000000000E+00  0.00000000000E+00  0.20478051506E+04  0.28015413687E+04  0.19118389329E+04 0.  0.
        1    1    3    3  502    0  0.68183264412E+03  0.48978413648E+03  0.35399241290E+03  0.91109543043E+03  0.50400001928E-02 0. -1.
       -1    1    3    3    0  502 -0.68183264412E+03 -0.48978413648E+03  0.16938127377E+04  0.18904459382E+04  0.50400001928E-02 0.  1.
</event>
<event>
 5   0  0.1182630E-04  0.1932593E+04  0.7818609E-02  0.8638801E-01
       -2   -1    0    0    0  501  0.00000000000E+00  0.00000000000E+00  0.25169061212E+04  0.25169061212E+04  0.25500000920E-02 0. -1.
        2   -1    0    0  501    0  0.00000000000E+00  0.00000000000E+00 -0.37098272820E+03  0.37098272821E+03  0.25500000920E-02 0.  1.
    10030    2    1    2    0    0  0.00000000000E+00  0.00000000000E+00  0.21459233930E+04  0.28878888494E+04  0.19325927657E+04 0.  0.
        5    1    3    3  502    0  0.30443747967E+02 -0.75582745816E+03  0.19714182132E+04  0.21115666766E+04  0.46999998093E+01 0. -1.
       -5    1    3    3    0  502 -0.30443747967E+02  0.75582745816E+03  0.17450517984E+03  0.77632217287E+03  0.46999998093E+01 0.  1.
</event>
<event>
 5   0  0.1133638E-04  0.1906080E+04  0.7818609E-02  0.8651836E-01
       -2   -1    0    0    0  501  0.00000000000E+00  0.00000000000E+00  0.64225601295E+03  0.64225601296E+03  0.25500000920E-02 0.  1.
        2   -1    0    0  501    0  0.00000000000E+00  0.00000000000E+00 -0.14142106832E+04  0.14142106832E+04  0.25500000920E-02 0. -1.
    10030    2    1    2    0    0  0.00000000000E+00  0.00000000000E+00 -0.77195467020E+03  0.20564666961E+04  0.19060800769E+04 0.  0.
        3    1    3    3  502    0  0.29277784085E+03 -0.17264505068E+02 -0.13643117545E+04  0.13954796669E+04  0.10100000352E+00 0. -1.
       -3    1    3    3    0  502 -0.29277784085E+03  0.17264505068E+02  0.59235708429E+03  0.66098702917E+03  0.10100000352E+00 0.  1.
</event>
<event>
 5   0  0.5614989E-05  0.1891073E+04  0.7818609E-02  0.8659313E-01
       -1   -1    0    0    0  501  0.00000000000E+00  0.00000000000E+00  0.66694519985E+03  0.66694519987E+03  0.50400001928E-02 0.  1.
        1   -1    0    0  501    0  0.00000000000E+00  0.00000000000E+00 -0.13404988105E+04  0.13404988105E+04  0.50400001928E-02 0. -1.
    10030    2    1    2    0    0  0.00000000000E+00  0.00000000000E+00 -0.67355361067E+03  0.20074440104E+04  0.18910729728E+04 0.  0.
        4    1    3    3  502    0  0.28645077166E+03  0.15475953061E+03 -0.12791162647E+04  0.13199032496E+04  0.12699999809E+01 0. -1.
       -4    1    3    3    0  502 -0.28645077166E+03 -0.15475953061E+03  0.60556265401E+03  0.68754076078E+03  0.12699999809E+01 0.  1.
</event>
<event>
 5   0  0.5579109E-05  0.1903454E+04  0.7818609E-02  0.8653139E-01
       -1   -1    0    0    0  501  0.00000000000E+00  0.00000000000E+00  0.39668650320E+03  0.39668650324E+03  0.50400001928E-02 0.  1.
        1   -1    0    0  501    0  0.00000000000E+00  0.00000000000E+00 -0.22833763206E+04  0.22833763206E+04  0.50400001928E-02 0. -1.
    10030    2    1    2    0    0  0.00000000000E+00  0.00000000000E+00 -0.18866898174E+04  0.26800628238E+04  0.19034543001E+04 0.  0.
        3    1    3    3  502    0 -0.85217439282E+03  0.16118532902E+03 -0.39151926693E+03  0.95156148128E+03  0.10100000352E+00 0.  1.
       -3    1    3    3    0  502  0.85217439282E+03 -0.16118532902E+03 -0.14951705504E+04  0.17285013425E+04  0.10100000352E+00 0. -1.
</event>
<event>
 5   0  0.5824956E-05  0.1894440E+04  0.7818609E-02  0.8657629E-01
        1   -1    0    0  501    0  0.00000000000E+00  0.00000000000E+00  0.90456329558E+03  0.90456329560E+03  0.50400001928E-02 0.  1.
       -1   -1    0    0    0  501  0.00000000000E+00  0.00000000000E+00 -0.99188834804E+03  0.99188834806E+03  0.50400001928E-02 0. -1.
    10030    2    1    2    0    0  0.00000000000E+00  0.00000000000E+00 -0.87325052461E+02  0.18964516437E+04  0.18944400682E+04 0.  0.
        2    1    3    3  502    0 -0.92878248387E+02 -0.38059406897E+03  0.81966121714E+03  0.90847274326E+03  0.25500000920E-02 0.  1.
       -2    1    3    3    0  502  0.92878248387E+02  0.38059406897E+03 -0.90698626961E+03  0.98797890039E+03  0.25500000920E-02 0. -1.
</event>
<event>
 5   0  0.5841424E-05  0.1844501E+04  0.7818609E-02  0.8682986E-01
        1   -1    0    0  501    0  0.00000000000E+00  0.00000000000E+00  0.15498754967E+04  0.15498754967E+04  0.50400001928E-02 0.  1.
       -1   -1    0    0    0  501  0.00000000000E+00  0.00000000000E+00 -0.54878332880E+03  0.54878332882E+03  0.50400001928E-02 0. -1.
    10030    2    1    2    0    0  0.00000000000E+00  0.00000000000E+00  0.10010921679E+04  0.20986588256E+04  0.18445008369E+04 0.  0.
        1    1    3    3  502    0 -0.35089439224E+03  0.70926679805E+03 -0.38387544864E+02  0.79224987785E+03  0.50400001928E-02 0. -1.
       -1    1    3    3    0  502  0.35089439224E+03 -0.70926679805E+03  0.10394797128E+04  0.13064089477E+04  0.50400001928E-02 0.  1.
</event>
<event>
 5   0  0.1118206E-04  0.1906248E+04  0.7818609E-02  0.8651753E-01
        2   -1    0    0  501    0  0.00000000000E+00  0.00000000000E+00  0.14836535746E+04  0.14836535746E+04  0.25500000920E-02 0.  1.
       -2   -1    0    0    0  501  0.00000000000E+00  0.00000000000E+00 -0.61230299493E+03  0.61230299493E+03  0.25500000920E-02 0. -1.
    10030    2    1    2    0    0  0.00000000000E+00  0.00000000000E+00  0.87135057971E+03  0.20959565696E+04  0.19062481761E+04 0.  0.
        1    1    3    3  502    0  0.70425027707E+03 -0.39422650589E+03  0.99314622877E+03  0.12797352939E+04  0.50400001928E-02 0.  1.
       -1    1    3    3    0  502 -0.70425027707E+03  0.39422650589E+03 -0.12179564906E+03  0.81622127567E+03  0.50400001928E-02 0. -1.
</event>
<event>
 5   0  0.5579109E-05  0.1902735E+04  0.7818609E-02  0.8653496E-01
        1   -1    0    0  501    0  0.00000000000E+00  0.00000000000E+00  0.50511452815E+03  0.50511452818E+03  0.50400001928E-02 0. -1.
       -1   -1    0    0    0  501  0.00000000000E+00  0.00000000000E+00 -0.17918706947E+04  0.17918706947E+04  0.50400001928E-02 0.  1.
    10030    2    1    2    0    0  0.00000000000E+00  0.00000000000E+00 -0.12867561665E+04  0.22969852228E+04  0.19027347902E+04 0.  0.
        3    1    3    3  502    0  0.11963379140E+03 -0.15717534176E+03 -0.17668438519E+04  0.17778508203E+04  0.10100000352E+00 0.  1.
       -3    1    3    3    0  502 -0.11963379140E+03  0.15717534176E+03  0.48008768535E+03  0.51913440257E+03  0.10100000352E+00 0. -1.
</event>
<event>
 5   0  0.1141890E-04  0.1894242E+04  0.7818609E-02  0.8657728E-01
       -2   -1    0    0    0  501  0.00000000000E+00  0.00000000000E+00  0.51553373083E+03  0.51553373084E+03  0.25500000920E-02 0.  1.
        2   -1    0    0  501    0  0.00000000000E+00  0.00000000000E+00 -0.17400189293E+04  0.17400189293E+04  0.25500000920E-02 0. -1.
    10030    2    1    2    0    0  0.00000000000E+00  0.00000000000E+00 -0.12244851985E+04  0.22555526601E+04  0.18942422763E+04 0.  0.
        2    1    3    3  502    0  0.15527573074E+03  0.87142665298E+03 -0.10134773668E+04  0.13455970188E+04  0.25500000920E-02 0.  1.
       -2    1    3    3    0  502 -0.15527573074E+03 -0.87142665298E+03 -0.21100783166E+03  0.90995564129E+03  0.25500000920E-02 0. -1.
</event>
<event>
 5   0  0.5628936E-05  0.1929087E+04  0.7818609E-02  0.8640512E-01
        1   -1    0    0  501    0  0.00000000000E+00  0.00000000000E+00  0.10575496335E+04  0.10575496335E+04  0.50400001928E-02 0. -1.
       -1   -1    0    0    0  501  0.00000000000E+00  0.00000000000E+00 -0.87971719242E+03  0.87971719244E+03  0.50400001928E-02 0.  1.
    10030    2    1    2    0    0  0.00000000000E+00  0.00000000000E+00  0.17783244104E+03  0.19372668259E+04  0.19290874469E+04 0.  0.
        5    1    3    3  502    0 -0.77663153939E+02 -0.88877087883E+03 -0.27921311221E+03  0.93484078461E+03  0.46999998093E+01 0. -1.
       -5    1    3    3    0  502  0.77663153939E+02  0.88877087883E+03  0.45704555325E+03  0.10024260413E+04  0.46999998093E+01 0.  1.
</event>
<event>
 5   0  0.1101678E-04  0.1955791E+04  0.7818609E-02  0.8627573E-01
       -2   -1    0    0    0  501  0.00000000000E+00  0.00000000000E+00  0.60864791626E+03  0.60864791626E+03  0.25500000920E-02 0.  1.
        2   -1    0    0  501    0  0.00000000000E+00  0.00000000000E+00 -0.15711539663E+04  0.15711539663E+04  0.25500000920E-02 0. -1.
    10030    2    1    2    0    0  0.00000000000E+00  0.00000000000E+00 -0.96250605003E+03  0.21798018826E+04  0.19557909783E+04 0.  0.
        4    1    3    3  502    0 -0.86718604148E+03  0.24670059272E+03 -0.90331572884E+03  0.12762655413E+04  0.12699999809E+01 0. -1.
       -4    1    3    3    0  502  0.86718604148E+03 -0.24670059272E+03 -0.59190321190E+02  0.90353634128E+03  0.12699999809E+01 0.  1.
</event>
<event>
 5   0  0.1118206E-04  0.1895303E+04  0.7818609E-02  0.8657198E-01
        2   -1    0    0  501    0  0.00000000000E+00  0.00000000000E+00  0.12966910026E+04  0.12966910026E+04  0.25500000920E-02 0. -1.
       -2   -1    0    0    0  501  0.00000000000E+00  0.00000000000E+00 -0.69256569297E+03  0.69256569298E+03  0.25500000920E-02 0.  1.
    10030    2    1    2    0    0  0.00000000000E+00  0.00000000000E+00  0.60412530965E+03  0.19892566956E+04  0.18953033560E+04 0.  0.
        1    1    3    3  502    0  0.45744666864E+03  0.81855926167E+03  0.44576961170E+03  0.10382712874E+04  0.50400001928E-02 0. -1.
       -1    1    3    3    0  502 -0.45744666864E+03 -0.81855926167E+03  0.15835569795E+03  0.95098540820E+03  0.50400001928E-02 0.  1.
</event>
<event>
 5   0  0.1118206E-04  0.1914422E+04  0.7818609E-02  0.8647711E-01
        2   -1    0    0  501    0  0.00000000000E+00  0.00000000000E+00  0.66475651676E+03  0.66475651677E+03  0.25500000920E-02 0.  1.
       -2   -1    0    0    0  501  0.00000000000E+00  0.00000000000E+00 -0.13783290238E+04  0.13783290238E+04  0.25500000920E-02 0. -1.
    10030    2    1    2    0    0  0.00000000000E+00  0.00000000000E+00 -0.71357250705E+03  0.20430855406E+04  0.19144223158E+04 0.  0.
        1    1    3    3  502    0  0.75508926703E+03  0.50376922024E+03 -0.68103112271E+03  0.11347892397E+04  0.50400001928E-02 0.  1.
       -1    1    3    3    0  502 -0.75508926703E+03 -0.50376922024E+03 -0.32541384335E+02  0.90829630087E+03  0.50400001928E-02 0. -1.
</event>
<event>
 5   0  0.5614989E-05  0.1895660E+04  0.7818609E-02  0.8657020E-01
       -1   -1    0    0    0  501  0.00000000000E+00  0.00000000000E+00  0.72932642785E+03  0.72932642787E+03  0.50400001928E-02 0. -1.
        1   -1    0    0  501    0  0.00000000000E+00  0.00000000000E+00 -0.12317966793E+04  0.12317966793E+04  0.50400001928E-02 0.  1.
    10030    2    1    2    0    0  0.00000000000E+00  0.00000000000E+00 -0.50247025141E+03  0.19611231071E+04  0.18956601720E+04 0.  0.
        4    1    3    3  502    0 -0.62153929883E+03 -0.20378352584E+03  0.45841340334E+03  0.79873855964E+03  0.12699999809E+01 0. -1.
       -4    1    3    3    0  502  0.62153929883E+03  0.20378352584E+03 -0.96088365474E+03  0.11623845475E+04  0.12699999809E+01 0.  1.
</event>
<event>
 5   0  0.1101678E-04  0.1894449E+04  0.7818609E-02  0.8657625E-01
        2   -1    0    0  501    0  0.00000000000E+00  0.00000000000E+00  0.12507959813E+04  0.12507959813E+04  0.25500000920E-02 0.  1.
       -2   -1    0    0    0  501  0.00000000000E+00  0.00000000000E+00 -0.71733033978E+03  0.71733033979E+03  0.25500000920E-02 0. -1.
    10030    2    1    2    0    0  0.00000000000E+00  0.00000000000E+00  0.53346564151E+03  0.19681263211E+04  0.18944486335E+04 0.  0.
        4    1    3    3  502    0  0.39564132279E+02  0.21131600125E+02  0.12496911956E+04  0.12504965263E+04  0.12699999809E+01 0.  1.
       -4    1    3    3    0  502 -0.39564132279E+02 -0.21131600125E+02 -0.71622555409E+03  0.71762979476E+03  0.12699999809E+01 0. -1.
</event>
<event>
 5   0  0.1101678E-04  0.1898683E+04  0.7818609E-02  0.8655512E-01
        2   -1    0    0  501    0  0.00000000000E+00  0.00000000000E+00  0.83115235923E+03  0.83115235923E+03  0.25500000920E-02 0. -1.
       -2   -1    0    0    0  501  0.00000000000E+00  0.00000000000E+00 -0.10843370472E+04  0.10843370472E+04  0.25500000920E-02 0.  1.
    10030    2    1    2    0    0  0.00000000000E+00  0.00000000000E+00 -0.25318468794E+03  0.19154894064E+04  0.18986830119E+04 0.  0.
        4    1    3    3  502    0 -0.70620525914E+03 -0.34625270600E+03 -0.66292852260E+03  0.10286363028E+04  0.12699999809E+01 0.  1.
       -4    1    3    3    0  502  0.70620525914E+03  0.34625270600E+03  0.40974383466E+03  0.88685310361E+03  0.12699999809E+01 0. -1.
</event>
<event>
 5   0  0.5824956E-05  0.1907102E+04  0.7818609E-02  0.8651329E-01
        1   -1    0    0  501    0  0.00000000000E+00  0.00000000000E+00  0.14475332628E+04  0.14475332629E+04  0.50400001928E-02 0.  1.
       -1   -1    0    0    0  501  0.00000000000E+00  0.00000000000E+00 -0.62814443917E+03  0.62814443919E+03  0.50400001928E-02 0. -1.
    10030    2    1    2    0    0  0.00000000000E+00  0.00000000000E+00  0.81938882367E+03  0.20756777020E+04  0.19071024824E+04 0.  0.
        2    1    3    3  502    0  0.12721639580E+03 -0.92785353253E+03  0.21449907752E+03  0.96078407744E+03  0.25500000920E-02 0. -1.
       -2    1    3    3    0  502 -0.12721639580E+03  0.92785353253E+03  0.60488974614E+03  0.11148936246E+04  0.25500000920E-02 0.  1.
</event>
<event>
 5   0  0.1118206E-04  0.1902720E+04  0.7818609E-02  0.8653504E-01
        2   -1    0    0  501    0  0.00000000000E+00  0.00000000000E+00  0.19958657516E+04  0.19958657516E+04  0.25500000920E-02 0. -1.
       -2   -1    0    0    0  501  0.00000000000E+00  0.00000000000E+00 -0.45348038174E+03  0.45348038175E+03  0.25500000920E-02 0.  1.
    10030    2    1    2    0    0  0.00000000000E+00  0.00000000000E+00  0.15423853698E+04  0.24493461333E+04  0.19027201191E+04 0.  0.
        1    1    3    3  502    0 -0.51523215542E+03 -0.77553911087E+03  0.10226616662E+04  0.13830263808E+04  0.50400001928E-02 0.  1.
       -1    1    3    3    0  502  0.51523215542E+03  0.77553911087E+03  0.51972370361E+03  0.10663197525E+04  0.50400001928E-02 0. -1.
</event>
<event>
 5   0  0.5628936E-05  0.1993116E+04  0.7818609E-02  0.8609846E-01
        1   -1    0    0  501    0  0.00000000000E+00  0.00000000000E+00  0.11380394569E+04  0.11380394570E+04  0.50400001928E-02 0. -1.
       -1   -1    0    0    0  501  0.00000000000E+00  0.00000000000E+00 -0.87266555977E+03  0.87266555979E+03  0.50400001928E-02 0.  1.
    10030    2    1    2    0    0  0.00000000000E+00  0.00000000000E+00  0.26537389717E+03  0.20107050167E+04  0.19931159924E+04 0.  0.
        5    1    3    3  502    0  0.48507849187E+03 -0.40815662256E+02 -0.74454919575E+03  0.88957442435E+03  0.46999998093E+01 0.  1.
       -5    1    3    3    0  502 -0.48507849187E+03  0.40815662256E+02  0.10099230929E+04  0.11211305924E+04  0.46999998093E+01 0. -1.
</event>
<event>
 5   0  0.5628936E-05  0.1934699E+04  0.7818609E-02  0.8637775E-01
       -1   -1    0    0    0  501  0.00000000000E+00  0.00000000000E+00  0.75564907567E+03  0.75564907568E+03  0.50400001928E-02 0. -1.
        1   -1    0    0  501    0  0.00000000000E+00  0.00000000000E+00 -0.12383591787E+04  0.12383591787E+04  0.50400001928E-02 0.  1.
    10030    2    1    2    0    0  0.00000000000E+00  0.00000000000E+00 -0.48271010303E+03  0.19940082544E+04  0.19346989107E+04 0.  0.
        5    1    3    3  502    0  0.12175413721E+03 -0.95867060185E+03 -0.19679202577E+03  0.98621629685E+03  0.46999998093E+01 0. -1.
       -5    1    3    3    0  502 -0.12175413721E+03  0.95867060185E+03 -0.28591807726E+03  0.10077919575E+04  0.46999998093E+01 0.  1.
</event>
<event>
 5   0  0.5628936E-05  0.1887593E+04  0.7818609E-02  0.8661057E-01
        1   -1    0    0  501    0  0.00000000000E+00  0.00000000000E+00  0.84354769706E+03  0.84354769707E+03  0.50400001928E-02 0. -1.
       -1   -1    0    0    0  501  0.00000000000E+00  0.00000000000E+00 -0.10559585718E+04  0.10559585718E+04  0.50400001928E-02 0.  1.
    10030    2    1    2    0    0  0.00000000000E+00  0.00000000000E+00 -0.21241087478E+03  0.18995062689E+04  0.18875925635E+04 0.  0.
        5    1    3    3  502    0  0.34909221332E+03 -0.43974669468E+03 -0.86960192562E+03  0.10351193786E+04  0.46999998093E+01 0.  1.
       -5    1    3    3    0  502 -0.34909221332E+03  0.43974669468E+03  0.65719105084E+03  0.86438689034E+03  0.46999998093E+01 0. -1.
</event>
<event>
 5   0  0.5824956E-05  0.1875847E+04  0.7818609E-02  0.8666973E-01
       -1   -1    0    0    0  501  0.00000000000E+00  0.00000000000E+00  0.78691931621E+03  0.78691931622E+03  0.50400001928E-02 0.  1.
        1   -1    0    0  501    0  0.00000000000E+00  0.00000000000E+00 -0.11179047803E+04  0.11179047803E+04  0.50400001928E-02 0. -1.
    10030    2    1    2    0    0  0.00000000000E+00  0.00000000000E+00 -0.33098546406E+03  0.19048240965E+04  0.18758473982E+04 0.  0.
        2    1    3    3  502    0  0.35725634777E+03  0.90246563397E+02  0.71034116791E+03  0.80022566509E+03  0.25500000920E-02 0.  1.
       -2    1    3    3    0  502 -0.35725634777E+03 -0.90246563397E+02 -0.10413266320E+04  0.11045984314E+04  0.25500000920E-02 0. -1.
</event>
<event>
 5   0  0.1133638E-04  0.1890057E+04  0.7818609E-02  0.8659822E-01
        2   -1    0    0  501    0  0.00000000000E+00  0.00000000000E+00  0.63763628671E+03  0.63763628672E+03  0.25500000920E-02 0.  1.
       -2   -1    0    0    0  501  0.00000000000E+00  0.00000000000E+00 -0.14006084309E+04  0.14006084309E+04  0.25500000920E-02 0. -1.
    10030    2    1    2    0    0  0.00000000000E+00  0.00000000000E+00 -0.76297214419E+03  0.20382447176E+04  0.18900568870E+04 0.  0.
        3    1    3    3  502    0 -0.35266073774E+03  0.71370424638E+03 -0.93066308764E+03  0.12246947130E+04  0.10100000352E+00 0. -1.
       -3    1    3    3    0  502  0.35266073774E+03 -0.71370424638E+03  0.16769094345E+03  0.81355000459E+03  0.10100000352E+00 0.  1.
</event>
<event>
 5   0  0.1182630E-04  0.1905238E+04  0.7818609E-02  0.8652254E-01
       -2   -1    0    0    0  501  0.00000000000E+00  0.00000000000E+00  0.77963737880E+03  0.77963737881E+03  0.25500000920E-02 0.  1.
        2   -1    0    0  501    0  0.00000000000E+00  0.00000000000E+00 -0.11639806181E+04  0.11639806181E+04  0.25500000920E-02 0. -1.
    10030    2    1    2    0    0  0.00000000000E+00  0.00000000000E+00 -0.38434323927E+03  0.19436179969E+04  0.19052378309E+04 0.  0.
        5    1    3    3  502    0 -0.31469849202E+03  0.75220205782E+02  0.72185028329E+03  0.79106456230E+03  0.46999998093E+01 0.  1.
       -5    1    3    3    0  502  0.31469849202E+03 -0.75220205782E+02 -0.11061935226E+04  0.11525534346E+04  0.46999998093E+01 0. -1.
</event>
<event>
 5   0  0.1141890E-04  0.1906151E+04  0.7818609E-02  0.8651801E-01
       -2   -1    0    0    0  501  0.00000000000E+00  0.00000000000E+00  0.61900658030E+03  0.61900658030E+03  0.25500000920E-02 0. -1.
        2   -1    0    0  501    0  0.00000000000E+00  0.00000000000E+00 -0.14674365032E+04  0.14674365032E+04  0.25500000920E-02 0.  1.
    10030    2    1    2    0    0  0.00000000000E+00  0.00000000000E+00 -0.84842992291E+03  0.20864430835E+04  0.19061509402E+04 0.  0.
        2    1    3    3  502    0 -0.52576947608E+03  0.55798758643E+03 -0.10439558152E+04  0.12952325786E+04  0.25500000920E-02 0.  1.
       -2    1    3    3    0  502  0.52576947608E+03 -0.55798758643E+03  0.19552589225E+03  0.79121050494E+03  0.25500000920E-02 0. -1.
</event>
<event>
 5   0  0.5614989E-05  0.1891689E+04  0.7818609E-02  0.8659004E-01
        1   -1    0    0  501    0  0.00000000000E+00  0.00000000000E+00  0.11229120302E+04  0.11229120302E+04  0.50400001928E-02 0. -1.
       -1   -1    0    0    0  501  0.00000000000E+00  0.00000000000E+00 -0.79669801800E+03  0.79669801802E+03  0.50400001928E-02 0.  1.
    10030    2    1    2    0    0  0.00000000000E+00  0.00000000000E+00  0.32621401216E+03  0.19196100482E+04  0.18916889690E+04 0.  0.
        4    1    3    3  502    0 -0.81489782091E+03 -0.47697402353E+03  0.10699621465E+03  0.95026968830E+03  0.12699999809E+01 0.  1.
       -4    1    3    3    0  502  0.81489782091E+03  0.47697402353E+03  0.21921779751E+03  0.96934035988E+03  0.12699999809E+01 0. -1.
</event>
<event>
 5   0  0.1118206E-04  0.1914365E+04  0.7818609E-02  0.8647739E-01
        2   -1    0    0  501    0  0.00000000000E+00  0.00000000000E+00  0.22064313841E+04  0.22064313841E+04  0.25500000920E-02 0.  1.
       -2   -1    0    0    0  501  0.00000000000E+00  0.00000000000E+00 -0.41524008749E+03  0.41524008749E+03  0.25500000920E-02 0. -1.
    10030    2    1    2    0    0  0.00000000000E+00  0.00000000000E+00  0.17911912966E+04  0.26216714716E+04  0.19143654416E+04 0.  0.
        1    1    3    3  502    0 -0.68352792559E+02 -0.92502149828E+03  0.12192721811E+04  0.15319796109E+04  0.50400001928E-02 0.  1.
       -1    1    3    3    0  502  0.68352792559E+02  0.92502149828E+03  0.57191911546E+03  0.10896918607E+04  0.50400001928E-02 0. -1.
</event>
<event>
 5   0  0.5824956E-05  0.1899158E+04  0.7818609E-02  0.8655275E-01
        1   -1    0    0  501    0  0.00000000000E+00  0.00000000000E+00  0.95795300256E+03  0.95795300258E+03  0.50400001928E-02 0. -1.
       -1   -1    0    0    0  501  0.00000000000E+00  0.00000000000E+00 -0.94127853522E+03  0.94127853523E+03  0.50400001928E-02 0.  1.
    10030    2    1    2    0    0  0.00000000000E+00  0.00000000000E+00  0.16674467344E+02  0.18992315378E+04  0.18991583389E+04 0.  0.
        2    1    3    3  502    0 -0.37594305812E+03 -0.34761495690E+03  0.80807503912E+03  0.95663713605E+03  0.25500000920E-02 0. -1.
       -2    1    3    3    0  502  0.37594305812E+03  0.34761495690E+03 -0.79140057178E+03  0.94259440176E+03  0.25500000920E-02 0.  1.
</event>
<event>
 5   0  0.5841424E-05  0.1908758E+04  0.7818609E-02  0.8650509E-01
       -1   -1    0    0    0  501  0.00000000000E+00  0.00000000000E+00  0.99883682677E+03  0.99883682678E+03  0.50400001928E-02 0. -1.
        1   -1    0    0  501    0  0.00000000000E+00  0.00000000000E+00 -0.91190009841E+03  0.91190009842E+03  0.50400001928E-02 0.  1.
    10030    2    1    2    0    0  0.00000000000E+00  0.00000000000E+00  0.86936728359E+02  0.19107369252E+04  0.19087581310E+04 0.  0.
        1    1    3    3  502    0  0.80035970249E+03 -0.41140841675E+03  0.36161360844E+03  0.96984377122E+03  0.50400001928E-02 0. -1.
       -1    1    3    3    0  502 -0.80035970249E+03  0.41140841675E+03 -0.27467688008E+03  0.94089315398E+03  0.50400001928E-02 0.  1.
</event>
<event>
 5   0  0.5579109E-05  0.1928576E+04  0.7818609E-02  0.8640762E-01
        1   -1    0    0  501    0  0.00000000000E+00  0.00000000000E+00  0.13741969958E+04  0.13741969958E+04  0.50400001928E-02 0.  1.
       -1   -1    0    0    0  501  0.00000000000E+00  0.00000000000E+00 -0.67665034751E+03  0.67665034752E+03  0.50400001928E-02 0. -1.
    10030    2    1    2    0    0  0.00000000000E+00  0.00000000000E+00  0.69754664827E+03  0.20508473433E+04  0.19285755103E+04 0.  0.
        3    1    3    3  502    0  0.59642792424E+03  0.75289730419E+03  0.43944491028E+03  0.10562634420E+04  0.10100000352E+00 0.  1.
       -3    1    3    3    0  502 -0.59642792424E+03 -0.75289730419E+03  0.25810173800E+03  0.99458390135E+03  0.10100000352E+00 0. -1.
</event>
<event>
 5   0  0.5824956E-05  0.1843563E+04  0.7818609E-02  0.8683470E-01
       -1   -1    0    0    0  501  0.00000000000E+00  0.00000000000E+00  0.86246172756E+03  0.86246172758E+03  0.50400001928E-02 0. -1.
        1   -1    0    0  501    0  0.00000000000E+00  0.00000000000E+00 -0.98518164016E+03  0.98518164017E+03  0.50400001928E-02 0.  1.
    10030    2    1    2    0    0  0.00000000000E+00  0.00000000000E+00 -0.12271991260E+03  0.18476433677E+04  0.18435633532E+04 0.  0.
        2    1    3    3  502    0  0.60887375944E+03  0.32568455577E+03  0.55063356404E+03  0.88317325970E+03  0.25500000920E-02 0. -1.
       -2    1    3    3    0  502 -0.60887375944E+03 -0.32568455577E+03 -0.67335347664E+03  0.96447010804E+03  0.25500000920E-02 0.  1.
</event>
<event>
 5   0  0.5579109E-05  0.1895800E+04  0.7818609E-02  0.8656950E-01
        1   -1    0    0  501    0  0.00000000000E+00  0.00000000000E+00  0.11464663108E+04  0.11464663108E+04  0.50400001928E-02 0.  1.
       -1   -1    0    0    0  501  0.00000000000E+00  0.00000000000E+00 -0.78372527723E+03  0.78372527725E+03  0.50400001928E-02 0. -1.
    10030    2    1    2    0    0  0.00000000000E+00  0.00000000000E+00  0.36274103356E+03  0.19301915881E+04  0.18958002292E+04 0.  0.
        3    1    3    3  502    0 -0.78178180936E+03  0.47418985707E+03  0.43585643560E+03  0.10129213497E+04  0.10100000352E+00 0.  1.
       -3    1    3    3    0  502  0.78178180936E+03 -0.47418985707E+03 -0.73115402039E+02  0.91727023837E+03  0.10100000352E+00 0. -1.
</event>
<event>
 5   0  0.5841424E-05  0.1943029E+04  0.7818609E-02  0.8633730E-01
        1   -1    0    0  501    0  0.00000000000E+00  0.00000000000E+00  0.12080937060E+04  0.12080937060E+04  0.50400001928E-02 0. -1.
       -1   -1    0    0    0  501  0.00000000000E+00  0.00000000000E+00 -0.78126437419E+03  0.78126437421E+03  0.50400001928E-02 0.  1.
    10030    2    1    2    0    0  0.00000000000E+00  0.00000000000E+00  0.42682933178E+03  0.19893580802E+04  0.19430291539E+04 0.  0.
        1    1    3    3  502    0 -0.48522424693E+03  0.83443548832E+03  0.32610920399E+03  0.10188583645E+04  0.50400001928E-02 0. -1.
       -1    1    3    3    0  502  0.48522424693E+03 -0.83443548832E+03  0.10072012779E+03  0.97049971568E+03  0.50400001928E-02 0.  1.
</event>
<event>
 5   0  0.5824956E-05  0.1935951E+04  0.7818609E-02  0.8637165E-01
       -1   -1    0    0    0  501  0.00000000000E+00  0.00000000000E+00  0.96081300044E+03  0.96081300045E+03  0.50400001928E-02 0. -1.
        1   -1    0    0  501    0  0.00000000000E+00  0.00000000000E+00 -0.97519115082E+03  0.97519115083E+03  0.50400001928E-02 0.  1.
    10030    2    1    2    0    0  0.00000000000E+00  0.00000000000E+00 -0.14378150383E+02  0.19360041513E+04  0.19359507593E+04 0.  0.
        2    1    3    3  502    0 -0.18750380835E+03  0.58307563992E+03 -0.75677058931E+03  0.97356900365E+03  0.25500000920E-02 0.  1.
       -2    1    3    3    0  502  0.18750380835E+03 -0.58307563992E+03  0.74239243893E+03  0.96243514763E+03  0.25500000920E-02 0. -1.
</event>
<event>
 5   0  0.1141890E-04  0.1899539E+04  0.7818609E-02  0.8655086E-01
        2   -1    0    0  501    0  0.00000000000E+00  0.00000000000E+00  0.11235084252E+04  0.11235084252E+04  0.25500000920E-02 0.  1.
       -2   -1    0    0    0  501  0.00000000000E+00  0.00000000000E+00 -0.80289722291E+03  0.80289722291E+03  0.25500000920E-02 0. -1.
    10030    2    1    2    0    0  0.00000000000E+00  0.00000000000E+00  0.32061120231E+03  0.19264056481E+04  0.18995386751E+04 0.  0.
        2    1    3    3  502    0  0.48501468852E+03  0.22486612203E+03  0.95642976890E+03  0.10957015669E+04  0.25500000920E-02 0.  1.
       -2    1    3    3    0  502 -0.48501468852E+03 -0.22486612203E+03 -0.63581856659E+03  0.83070408121E+03  0.25500000920E-02 0. -1.
</event>
<event>
 5   0  0.5824956E-05  0.1877385E+04  0.7818609E-02  0.8666196E-01
        1   -1    0    0  501    0  0.00000000000E+00  0.00000000000E+00  0.14579611764E+04  0.14579611764E+04  0.50400001928E-02 0. -1.
       -1   -1    0    0    0  501  0.00000000000E+00  0.00000000000E+00 -0.60436686347E+03  0.60436686349E+03  0.50400001928E-02 0.  1.
    10030    2    1    2    0    0  0.00000000000E+00  0.00000000000E+00  0.85359431290E+03  0.20623280399E+04  0.18773848015E+04 0.  0.
        2    1    3    3  502    0 -0.70388450029E+03  0.30230553910E+03  0.10227345112E+04  0.12778215482E+04  0.25500000920E-02 0. -1.
       -2    1    3    3    0  502  0.70388450029E+03 -0.30230553910E+03 -0.16914019830E+03  0.78450649163E+03  0.25500000920E-02 0.  1.
</event>
<event>
 5   0  0.5628936E-05  0.1914661E+04  0.7818609E-02  0.8647593E-01
        1   -1    0    0  501    0  0.00000000000E+00  0.00000000000E+00  0.19794067099E+04  0.19794067099E+04  0.50400001928E-02 0. -1.
       -1   -1    0    0    0  501  0.00000000000E+00  0.00000000000E+00 -0.46300823793E+03  0.46300823796E+03  0.50400001928E-02 0.  1.
    10030    2    1    2    0    0  0.00000000000E+00  0.00000000000E+00  0.15163984720E+04  0.24424149479E+04  0.19146609235E+04 0.  0.
        5    1    3    3  502    0 -0.87373066901E+03 -0.19899622841E+03  0.32852540722E+03  0.95444005263E+03  0.46999998093E+01 0.  1.
       -5    1    3    3    0  502  0.87373066901E+03  0.19899622841E+03  0.11878730648E+04  0.14879748953E+04  0.46999998093E+01 0. -1.
</event>
<event>
 5   0  0.1133638E-04  0.1851095E+04  0.7818609E-02  0.8679590E-01
       -2   -1    0    0    0  501  0.00000000000E+00  0.00000000000E+00  0.76857791065E+03  0.76857791066E+03  0.25500000920E-02 0. -1.
        2   -1    0    0  501    0  0.00000000000E+00  0.00000000000E+00 -0.11145756271E+04  0.11145756271E+04  0.25500000920E-02 0.  1.
    10030    2    1    2    0    0  0.00000000000E+00  0.00000000000E+00 -0.34599771646E+03  0.18831535378E+04  0.18510950346E+04 0.  0.
        3    1    3    3  502    0  0.45630613193E+03  0.26604126814E+03 -0.94619113380E+03  0.10836378151E+04  0.10100000352E+00 0.  1.
       -3    1    3    3    0  502 -0.45630613193E+03 -0.26604126814E+03  0.60019341735E+03  0.79951572268E+03  0.10100000352E+00 0. -1.
</event>
<event>
 5   0  0.1133638E-04  0.1899753E+04  0.7818609E-02  0.8654979E-01
       -2   -1    0    0    0  501  0.00000000000E+00  0.00000000000E+00  0.63872415634E+03  0.63872415635E+03  0.25500000920E-02 0.  1.
        2   -1    0    0  501    0  0.00000000000E+00  0.00000000000E+00 -0.14126060635E+04  0.14126060635E+04  0.25500000920E-02 0. -1.
    10030    2    1    2    0    0  0.00000000000E+00  0.00000000000E+00 -0.77388190715E+03  0.20513302198E+04  0.18997532642E+04 0.  0.
        3    1    3    3  502    0  0.73540107187E+03 -0.57282316633E+03 -0.18982574599E+03  0.95130170841E+03  0.10100000352E+00 0.  1.
       -3    1    3    3    0  502 -0.73540107187E+03  0.57282316633E+03 -0.58405616116E+03  0.11000285114E+04  0.10100000352E+00 0. -1.
</event>
<event>
 5   0  0.1101678E-04  0.1906870E+04  0.7818609E-02  0.8651444E-01
        2   -1    0    0  501    0  0.00000000000E+00  0.00000000000E+00  0.79233800128E+03  0.79233800129E+03  0.25500000920E-02 0. -1.
       -2   -1    0    0    0  501  0.00000000000E+00  0.00000000000E+00 -0.11472859020E+04  0.11472859020E+04  0.25500000920E-02 0.  1.
    10030    2    1    2    0    0  0.00000000000E+00  0.00000000000E+00 -0.35494790068E+03  0.19396239032E+04  0.19068699153E+04 0.  0.
        4    1    3    3  502    0  0.55988243040E+03  0.45835129461E+03 -0.80901082777E+03  0.10853821343E+04  0.12699999809E+01 0.  1.
       -4    1    3    3    0  502 -0.55988243040E+03 -0.45835129461E+03  0.45406292709E+03  0.85424176894E+03  0.12699999809E+01 0. -1.
</event>
<event>
 5   0  0.1133638E-04  0.1898344E+04  0.7818609E-02  0.8655681E-01
        2   -1    0    0  501    0  0.00000000000E+00  0.00000000000E+00  0.10159492076E+04  0.10159492076E+04  0.25500000920E-02 0. -1.
       -2   -1    0    0    0  501  0.00000000000E+00  0.00000000000E+00 -0.88678392034E+03  0.88678392035E+03  0.25500000920E-02 0.  1.
    10030    2    1    2    0    0  0.00000000000E+00  0.00000000000E+00  0.12916528727E+03  0.19027331280E+04  0.18983439322E+04 0.  0.
        3    1    3    3  502    0  0.16775018766E+03 -0.16101413828E+03  0.98696128015E+03  0.10139813888E+04  0.10100000352E+00 0. -1.
       -3    1    3    3    0  502 -0.16775018766E+03  0.16101413828E+03 -0.85779599289E+03  0.88875173913E+03  0.10100000352E+00 0.  1.
</event>
<event>
 5   0  0.1118206E-04  0.1895296E+04  0.7818609E-02  0.8657201E-01
       -2   -1    0    0    0  501  0.00000000000E+00  0.00000000000E+00  0.80960218273E+03  0.80960218274E+03  0.25500000920E-02 0. -1.
        2   -1    0    0  501    0  0.00000000000E+00  0.00000000000E+00 -0.11092320851E+04  0.11092320851E+04  0.25500000920E-02 0.  1.
    10030    2    1    2    0    0  0.00000000000E+00  0.00000000000E+00 -0.29962990233E+03  0.19188342678E+04  0.18952959845E+04 0.  0.
        1    1    3    3  502    0  0.85622754252E+03 -0.35178661085E+03 -0.35520709354E+03  0.99148953775E+03  0.50400001928E-02 0.  1.
       -1    1    3    3    0  502 -0.85622754252E+03  0.35178661085E+03  0.55577191207E+02  0.92734473005E+03  0.50400001928E-02 0. -1.
</event>
<event>
 5   0  0.1133638E-04  0.1923807E+04  0.7818609E-02  0.8643096E-01
       -2   -1    0    0    0  501  0.00000000000E+00  0.00000000000E+00  0.70324637971E+03  0.70324637972E+03  0.25500000920E-02 0.  1.
        2   -1    0    0  501    0  0.00000000000E+00  0.00000000000E+00 -0.13156965041E+04  0.13156965042E+04  0.25500000920E-02 0. -1.
    10030    2    1    2    0    0  0.00000000000E+00  0.00000000000E+00 -0.61245012444E+03  0.20189428839E+04  0.19238074783E+04 0.  0.
        3    1    3    3  502    0 -0.41346058854E+03  0.58194746469E+03  0.37036306878E+03  0.80422715874E+03  0.10100000352E+00 0.  1.
       -3    1    3    3    0  502  0.41346058854E+03 -0.58194746469E+03 -0.98281319321E+03  0.12147157251E+04  0.10100000352E+00 0. -1.
</event>
<event>
 5   0  0.1182630E-04  0.1860050E+04  0.7818609E-02  0.8675001E-01
        2   -1    0    0  501    0  0.00000000000E+00  0.00000000000E+00  0.10167935742E+04  0.10167935742E+04  0.25500000920E-02 0.  1.
       -2   -1    0    0    0  501  0.00000000000E+00  0.00000000000E+00 -0.85066118921E+03  0.85066118922E+03  0.25500000920E-02 0. -1.
    10030    2    1    2    0    0  0.00000000000E+00  0.00000000000E+00  0.16613238501E+03  0.18674547634E+04  0.18600503553E+04 0.  0.
        5    1    3    3  502    0  0.10733004860E+03 -0.14764377600E+03  0.99862085508E+03  0.10151768940E+04  0.46999998093E+01 0.  1.
       -5    1    3    3    0  502 -0.10733004860E+03  0.14764377600E+03 -0.83248847007E+03  0.85227786943E+03  0.46999998093E+01 0. -1.
</event>
<event>
 5   0  0.5628936E-05  0.1911969E+04  0.7818609E-02  0.8648921E-01
        1   -1    0    0  501    0  0.00000000000E+00  0.00000000000E+00  0.66252752757E+03  0.66252752759E+03  0.50400001928E-02 0.  1.
       -1   -1    0    0    0  501  0.00000000000E+00  0.00000000000E+00 -0.13794244187E+04  0.13794244187E+04  0.50400001928E-02 0. -1.
    10030    2    1    2    0    0  0.00000000000E+00  0.00000000000E+00 -0.71689689116E+03  0.20419519463E+04  0.19119692985E+04 0.  0.
        5    1    3    3  502    0 -0.13536735622E+02 -0.91404477399E+03 -0.59749881298E+02  0.91610765218E+03  0.46999998093E+01 0. -1.
       -5    1    3    3    0  502  0.13536735622E+02  0.91404477399E+03 -0.65714700986E+03  0.11258442941E+04  0.46999998093E+01 0.  1.
</event>
<event>
 5   0  0.5841424E-05  0.1904877E+04  0.7818609E-02  0.8652433E-01
        1   -1    0    0  501    0  0.00000000000E+00  0.00000000000E+00  0.11169995040E+04  0.11169995040E+04  0.50400001928E-02 0.  1.
       -1   -1    0    0    0  501  0.00000000000E+00  0.00000000000E+00 -0.81212138919E+03  0.81212138921E+03  0.50400001928E-02 0. -1.
    10030    2    1    2    0    0  0.00000000000E+00  0.00000000000E+00  0.30487811477E+03  0.19291208932E+04  0.19048770973E+04 0.  0.
        1    1    3    3  502    0 -0.58520064293E+03  0.69159447774E+03 -0.14520020674E+03  0.91752156061E+03  0.50400001928E-02 0. -1.
       -1    1    3    3    0  502  0.58520064293E+03 -0.69159447774E+03  0.45007832151E+03  0.10115993326E+04  0.50400001928E-02 0.  1.
</event>
<event>
 5   0  0.5579109E-05  0.1903418E+04  0.7818609E-02  0.8653157E-01
        1   -1    0    0  501    0  0.00000000000E+00  0.00000000000E+00  0.99981518372E+03  0.99981518373E+03  0.50400001928E-02 0.  1.
       -1   -1    0    0    0  501  0.00000000000E+00  0.00000000000E+00 -0.90591715889E+03  0.90591715890E+03  0.50400001928E-02 0. -1.
    10030    2    1    2    0    0  0.00000000000E+00  0.00000000000E+00  0.93898024827E+02  0.19057323426E+04  0.19034176953E+04 0.  0.
        3    1    3    3  502    0  0.80949327946E+03  0.61444488189E+02  0.54423693347E+03  0.97736822363E+03  0.10100000352E+00 0.  1.
       -3    1    3    3    0  502 -0.80949327946E+03 -0.61444488189E+02 -0.45033890864E+03  0.92836411900E+03  0.10100000352E+00 0. -1.
</event>
<event>
 5   0  0.5841424E-05  0.1900022E+04  0.7818609E-02  0.8654845E-01
       -1   -1    0    0    0  501  0.00000000000E+00  0.00000000000E+00  0.11794297958E+04  0.11794297958E+04  0.50400001928E-02 0. -1.
        1   -1    0    0  501    0  0.00000000000E+00  0.00000000000E+00 -0.76521788037E+03  0.76521788039E+03  0.50400001928E-02 0.  1.
    10030    2    1    2    0    0  0.00000000000E+00  0.00000000000E+00  0.41421191538E+03  0.19446476762E+04  0.19000218613E+04 0.  0.
        1    1    3    3  502    0  0.74591946226E+03 -0.19946531881E+03 -0.35937214847E+03  0.85166343041E+03  0.50400001928E-02 0.  1.
       -1    1    3    3    0  502 -0.74591946226E+03  0.19946531881E+03  0.77358406384E+03  0.10929842457E+04  0.50400001928E-02 0. -1.
</event>
<event>
 5   0  0.5614989E-05  0.1856575E+04  0.7818609E-02  0.8676779E-01
        1   -1    0    0  501    0  0.00000000000E+00  0.00000000000E+00  0.76014683361E+03  0.76014683363E+03  0.50400001928E-02 0.  1.
       -1   -1    0    0    0  501  0.00000000000E+00  0.00000000000E+00 -0.11336202874E+04  0.11336202874E+04  0.50400001928E-02 0. -1.
    10030    2    1    2    0    0  0.00000000000E+00  0.00000000000E+00 -0.37347345377E+03  0.18937671210E+04  0.18565752040E+04 0.  0.
        4    1    3    3  502    0  0.30072963478E+03 -0.23172224184E+03  0.67733544985E+03  0.77647822578E+03  0.12699999809E+01 0.  1.
       -4    1    3    3    0  502 -0.30072963478E+03  0.23172224184E+03 -0.10508089036E+04  0.11172888952E+04  0.12699999809E+01 0. -1.
</event>
<event>
 5   0  0.1101678E-04  0.1872892E+04  0.7818609E-02  0.8668469E-01
       -2   -1    0    0    0  501  0.00000000000E+00  0.00000000000E+00  0.78563203078E+03  0.78563203078E+03  0.25500000920E-02 0.  1.
        2   -1    0    0  501    0  0.00000000000E+00  0.00000000000E+00 -0.11162107114E+04  0.11162107114E+04  0.25500000920E-02 0. -1.
    10030    2    1    2    0    0  0.00000000000E+00  0.00000000000E+00 -0.33057868061E+03  0.19018427422E+04  0.18728917619E+04 0.  0.
        4    1    3    3  502    0 -0.56524811112E+02 -0.24558743530E+03  0.75055069186E+03  0.79172987603E+03  0.12699999809E+01 0.  1.
       -4    1    3    3    0  502  0.56524811112E+02  0.24558743530E+03 -0.10811293725E+04  0.11101128661E+04  0.12699999809E+01 0. -1.
</event>
<event>
 5   0  0.1182630E-04  0.1874325E+04  0.7818609E-02  0.8667743E-01
        2   -1    0    0  501    0  0.00000000000E+00  0.00000000000E+00  0.15918649836E+04  0.15918649836E+04  0.25500000920E-02 0. -1.
       -2   -1    0    0    0  501  0.00000000000E+00  0.00000000000E+00 -0.55172607779E+03  0.55172607779E+03  0.25500000920E-02 0.  1.
    10030    2    1    2    0    0  0.00000000000E+00  0.00000000000E+00  0.10401389058E+04  0.21435910614E+04  0.18743248638E+04 0.  0.
        5    1    3    3  502    0 -0.38583217069E+03 -0.32237252780E+03 -0.38440671292E+03  0.63291478222E+03  0.46999998093E+01 0.  1.
       -5    1    3    3    0  502  0.38583217069E+03  0.32237252780E+03  0.14245456187E+04  0.15106762792E+04  0.46999998093E+01 0. -1.
</event>
<event>
 5   0  0.5841424E-05  0.1841204E+04  0.7818609E-02  0.8684690E-01
        1   -1    0    0  501    0  0.00000000000E+00  0.00000000000E+00  0.20357528258E+04  0.20357528258E+04  0.50400001928E-02 0.  1.
       -1   -1    0    0    0  501  0.00000000000E+00  0.00000000000E+00 -0.41631164443E+03  0.41631164446E+03  0.50400001928E-02 0. -1.
    10030    2    1    2    0    0  0.00000000000E+00  0.00000000000E+00  0.16194411814E+04  0.24520644703E+04  0.18412035266E+04 0.  0.
        1    1    3    3  502    0  0.20102084663E+03  0.18726537655E+02  0.20059071331E+04  0.20160415399E+04  0.50400001928E-02 0.  1.
       -1    1    3    3    0  502 -0.20102084663E+03 -0.18726537655E+02 -0.38646595169E+03  0.43602293040E+03  0.50400001928E-02 0. -1.
</event>
<event>
 5   0  0.1133638E-04  0.1906176E+04  0.7818609E-02  0.8651788E-01
        2   -1    0    0  501    0  0.00000000000E+00  0.00000000000E+00  0.10378780981E+04  0.10378780981E+04  0.25500000920E-02 0. -1.
       -2   -1    0    0    0  501  0.00000000000E+00  0.00000000000E+00 -0.87522500112E+03  0.87522500113E+03  0.25500000920E-02 0.  1.
    10030    2    1    2    0    0  0.00000000000E+00  0.00000000000E+00  0.16265309695E+03  0.19131030992E+04  0.19061761299E+04 0.  0.
        3    1    3    3  502    0  0.25221000789E+03  0.65605373434E+03  0.72737412425E+03  0.10114788763E+04  0.10100000352E+00 0. -1.
       -3    1    3    3    0  502 -0.25221000789E+03 -0.65605373434E+03 -0.56472102730E+03  0.90162422288E+03  0.10100000352E+00 0.  1.
</event>
<event>
 5   0  0.1118206E-04  0.1902423E+04  0.7818609E-02  0.8653651E-01
       -2   -1    0    0    0  501  0.00000000000E+00  0.00000000000E+00  0.50465172539E+03  0.50465172540E+03  0.25500000920E-02 0.  1.
        2   -1    0    0  501    0  0.00000000000E+00  0.00000000000E+00 -0.17929269941E+04  0.17929269941E+04  0.25500000920E-02 0. -1.
    10030    2    1    2    0    0  0.00000000000E+00  0.00000000000E+00 -0.12882752687E+04  0.22975787195E+04  0.19024234030E+04 0.  0.
        1    1    3    3  502    0  0.65853301694E+03  0.65672813495E+03 -0.40306036804E+03  0.10136149357E+04  0.50400001928E-02 0.  1.
       -1    1    3    3    0  502 -0.65853301694E+03 -0.65672813495E+03 -0.88521490070E+03  0.12839637838E+04  0.50400001928E-02 0. -1.
</event>
<event>
 5   0  0.1141890E-04  0.1907585E+04  0.7818609E-02  0.8651090E-01
       -2   -1    0    0    0  501  0.00000000000E+00  0.00000000000E+00  0.54716253955E+03  0.54716253955E+03  0.25500000920E-02 0. -1.
        2   -1    0    0  501    0  0.00000000000E+00  0.00000000000E+00 -0.16626137738E+04  0.16626137738E+04  0.25500000920E-02 0.  1.
    10030    2    1    2    0    0  0.00000000000E+00  0.00000000000E+00 -0.11154512343E+04  0.22097763134E+04  0.19075848340E+04 0.  0.
        2    1    3    3  502    0  0.18510704589E+03  0.45529042844E+03  0.38917987068E+03  0.62690905594E+03  0.25500000920E-02 0. -1.
       -2    1    3    3    0  502 -0.18510704589E+03 -0.45529042844E+03 -0.15046311049E+04  0.15828672574E+04  0.25500000920E-02 0.  1.
</event>
<event>
 5   0  0.5824956E-05  0.1902002E+04  0.7818609E-02  0.8653860E-01
       -1   -1    0    0    0  501  0.00000000000E+00  0.00000000000E+00  0.16164765958E+04  0.16164765958E+04  0.50400001928E-02 0.  1.
        1   -1    0    0  501    0  0.00000000000E+00  0.00000000000E+00 -0.55949037705E+03  0.55949037708E+03  0.50400001928E-02 0. -1.
    10030    2    1    2    0    0  0.00000000000E+00  0.00000000000E+00  0.10569862187E+04  0.21759669728E+04  0.19020022083E+04 0.  0.
        2    1    3    3  502    0 -0.70822772877E+03 -0.42788986099E+03 -0.77760832128E+01  0.82748819714E+03  0.25500000920E-02 0. -1.
       -2    1    3    3    0  502  0.70822772877E+03  0.42788986099E+03  0.10647623019E+04  0.13484787757E+04  0.25500000920E-02 0.  1.
</event>
<event>
 5   0  0.5614989E-05  0.1899624E+04  0.7818609E-02  0.8655044E-01
       -1   -1    0    0    0  501  0.00000000000E+00  0.00000000000E+00  0.11006957284E+04  0.11006957284E+04  0.50400001928E-02 0.  1.
        1   -1    0    0  501    0  0.00000000000E+00  0.00000000000E+00 -0.81961108755E+03  0.81961108757E+03  0.50400001928E-02 0. -1.
    10030    2    1    2    0    0  0.00000000000E+00  0.00000000000E+00  0.28108464083E+03  0.19203068160E+04  0.18996235659E+04 0.  0.
        4    1    3    3  502    0 -0.16343733634E+03 -0.89370380598E+03  0.42054655651E+03  0.10011389888E+04  0.12699999809E+01 0. -1.
       -4    1    3    3    0  502  0.16343733634E+03  0.89370380598E+03 -0.13946191568E+03  0.91916782720E+03  0.12699999809E+01 0.  1.
</event>
<event>
 5   0  0.1182630E-04  0.1887965E+04  0.7818609E-02  0.8660870E-01
        2   -1    0    0  501    0  0.00000000000E+00  0.00000000000E+00  0.37065267057E+03  0.37065267058E+03  0.25500000920E-02 0. -1.
       -2   -1    0    0    0  501  0.00000000000E+00  0.00000000000E+00 -0.24041452046E+04  0.24041452046E+04  0.25500000920E-02 0.  1.
    10030    2    1    2    0    0  0.00000000000E+00  0.00000000000E+00 -0.20334925340E+04  0.27747978752E+04  0.18879648731E+04 0.  0.
        5    1    3    3  502    0  0.12441589500E+03 -0.48755314367E+03 -0.21905932470E+04  0.22476450446E+04  0.46999998093E+01 0.  1.
       -5    1    3    3    0  502 -0.12441589500E+03  0.48755314367E+03  0.15710071290E+03  0.52715283062E+03  0.46999998093E+01 0. -1.
</event>
<event>
 5   0  0.4061125E-05  0.1900492E+04  0.7818609E-02  0.8654611E-01
        4   -1    0    0  501    0  0.00000000000E+00  0.00000000000E+00  0.62650225234E+03  0.62650353956E+03  0.12699999809E+01 0. -1.
       -4   -1    0    0    0  501  0.00000000000E+00  0.00000000000E+00 -0.14412810737E+04  0.14412816332E+04  0.12699999809E+01 0.  1.
    10030    2    1    2    0    0  0.00000000000E+00  0.00000000000E+00 -0.81477882137E+03  0.20677851728E+04  0.19004923028E+04 0.  0.
        5    1    3    3  502    0 -0.15772116507E+03 -0.85727336490E+03  0.42700667001E+01  0.87168452524E+03  0.46999998093E+01 0. -1.
       -5    1    3    3    0  502  0.15772116507E+03  0.85727336490E+03 -0.81904888807E+03  0.11961006476E+04  0.46999998093E+01 0.  1.
</event>
<event>
 5   0  0.5628936E-05  0.1909738E+04  0.7818609E-02  0.8650024E-01
        1   -1    0    0  501    0  0.00000000000E+00  0.00000000000E+00  0.22830880493E+04  0.22830880494E+04  0.50400001928E-02 0.  1.
       -1   -1    0    0    0  501  0.00000000000E+00  0.00000000000E+00 -0.39936020019E+03  0.39936020022E+03  0.50400001928E-02 0. -1.
    10030    2    1    2    0    0  0.00000000000E+00  0.00000000000E+00  0.18837278492E+04  0.26824482496E+04  0.19097376788E+04 0.  0.
        5    1    3    3  502    0 -0.47113343994E+03  0.18046932598E+03  0.20805706074E+04  0.21408717939E+04  0.46999998093E+01 0.  1.
       -5    1    3    3    0  502  0.47113343994E+03 -0.18046932598E+03 -0.19684275819E+03  0.54157645564E+03  0.46999998093E+01 0. -1.
</event>
<event>
 5   0  0.5614989E-05  0.1918966E+04  0.7818609E-02  0.8645473E-01
       -1   -1    0    0    0  501  0.00000000000E+00  0.00000000000E+00  0.83258078580E+03  0.83258078581E+03  0.50400001928E-02 0. -1.
        1   -1    0    0  501    0  0.00000000000E+00  0.00000000000E+00 -0.11057277062E+04  0.11057277062E+04  0.50400001928E-02 0.  1.
    10030    2    1    2    0    0  0.00000000000E+00  0.00000000000E+00 -0.27314692038E+03  0.19383084920E+04  0.19189660159E+04 0.  0.
        4    1    3    3  502    0 -0.24483138285E+02 -0.16344333718E+03  0.81809494839E+03  0.83462213367E+03  0.12699999809E+01 0. -1.
       -4    1    3    3    0  502  0.24483138285E+02  0.16344333718E+03 -0.10912418688E+04  0.11036863583E+04  0.12699999809E+01 0.  1.
</event>
<event>
 5   0  0.5579109E-05  0.1898346E+04  0.7818609E-02  0.8655680E-01
       -1   -1    0    0    0  501  0.00000000000E+00  0.00000000000E+00  0.84878354412E+03  0.84878354413E+03  0.50400001928E-02 0. -1.
        1   -1    0    0  501    0  0.00000000000E+00  0.00000000000E+00 -0.10614359338E+04  0.10614359338E+04  0.50400001928E-02 0.  1.
    10030    2    1    2    0    0  0.00000000000E+00  0.00000000000E+00 -0.21265238969E+03  0.19102194780E+04  0.18983459682E+04 0.  0.
        3    1    3    3  502    0  0.60236661422E+03  0.72775679262E+03 -0.13806255484E+02  0.94481009204E+03  0.10100000352E+00 0. -1.
       -3    1    3    3    0  502 -0.60236661422E+03 -0.72775679262E+03 -0.19884613421E+03  0.96540938592E+03  0.10100000352E+00 0.  1.
</event>
<event>
 5   0  0.5628936E-05  0.1885536E+04  0.7818609E-02  0.8662090E-01
        1   -1    0    0  501    0  0.00000000000E+00  0.00000000000E+00  0.17503806009E+04  0.17503806009E+04  0.50400001928E-02 0. -1.
       -1   -1    0    0    0  501  0.00000000000E+00  0.00000000000E+00 -0.50778179045E+03  0.50778179048E+03  0.50400001928E-02 0.  1.
    10030    2    1    2    0    0  0.00000000000E+00  0.00000000000E+00  0.12425988104E+04  0.22581623914E+04  0.18855358872E+04 0.  0.
        5    1    3    3  502    0  0.66141459126E+03  0.16689190260E+03  0.14006452491E+04  0.15579317612E+04  0.46999998093E+01 0. -1.
       -5    1    3    3    0  502 -0.66141459126E+03 -0.16689190260E+03 -0.15804643866E+03  0.70023063019E+03  0.46999998093E+01 0.  1.
</event>
<event>
 5   0  0.5841424E-05  0.1897408E+04  0.7818609E-02  0.8656147E-01
        1   -1    0    0  501    0  0.00000000000E+00  0.00000000000E+00  0.18395080951E+04  0.18395080951E+04  0.50400001928E-02 0. -1.
       -1   -1    0    0    0  501  0.00000000000E+00  0.00000000000E+00 -0.48928275048E+03  0.48928275051E+03  0.50400001928E-02 0.  1.
    10030    2    1    2    0    0  0.00000000000E+00  0.00000000000E+00  0.13502253447E+04  0.23287908456E+04  0.18974083170E+04 0.  0.
        1    1    3    3  502    0  0.16677890507E+03  0.61554589987E+03  0.15371724893E+04  0.16642148959E+04  0.50400001928E-02 0. -1.
       -1    1    3    3    0  502 -0.16677890507E+03 -0.61554589987E+03 -0.18694714463E+03  0.66457594971E+03  0.50400001928E-02 0.  1.
</event>
<event>
 5   0  0.1118206E-04  0.1896500E+04  0.7818609E-02  0.8656600E-01
        2   -1    0    0  501    0  0.00000000000E+00  0.00000000000E+00  0.19377976015E+04  0.19377976015E+04  0.25500000920E-02 0. -1.
       -2   -1    0    0    0  501  0.00000000000E+00  0.00000000000E+00 -0.46402078940E+03  0.46402078941E+03  0.25500000920E-02 0.  1.
    10030    2    1    2    0    0  0.00000000000E+00  0.00000000000E+00  0.14737768121E+04  0.24018183909E+04  0.18965003272E+04 0.  0.
        1    1    3    3  502    0 -0.42426081346E+03 -0.38849449128E+03  0.16915691781E+04  0.17867096832E+04  0.50400001928E-02 0. -1.
       -1    1    3    3    0  502  0.42426081346E+03  0.38849449128E+03 -0.21779236602E+03  0.61510870773E+03  0.50400001928E-02 0.  1.
</event>
<event>
 5   0  0.5841424E-05  0.1907067E+04  0.7818609E-02  0.8651347E-01
       -1   -1    0    0    0  501  0.00000000000E+00  0.00000000000E+00  0.57189155277E+03  0.57189155279E+03  0.50400001928E-02 0.  1.
        1   -1    0    0  501    0  0.00000000000E+00  0.00000000000E+00 -0.15898573618E+04  0.15898573618E+04  0.50400001928E-02 0. -1.
    10030    2    1    2    0    0  0.00000000000E+00  0.00000000000E+00 -0.10179658090E+04  0.21617489146E+04  0.19070668529E+04 0.  0.
        1    1    3    3  502    0 -0.66492929205E+03  0.12296425049E+02 -0.12835724881E+04  0.14456280634E+04  0.50400001928E-02 0. -1.
       -1    1    3    3    0  502  0.66492929205E+03 -0.12296425049E+02  0.26560667907E+03  0.71612085118E+03  0.50400001928E-02 0.  1.
</event>
<event>
 5   0  0.1101678E-04  0.1902148E+04  0.7818609E-02  0.8653788E-01
       -2   -1    0    0    0  501  0.00000000000E+00  0.00000000000E+00  0.34422291741E+03  0.34422291742E+03  0.25500000920E-02 0.  1.
        2   -1    0    0  501    0  0.00000000000E+00  0.00000000000E+00 -0.26277800253E+04  0.26277800253E+04  0.25500000920E-02 0. -1.
    10030    2    1    2    0    0  0.00000000000E+00  0.00000000000E+00 -0.22835571079E+04  0.29720029427E+04  0.19021483713E+04 0.  0.
        4    1    3    3  502    0  0.23891843798E+03  0.69543840579E+03 -0.19934561585E+03  0.76187721039E+03  0.12699999809E+01 0.  1.
       -4    1    3    3    0  502 -0.23891843798E+03 -0.69543840579E+03 -0.20842114920E+04  0.22101257323E+04  0.12699999809E+01 0. -1.
</event>
<event>
 5   0  0.1182630E-04  0.1900677E+04  0.7818609E-02  0.8654519E-01
        2   -1    0    0  501    0  0.00000000000E+00  0.00000000000E+00  0.10340489094E+04  0.10340489094E+04  0.25500000920E-02 0.  1.
       -2   -1    0    0    0  501  0.00000000000E+00  0.00000000000E+00 -0.87340520837E+03  0.87340520837E+03  0.25500000920E-02 0. -1.
    10030    2    1    2    0    0  0.00000000000E+00  0.00000000000E+00  0.16064370107E+03  0.19074541178E+04  0.19006774616E+04 0.  0.
        5    1    3    3  502    0 -0.88664435683E+03  0.74798406845E+02 -0.25461739706E+03  0.92551884154E+03  0.46999998093E+01 0. -1.
       -5    1    3    3    0  502  0.88664435683E+03 -0.74798406845E+02  0.41526109813E+03  0.98193527627E+03  0.46999998093E+01 0.  1.
</event>
<event>
 5   0  0.5824956E-05  0.1890132E+04  0.7818609E-02  0.8659784E-01
       -1   -1    0    0    0  501  0.00000000000E+00  0.00000000000E+00  0.58433088591E+03  0.58433088593E+03  0.50400001928E-02 0. -1.
        1   -1    0    0  501    0  0.00000000000E+00  0.00000000000E+00 -0.15285003981E+04  0.15285003981E+04  0.50400001928E-02 0.  1.
    10030    2    1    2    0    0  0.00000000000E+00  0.00000000000E+00 -0.94416951215E+03  0.21128312840E+04  0.18901322618E+04 0.  0.
        2    1    3    3  502    0  0.74871038950E+03  0.52270149273E+03 -0.19972613325E+03  0.93470563610E+03  0.25500000920E-02 0. -1.
       -2    1    3    3    0  502 -0.74871038950E+03 -0.52270149273E+03 -0.74444337891E+03  0.11781256479E+04  0.25500000920E-02 0.  1.
</event>
<event>
 5   0  0.5841424E-05  0.1935891E+04  0.7818609E-02  0.8637195E-01
       -1   -1    0    0    0  501  0.00000000000E+00  0.00000000000E+00  0.14039717255E+04  0.14039717255E+04  0.50400001928E-02 0. -1.
        1   -1    0    0  501    0  0.00000000000E+00  0.00000000000E+00 -0.66733432401E+03  0.66733432402E+03  0.50400001928E-02 0.  1.
    10030    2    1    2    0    0  0.00000000000E+00  0.00000000000E+00  0.73663740151E+03  0.20713060495E+04  0.19358910325E+04 0.  0.
        1    1    3    3  502    0 -0.61310284840E+03 -0.45945134733E+03  0.10012442655E+04  0.12607460976E+04  0.50400001928E-02 0. -1.
       -1    1    3    3    0  502  0.61310284840E+03  0.45945134733E+03 -0.26460686399E+03  0.81055995199E+03  0.50400001928E-02 0.  1.
</event>
<event>
 5   0  0.1141890E-04  0.1910198E+04  0.7818609E-02  0.8649797E-01
        2   -1    0    0  501    0  0.00000000000E+00  0.00000000000E+00  0.12995989270E+04  0.12995989270E+04  0.25500000920E-02 0. -1.
       -2   -1    0    0    0  501  0.00000000000E+00  0.00000000000E+00 -0.70191964044E+03  0.70191964045E+03  0.25500000920E-02 0.  1.
    10030    2    1    2    0    0  0.00000000000E+00  0.00000000000E+00  0.59767928654E+03  0.20015185674E+04  0.19101979076E+04 0.  0.
        2    1    3    3  502    0  0.93955495185E+02  0.72762008446E+03  0.93959339306E+03  0.11920966264E+04  0.25500000920E-02 0. -1.
       -2    1    3    3    0  502 -0.93955495185E+02 -0.72762008446E+03 -0.34191410652E+03  0.80942194103E+03  0.25500000920E-02 0.  1.
</event>
<event>
 5   0  0.5579109E-05  0.1899932E+04  0.7818609E-02  0.8654890E-01
        1   -1    0    0  501    0  0.00000000000E+00  0.00000000000E+00  0.11229716220E+04  0.11229716220E+04  0.50400001928E-02 0.  1.
       -1   -1    0    0    0  501  0.00000000000E+00  0.00000000000E+00 -0.80361333103E+03  0.80361333104E+03  0.50400001928E-02 0. -1.
    10030    2    1    2    0    0  0.00000000000E+00  0.00000000000E+00  0.31935829101E+03  0.19265849531E+04  0.18999315418E+04 0.  0.
        3    1    3    3  502    0 -0.41796219648E+03 -0.85002351615E+03  0.23281992645E+03  0.97541657975E+03  0.10100000352E+00 0. -1.
       -3    1    3    3    0  502  0.41796219648E+03  0.85002351615E+03  0.86538364561E+02  0.95116837334E+03  0.10100000352E+00 0.  1.
</event>
<event>
 5   0  0.5579109E-05  0.1903425E+04  0.7818609E-02  0.8653153E-01
        1   -1    0    0  501    0  0.00000000000E+00  0.00000000000E+00  0.60707983012E+03  0.60707983014E+03  0.50400001928E-02 0.  1.
       -1   -1    0    0    0  501  0.00000000000E+00  0.00000000000E+00 -0.14919899296E+04  0.14919899296E+04  0.50400001928E-02 0. -1.
    10030    2    1    2    0    0  0.00000000000E+00  0.00000000000E+00 -0.88491009944E+03  0.20990697597E+04  0.19034253261E+04 0.  0.
        3    1    3    3  502    0 -0.46147625292E+03  0.43055981165E+03  0.34309278554E+03  0.71836951014E+03  0.10100000352E+00 0.  1.
       -3    1    3    3    0  502  0.46147625292E+03 -0.43055981165E+03 -0.12280028850E+04  0.13807002496E+04  0.10100000352E+00 0. -1.
</event>
<event>
 5   0  0.1141890E-04  0.1904187E+04  0.7818609E-02  0.8652775E-01
       -2   -1    0    0    0  501  0.00000000000E+00  0.00000000000E+00  0.11117125159E+04  0.11117125159E+04  0.25500000920E-02 0.  1.
        2   -1    0    0  501    0  0.00000000000E+00  0.00000000000E+00 -0.81539229701E+03  0.81539229701E+03  0.25500000920E-02 0. -1.
    10030    2    1    2    0    0  0.00000000000E+00  0.00000000000E+00  0.29632021888E+03  0.19271048129E+04  0.19041867786E+04 0.  0.
        2    1    3    3  502    0  0.90123630596E+03  0.26495486966E+03 -0.87995972433E+01  0.93941758289E+03  0.25500000920E-02 0. -1.
       -2    1    3    3    0  502 -0.90123630596E+03 -0.26495486966E+03  0.30511981612E+03  0.98768723001E+03  0.25500000920E-02 0.  1.
</event>
<event>
 5   0  0.5628936E-05  0.1907199E+04  0.7818609E-02  0.8651281E-01
       -1   -1    0    0    0  501  0.00000000000E+00  0.00000000000E+00  0.68497602963E+03  0.68497602965E+03  0.50400001928E-02 0.  1.
        1   -1    0    0  501    0  0.00000000000E+00  0.00000000000E+00 -0.13275672315E+04  0.13275672315E+04  0.50400001928E-02 0. -1.
    10030    2    1    2    0    0  0.00000000000E+00  0.00000000000E+00 -0.64259120185E+03  0.20125432611E+04  0.19071987115E+04 0.  0.
        5    1    3    3  502    0 -0.20764096428E+03 -0.83462832754E+03 -0.75588142183E+03  0.11450318900E+04  0.46999998093E+01 0. -1.
       -5    1    3    3    0  502  0.20764096428E+03  0.83462832754E+03  0.11329021998E+03  0.86751137118E+03  0.46999998093E+01 0.  1.
</event>
<event>
 5   0  0.1133638E-04  0.1905545E+04  0.7818609E-02  0.8652101E-01
       -2   -1    0    0    0  501  0.00000000000E+00  0.00000000000E+00  0.70635013913E+03  0.70635013913E+03  0.25500000920E-02 0.  1.
        2   -1    0    0  501    0  0.00000000000E+00  0.00000000000E+00 -0.12851632304E+04  0.12851632304E+04  0.25500000920E-02 0. -1.
    10030    2    1    2    0    0  0.00000000000E+00  0.00000000000E+00 -0.57881309127E+03  0.19915133695E+04  0.19055447794E+04 0.  0.
        3    1    3    3  502    0  0.68969919673E+03  0.15967563610E+02 -0.97619521753E+03  0.11953648221E+04  0.10100000352E+00 0. -1.
       -3    1    3    3    0  502 -0.68969919673E+03 -0.15967563610E+02  0.39738212626E+03  0.79614854740E+03  0.10100000352E+00 0.  1.
</event>
<event>
 5   0  0.1133638E-04  0.1913434E+04  0.7818609E-02  0.8648198E-01
       -2   -1    0    0    0  501  0.00000000000E+00  0.00000000000E+00  0.12134394160E+04  0.12134394160E+04  0.25500000920E-02 0. -1.
        2   -1    0    0  501    0  0.00000000000E+00  0.00000000000E+00 -0.75430809358E+03  0.75430809358E+03  0.25500000920E-02 0.  1.
    10030    2    1    2    0    0  0.00000000000E+00  0.00000000000E+00  0.45913132244E+03  0.19677475096E+04  0.19134337434E+04 0.  0.
        3    1    3    3  502    0 -0.37545427037E+03 -0.87009494461E+03  0.36473495695E+03  0.10154125865E+04  0.10100000352E+00 0.  1.
       -3    1    3    3    0  502  0.37545427037E+03  0.87009494461E+03  0.94396365488E+02  0.95233492312E+03  0.10100000352E+00 0. -1.
</event>
<event>
 5   0  0.1141890E-04  0.1913806E+04  0.7818609E-02  0.8648014E-01
        2   -1    0    0  501    0  0.00000000000E+00  0.00000000000E+00  0.16737064489E+04  0.16737064489E+04  0.25500000920E-02 0.  1.
       -2   -1    0    0    0  501  0.00000000000E+00  0.00000000000E+00 -0.54708733378E+03  0.54708733378E+03  0.25500000920E-02 0. -1.
    10030    2    1    2    0    0  0.00000000000E+00  0.00000000000E+00  0.11266191151E+04  0.22207937827E+04  0.19138062584E+04 0.  0.
        2    1    3    3  502    0  0.27141967572E+02 -0.40435364654E+03 -0.44258647280E+03  0.60010111131E+03  0.25500000920E-02 0. -1.
       -2    1    3    3    0  502 -0.27141967572E+02  0.40435364654E+03  0.15692055879E+04  0.16206926714E+04  0.25500000920E-02 0.  1.
</event>
<event>
 5   0  0.5614989E-05  0.1953528E+04  0.7818609E-02  0.8628661E-01
        1   -1    0    0  501    0  0.00000000000E+00  0.00000000000E+00  0.11780544981E+04  0.11780544981E+04  0.50400001928E-02 0.  1.
       -1   -1    0    0    0  501  0.00000000000E+00  0.00000000000E+00 -0.80986752014E+03  0.80986752015E+03  0.50400001928E-02 0. -1.
    10030    2    1    2    0    0  0.00000000000E+00  0.00000000000E+00  0.36818697792E+03  0.19879220182E+04  0.19535281671E+04 0.  0.
        4    1    3    3  502    0 -0.78838253767E+03 -0.54754955568E+03  0.36813372074E+03  0.10280474653E+04  0.12699999809E+01 0.  1.
       -4    1    3    3    0  502  0.78838253767E+03  0.54754955568E+03  0.53257181441E-01  0.95987455294E+03  0.12699999809E+01 0. -1.
</event>
<event>
 5   0  0.1118206E-04  0.1894402E+04  0.7818609E-02  0.8657648E-01
       -2   -1    0    0    0  501  0.00000000000E+00  0.00000000000E+00  0.58477775115E+03  0.58477775116E+03  0.25500000920E-02 0. -1.
        2   -1    0    0  501    0  0.00000000000E+00  0.00000000000E+00 -0.15342403747E+04  0.15342403747E+04  0.25500000920E-02 0.  1.
    10030    2    1    2    0    0  0.00000000000E+00  0.00000000000E+00 -0.94946262357E+03  0.21190181259E+04  0.18944018962E+04 0.  0.
        1    1    3    3  502    0 -0.23944321693E+03 -0.81121909606E+03 -0.95164061308E+03  0.12731965019E+04  0.50400001928E-02 0.  1.
       -1    1    3    3    0  502  0.23944321693E+03  0.81121909606E+03  0.21779895067E+01  0.84582162399E+03  0.50400001928E-02 0. -1.
</event>
<event>
 5   0  0.1141890E-04  0.1903645E+04  0.7818609E-02  0.8653044E-01
        2   -1    0    0  501    0  0.00000000000E+00  0.00000000000E+00  0.25315206023E+04  0.25315206023E+04  0.25500000920E-02 0.  1.
       -2   -1    0    0    0  501  0.00000000000E+00  0.00000000000E+00 -0.35787422365E+03  0.35787422365E+03  0.25500000920E-02 0. -1.
    10030    2    1    2    0    0  0.00000000000E+00  0.00000000000E+00  0.21736463787E+04  0.28893948260E+04  0.19036448936E+04 0.  0.
        2    1    3    3  502    0 -0.21843250870E+02  0.14339038406E+03 -0.34100164321E+03  0.37056720110E+03  0.25500000920E-02 0. -1.
       -2    1    3    3    0  502  0.21843250870E+02 -0.14339038406E+03  0.25146480219E+04  0.25188276249E+04  0.25500000920E-02 0.  1.
</event>
<event>
 5   0  0.1118206E-04  0.1891668E+04  0.7818609E-02  0.8659015E-01
       -2   -1    0    0    0  501  0.00000000000E+00  0.00000000000E+00  0.46198025652E+03  0.46198025653E+03  0.25500000920E-02 0. -1.
        2   -1    0    0  501    0  0.00000000000E+00  0.00000000000E+00 -0.19364499429E+04  0.19364499429E+04  0.25500000920E-02 0.  1.
    10030    2    1    2    0    0  0.00000000000E+00  0.00000000000E+00 -0.14744696863E+04  0.23984301994E+04  0.18916676678E+04 0.  0.
        1    1    3    3  502    0 -0.10434777669E+03 -0.72709107121E+03 -0.14927237224E+04  0.16636628252E+04  0.50400001928E-02 0.  1.
       -1    1    3    3    0  502  0.10434777669E+03  0.72709107121E+03  0.18254036107E+02  0.73476737420E+03  0.50400001928E-02 0. -1.
</event>
<event>
 5   0  0.1133638E-04  0.1805336E+04  0.7818609E-02  0.8703467E-01
       -2   -1    0    0    0  501  0.00000000000E+00  0.00000000000E+00  0.73774621092E+03  0.73774621092E+03  0.25500000920E-02 0.  1.
        2   -1    0    0  501    0  0.00000000000E+00  0.00000000000E+00 -0.11044573154E+04  0.11044573154E+04  0.25500000920E-02 0. -1.
    10030    2    1    2    0    0  0.00000000000E+00  0.00000000000E+00 -0.36671110448E+03  0.18422035263E+04  0.18053356470E+04 0.  0.
        3    1    3    3  502    0  0.69515031523E+03 -0.56244838377E+02  0.40141971101E+03  0.80469574201E+03  0.10100000352E+00 0.  1.
       -3    1    3    3    0  502 -0.69515031523E+03  0.56244838377E+02 -0.76813081549E+03  0.10375077843E+04  0.10100000352E+00 0. -1.
</event>
<event>
 5   0  0.5824956E-05  0.1900357E+04  0.7818609E-02  0.8654679E-01
       -1   -1    0    0    0  501  0.00000000000E+00  0.00000000000E+00  0.73190951505E+03  0.73190951507E+03  0.50400001928E-02 0. -1.
        1   -1    0    0  501    0  0.00000000000E+00  0.00000000000E+00 -0.12335388667E+04  0.12335388667E+04  0.50400001928E-02 0.  1.
    10030    2    1    2    0    0  0.00000000000E+00  0.00000000000E+00 -0.50162935163E+03  0.19654483818E+04  0.19003566336E+04 0.  0.
        2    1    3    3  502    0  0.27047912065E+02 -0.93935095583E+03 -0.39607845526E+03  0.10197989755E+04  0.25500000920E-02 0.  1.
       -2    1    3    3    0  502 -0.27047912065E+02  0.93935095583E+03 -0.10555089637E+03  0.94564940622E+03  0.25500000920E-02 0. -1.
</event>
<event>
 5   0  0.1118206E-04  0.1897831E+04  0.7818609E-02  0.8655937E-01
        2   -1    0    0  501    0  0.00000000000E+00  0.00000000000E+00  0.13353657885E+04  0.13353657885E+04  0.25500000920E-02 0.  1.
       -2   -1    0    0    0  501  0.00000000000E+00  0.00000000000E+00 -0.67430231845E+03  0.67430231846E+03  0.25500000920E-02 0. -1.
    10030    2    1    2    0    0  0.00000000000E+00  0.00000000000E+00  0.66106347002E+03  0.20096681069E+04  0.18978306006E+04 0.  0.
        1    1    3    3  502    0  0.89662332353E+03  0.20466248582E+03  0.83049938969E+02  0.92342699213E+03  0.50400001928E-02 0. -1.
       -1    1    3    3    0  502 -0.89662332353E+03 -0.20466248582E+03  0.57801353105E+03  0.10862411148E+04  0.50400001928E-02 0.  1.
</event>
<event>
 5   0  0.1101678E-04  0.1907226E+04  0.7818609E-02  0.8651268E-01
        2   -1    0    0  501    0  0.00000000000E+00  0.00000000000E+00  0.96465477559E+03  0.96465477559E+03  0.25500000920E-02 0.  1.
       -2   -1    0    0    0  501  0.00000000000E+00  0.00000000000E+00 -0.94269752312E+03  0.94269752313E+03  0.25500000920E-02 0. -1.
    10030    2    1    2    0    0  0.00000000000E+00  0.00000000000E+00  0.21957252465E+02  0.19073522987E+04  0.19072259097E+04 0.  0.
        4    1    3    3  502    0 -0.66688524932E+03 -0.12456892444E+01 -0.67071056327E+03  0.94582861032E+03  0.12699999809E+01 0. -1.
       -4    1    3    3    0  502  0.66688524932E+03  0.12456892444E+01  0.69266781574E+03  0.96152368841E+03  0.12699999809E+01 0.  1.
</event>
<event>
 5   0  0.5841424E-05  0.1901701E+04  0.7818609E-02  0.8654010E-01
       -1   -1    0    0    0  501  0.00000000000E+00  0.00000000000E+00  0.66400727773E+03  0.66400727775E+03  0.50400001928E-02 0. -1.
        1   -1    0    0  501    0  0.00000000000E+00  0.00000000000E+00 -0.13616064560E+04  0.13616064560E+04  0.50400001928E-02 0.  1.
    10030    2    1    2    0    0  0.00000000000E+00  0.00000000000E+00 -0.69759917830E+03  0.20256137338E+04  0.19017009189E+04 0.  0.
        1    1    3    3  502    0 -0.54102446372E+03  0.53540174252E+03  0.25820466930E+03  0.80376125032E+03  0.50400001928E-02 0. -1.
       -1    1    3    3    0  502  0.54102446372E+03 -0.53540174252E+03 -0.95580384761E+03  0.12218524835E+04  0.50400001928E-02 0.  1.
</event>
<event>
 5   0  0.5824956E-05  0.1826150E+04  0.7818609E-02  0.8692515E-01
       -1   -1    0    0    0  501  0.00000000000E+00  0.00000000000E+00  0.74199754605E+03  0.74199754607E+03  0.50400001928E-02 0.  1.
        1   -1    0    0  501    0  0.00000000000E+00  0.00000000000E+00 -0.11235972026E+04  0.11235972026E+04  0.50400001928E-02 0. -1.
    10030    2    1    2    0    0  0.00000000000E+00  0.00000000000E+00 -0.38159965658E+03  0.18655947487E+04  0.18261504507E+04 0.  0.
        2    1    3    3  502    0 -0.32742364816E+03 -0.82491194729E+03  0.28357478590E+02  0.88796965757E+03  0.25500000920E-02 0.  1.
       -2    1    3    3    0  502  0.32742364816E+03  0.82491194729E+03 -0.40995713517E+03  0.97762509115E+03  0.25500000920E-02 0. -1.
</event>
<event>
 5   0  0.5628936E-05  0.1892532E+04  0.7818609E-02  0.8658582E-01
       -1   -1    0    0    0  501  0.00000000000E+00  0.00000000000E+00  0.76033433328E+03  0.76033433330E+03  0.50400001928E-02 0. -1.
        1   -1    0    0  501    0  0.00000000000E+00  0.00000000000E+00 -0.11776656177E+04  0.11776656177E+04  0.50400001928E-02 0.  1.
    10030    2    1    2    0    0  0.00000000000E+00  0.00000000000E+00 -0.41733128445E+03  0.19379999510E+04  0.18925322743E+04 0.  0.
        5    1    3    3  502    0 -0.22020776332E+03 -0.91981043977E+03 -0.17872612439E+03  0.96255276306E+03  0.46999998093E+01 0.  1.
       -5    1    3    3    0  502  0.22020776332E+03  0.91981043977E+03 -0.23860516006E+03  0.97544718798E+03  0.46999998093E+01 0. -1.
</event>
<event>
 5   0  0.5579109E-05  0.1913971E+04  0.7818609E-02  0.8647933E-01
        1   -1    0    0  501    0  0.00000000000E+00  0.00000000000E+00  0.10430669932E+04  0.10430669932E+04  0.50400001928E-02 0. -1.
       -1   -1    0    0    0  501  0.00000000000E+00  0.00000000000E+00 -0.87800799159E+03  0.87800799160E+03  0.50400001928E-02 0.  1.
    10030    2    1    2    0    0  0.00000000000E+00  0.00000000000E+00  0.16505900159E+03  0.19210749848E+04  0.19139709045E+04 0.  0.
        3    1    3    3  502    0  0.79662054991E+03 -0.44839432301E+03 -0.20164568310E+03  0.93612112526E+03  0.10100000352E+00 0. -1.
       -3    1    3    3    0  502 -0.79662054991E+03  0.44839432301E+03  0.36670468469E+03  0.98495385953E+03  0.10100000352E+00 0.  1.
</event>
<event>
 5   0  0.1101678E-04  0.1954905E+04  0.7818609E-02  0.8627999E-01
       -2   -1    0    0    0  501  0.00000000000E+00  0.00000000000E+00  0.46137772416E+03  0.46137772416E+03  0.25500000920E-02 0. -1.
        2   -1    0    0  501    0  0.00000000000E+00  0.00000000000E+00 -0.20707835601E+04  0.20707835601E+04  0.25500000920E-02 0.  1.
    10030    2    1    2    0    0  0.00000000000E+00  0.00000000000E+00 -0.16094058359E+04  0.25321612843E+04  0.19549050168E+04 0.  0.
        4    1    3    3  502    0 -0.51182114824E+03 -0.83234856239E+03 -0.77176146761E+03  0.12451435230E+04  0.12699999809E+01 0.  1.
       -4    1    3    3    0  502  0.51182114824E+03  0.83234856239E+03 -0.83764436833E+03  0.12870177613E+04  0.12699999809E+01 0. -1.
</event>
<event>
 5   0  0.5841424E-05  0.1925548E+04  0.7818609E-02  0.8642243E-01
       -1   -1    0    0    0  501  0.00000000000E+00  0.00000000000E+00  0.41415721072E+03  0.41415721075E+03  0.50400001928E-02 0.  1.
        1   -1    0    0  501    0  0.00000000000E+00  0.00000000000E+00 -0.22381214707E+04  0.22381214707E+04  0.50400001928E-02 0. -1.
    10030    2    1    2    0    0  0.00000000000E+00  0.00000000000E+00 -0.18239642600E+04  0.26522786815E+04  0.19255483849E+04 0.  0.
        1    1    3    3  502    0 -0.38068591060E+03  0.52088069843E+03 -0.18963236655E+04  0.20030681239E+04  0.50400001928E-02 0. -1.
       -1    1    3    3    0  502  0.38068591060E+03 -0.52088069843E+03  0.72359405482E+02  0.64921055761E+03  0.50400001928E-02 0.  1.
</event>
<event>
 5   0  0.1182630E-04  0.1911984E+04  0.7818609E-02  0.8648914E-01
        2   -1    0    0  501    0  0.00000000000E+00  0.00000000000E+00  0.10867420839E+04  0.10867420839E+04  0.25500000920E-02 0. -1.
       -2   -1    0    0    0  501  0.00000000000E+00  0.00000000000E+00 -0.84097300660E+03  0.84097300660E+03  0.25500000920E-02 0.  1.
    10030    2    1    2    0    0  0.00000000000E+00  0.00000000000E+00  0.24576907732E+03  0.19277150905E+04  0.19119840561E+04 0.  0.
        5    1    3    3  502    0  0.29336999776E+03 -0.89009018949E+03  0.31304216174E+03  0.98810120233E+03  0.46999998093E+01 0. -1.
       -5    1    3    3    0  502 -0.29336999776E+03  0.89009018949E+03 -0.67273084418E+02  0.93961388820E+03  0.46999998093E+01 0.  1.
</event>
<event>
 5   0  0.1182630E-04  0.1899740E+04  0.7818609E-02  0.8654986E-01
        2   -1    0    0  501    0  0.00000000000E+00  0.00000000000E+00  0.25230070391E+04  0.25230070391E+04  0.25500000920E-02 0.  1.
       -2   -1    0    0    0  501  0.00000000000E+00  0.00000000000E+00 -0.35761021532E+03  0.35761021533E+03  0.25500000920E-02 0. -1.
    10030    2    1    2    0    0  0.00000000000E+00  0.00000000000E+00  0.21653968238E+04  0.28806172544E+04  0.18997400775E+04 0.  0.
        5    1    3    3  502    0 -0.46516396954E+03 -0.64624458801E+03  0.18680029318E+04  0.20306320763E+04  0.46999998093E+01 0.  1.
       -5    1    3    3    0  502  0.46516396954E+03  0.64624458801E+03  0.29739389200E+03  0.84998517816E+03  0.46999998093E+01 0. -1.
</event>
<event>
 5   0  0.1182630E-04  0.1904352E+04  0.7818609E-02  0.8652693E-01
       -2   -1    0    0    0  501  0.00000000000E+00  0.00000000000E+00  0.58694346159E+03  0.58694346160E+03  0.25500000920E-02 0.  1.
        2   -1    0    0  501    0  0.00000000000E+00  0.00000000000E+00 -0.15446788035E+04  0.15446788035E+04  0.25500000920E-02 0. -1.
    10030    2    1    2    0    0  0.00000000000E+00  0.00000000000E+00 -0.95773534192E+03  0.21316222651E+04  0.19043519885E+04 0.  0.
        5    1    3    3  502    0 -0.66539389756E+03  0.59651486073E+03 -0.84678591539E+03  0.12311163611E+04  0.46999998093E+01 0. -1.
       -5    1    3    3    0  502  0.66539389756E+03 -0.59651486073E+03 -0.11094942653E+03  0.90050590405E+03  0.46999998093E+01 0.  1.
</event>
<event>
 5   0  0.1141890E-04  0.1905795E+04  0.7818609E-02  0.8651977E-01
        2   -1    0    0  501    0  0.00000000000E+00  0.00000000000E+00  0.10766995630E+04  0.10766995630E+04  0.25500000920E-02 0.  1.
       -2   -1    0    0    0  501  0.00000000000E+00  0.00000000000E+00 -0.84333024031E+03  0.84333024031E+03  0.25500000920E-02 0. -1.
    10030    2    1    2    0    0  0.00000000000E+00  0.00000000000E+00  0.23336932269E+03  0.19200298033E+04  0.19057946387E+04 0.  0.
        2    1    3    3  502    0  0.44928095559E+03 -0.74223198024E+03  0.51364756876E+03  0.10082636136E+04  0.25500000920E-02 0.  1.
       -2    1    3    3    0  502 -0.44928095559E+03  0.74223198024E+03 -0.28027824607E+03  0.91176618975E+03  0.25500000920E-02 0. -1.
</event>
<event>
 5   0  0.5614989E-05  0.1897651E+04  0.7818609E-02  0.8656026E-01
        1   -1    0    0  501    0  0.00000000000E+00  0.00000000000E+00  0.16171301442E+04  0.16171301442E+04  0.50400001928E-02 0. -1.
       -1   -1    0    0    0  501  0.00000000000E+00  0.00000000000E+00 -0.55670856904E+03  0.55670856906E+03  0.50400001928E-02 0.  1.
    10030    2    1    2    0    0  0.00000000000E+00  0.00000000000E+00  0.10604215751E+04  0.21738387132E+04  0.18976513995E+04 0.  0.
        4    1    3    3  502    0  0.73289215867E+03  0.57598003038E+03  0.32726980264E+03  0.98792259224E+03  0.12699999809E+01 0.  1.
       -4    1    3    3    0  502 -0.73289215867E+03 -0.57598003038E+03  0.73315177249E+03  0.11859161210E+04  0.12699999809E+01 0. -1.
</event>
<event>
 5   0  0.1118206E-04  0.1755303E+04  0.7818609E-02  0.8730437E-01
        2   -1    0    0  501    0  0.00000000000E+00  0.00000000000E+00  0.70910820014E+03  0.70910820014E+03  0.25500000920E-02 0. -1.
       -2   -1    0    0    0  501  0.00000000000E+00  0.00000000000E+00 -0.10862545295E+04  0.10862545295E+04  0.25500000920E-02 0.  1.
    10030    2    1    2    0    0  0.00000000000E+00  0.00000000000E+00 -0.37714632939E+03  0.17953627297E+04  0.17553028164E+04 0.  0.
        1    1    3    3  502    0  0.59364234608E+03  0.84684538279E+02  0.46690290871E+03  0.75998752113E+03  0.50400001928E-02 0. -1.
       -1    1    3    3    0  502 -0.59364234608E+03 -0.84684538279E+02 -0.84404923810E+03  0.10353752085E+04  0.50400001928E-02 0.  1.
</event>
<event>
 5   0  0.1182630E-04  0.1892802E+04  0.7818609E-02  0.8658448E-01
        2   -1    0    0  501    0  0.00000000000E+00  0.00000000000E+00  0.76920276468E+03  0.76920276468E+03  0.25500000920E-02 0. -1.
       -2   -1    0    0    0  501  0.00000000000E+00  0.00000000000E+00 -0.11644191121E+04  0.11644191121E+04  0.25500000920E-02 0.  1.
    10030    2    1    2    0    0  0.00000000000E+00  0.00000000000E+00 -0.39521634738E+03  0.19336218767E+04  0.18928015218E+04 0.  0.
        5    1    3    3  502    0  0.19890363862E+03  0.28149692728E+03 -0.10980067863E+04  0.11508449810E+04  0.46999998093E+01 0.  1.
       -5    1    3    3    0  502 -0.19890363862E+03 -0.28149692728E+03  0.70279043890E+03  0.78277689576E+03  0.46999998093E+01 0. -1.
</event>
<event>
 5   0  0.1101678E-04  0.2114792E+04  0.7818609E-02  0.8554755E-01
        2   -1    0    0  501    0  0.00000000000E+00  0.00000000000E+00  0.97157244408E+03  0.97157244408E+03  0.25500000920E-02 0. -1.
       -2   -1    0    0    0  501  0.00000000000E+00  0.00000000000E+00 -0.11508008117E+04  0.11508008117E+04  0.25500000920E-02 0.  1.
    10030    2    1    2    0    0  0.00000000000E+00  0.00000000000E+00 -0.17922836758E+03  0.21223732557E+04  0.21147920534E+04 0.  0.
        4    1    3    3  502    0 -0.96691343064E+03 -0.42743385637E+03 -0.68008878028E+02  0.10593621214E+04  0.12699999809E+01 0. -1.
       -4    1    3    3    0  502  0.96691343064E+03  0.42743385637E+03 -0.11121948955E+03  0.10630111343E+04  0.12699999809E+01 0.  1.
</event>
<event>
 5   0  0.1133638E-04  0.1894386E+04  0.7818609E-02  0.8657656E-01
        2   -1    0    0  501    0  0.00000000000E+00  0.00000000000E+00  0.18591674374E+04  0.18591674374E+04  0.25500000920E-02 0.  1.
       -2   -1    0    0    0  501  0.00000000000E+00  0.00000000000E+00 -0.48256809825E+03  0.48256809825E+03  0.25500000920E-02 0. -1.
    10030    2    1    2    0    0  0.00000000000E+00  0.00000000000E+00  0.13765993391E+04  0.23417355356E+04  0.18943863329E+04 0.  0.
        3    1    3    3  502    0 -0.84505004135E+03  0.14815261947E+03  0.11844791305E+04  0.14625490049E+04  0.10100000352E+00 0.  1.
       -3    1    3    3    0  502  0.84505004135E+03 -0.14815261947E+03  0.19212020868E+03  0.87918653074E+03  0.10100000352E+00 0. -1.
</event>
<event>
 5   0  0.1182630E-04  0.1893186E+04  0.7818609E-02  0.8658256E-01
       -2   -1    0    0    0  501  0.00000000000E+00  0.00000000000E+00  0.49629957206E+03  0.49629957207E+03  0.25500000920E-02 0.  1.
        2   -1    0    0  501    0  0.00000000000E+00  0.00000000000E+00 -0.18054375463E+04  0.18054375463E+04  0.25500000920E-02 0. -1.
    10030    2    1    2    0    0  0.00000000000E+00  0.00000000000E+00 -0.13091379742E+04  0.23017371184E+04  0.18931855499E+04 0.  0.
        5    1    3    3  502    0 -0.30672815128E+03  0.85925602580E+03 -0.34792496265E+03  0.97646144128E+03  0.46999998093E+01 0.  1.
       -5    1    3    3    0  502  0.30672815128E+03 -0.85925602580E+03 -0.96121301160E+03  0.13252756771E+04  0.46999998093E+01 0. -1.
</event>
<event>
 5   0  0.5614989E-05  0.1856222E+04  0.7818609E-02  0.8676960E-01
       -1   -1    0    0    0  501  0.00000000000E+00  0.00000000000E+00  0.14568008143E+04  0.14568008143E+04  0.50400001928E-02 0. -1.
        1   -1    0    0  501    0  0.00000000000E+00  0.00000000000E+00 -0.59128870021E+03  0.59128870023E+03  0.50400001928E-02 0.  1.
    10030    2    1    2    0    0  0.00000000000E+00  0.00000000000E+00  0.86551211409E+03  0.20480895145E+04  0.18562218186E+04 0.  0.
        4    1    3    3  502    0  0.31282945656E+03  0.74968306508E+03  0.92804423932E+03  0.12333510003E+04  0.12699999809E+01 0.  1.
       -4    1    3    3    0  502 -0.31282945656E+03 -0.74968306508E+03 -0.62532125232E+02  0.81473851421E+03  0.12699999809E+01 0. -1.
</event>
<event>
 5   0  0.5579109E-05  0.1849467E+04  0.7818609E-02  0.8680427E-01
        1   -1    0    0  501    0  0.00000000000E+00  0.00000000000E+00  0.15535036183E+04  0.15535036183E+04  0.50400001928E-02 0.  1.
       -1   -1    0    0    0  501  0.00000000000E+00  0.00000000000E+00 -0.55045393649E+03  0.55045393652E+03  0.50400001928E-02 0. -1.
    10030    2    1    2    0    0  0.00000000000E+00  0.00000000000E+00  0.10030496818E+04  0.21039575548E+04  0.18494671471E+04 0.  0.
        3    1    3    3  502    0 -0.37692441090E+03  0.77895544558E+03  0.87240503664E+03  0.12287937809E+04  0.10100000352E+00 0.  1.
       -3    1    3    3    0  502  0.37692441090E+03 -0.77895544558E+03  0.13064464516E+03  0.87516377395E+03  0.10100000352E+00 0. -1.
</event>
<event>
 5   0  0.5628936E-05  0.1880305E+04  0.7818609E-02  0.8664723E-01
       -1   -1    0    0    0  501  0.00000000000E+00  0.00000000000E+00  0.13624083642E+04  0.13624083642E+04  0.50400001928E-02 0. -1.
        1   -1    0    0  501    0  0.00000000000E+00  0.00000000000E+00 -0.64876768171E+03  0.64876768173E+03  0.50400001928E-02 0.  1.
    10030    2    1    2    0    0  0.00000000000E+00  0.00000000000E+00  0.71364068246E+03  0.20111760459E+04  0.18803047795E+04 0.  0.
        5    1    3    3  502    0  0.77239367168E+03 -0.46841875700E+03  0.63544333698E+03  0.11044539105E+04  0.46999998093E+01 0. -1.
       -5    1    3    3    0  502 -0.77239367168E+03  0.46841875700E+03  0.78197345483E+02  0.90672213538E+03  0.46999998093E+01 0.  1.
</event>
<event>
 5   0  0.1118206E-04  0.1903468E+04  0.7818609E-02  0.8653132E-01
        2   -1    0    0  501    0  0.00000000000E+00  0.00000000000E+00  0.10844981786E+04  0.10844981786E+04  0.25500000920E-02 0. -1.
       -2   -1    0    0    0  501  0.00000000000E+00  0.00000000000E+00 -0.83522312080E+03  0.83522312080E+03  0.25500000920E-02 0.  1.
    10030    2    1    2    0    0  0.00000000000E+00  0.00000000000E+00  0.24927505779E+03  0.19197212994E+04  0.19034683640E+04 0.  0.
        1    1    3    3  502    0  0.60848493742E+03  0.28443778207E+03 -0.55538914981E+03  0.87155945218E+03  0.50400001928E-02 0.  1.
       -1    1    3    3    0  502 -0.60848493742E+03 -0.28443778207E+03  0.80466420760E+03  0.10481618472E+04  0.50400001928E-02 0. -1.
</event>
<event>
 5   0  0.1182630E-04  0.1899371E+04  0.7818609E-02  0.8655169E-01
       -2   -1    0    0    0  501  0.00000000000E+00  0.00000000000E+00  0.98642285583E+03  0.98642285584E+03  0.25500000920E-02 0. -1.
        2   -1    0    0  501    0  0.00000000000E+00  0.00000000000E+00 -0.91431646499E+03  0.91431646499E+03  0.25500000920E-02 0.  1.
    10030    2    1    2    0    0  0.00000000000E+00  0.00000000000E+00  0.72106390848E+02  0.19007393208E+04  0.18993711154E+04 0.  0.
        5    1    3    3  502    0  0.27875639419E+03 -0.52779588275E+03 -0.70313100533E+03  0.92232799036E+03  0.46999998093E+01 0.  1.
       -5    1    3    3    0  502 -0.27875639419E+03  0.52779588275E+03  0.77523739618E+03  0.97841133046E+03  0.46999998093E+01 0. -1.
</event>
<event>
 5   0  0.4061125E-05  0.1915488E+04  0.7818609E-02  0.8647185E-01
        3   -1    0    0  501    0  0.00000000000E+00  0.00000000000E+00  0.14023114890E+04  0.14023114926E+04  0.10100000352E+00 0.  1.
       -3   -1    0    0    0  501  0.00000000000E+00  0.00000000000E+00 -0.65411534943E+03  0.65411535723E+03  0.10100000352E+00 0. -1.
    10030    2    1    2    0    0  0.00000000000E+00  0.00000000000E+00  0.74819613954E+03  0.20564268498E+04  0.19154879079E+04 0.  0.
        2    1    3    3  502    0  0.22607202904E+03 -0.72296857039E+03  0.10032933282E+04  0.12571354813E+04  0.25500000920E-02 0.  1.
       -2    1    3    3    0  502 -0.22607202904E+03  0.72296857039E+03 -0.25509718863E+03  0.79929136849E+03  0.25500000920E-02 0. -1.
</event>
<event>
 5   0  0.5841424E-05  0.1919819E+04  0.7818609E-02  0.8645054E-01
       -1   -1    0    0    0  501  0.00000000000E+00  0.00000000000E+00  0.65848495069E+03  0.65848495071E+03  0.50400001928E-02 0. -1.
        1   -1    0    0  501    0  0.00000000000E+00  0.00000000000E+00 -0.13993125602E+04  0.13993125602E+04  0.50400001928E-02 0.  1.
    10030    2    1    2    0    0  0.00000000000E+00  0.00000000000E+00 -0.74082760949E+03  0.20577975109E+04  0.19198190146E+04 0.  0.
        1    1    3    3  502    0 -0.67758564596E+03 -0.43657780195E+03 -0.92912861923E+03  0.12300416561E+04  0.50400001928E-02 0.  1.
       -1    1    3    3    0  502  0.67758564596E+03  0.43657780195E+03  0.18830100974E+03  0.82775585474E+03  0.50400001928E-02 0. -1.
</event>
<event>
 5   0  0.1101678E-04  0.1900245E+04  0.7818609E-02  0.8654734E-01
        2   -1    0    0  501    0  0.00000000000E+00  0.00000000000E+00  0.16147038201E+04  0.16147038201E+04  0.25500000920E-02 0. -1.
       -2   -1    0    0    0  501  0.00000000000E+00  0.00000000000E+00 -0.55907013533E+03  0.55907013534E+03  0.25500000920E-02 0.  1.
    10030    2    1    2    0    0  0.00000000000E+00  0.00000000000E+00  0.10556336848E+04  0.21737739554E+04  0.19002449139E+04 0.  0.
        4    1    3    3  502    0 -0.59889911689E+03 -0.18619188649E+03  0.13442624156E+04  0.14833713715E+04  0.12699999809E+01 0. -1.
       -4    1    3    3    0  502  0.59889911689E+03  0.18619188649E+03 -0.28862873082E+03  0.69040258398E+03  0.12699999809E+01 0.  1.
</event>
<event>
 5   0  0.5841424E-05  0.1897262E+04  0.7818609E-02  0.8656220E-01
       -1   -1    0    0    0  501  0.00000000000E+00  0.00000000000E+00  0.73285561118E+03  0.73285561119E+03  0.50400001928E-02 0. -1.
        1   -1    0    0  501    0  0.00000000000E+00  0.00000000000E+00 -0.12279372502E+04  0.12279372502E+04  0.50400001928E-02 0.  1.
    10030    2    1    2    0    0  0.00000000000E+00  0.00000000000E+00 -0.49508163906E+03  0.19607928614E+04  0.18972619261E+04 0.  0.
        1    1    3    3  502    0  0.12871150798E+03  0.44775528025E+03 -0.11015584717E+04  0.11960278048E+04  0.50400001928E-02 0.  1.
       -1    1    3    3    0  502 -0.12871150798E+03 -0.44775528025E+03  0.60647683265E+03  0.76476505663E+03  0.50400001928E-02 0. -1.
</event>
<event>
 5   0  0.1101678E-04  0.1901285E+04  0.7818609E-02  0.8654217E-01
        2   -1    0    0  501    0  0.00000000000E+00  0.00000000000E+00  0.20515321685E+04  0.20515321685E+04  0.25500000920E-02 0.  1.
       -2   -1    0    0    0  501  0.00000000000E+00  0.00000000000E+00 -0.44051046487E+03  0.44051046488E+03  0.25500000920E-02 0. -1.
    10030    2    1    2    0    0  0.00000000000E+00  0.00000000000E+00  0.16110217036E+04  0.24920426333E+04  0.19012852382E+04 0.  0.
        4    1    3    3  502    0 -0.19225324203E+03  0.89993649831E+03  0.49293144119E+03  0.10439492462E+04  0.12699999809E+01 0. -1.
       -4    1    3    3    0  502  0.19225324203E+03 -0.89993649831E+03  0.11180902624E+04  0.14480933871E+04  0.12699999809E+01 0.  1.
</event>
<event>
 5   0  0.1118206E-04  0.1902596E+04  0.7818609E-02  0.8653565E-01
       -2   -1    0    0    0  501  0.00000000000E+00  0.00000000000E+00  0.11571840829E+04  0.11571840829E+04  0.25500000920E-02 0. -1.
        2   -1    0    0  501    0  0.00000000000E+00  0.00000000000E+00 -0.78204293296E+03  0.78204293296E+03  0.25500000920E-02 0.  1.
    10030    2    1    2    0    0  0.00000000000E+00  0.00000000000E+00  0.37514114990E+03  0.19392270158E+04  0.19025957365E+04 0.  0.
        1    1    3    3  502    0 -0.57518250562E+03  0.55109424276E+03  0.71760959850E+03  0.10721489239E+04  0.50400001928E-02 0. -1.
       -1    1    3    3    0  502  0.57518250562E+03 -0.55109424276E+03 -0.34246844859E+03  0.86707809192E+03  0.50400001928E-02 0.  1.
</event>
<event>
 5   0  0.4061125E-05  0.1928242E+04  0.7818609E-02  0.8640925E-01
        4   -1    0    0  501    0  0.00000000000E+00  0.00000000000E+00  0.11881034079E+04  0.11881040866E+04  0.12699999809E+01 0. -1.
       -4   -1    0    0    0  501  0.00000000000E+00  0.00000000000E+00 -0.78236273102E+03  0.78236376181E+03  0.12699999809E+01 0.  1.
    10030    2    1    2    0    0  0.00000000000E+00  0.00000000000E+00  0.40574067684E+03  0.19704678484E+04  0.19282422163E+04 0.  0.
        5    1    3    3  502    0  0.76267313597E+02  0.91199975767E+03 -0.10699780218E+03  0.92142871714E+03  0.46999998093E+01 0. -1.
       -5    1    3    3    0  502 -0.76267313597E+02 -0.91199975767E+03  0.51273847901E+03  0.10490391313E+04  0.46999998093E+01 0.  1.
</event>
<event>
 5   0  0.5841424E-05  0.1902652E+04  0.7818609E-02  0.8653537E-01
        1   -1    0    0  501    0  0.00000000000E+00  0.00000000000E+00  0.88588775632E+03  0.88588775633E+03  0.50400001928E-02 0.  1.
       -1   -1    0    0    0  501  0.00000000000E+00  0.00000000000E+00 -0.10215981087E+04  0.10215981087E+04  0.50400001928E-02 0. -1.
    10030    2    1    2    0    0  0.00000000000E+00  0.00000000000E+00 -0.13571035237E+03  0.19074858650E+04  0.19026521031E+04 0.  0.
        1    1    3    3  502    0  0.11664914372E+03  0.71454814452E+03  0.55083108851E+03  0.90972576179E+03  0.50400001928E-02 0.  1.
       -1    1    3    3    0  502 -0.11664914372E+03 -0.71454814452E+03 -0.68654144088E+03  0.99776010325E+03  0.50400001928E-02 0. -1.
</event>
<event>
 5   0  0.4061125E-05  0.1900244E+04  0.7818609E-02  0.8654735E-01
        3   -1    0    0  501    0  0.00000000000E+00  0.00000000000E+00  0.66671625948E+03  0.66671626713E+03  0.10100000352E+00 0.  1.
       -3   -1    0    0    0  501  0.00000000000E+00  0.00000000000E+00 -0.13539970216E+04  0.13539970253E+04  0.10100000352E+00 0. -1.
    10030    2    1    2    0    0  0.00000000000E+00  0.00000000000E+00 -0.68728076209E+03  0.20207132925E+04  0.19002440276E+04 0.  0.
        5    1    3    3  502    0 -0.35031629613E+03  0.72206247358E+03  0.19714054034E+03  0.82642737474E+03  0.46999998093E+01 0.  1.
       -5    1    3    3    0  502  0.35031629613E+03 -0.72206247358E+03 -0.88442130243E+03  0.11942859177E+04  0.46999998093E+01 0. -1.
</event>
<event>
 5   0  0.1101678E-04  0.1897898E+04  0.7818609E-02  0.8655903E-01
       -2   -1    0    0    0  501  0.00000000000E+00  0.00000000000E+00  0.95245162388E+03  0.95245162389E+03  0.25500000920E-02 0. -1.
        2   -1    0    0  501    0  0.00000000000E+00  0.00000000000E+00 -0.94545916061E+03  0.94545916061E+03  0.25500000920E-02 0.  1.
    10030    2    1    2    0    0  0.00000000000E+00  0.00000000000E+00  0.69924632788E+01  0.18979107845E+04  0.18978979033E+04 0.  0.
        4    1    3    3  502    0 -0.33422303142E+03 -0.85919679479E+03  0.22839402973E+03  0.94978398209E+03  0.12699999809E+01 0. -1.
       -4    1    3    3    0  502  0.33422303142E+03  0.85919679479E+03 -0.22140156646E+03  0.94812680241E+03  0.12699999809E+01 0.  1.
</event>
<event>
 5   0  0.5614989E-05  0.1799715E+04  0.7818609E-02  0.8706451E-01
       -1   -1    0    0    0  501  0.00000000000E+00  0.00000000000E+00  0.48078116426E+03  0.48078116429E+03  0.50400001928E-02 0. -1.
        1   -1    0    0  501    0  0.00000000000E+00  0.00000000000E+00 -0.16842238512E+04  0.16842238512E+04  0.50400001928E-02 0.  1.
    10030    2    1    2    0    0  0.00000000000E+00  0.00000000000E+00 -0.12034426870E+04  0.21650050155E+04  0.17997145375E+04 0.  0.
        4    1    3    3  502    0  0.98373021596E+02 -0.21730621173E+03  0.44205457810E+03  0.50230777812E+03  0.12699999809E+01 0. -1.
       -4    1    3    3    0  502 -0.98373021596E+02  0.21730621173E+03 -0.16454972651E+04  0.16626972374E+04  0.12699999809E+01 0.  1.
</event>
<event>
 5   0  0.1101678E-04  0.1894828E+04  0.7818609E-02  0.8657435E-01
       -2   -1    0    0    0  501  0.00000000000E+00  0.00000000000E+00  0.86339255303E+03  0.86339255304E+03  0.25500000920E-02 0.  1.
        2   -1    0    0  501    0  0.00000000000E+00  0.00000000000E+00 -0.10396122963E+04  0.10396122963E+04  0.25500000920E-02 0. -1.
    10030    2    1    2    0    0  0.00000000000E+00  0.00000000000E+00 -0.17621974326E+03  0.19030048493E+04  0.18948282399E+04 0.  0.
        4    1    3    3  502    0  0.90266159845E+03  0.10914899533E+02  0.20066316317E+03  0.92476181490E+03  0.12699999809E+01 0. -1.
       -4    1    3    3    0  502 -0.90266159845E+03 -0.10914899533E+02 -0.37688290643E+03  0.97824303443E+03  0.12699999809E+01 0.  1.
</event>
<event>
 5   0  0.5824956E-05  0.1905357E+04  0.7818609E-02  0.8652195E-01
       -1   -1    0    0    0  501  0.00000000000E+00  0.00000000000E+00  0.49886503218E+03  0.49886503220E+03  0.50400001928E-02 0. -1.
        1   -1    0    0  501    0  0.00000000000E+00  0.00000000000E+00 -0.18193220675E+04  0.18193220675E+04  0.50400001928E-02 0.  1.
    10030    2    1    2    0    0  0.00000000000E+00  0.00000000000E+00 -0.13204570354E+04  0.23181870998E+04  0.19053568294E+04 0.  0.
        2    1    3    3  502    0  0.48906838238E+03 -0.26265368466E+03 -0.16022010890E+04  0.16956483038E+04  0.25500000920E-02 0.  1.
       -2    1    3    3    0  502 -0.48906838238E+03  0.26265368466E+03  0.28174405361E+03  0.62253879594E+03  0.25500000920E-02 0. -1.
</event>
<event>
 5   0  0.1118206E-04  0.1894485E+04  0.7818609E-02  0.8657606E-01
       -2   -1    0    0    0  501  0.00000000000E+00  0.00000000000E+00  0.73164266520E+03  0.73164266520E+03  0.25500000920E-02 0. -1.
        2   -1    0    0  501    0  0.00000000000E+00  0.00000000000E+00 -0.12263750908E+04  0.12263750908E+04  0.25500000920E-02 0.  1.
    10030    2    1    2    0    0  0.00000000000E+00  0.00000000000E+00 -0.49473242557E+03  0.19580177560E+04  0.18944849854E+04 0.  0.
        1    1    3    3  502    0  0.79396804465E+03 -0.40540361532E+03 -0.57830909070E+03  0.10626282283E+04  0.50400001928E-02 0.  1.
       -1    1    3    3    0  502 -0.79396804465E+03  0.40540361532E+03  0.83576665126E+02  0.89538952765E+03  0.50400001928E-02 0. -1.
</event>
<event>
 5   0  0.5579109E-05  0.1823544E+04  0.7818609E-02  0.8693878E-01
       -1   -1    0    0    0  501  0.00000000000E+00  0.00000000000E+00  0.53754569671E+03  0.53754569673E+03  0.50400001928E-02 0.  1.
        1   -1    0    0  501    0  0.00000000000E+00  0.00000000000E+00 -0.15465262324E+04  0.15465262324E+04  0.50400001928E-02 0. -1.
    10030    2    1    2    0    0  0.00000000000E+00  0.00000000000E+00 -0.10089805357E+04  0.20840719291E+04  0.18235443741E+04 0.  0.
        3    1    3    3  502    0 -0.59001702366E+03  0.44336881892E+03  0.10737963859E+03  0.74580586937E+03  0.10100000352E+00 0.  1.
       -3    1    3    3    0  502  0.59001702366E+03 -0.44336881892E+03 -0.11163601743E+04  0.13382660597E+04  0.10100000352E+00 0. -1.
</event>
<event>
 5   0  0.5841424E-05  0.1897082E+04  0.7818609E-02  0.8656310E-01
        1   -1    0    0  501    0  0.00000000000E+00  0.00000000000E+00  0.43759785641E+03  0.43759785644E+03  0.50400001928E-02 0. -1.
       -1   -1    0    0    0  501  0.00000000000E+00  0.00000000000E+00 -0.20560667498E+04  0.20560667498E+04  0.50400001928E-02 0.  1.
    10030    2    1    2    0    0  0.00000000000E+00  0.00000000000E+00 -0.16184688934E+04  0.24936646062E+04  0.18970823940E+04 0.  0.
        1    1    3    3  502    0 -0.49227614405E+03 -0.81000953717E+03 -0.76222202841E+03  0.12163197248E+04  0.50400001928E-02 0.  1.
       -1    1    3    3    0  502  0.49227614405E+03  0.81000953717E+03 -0.85624686494E+03  0.12773448814E+04  0.50400001928E-02 0. -1.
</event>
<event>
 5   0  0.5579109E-05  0.1891283E+04  0.7818609E-02  0.8659207E-01
       -1   -1    0    0    0  501  0.00000000000E+00  0.00000000000E+00  0.51869726024E+03  0.51869726027E+03  0.50400001928E-02 0.  1.
        1   -1    0    0  501    0  0.00000000000E+00  0.00000000000E+00 -0.17240077865E+04  0.17240077865E+04  0.50400001928E-02 0. -1.
    10030    2    1    2    0    0  0.00000000000E+00  0.00000000000E+00 -0.12053105263E+04  0.22427050468E+04  0.18912832845E+04 0.  0.
        3    1    3    3  502    0  0.60123556139E+03 -0.48952657654E+03 -0.12446575142E+04  0.14663876729E+04  0.10100000352E+00 0. -1.
       -3    1    3    3    0  502 -0.60123556139E+03  0.48952657654E+03  0.39346987865E+02  0.77631737393E+03  0.10100000352E+00 0.  1.
</event>
<event>
 5   0  0.1133638E-04  0.1903255E+04  0.7818609E-02  0.8653238E-01
       -2   -1    0    0    0  501  0.00000000000E+00  0.00000000000E+00  0.13095952535E+04  0.13095952535E+04  0.25500000920E-02 0. -1.
        2   -1    0    0  501    0  0.00000000000E+00  0.00000000000E+00 -0.69150717174E+03  0.69150717175E+03  0.25500000920E-02 0.  1.
    10030    2    1    2    0    0  0.00000000000E+00  0.00000000000E+00  0.61808808179E+03  0.20011024253E+04  0.19032545914E+04 0.  0.
        3    1    3    3  502    0 -0.44604686051E+03  0.77571501605E+03 -0.31494447363E+02  0.89536780057E+03  0.10100000352E+00 0.  1.
       -3    1    3    3    0  502  0.44604686051E+03 -0.77571501605E+03  0.64958252916E+03  0.11057346247E+04  0.10100000352E+00 0. -1.
</event>
<event>
 5   0  0.1141890E-04  0.1885076E+04  0.7818609E-02  0.8662321E-01
       -2   -1    0    0    0  501  0.00000000000E+00  0.00000000000E+00  0.41030108130E+03  0.41030108131E+03  0.25500000920E-02 0.  1.
        2   -1    0    0  501    0  0.00000000000E+00  0.00000000000E+00 -0.21651855990E+04  0.21651855990E+04  0.25500000920E-02 0. -1.
    10030    2    1    2    0    0  0.00000000000E+00  0.00000000000E+00 -0.17548845176E+04  0.25754866803E+04  0.18850761178E+04 0.  0.
        2    1    3    3  502    0 -0.38552229670E+03  0.34374626801E+03  0.19972240000E+03  0.55378513440E+03  0.25500000920E-02 0.  1.
       -2    1    3    3    0  502  0.38552229670E+03 -0.34374626801E+03 -0.19546069176E+04  0.20217015459E+04  0.25500000920E-02 0. -1.
</event>
<event>
 5   0  0.5614989E-05  0.1873208E+04  0.7818609E-02  0.8668309E-01
        1   -1    0    0  501    0  0.00000000000E+00  0.00000000000E+00  0.10012061785E+04  0.10012061785E+04  0.50400001928E-02 0.  1.
       -1   -1    0    0    0  501  0.00000000000E+00  0.00000000000E+00 -0.87617020979E+03  0.87617020981E+03  0.50400001928E-02 0. -1.
    10030    2    1    2    0    0  0.00000000000E+00  0.00000000000E+00  0.12503596866E+03  0.18773763883E+04  0.18732079729E+04 0.  0.
        4    1    3    3  502    0  0.29536736490E+03  0.64825783810E+03 -0.54690199851E+03  0.89809994644E+03  0.12699999809E+01 0. -1.
       -4    1    3    3    0  502 -0.29536736490E+03 -0.64825783810E+03  0.67193796718E+03  0.97927644184E+03  0.12699999809E+01 0.  1.
</event>
<event>
 5   0  0.1118206E-04  0.1886021E+04  0.7818609E-02  0.8661846E-01
       -2   -1    0    0    0  501  0.00000000000E+00  0.00000000000E+00  0.43226537805E+03  0.43226537806E+03  0.25500000920E-02 0.  1.
        2   -1    0    0  501    0  0.00000000000E+00  0.00000000000E+00 -0.20572282588E+04  0.20572282588E+04  0.25500000920E-02 0. -1.
    10030    2    1    2    0    0  0.00000000000E+00  0.00000000000E+00 -0.16249628807E+04  0.24894936368E+04  0.18860207327E+04 0.  0.
        1    1    3    3  502    0 -0.24555797399E+03  0.77305258725E+02 -0.20099464199E+04  0.20263660658E+04  0.50400001928E-02 0. -1.
       -1    1    3    3    0  502  0.24555797399E+03 -0.77305258725E+02  0.38498353918E+03  0.46312757106E+03  0.50400001928E-02 0.  1.
</event>
<event>
 5   0  0.1182630E-04  0.1888712E+04  0.7818609E-02  0.8660496E-01
       -2   -1    0    0    0  501  0.00000000000E+00  0.00000000000E+00  0.83507014301E+03  0.83507014301E+03  0.25500000920E-02 0.  1.
        2   -1    0    0  501    0  0.00000000000E+00  0.00000000000E+00 -0.10679437846E+04  0.10679437846E+04  0.25500000920E-02 0. -1.
    10030    2    1    2    0    0  0.00000000000E+00  0.00000000000E+00 -0.23287364161E+03  0.19030139276E+04  0.18887116974E+04 0.  0.
        5    1    3    3  502    0 -0.48456318159E+03  0.74501204467E+03 -0.43813730259E+03  0.99087376067E+03  0.46999998093E+01 0. -1.
       -5    1    3    3    0  502  0.48456318159E+03 -0.74501204467E+03  0.20526366098E+03  0.91214016696E+03  0.46999998093E+01 0.  1.
</event>
<event>
 5   0  0.5614989E-05  0.1891034E+04  0.7818609E-02  0.8659332E-01
        1   -1    0    0  501    0  0.00000000000E+00  0.00000000000E+00  0.80100957377E+03  0.80100957378E+03  0.50400001928E-02 0.  1.
       -1   -1    0    0    0  501  0.00000000000E+00  0.00000000000E+00 -0.11160945573E+04  0.11160945574E+04  0.50400001928E-02 0. -1.
    10030    2    1    2    0    0  0.00000000000E+00  0.00000000000E+00 -0.31508498358E+03  0.19171041311E+04  0.18910340300E+04 0.  0.
        4    1    3    3  502    0  0.80010732685E+03 -0.49250502774E+03 -0.49928835399E+02  0.94086526045E+03  0.12699999809E+01 0.  1.
       -4    1    3    3    0  502 -0.80010732685E+03  0.49250502774E+03 -0.26515614818E+03  0.97623887069E+03  0.12699999809E+01 0. -1.
</event>
<event>
 5   0  0.1118206E-04  0.1898518E+04  0.7818609E-02  0.8655594E-01
        2   -1    0    0  501    0  0.00000000000E+00  0.00000000000E+00  0.13862236688E+04  0.13862236688E+04  0.25500000920E-02 0. -1.
       -2   -1    0    0    0  501  0.00000000000E+00  0.00000000000E+00 -0.65003428266E+03  0.65003428267E+03  0.25500000920E-02 0.  1.
    10030    2    1    2    0    0  0.00000000000E+00  0.00000000000E+00  0.73618938617E+03  0.20362579515E+04  0.18985182730E+04 0.  0.
        1    1    3    3  502    0 -0.37483651357E+03 -0.53277383616E+03  0.11086542021E+04  0.12858711103E+04  0.50400001928E-02 0. -1.
       -1    1    3    3    0  502  0.37483651357E+03  0.53277383616E+03 -0.37246481591E+03  0.75038684124E+03  0.50400001928E-02 0.  1.
</event>
<event>
 5   0  0.5841424E-05  0.1934042E+04  0.7818609E-02  0.8638094E-01
       -1   -1    0    0    0  501  0.00000000000E+00  0.00000000000E+00  0.29365407624E+03  0.29365407629E+03  0.50400001928E-02 0. -1.
        1   -1    0    0  501    0  0.00000000000E+00  0.00000000000E+00 -0.31844612754E+04  0.31844612754E+04  0.50400001928E-02 0.  1.
    10030    2    1    2    0    0  0.00000000000E+00  0.00000000000E+00 -0.28908071992E+04  0.34781153517E+04  0.19340424341E+04 0.  0.
        1    1    3    3  502    0  0.89702137021E+03  0.32590313223E+02 -0.79844031949E+03  0.12013394237E+04  0.50400001928E-02 0. -1.
       -1    1    3    3    0  502 -0.89702137021E+03 -0.32590313223E+02 -0.20923668797E+04  0.22767759280E+04  0.50400001928E-02 0.  1.
</event>
<event>
 5   0  0.1118206E-04  0.1906883E+04  0.7818609E-02  0.8651438E-01
        2   -1    0    0  501    0  0.00000000000E+00  0.00000000000E+00  0.14941596596E+04  0.14941596596E+04  0.25500000920E-02 0. -1.
       -2   -1    0    0    0  501  0.00000000000E+00  0.00000000000E+00 -0.60840262546E+03  0.60840262547E+03  0.25500000920E-02 0.  1.
    10030    2    1    2    0    0  0.00000000000E+00  0.00000000000E+00  0.88575703413E+03  0.21025622851E+04  0.19068829642E+04 0.  0.
        1    1    3    3  502    0 -0.47086713598E+03 -0.82607077648E+03  0.36536622348E+03  0.10186271471E+04  0.50400001928E-02 0. -1.
       -1    1    3    3    0  502  0.47086713598E+03  0.82607077648E+03  0.52039081065E+03  0.10839351380E+04  0.50400001928E-02 0.  1.
</event>
<event>
 5   0  0.5614989E-05  0.1892804E+04  0.7818609E-02  0.8658447E-01
        1   -1    0    0  501    0  0.00000000000E+00  0.00000000000E+00  0.20188519873E+04  0.20188519873E+04  0.50400001928E-02 0.  1.
       -1   -1    0    0    0  501  0.00000000000E+00  0.00000000000E+00 -0.44365644525E+03  0.44365644528E+03  0.50400001928E-02 0. -1.
    10030    2    1    2    0    0  0.00000000000E+00  0.00000000000E+00  0.15751955420E+04  0.24625084325E+04  0.18928039478E+04 0.  0.
        4    1    3    3  502    0 -0.14331636209E+03  0.37590747541E+03  0.19020707682E+04  0.19441504133E+04  0.12699999809E+01 0.  1.
       -4    1    3    3    0  502  0.14331636209E+03 -0.37590747541E+03 -0.32687522615E+03  0.51835801921E+03  0.12699999809E+01 0. -1.
</event>
<event>
 5   0  0.1141890E-04  0.1897840E+04  0.7818609E-02  0.8655932E-01
       -2   -1    0    0    0  501  0.00000000000E+00  0.00000000000E+00  0.48813793446E+03  0.48813793447E+03  0.25500000920E-02 0. -1.
        2   -1    0    0  501    0  0.00000000000E+00  0.00000000000E+00 -0.18446616309E+04  0.18446616309E+04  0.25500000920E-02 0.  1.
    10030    2    1    2    0    0  0.00000000000E+00  0.00000000000E+00 -0.13565236964E+04  0.23327995653E+04  0.18978401601E+04 0.  0.
        2    1    3    3  502    0 -0.58450310265E+03  0.74721251221E+03 -0.65136251544E+03  0.11507578120E+04  0.25500000920E-02 0. -1.
       -2    1    3    3    0  502  0.58450310265E+03 -0.74721251221E+03 -0.70516118095E+03  0.11820417533E+04  0.25500000920E-02 0.  1.
</event>
<event>
 5   0  0.1141890E-04  0.1898092E+04  0.7818609E-02  0.8655807E-01
       -2   -1    0    0    0  501  0.00000000000E+00  0.00000000000E+00  0.56346062075E+03  0.56346062075E+03  0.25500000920E-02 0. -1.
        2   -1    0    0  501    0  0.00000000000E+00  0.00000000000E+00 -0.15984938011E+04  0.15984938011E+04  0.25500000920E-02 0.  1.
    10030    2    1    2    0    0  0.00000000000E+00  0.00000000000E+00 -0.10350331803E+04  0.21619544218E+04  0.18980919993E+04 0.  0.
        2    1    3    3  502    0  0.20976567186E+03 -0.21309693890E+03 -0.15434370425E+04  0.15721354416E+04  0.25500000920E-02 0.  1.
       -2    1    3    3    0  502 -0.20976567186E+03  0.21309693890E+03  0.50840386215E+03  0.58981898029E+03  0.25500000920E-02 0. -1.
</event>
<event>
 5   0  0.5614989E-05  0.1899919E+04  0.7818609E-02  0.8654897E-01
       -1   -1    0    0    0  501  0.00000000000E+00  0.00000000000E+00  0.90816855804E+03  0.90816855806E+03  0.50400001928E-02 0.  1.
        1   -1    0    0  501    0  0.00000000000E+00  0.00000000000E+00 -0.99367319288E+03  0.99367319289E+03  0.50400001928E-02 0. -1.
    10030    2    1    2    0    0  0.00000000000E+00  0.00000000000E+00 -0.85504634834E+02  0.19018417509E+04  0.18999186833E+04 0.  0.
        4    1    3    3  502    0  0.10126000558E+02 -0.30677830037E+03  0.85716023970E+03  0.91046183384E+03  0.12699999809E+01 0.  1.
       -4    1    3    3    0  502 -0.10126000558E+02  0.30677830037E+03 -0.94266487453E+03  0.99137991710E+03  0.12699999809E+01 0. -1.
</event>
<event>
 5   0  0.5628936E-05  0.1900587E+04  0.7818609E-02  0.8654564E-01
        1   -1    0    0  501    0  0.00000000000E+00  0.00000000000E+00  0.10163415166E+04  0.10163415166E+04  0.50400001928E-02 0.  1.
       -1   -1    0    0    0  501  0.00000000000E+00  0.00000000000E+00 -0.88853775039E+03  0.88853775040E+03  0.50400001928E-02 0. -1.
    10030    2    1    2    0    0  0.00000000000E+00  0.00000000000E+00  0.12780376622E+03  0.19048792670E+04  0.19005870723E+04 0.  0.
        5    1    3    3  502    0 -0.17315895621E+03  0.79638481500E+03  0.55370064549E+03  0.98530162514E+03  0.46999998093E+01 0.  1.
       -5    1    3    3    0  502  0.17315895621E+03 -0.79638481500E+03 -0.42589687927E+03  0.91957764188E+03  0.46999998093E+01 0. -1.
</event>
<event>
 5   0  0.5824956E-05  0.1866340E+04  0.7818609E-02  0.8671795E-01
       -1   -1    0    0    0  501  0.00000000000E+00  0.00000000000E+00  0.91514222314E+03  0.91514222316E+03  0.50400001928E-02 0.  1.
        1   -1    0    0  501    0  0.00000000000E+00  0.00000000000E+00 -0.95155312101E+03  0.95155312102E+03  0.50400001928E-02 0. -1.
    10030    2    1    2    0    0  0.00000000000E+00  0.00000000000E+00 -0.36410897865E+02  0.18666953442E+04  0.18663402033E+04 0.  0.
        2    1    3    3  502    0  0.76878205452E+03  0.37830786438E+03  0.35154550335E+03  0.92613548066E+03  0.25500000920E-02 0.  1.
       -2    1    3    3    0  502 -0.76878205452E+03 -0.37830786438E+03 -0.38795640122E+03  0.94055986352E+03  0.25500000920E-02 0. -1.
</event>
<event>
 5   0  0.1133638E-04  0.1902284E+04  0.7818609E-02  0.8653720E-01
        2   -1    0    0  501    0  0.00000000000E+00  0.00000000000E+00  0.92692002500E+03  0.92692002501E+03  0.25500000920E-02 0.  1.
       -2   -1    0    0    0  501  0.00000000000E+00  0.00000000000E+00 -0.97599724352E+03  0.97599724352E+03  0.25500000920E-02 0. -1.
    10030    2    1    2    0    0  0.00000000000E+00  0.00000000000E+00 -0.49077218514E+02  0.19029172685E+04  0.19022842999E+04 0.  0.
        3    1    3    3  502    0 -0.74003095239E+03  0.59721621086E+03 -0.43475469697E+02  0.95194702567E+03  0.10100000352E+00 0.  1.
       -3    1    3    3    0  502  0.74003095239E+03 -0.59721621086E+03 -0.56017488172E+01  0.95097024286E+03  0.10100000352E+00 0. -1.
</event>
<event>
 5   0  0.5824956E-05  0.1991597E+04  0.7818609E-02  0.8610559E-01
       -1   -1    0    0    0  501  0.00000000000E+00  0.00000000000E+00  0.65498463797E+03  0.65498463799E+03  0.50400001928E-02 0. -1.
        1   -1    0    0  501    0  0.00000000000E+00  0.00000000000E+00 -0.15139508192E+04  0.15139508192E+04  0.50400001928E-02 0.  1.
    10030    2    1    2    0    0  0.00000000000E+00  0.00000000000E+00 -0.85896618119E+03  0.21689354572E+04  0.19915968761E+04 0.  0.
        2    1    3    3  502    0  0.70800169759E+03 -0.53025792443E+03 -0.92756380584E+03  0.12817232479E+04  0.25500000920E-02 0.  1.
       -2    1    3    3    0  502 -0.70800169759E+03  0.53025792443E+03  0.68597624654E+02  0.88721220930E+03  0.25500000920E-02 0. -1.
</event>
<event>
 5   0  0.5841424E-05  0.1886804E+04  0.7818609E-02  0.8661453E-01
       -1   -1    0    0    0  501  0.00000000000E+00  0.00000000000E+00  0.81556125605E+03  0.81556125606E+03  0.50400001928E-02 0.  1.
        1   -1    0    0  501    0  0.00000000000E+00  0.00000000000E+00 -0.10912819220E+04  0.10912819220E+04  0.50400001928E-02 0. -1.
    10030    2    1    2    0    0  0.00000000000E+00  0.00000000000E+00 -0.27572066594E+03  0.19068431781E+04  0.18868039167E+04 0.  0.
        1    1    3    3  502    0  0.85404899517E+03 -0.26950122052E+03  0.16189846999E+03  0.91007785855E+03  0.50400001928E-02 0.  1.
       -1    1    3    3    0  502 -0.85404899517E+03  0.26950122052E+03 -0.43761913594E+03  0.99676531951E+03  0.50400001928E-02 0. -1.
</event>
<event>
 5   0  0.1118206E-04  0.1900925E+04  0.7818609E-02  0.8654396E-01
        2   -1    0    0  501    0  0.00000000000E+00  0.00000000000E+00  0.15558012571E+04  0.15558012571E+04  0.25500000920E-02 0.  1.
       -2   -1    0    0    0  501  0.00000000000E+00  0.00000000000E+00 -0.58065216740E+03  0.58065216740E+03  0.25500000920E-02 0. -1.
    10030    2    1    2    0    0  0.00000000000E+00  0.00000000000E+00  0.97514908969E+03  0.21364534245E+04  0.19009254293E+04 0.  0.
        1    1    3    3  502    0  0.59818668861E+03  0.31244833155E+03 -0.26462402247E+03  0.72489802566E+03  0.50400001928E-02 0. -1.
       -1    1    3    3    0  502 -0.59818668861E+03 -0.31244833155E+03  0.12397731122E+04  0.14115553988E+04  0.50400001928E-02 0.  1.
</event>
<event>
 5   0  0.4061125E-05  0.1868372E+04  0.7818609E-02  0.8670762E-01
        3   -1    0    0  501    0  0.00000000000E+00  0.00000000000E+00  0.12009245714E+04  0.12009245756E+04  0.10100000352E+00 0.  1.
       -3   -1    0    0    0  501  0.00000000000E+00  0.00000000000E+00 -0.72669334995E+03  0.72669335697E+03  0.10100000352E+00 0. -1.
    10030    2    1    2    0    0  0.00000000000E+00  0.00000000000E+00  0.47423122142E+03  0.19276179326E+04  0.18683724582E+04 0.  0.
        1    1    3    3  502    0  0.12517317416E+03 -0.20756281911E+03  0.11679174558E+04  0.11928041880E+04  0.50400001928E-02 0.  1.
       -1    1    3    3    0  502 -0.12517317416E+03  0.20756281911E+03 -0.69368623438E+03  0.73481374456E+03  0.50400001928E-02 0. -1.
</event>
<event>
 5   0  0.5628936E-05  0.1891882E+04  0.7818609E-02  0.8658908E-01
       -1   -1    0    0    0  501  0.00000000000E+00  0.00000000000E+00  0.48304485938E+03  0.48304485941E+03  0.50400001928E-02 0.  1.
        1   -1    0    0  501    0  0.00000000000E+00  0.00000000000E+00 -0.18524251158E+04  0.18524251158E+04  0.50400001928E-02 0. -1.
    10030    2    1    2    0    0  0.00000000000E+00  0.00000000000E+00 -0.13693802564E+04  0.23354699752E+04  0.18918820572E+04 0.  0.
        5    1    3    3  502    0 -0.70441118677E+03 -0.47888340338E+03 -0.17681761216E+03  0.86994884450E+03  0.46999998093E+01 0.  1.
       -5    1    3    3    0  502  0.70441118677E+03  0.47888340338E+03 -0.11925626443E+04  0.14655211307E+04  0.46999998093E+01 0. -1.
</event>
<event>
 5   0  0.1141890E-04  0.1911858E+04  0.7818609E-02  0.8648976E-01
        2   -1    0    0  501    0  0.00000000000E+00  0.00000000000E+00  0.52352130769E+03  0.52352130770E+03  0.25500000920E-02 0. -1.
       -2   -1    0    0    0  501  0.00000000000E+00  0.00000000000E+00 -0.17454881140E+04  0.17454881141E+04  0.25500000920E-02 0.  1.
    10030    2    1    2    0    0  0.00000000000E+00  0.00000000000E+00 -0.12219668064E+04  0.22690094217E+04  0.19118579655E+04 0.  0.
        2    1    3    3  502    0 -0.91464584019E+03 -0.74391448712E+02 -0.29321749819E+03  0.96337303361E+03  0.25500000920E-02 0.  1.
       -2    1    3    3    0  502  0.91464584019E+03  0.74391448712E+02 -0.92874930816E+03  0.13056363881E+04  0.25500000920E-02 0. -1.
</event>
<event>
 5   0  0.1141890E-04  0.1869578E+04  0.7818609E-02  0.8670149E-01
        2   -1    0    0  501    0  0.00000000000E+00  0.00000000000E+00  0.10819634157E+04  0.10819634157E+04  0.25500000920E-02 0.  1.
       -2   -1    0    0    0  501  0.00000000000E+00  0.00000000000E+00 -0.80763380393E+03  0.80763380393E+03  0.25500000920E-02 0. -1.
    10030    2    1    2    0    0  0.00000000000E+00  0.00000000000E+00  0.27432961177E+03  0.18895972196E+04  0.18695777375E+04 0.  0.
        2    1    3    3  502    0  0.89764469599E+03  0.25186120076E+02 -0.12528843092E+03  0.90669594232E+03  0.25500000920E-02 0. -1.
       -2    1    3    3    0  502 -0.89764469599E+03 -0.25186120076E+02  0.39961804269E+03  0.98290127731E+03  0.25500000920E-02 0.  1.
</event>
<event>
 5   0  0.5579109E-05  0.1908834E+04  0.7818609E-02  0.8650472E-01
        1   -1    0    0  501    0  0.00000000000E+00  0.00000000000E+00  0.11819957805E+04  0.11819957805E+04  0.50400001928E-02 0. -1.
       -1   -1    0    0    0  501  0.00000000000E+00  0.00000000000E+00 -0.77065559851E+03  0.77065559853E+03  0.50400001928E-02 0.  1.
    10030    2    1    2    0    0  0.00000000000E+00  0.00000000000E+00  0.41134018200E+03  0.19526513791E+04  0.19088338489E+04 0.  0.
        3    1    3    3  502    0 -0.56828117978E+03 -0.39804200498E+03  0.87610049153E+03  0.11175567182E+04  0.10100000352E+00 0. -1.
       -3    1    3    3    0  502  0.56828117978E+03  0.39804200498E+03 -0.46476030952E+03  0.83509466082E+03  0.10100000352E+00 0.  1.
</event>
<event>
 5   0  0.1182630E-04  0.1881325E+04  0.7818609E-02  0.8664208E-01
        2   -1    0    0  501    0  0.00000000000E+00  0.00000000000E+00  0.19435234242E+04  0.19435234242E+04  0.25500000920E-02 0.  1.
       -2   -1    0    0    0  501  0.00000000000E+00  0.00000000000E+00 -0.45527936623E+03  0.45527936624E+03  0.25500000920E-02 0. -1.
    10030    2    1    2    0    0  0.00000000000E+00  0.00000000000E+00  0.14882440580E+04  0.23988027904E+04  0.18813251849E+04 0.  0.
        5    1    3    3  502    0 -0.33442430414E+03 -0.29418860373E+03 -0.31228472217E+03  0.54399484139E+03  0.46999998093E+01 0. -1.
       -5    1    3    3    0  502  0.33442430414E+03  0.29418860373E+03  0.18005287801E+04  0.18548079491E+04  0.46999998093E+01 0.  1.
</event>
<event>
 5   0  0.5614989E-05  0.1884397E+04  0.7818609E-02  0.8662662E-01
        1   -1    0    0  501    0  0.00000000000E+00  0.00000000000E+00  0.44957198598E+03  0.44957198601E+03  0.50400001928E-02 0. -1.
       -1   -1    0    0    0  501  0.00000000000E+00  0.00000000000E+00 -0.19746299340E+04  0.19746299340E+04  0.50400001928E-02 0.  1.
    10030    2    1    2    0    0  0.00000000000E+00  0.00000000000E+00 -0.15250579480E+04  0.24242019200E+04  0.18843973053E+04 0.  0.
        4    1    3    3  502    0 -0.44639921218E+02  0.56185128159E+03  0.20878426054E+03  0.60105080113E+03  0.12699999809E+01 0. -1.
       -4    1    3    3    0  502  0.44639921218E+02 -0.56185128159E+03 -0.17338422086E+04  0.18231511189E+04  0.12699999809E+01 0.  1.
</event>
<event>
 5   0  0.1141890E-04  0.1896092E+04  0.7818609E-02  0.8656804E-01
        2   -1    0    0  501    0  0.00000000000E+00  0.00000000000E+00  0.16688944663E+04  0.16688944663E+04  0.25500000920E-02 0. -1.
       -2   -1    0    0    0  501  0.00000000000E+00  0.00000000000E+00 -0.53855482022E+03  0.53855482023E+03  0.25500000920E-02 0.  1.
    10030    2    1    2    0    0  0.00000000000E+00  0.00000000000E+00  0.11303396461E+04  0.22074492866E+04  0.18960919380E+04 0.  0.
        2    1    3    3  502    0 -0.53185784413E+03 -0.28830061648E+03 -0.28462468309E+03  0.66858149993E+03  0.25500000920E-02 0.  1.
       -2    1    3    3    0  502  0.53185784413E+03  0.28830061648E+03  0.14149643292E+04  0.15388677866E+04  0.25500000920E-02 0. -1.
</event>
<event>
 5   0  0.5628936E-05  0.1894108E+04  0.7818609E-02  0.8657795E-01
       -1   -1    0    0    0  501  0.00000000000E+00  0.00000000000E+00  0.85419253013E+03  0.85419253014E+03  0.50400001928E-02 0. -1.
        1   -1    0    0  501    0  0.00000000000E+00  0.00000000000E+00 -0.10500105725E+04  0.10500105725E+04  0.50400001928E-02 0.  1.
    10030    2    1    2    0    0  0.00000000000E+00  0.00000000000E+00 -0.19581804233E+03  0.19042031026E+04  0.18941079036E+04 0.  0.
        5    1    3    3  502    0 -0.30594752560E+03 -0.44208585038E+03  0.68589066862E+03  0.87149979164E+03  0.46999998093E+01 0. -1.
       -5    1    3    3    0  502  0.30594752560E+03  0.44208585038E+03 -0.88170871096E+03  0.10327033110E+04  0.46999998093E+01 0.  1.
</event>
<event>
 5   0  0.4061125E-05  0.1835914E+04  0.7818609E-02  0.8687431E-01
       -3   -1    0    0    0  501  0.00000000000E+00  0.00000000000E+00  0.64568434781E+03  0.64568435571E+03  0.10100000352E+00 0. -1.
        3   -1    0    0  501    0  0.00000000000E+00  0.00000000000E+00 -0.13050413843E+04  0.13050413882E+04  0.10100000352E+00 0.  1.
    10030    2    1    2    0    0  0.00000000000E+00  0.00000000000E+00 -0.65935703652E+03  0.19507257439E+04  0.18359137307E+04 0.  0.
        1    1    3    3  502    0 -0.94976493974E+01 -0.36563214009E+03 -0.12242736934E+04  0.12777414228E+04  0.50400001928E-02 0.  1.
       -1    1    3    3    0  502  0.94976493974E+01  0.36563214009E+03  0.56491665689E+03  0.67298432112E+03  0.50400001928E-02 0. -1.
</event>
<event>
 5   0  0.5824956E-05  0.1919847E+04  0.7818609E-02  0.8645040E-01
        1   -1    0    0  501    0  0.00000000000E+00  0.00000000000E+00  0.12535206428E+04  0.12535206428E+04  0.50400001928E-02 0. -1.
       -1   -1    0    0    0  501  0.00000000000E+00  0.00000000000E+00 -0.73509239762E+03  0.73509239764E+03  0.50400001928E-02 0.  1.
    10030    2    1    2    0    0  0.00000000000E+00  0.00000000000E+00  0.51842824519E+03  0.19886130405E+04  0.19198473844E+04 0.  0.
        2    1    3    3  502    0  0.81121954963E+03  0.31414023774E+03  0.67957293417E+03  0.11038933914E+04  0.25500000920E-02 0. -1.
       -2    1    3    3    0  502 -0.81121954963E+03 -0.31414023774E+03 -0.16114468899E+03  0.88471964908E+03  0.25500000920E-02 0.  1.
</event>
<event>
 5   0  0.5628936E-05  0.1900289E+04  0.7818609E-02  0.8654713E-01
       -1   -1    0    0    0  501  0.00000000000E+00  0.00000000000E+00  0.28339742119E+03  0.28339742124E+03  0.50400001928E-02 0.  1.
        1   -1    0    0  501    0  0.00000000000E+00  0.00000000000E+00 -0.31855410061E+04  0.31855410061E+04  0.50400001928E-02 0. -1.
    10030    2    1    2    0    0  0.00000000000E+00  0.00000000000E+00 -0.29021435849E+04  0.34689384274E+04  0.19002885111E+04 0.  0.
        5    1    3    3  502    0 -0.83628551783E+03 -0.41674691214E+03 -0.17656722639E+04  0.19976666613E+04  0.46999998093E+01 0. -1.
       -5    1    3    3    0  502  0.83628551783E+03  0.41674691214E+03 -0.11364713210E+04  0.14712717661E+04  0.46999998093E+01 0.  1.
</event>
<event>
 5   0  0.1141890E-04  0.1901888E+04  0.7818609E-02  0.8653917E-01
        2   -1    0    0  501    0  0.00000000000E+00  0.00000000000E+00  0.20786437716E+04  0.20786437716E+04  0.25500000920E-02 0. -1.
       -2   -1    0    0    0  501  0.00000000000E+00  0.00000000000E+00 -0.43504048457E+03  0.43504048458E+03  0.25500000920E-02 0.  1.
    10030    2    1    2    0    0  0.00000000000E+00  0.00000000000E+00  0.16436032871E+04  0.25136842562E+04  0.19018876872E+04 0.  0.
        2    1    3    3  502    0  0.15585235086E+03 -0.20509939791E+03 -0.38804945837E+03  0.46576614351E+03  0.25500000920E-02 0.  1.
       -2    1    3    3    0  502 -0.15585235086E+03  0.20509939791E+03  0.20316527454E+04  0.20479181127E+04  0.25500000920E-02 0. -1.
</event>
<event>
 5   0  0.1141890E-04  0.1884085E+04  0.7818609E-02  0.8662819E-01
       -2   -1    0    0    0  501  0.00000000000E+00  0.00000000000E+00  0.49163751502E+03  0.49163751503E+03  0.25500000920E-02 0. -1.
        2   -1    0    0  501    0  0.00000000000E+00  0.00000000000E+00 -0.18050788414E+04  0.18050788414E+04  0.25500000920E-02 0.  1.
    10030    2    1    2    0    0  0.00000000000E+00  0.00000000000E+00 -0.13134413264E+04  0.22967163564E+04  0.18840854291E+04 0.  0.
        2    1    3    3  502    0  0.42129624602E+03  0.80360225375E+03 -0.34790613782E+03  0.97175397601E+03  0.25500000920E-02 0. -1.
       -2    1    3    3    0  502 -0.42129624602E+03 -0.80360225375E+03 -0.96553518853E+03  0.13249623804E+04  0.25500000920E-02 0.  1.
</event>
<event>
 5   0  0.5614989E-05  0.1892949E+04  0.7818609E-02  0.8658374E-01
        1   -1    0    0  501    0  0.00000000000E+00  0.00000000000E+00  0.13082614413E+04  0.13082614413E+04  0.50400001928E-02 0. -1.
       -1   -1    0    0    0  501  0.00000000000E+00  0.00000000000E+00 -0.68473654479E+03  0.68473654481E+03  0.50400001928E-02 0.  1.
    10030    2    1    2    0    0  0.00000000000E+00  0.00000000000E+00  0.62352489654E+03  0.19929979862E+04  0.18929494648E+04 0.  0.
        4    1    3    3  502    0  0.12381478107E+03  0.15712340873E+03  0.12857484097E+04  0.13012180646E+04  0.12699999809E+01 0. -1.
       -4    1    3    3    0  502 -0.12381478107E+03 -0.15712340873E+03 -0.66222351318E+03  0.69177992157E+03  0.12699999809E+01 0.  1.
</event>
<event>
 5   0  0.1101678E-04  0.1891290E+04  0.7818609E-02  0.8659204E-01
        2   -1    0    0  501    0  0.00000000000E+00  0.00000000000E+00  0.10074010775E+04  0.10074010775E+04  0.25500000920E-02 0. -1.
       -2   -1    0    0    0  501  0.00000000000E+00  0.00000000000E+00 -0.88767428832E+03  0.88767428833E+03  0.25500000920E-02 0.  1.
    10030    2    1    2    0    0  0.00000000000E+00  0.00000000000E+00  0.11972678914E+03  0.18950753658E+04  0.18912895437E+04 0.  0.
        4    1    3    3  502    0  0.72470362695E+02 -0.20809680702E+03  0.98131617175E+03  0.10057530892E+04  0.12699999809E+01 0. -1.
       -4    1    3    3    0  502 -0.72470362695E+02  0.20809680702E+03 -0.86158938261E+03  0.88932227662E+03  0.12699999809E+01 0.  1.
</event>
<event>
 5   0  0.4061125E-05  0.1912853E+04  0.7818609E-02  0.8648485E-01
        3   -1    0    0  501    0  0.00000000000E+00  0.00000000000E+00  0.77645489010E+03  0.77645489667E+03  0.10100000352E+00 0.  1.
       -3   -1    0    0    0  501  0.00000000000E+00  0.00000000000E+00 -0.11781126894E+04  0.11781126937E+04  0.10100000352E+00 0. -1.
    10030    2    1    2    0    0  0.00000000000E+00  0.00000000000E+00 -0.40165779926E+03  0.19545675904E+04  0.19128527067E+04 0.  0.
        1    1    3    3  502    0 -0.78580458583E+03  0.44827389323E+03  0.11628239193E+03  0.91211837234E+03  0.50400001928E-02 0. -1.
       -1    1    3    3    0  502  0.78580458583E+03 -0.44827389323E+03 -0.51794019119E+03  0.10424492180E+04  0.50400001928E-02 0.  1.
</event>
<event>
 5   0  0.5628936E-05  0.1868278E+04  0.7818609E-02  0.8670810E-01
       -1   -1    0    0    0  501  0.00000000000E+00  0.00000000000E+00  0.76940849592E+03  0.76940849594E+03  0.50400001928E-02 0. -1.
        1   -1    0    0  501    0  0.00000000000E+00  0.00000000000E+00 -0.11341383730E+04  0.11341383730E+04  0.50400001928E-02 0.  1.
    10030    2    1    2    0    0  0.00000000000E+00  0.00000000000E+00 -0.36472987708E+03  0.19035468690E+04  0.18682780305E+04 0.  0.
        5    1    3    3  502    0  0.84970851674E+03  0.34573663152E+03 -0.28132769396E+01  0.91737036485E+03  0.46999998093E+01 0.  1.
       -5    1    3    3    0  502 -0.84970851674E+03 -0.34573663152E+03 -0.36191660015E+03  0.98617650410E+03  0.46999998093E+01 0. -1.
</event>
<event>
 5   0  0.1141890E-04  0.1890187E+04  0.7818609E-02  0.8659757E-01
       -2   -1    0    0    0  501  0.00000000000E+00  0.00000000000E+00  0.96708722735E+03  0.96708722735E+03  0.25500000920E-02 0. -1.
        2   -1    0    0  501    0  0.00000000000E+00  0.00000000000E+00 -0.92359951559E+03  0.92359951560E+03  0.25500000920E-02 0.  1.
    10030    2    1    2    0    0  0.00000000000E+00  0.00000000000E+00  0.43487711759E+02  0.18906867429E+04  0.18901865461E+04 0.  0.
        2    1    3    3  502    0  0.44782398960E+03 -0.80281302354E+03 -0.19773667484E+03  0.94029509677E+03  0.25500000920E-02 0.  1.
       -2    1    3    3    0  502 -0.44782398960E+03  0.80281302354E+03  0.24122438660E+03  0.95039164618E+03  0.25500000920E-02 0. -1.
</event>
<event>
 5   0  0.5841424E-05  0.2030011E+04  0.7818609E-02  0.8592717E-01
        1   -1    0    0  501    0  0.00000000000E+00  0.00000000000E+00  0.13479654617E+04  0.13479654617E+04  0.50400001928E-02 0.  1.
       -1   -1    0    0    0  501  0.00000000000E+00  0.00000000000E+00 -0.76428951890E+03  0.76428951892E+03  0.50400001928E-02 0. -1.
    10030    2    1    2    0    0  0.00000000000E+00  0.00000000000E+00  0.58367594278E+03  0.21122549806E+04  0.20300107135E+04 0.  0.
        1    1    3    3  502    0  0.22932698514E+03  0.40477598278E+03 -0.64681969679E+03  0.79674976155E+03  0.50400001928E-02 0. -1.
       -1    1    3    3    0  502 -0.22932698514E+03 -0.40477598278E+03  0.12304956396E+04  0.13155052191E+04  0.50400001928E-02 0.  1.
</event>
<event>
 5   0  0.1141890E-04  0.1885750E+04  0.7818609E-02  0.8661982E-01
        2   -1    0    0  501    0  0.00000000000E+00  0.00000000000E+00  0.23766491895E+04  0.23766491895E+04  0.25500000920E-02 0. -1.
       -2   -1    0    0    0  501  0.00000000000E+00  0.00000000000E+00 -0.37406158823E+03  0.37406158824E+03  0.25500000920E-02 0.  1.
    10030    2    1    2    0    0  0.00000000000E+00  0.00000000000E+00  0.20025876013E+04  0.27507107777E+04  0.18857498991E+04 0.  0.
        2    1    3    3  502    0  0.37937253447E+03 -0.36907073935E+03  0.21395117257E+04  0.22040070678E+04  0.25500000920E-02 0. -1.
       -2    1    3    3    0  502 -0.37937253447E+03  0.36907073935E+03 -0.13692412446E+03  0.54670370990E+03  0.25500000920E-02 0.  1.
</event>
<event>
 5   0  0.1141890E-04  0.1882874E+04  0.7818609E-02  0.8663428E-01
        2   -1    0    0  501    0  0.00000000000E+00  0.00000000000E+00  0.26237231260E+04  0.26237231260E+04  0.25500000920E-02 0. -1.
       -2   -1    0    0    0  501  0.00000000000E+00  0.00000000000E+00 -0.33780385812E+03  0.33780385813E+03  0.25500000920E-02 0.  1.
    10030    2    1    2    0    0  0.00000000000E+00  0.00000000000E+00  0.22859192679E+04  0.29615269842E+04  0.18828741802E+04 0.  0.
        2    1    3    3  502    0 -0.62376413291E+03 -0.30023092393E+03  0.21465029910E+04  0.22553703447E+04  0.25500000920E-02 0.  1.
       -2    1    3    3    0  502  0.62376413291E+03  0.30023092393E+03  0.13941627686E+03  0.70615663945E+03  0.25500000920E-02 0. -1.
</event>
<event>
 5   0  0.5579109E-05  0.1880394E+04  0.7818609E-02  0.8664678E-01
       -1   -1    0    0    0  501  0.00000000000E+00  0.00000000000E+00  0.39790316341E+03  0.39790316344E+03  0.50400001928E-02 0.  1.
        1   -1    0    0  501    0  0.00000000000E+00  0.00000000000E+00 -0.22215705854E+04  0.22215705854E+04  0.50400001928E-02 0. -1.
    10030    2    1    2    0    0  0.00000000000E+00  0.00000000000E+00 -0.18236674220E+04  0.26194737488E+04  0.18803935372E+04 0.  0.
        3    1    3    3  502    0  0.71245293934E+03 -0.19361860606E+03 -0.10087948314E+03  0.74515369938E+03  0.10100000352E+00 0.  1.
       -3    1    3    3    0  502 -0.71245293934E+03  0.19361860606E+03 -0.17227879388E+04  0.18743200495E+04  0.10100000352E+00 0. -1.
</event>
<event>
 5   0  0.5841424E-05  0.1879145E+04  0.7818609E-02  0.8665308E-01
        1   -1    0    0  501    0  0.00000000000E+00  0.00000000000E+00  0.15451787626E+04  0.15451787626E+04  0.50400001928E-02 0.  1.
       -1   -1    0    0    0  501  0.00000000000E+00  0.00000000000E+00 -0.57132300254E+03  0.57132300256E+03  0.50400001928E-02 0. -1.
    10030    2    1    2    0    0  0.00000000000E+00  0.00000000000E+00  0.97385576008E+03  0.21165017652E+04  0.18791446673E+04 0.  0.
        1    1    3    3  502    0 -0.49773125491E+03  0.16762349233E+03  0.13644119031E+04  0.14620033785E+04  0.50400001928E-02 0.  1.
       -1    1    3    3    0  502  0.49773125491E+03 -0.16762349233E+03 -0.39055614305E+03  0.65449838670E+03  0.50400001928E-02 0. -1.
</event>
<event>
 5   0  0.5579109E-05  0.1907162E+04  0.7818609E-02  0.8651299E-01
        1   -1    0    0  501    0  0.00000000000E+00  0.00000000000E+00  0.12369392672E+04  0.12369392672E+04  0.50400001928E-02 0. -1.
       -1   -1    0    0    0  501  0.00000000000E+00  0.00000000000E+00 -0.73513468325E+03  0.73513468327E+03  0.50400001928E-02 0.  1.
    10030    2    1    2    0    0  0.00000000000E+00  0.00000000000E+00  0.50180458394E+03  0.19720739505E+04  0.19071622442E+04 0.  0.
        3    1    3    3  502    0  0.80998049229E+03 -0.38792669953E+03 -0.80572581197E+02  0.90169145118E+03  0.10100000352E+00 0. -1.
       -3    1    3    3    0  502 -0.80998049229E+03  0.38792669953E+03  0.58237716514E+03  0.10703824993E+04  0.10100000352E+00 0.  1.
</event>
<event>
 5   0  0.4061125E-05  0.1893780E+04  0.7818609E-02  0.8657959E-01
       -3   -1    0    0    0  501  0.00000000000E+00  0.00000000000E+00  0.61428662867E+03  0.61428663698E+03  0.10100000352E+00 0. -1.
        3   -1    0    0  501    0  0.00000000000E+00  0.00000000000E+00 -0.14595801336E+04  0.14595801371E+04  0.10100000352E+00 0.  1.
    10030    2    1    2    0    0  0.00000000000E+00  0.00000000000E+00 -0.84529350491E+03  0.20738667741E+04  0.18937798940E+04 0.  0.
        5    1    3    3  502    0 -0.35718041051E+03  0.39426764394E+03 -0.12804301343E+04  0.13865598579E+04  0.46999998093E+01 0.  1.
       -5    1    3    3    0  502  0.35718041051E+03 -0.39426764394E+03  0.43513662941E+03  0.68730691613E+03  0.46999998093E+01 0. -1.
</event>
<event>
 5   0  0.5614989E-05  0.1897270E+04  0.7818609E-02  0.8656217E-01
       -1   -1    0    0    0  501  0.00000000000E+00  0.00000000000E+00  0.13218124764E+04  0.13218124765E+04  0.50400001928E-02 0.  1.
        1   -1    0    0  501    0  0.00000000000E+00  0.00000000000E+00 -0.68081379615E+03  0.68081379616E+03  0.50400001928E-02 0. -1.
    10030    2    1    2    0    0  0.00000000000E+00  0.00000000000E+00  0.64099868030E+03  0.20026262726E+04  0.18972697962E+04 0.  0.
        4    1    3    3  502    0 -0.24552851813E+03 -0.60476700017E+03  0.10471147939E+04  0.12338875079E+04  0.12699999809E+01 0.  1.
       -4    1    3    3    0  502  0.24552851813E+03  0.60476700017E+03 -0.40611611360E+03  0.76873876469E+03  0.12699999809E+01 0. -1.
</event>
<event>
 5   0  0.5614989E-05  0.1894483E+04  0.7818609E-02  0.8657608E-01
        1   -1    0    0  501    0  0.00000000000E+00  0.00000000000E+00  0.99636521694E+03  0.99636521696E+03  0.50400001928E-02 0.  1.
       -1   -1    0    0    0  501  0.00000000000E+00  0.00000000000E+00 -0.90053927510E+03  0.90053927511E+03  0.50400001928E-02 0. -1.
    10030    2    1    2    0    0  0.00000000000E+00  0.00000000000E+00  0.95825941847E+02  0.18969044921E+04  0.18944825259E+04 0.  0.
        4    1    3    3  502    0  0.54953276500E+03 -0.36575053398E+03  0.72812282307E+03  0.98281441345E+03  0.12699999809E+01 0.  1.
       -4    1    3    3    0  502 -0.54953276500E+03  0.36575053398E+03 -0.63229688123E+03  0.91409007861E+03  0.12699999809E+01 0. -1.
</event>
<event>
 5   0  0.1118206E-04  0.1986733E+04  0.7818609E-02  0.8612849E-01
       -2   -1    0    0    0  501  0.00000000000E+00  0.00000000000E+00  0.59227009839E+03  0.59227009840E+03  0.25500000920E-02 0. -1.
        2   -1    0    0  501    0  0.00000000000E+00  0.00000000000E+00 -0.16660922727E+04  0.16660922727E+04  0.25500000920E-02 0.  1.
    10030    2    1    2    0    0  0.00000000000E+00  0.00000000000E+00 -0.10738221743E+04  0.22583623711E+04  0.19867326285E+04 0.  0.
        1    1    3    3  502    0  0.57206984850E+03  0.75515755438E+03 -0.87650336651E+03  0.12906529336E+04  0.50400001928E-02 0.  1.
       -1    1    3    3    0  502 -0.57206984850E+03 -0.75515755438E+03 -0.19731880782E+03  0.96770943751E+03  0.50400001928E-02 0. -1.
</event>
<event>
 5   0  0.1133638E-04  0.1881796E+04  0.7818609E-02  0.8663971E-01
        2   -1    0    0  501    0  0.00000000000E+00  0.00000000000E+00  0.10298521276E+04  0.10298521276E+04  0.25500000920E-02 0. -1.
       -2   -1    0    0    0  501  0.00000000000E+00  0.00000000000E+00 -0.85962744895E+03  0.85962744896E+03  0.25500000920E-02 0.  1.
    10030    2    1    2    0    0  0.00000000000E+00  0.00000000000E+00  0.17022467863E+03  0.18894795765E+04  0.18817961178E+04 0.  0.
        3    1    3    3  502    0 -0.91739225744E+03  0.11927374797E+03  0.25743582620E+03  0.96026454469E+03  0.10100000352E+00 0. -1.
       -3    1    3    3    0  502  0.91739225744E+03 -0.11927374797E+03 -0.87211147567E+02  0.92921503186E+03  0.10100000352E+00 0.  1.
</event>
<event>
 5   0  0.4061125E-05  0.1895870E+04  0.7818609E-02  0.8656915E-01
        3   -1    0    0  501    0  0.00000000000E+00  0.00000000000E+00  0.11516135899E+04  0.11516135943E+04  0.10100000352E+00 0.  1.
       -3   -1    0    0    0  501  0.00000000000E+00  0.00000000000E+00 -0.78027990497E+03  0.78027991150E+03  0.10100000352E+00 0. -1.
    10030    2    1    2    0    0  0.00000000000E+00  0.00000000000E+00  0.37133368489E+03  0.19318935058E+04  0.18958701992E+04 0.  0.
        3    1    3    3  502    0 -0.36603832381E+03 -0.87343280553E+03  0.22782963084E+03  0.97405095923E+03  0.10100000352E+00 0. -1.
       -3    1    3    3    0  502  0.36603832381E+03  0.87343280553E+03  0.14350405405E+03  0.95784254656E+03  0.10100000352E+00 0.  1.
</event>
<event>
 5   0  0.1141890E-04  0.1898731E+04  0.7818609E-02  0.8655488E-01
        2   -1    0    0  501    0  0.00000000000E+00  0.00000000000E+00  0.29220444257E+04  0.29220444257E+04  0.25500000920E-02 0. -1.
       -2   -1    0    0    0  501  0.00000000000E+00  0.00000000000E+00 -0.30844656528E+03  0.30844656529E+03  0.25500000920E-02 0.  1.
    10030    2    1    2    0    0  0.00000000000E+00  0.00000000000E+00  0.26135978604E+04  0.32304909910E+04  0.18987306989E+04 0.  0.
        2    1    3    3  502    0 -0.14248798752E+03  0.79677365420E+02 -0.28438593168E+03  0.32791259093E+03  0.25500000920E-02 0.  1.
       -2    1    3    3    0  502  0.14248798752E+03 -0.79677365420E+02  0.28979837921E+04  0.29025784001E+04  0.25500000920E-02 0. -1.
</event>
<event>
 5   0  0.1101678E-04  0.1888418E+04  0.7818609E-02  0.8660643E-01
       -2   -1    0    0    0  501  0.00000000000E+00  0.00000000000E+00  0.53171453385E+03  0.53171453385E+03  0.25500000920E-02 0. -1.
        2   -1    0    0  501    0  0.00000000000E+00  0.00000000000E+00 -0.16767089992E+04  0.16767089992E+04  0.25500000920E-02 0.  1.
    10030    2    1    2    0    0  0.00000000000E+00  0.00000000000E+00 -0.11449944654E+04  0.22084235331E+04  0.18884179028E+04 0.  0.
        4    1    3    3  502    0  0.85611385551E+02 -0.23311707722E+03  0.49283640400E+03  0.55187155665E+03  0.12699999809E+01 0. -1.
       -4    1    3    3    0  502 -0.85611385551E+02  0.23311707722E+03 -0.16378308694E+04  0.16565519764E+04  0.12699999809E+01 0.  1.
</event>
<event>
 5   0  0.5614989E-05  0.1989627E+04  0.7818609E-02  0.8611486E-01
       -1   -1    0    0    0  501  0.00000000000E+00  0.00000000000E+00  0.88093671029E+03  0.88093671030E+03  0.50400001928E-02 0. -1.
        1   -1    0    0  501    0  0.00000000000E+00  0.00000000000E+00 -0.11234113984E+04  0.11234113984E+04  0.50400001928E-02 0.  1.
    10030    2    1    2    0    0  0.00000000000E+00  0.00000000000E+00 -0.24247468813E+03  0.20043481087E+04  0.19896274442E+04 0.  0.
        4    1    3    3  502    0  0.70700439086E+03 -0.65830262382E+03  0.11808118665E+03  0.97322265324E+03  0.12699999809E+01 0.  1.
       -4    1    3    3    0  502 -0.70700439086E+03  0.65830262382E+03 -0.36055587478E+03  0.10311254555E+04  0.12699999809E+01 0. -1.
</event>
<event>
 5   0  0.1182630E-04  0.1903262E+04  0.7818609E-02  0.8653235E-01
        2   -1    0    0  501    0  0.00000000000E+00  0.00000000000E+00  0.63027660099E+03  0.63027660099E+03  0.25500000920E-02 0. -1.
       -2   -1    0    0    0  501  0.00000000000E+00  0.00000000000E+00 -0.14368314146E+04  0.14368314147E+04  0.25500000920E-02 0.  1.
    10030    2    1    2    0    0  0.00000000000E+00  0.00000000000E+00 -0.80655481366E+03  0.20671080156E+04  0.19032616428E+04 0.  0.
        5    1    3    3  502    0 -0.88721009444E+03  0.14337749194E+03 -0.63486100875E+02  0.90097249230E+03  0.46999998093E+01 0. -1.
       -5    1    3    3    0  502  0.88721009444E+03 -0.14337749194E+03 -0.74306871279E+03  0.11661355233E+04  0.46999998093E+01 0.  1.
</event>
<event>
 5   0  0.1118206E-04  0.1911831E+04  0.7818609E-02  0.8648990E-01
       -2   -1    0    0    0  501  0.00000000000E+00  0.00000000000E+00  0.44369526930E+03  0.44369526931E+03  0.25500000920E-02 0.  1.
        2   -1    0    0  501    0  0.00000000000E+00  0.00000000000E+00 -0.20594633014E+04  0.20594633014E+04  0.25500000920E-02 0. -1.
    10030    2    1    2    0    0  0.00000000000E+00  0.00000000000E+00 -0.16157680321E+04  0.25031585707E+04  0.19118306663E+04 0.  0.
        1    1    3    3  502    0  0.17271275015E+03 -0.67931847028E+03  0.43131171874E+02  0.70225606166E+03  0.50400001928E-02 0.  1.
       -1    1    3    3    0  502 -0.17271275015E+03  0.67931847028E+03 -0.16588992039E+04  0.18009025090E+04  0.50400001928E-02 0. -1.
</event>
<event>
 5   0  0.5614989E-05  0.1926077E+04  0.7818609E-02  0.8641984E-01
       -1   -1    0    0    0  501  0.00000000000E+00  0.00000000000E+00  0.56119522947E+03  0.56119522949E+03  0.50400001928E-02 0. -1.
        1   -1    0    0  501    0  0.00000000000E+00  0.00000000000E+00 -0.16526219861E+04  0.16526219861E+04  0.50400001928E-02 0.  1.
    10030    2    1    2    0    0  0.00000000000E+00  0.00000000000E+00 -0.10914267566E+04  0.22138172156E+04  0.19260774385E+04 0.  0.
        4    1    3    3  502    0 -0.37043884086E+03  0.66117270743E+03  0.13724934000E+03  0.77020340048E+03  0.12699999809E+01 0. -1.
       -4    1    3    3    0  502  0.37043884086E+03 -0.66117270743E+03 -0.12286760966E+04  0.14436138151E+04  0.12699999809E+01 0.  1.
</event>
<event>
 5   0  0.5579109E-05  0.1908132E+04  0.7818609E-02  0.8650819E-01
        1   -1    0    0  501    0  0.00000000000E+00  0.00000000000E+00  0.73307199423E+03  0.73307199425E+03  0.50400001928E-02 0. -1.
       -1   -1    0    0    0  501  0.00000000000E+00  0.00000000000E+00 -0.12416817898E+04  0.12416817898E+04  0.50400001928E-02 0.  1.
    10030    2    1    2    0    0  0.00000000000E+00  0.00000000000E+00 -0.50860979553E+03  0.19747537840E+04  0.19081322238E+04 0.  0.
        3    1    3    3  502    0  0.76973695088E+03  0.17089412803E+03  0.30161123566E+03  0.84419732540E+03  0.10100000352E+00 0. -1.
       -3    1    3    3    0  502 -0.76973695088E+03 -0.17089412803E+03 -0.81022103119E+03  0.11305564586E+04  0.10100000352E+00 0.  1.
</event>
<event>
 5   0  0.1101678E-04  0.1887813E+04  0.7818609E-02  0.8660947E-01
        2   -1    0    0  501    0  0.00000000000E+00  0.00000000000E+00  0.25411084696E+04  0.25411084696E+04  0.25500000920E-02 0. -1.
       -2   -1    0    0    0  501  0.00000000000E+00  0.00000000000E+00 -0.35061836238E+03  0.35061836239E+03  0.25500000920E-02 0.  1.
    10030    2    1    2    0    0  0.00000000000E+00  0.00000000000E+00  0.21904901072E+04  0.28917268320E+04  0.18878127982E+04 0.  0.
        4    1    3    3  502    0 -0.22665845436E+03 -0.79759832521E+03  0.17861140980E+04  0.19691983972E+04  0.12699999809E+01 0. -1.
       -4    1    3    3    0  502  0.22665845436E+03  0.79759832521E+03  0.40437600914E+03  0.92252843478E+03  0.12699999809E+01 0.  1.
</event>
<event>
 5   0  0.1133638E-04  0.1907983E+04  0.7818609E-02  0.8650893E-01
       -2   -1    0    0    0  501  0.00000000000E+00  0.00000000000E+00  0.10310915049E+04  0.10310915049E+04  0.25500000920E-02 0. -1.
        2   -1    0    0  501    0  0.00000000000E+00  0.00000000000E+00 -0.88265672931E+03  0.88265672931E+03  0.25500000920E-02 0.  1.
    10030    2    1    2    0    0  0.00000000000E+00  0.00000000000E+00  0.14843477555E+03  0.19137482342E+04  0.19079830768E+04 0.  0.
        3    1    3    3  502    0 -0.74342675594E+03 -0.59551795051E+03  0.12705363206E+03  0.96097221940E+03  0.10100000352E+00 0.  1.
       -3    1    3    3    0  502  0.74342675594E+03  0.59551795051E+03  0.21381143486E+02  0.95277601477E+03  0.10100000352E+00 0. -1.
</event>
<event>
 5   0  0.1141890E-04  0.1898705E+04  0.7818609E-02  0.8655501E-01
       -2   -1    0    0    0  501  0.00000000000E+00  0.00000000000E+00  0.38057671039E+03  0.38057671040E+03  0.25500000920E-02 0.  1.
        2   -1    0    0  501    0  0.00000000000E+00  0.00000000000E+00 -0.23681690171E+04  0.23681690171E+04  0.25500000920E-02 0. -1.
    10030    2    1    2    0    0  0.00000000000E+00  0.00000000000E+00 -0.19875923068E+04  0.27487457275E+04  0.18987047946E+04 0.  0.
        2    1    3    3  502    0  0.57284748442E+03 -0.74913548735E+03 -0.83579327317E+03  0.12601224600E+04  0.25500000920E-02 0.  1.
       -2    1    3    3    0  502 -0.57284748442E+03  0.74913548735E+03 -0.11517990336E+04  0.14886232675E+04  0.25500000920E-02 0. -1.
</event>
<event>
 5   0  0.1141890E-04  0.1829223E+04  0.7818609E-02  0.8690912E-01
        2   -1    0    0  501    0  0.00000000000E+00  0.00000000000E+00  0.56985245694E+03  0.56985245694E+03  0.25500000920E-02 0. -1.
       -2   -1    0    0    0  501  0.00000000000E+00  0.00000000000E+00 -0.14679489198E+04  0.14679489198E+04  0.25500000920E-02 0.  1.
    10030    2    1    2    0    0  0.00000000000E+00  0.00000000000E+00 -0.89809646289E+03  0.20378013768E+04  0.18292231123E+04 0.  0.
        2    1    3    3  502    0 -0.67554938856E+03  0.55139168246E+03 -0.14170123751E+03  0.88344722797E+03  0.25500000920E-02 0. -1.
       -2    1    3    3    0  502  0.67554938856E+03 -0.55139168246E+03 -0.75639522538E+03  0.11543541488E+04  0.25500000920E-02 0.  1.
</event>
<event>
 5   0  0.1101678E-04  0.1908860E+04  0.7818609E-02  0.8650459E-01
        2   -1    0    0  501    0  0.00000000000E+00  0.00000000000E+00  0.10179295853E+04  0.10179295853E+04  0.25500000920E-02 0. -1.
       -2   -1    0    0    0  501  0.00000000000E+00  0.00000000000E+00 -0.89489187321E+03  0.89489187321E+03  0.25500000920E-02 0.  1.
    10030    2    1    2    0    0  0.00000000000E+00  0.00000000000E+00  0.12303771205E+03  0.19128214585E+04  0.19088603022E+04 0.  0.
        4    1    3    3  502    0  0.58541675850E+03 -0.18250041055E+03 -0.67137846065E+03  0.90926884435E+03  0.12699999809E+01 0.  1.
       -4    1    3    3    0  502 -0.58541675850E+03  0.18250041055E+03  0.79441617270E+03  0.10035526141E+04  0.12699999809E+01 0. -1.
</event>
<event>
 5   0  0.1182630E-04  0.1793579E+04  0.7818609E-02  0.8709722E-01
       -2   -1    0    0    0  501  0.00000000000E+00  0.00000000000E+00  0.33597708985E+03  0.33597708986E+03  0.25500000920E-02 0. -1.
        2   -1    0    0  501    0  0.00000000000E+00  0.00000000000E+00 -0.23937079626E+04  0.23937079626E+04  0.25500000920E-02 0.  1.
    10030    2    1    2    0    0  0.00000000000E+00  0.00000000000E+00 -0.20577308728E+04  0.27296850525E+04  0.17935785851E+04 0.  0.
        5    1    3    3  502    0 -0.58419918368E+03  0.15371491073E+03 -0.20375811159E+04  0.21252472453E+04  0.46999998093E+01 0.  1.
       -5    1    3    3    0  502  0.58419918368E+03 -0.15371491073E+03 -0.20149756883E+02  0.60443780714E+03  0.46999998093E+01 0. -1.
</event>
<event>
 5   0  0.1182630E-04  0.1727511E+04  0.7818609E-02  0.8745827E-01
        2   -1    0    0  501    0  0.00000000000E+00  0.00000000000E+00  0.10852018113E+04  0.10852018114E+04  0.25500000920E-02 0. -1.
       -2   -1    0    0    0  501  0.00000000000E+00  0.00000000000E+00 -0.68749780000E+03  0.68749780001E+03  0.25500000920E-02 0.  1.
    10030    2    1    2    0    0  0.00000000000E+00  0.00000000000E+00  0.39770401135E+03  0.17726996114E+04  0.17275113405E+04 0.  0.
        5    1    3    3  502    0 -0.80216085404E+01 -0.57496189003E+03 -0.46252753157E+03  0.73796973423E+03  0.46999998093E+01 0.  1.
       -5    1    3    3    0  502  0.80216085404E+01  0.57496189003E+03  0.86023154292E+03  0.10347298771E+04  0.46999998093E+01 0. -1.
</event>
<event>
 5   0  0.1133638E-04  0.1897626E+04  0.7818609E-02  0.8656039E-01
       -2   -1    0    0    0  501  0.00000000000E+00  0.00000000000E+00  0.72607108054E+03  0.72607108055E+03  0.25500000920E-02 0. -1.
        2   -1    0    0  501    0  0.00000000000E+00  0.00000000000E+00 -0.12398866821E+04  0.12398866822E+04  0.25500000920E-02 0.  1.
    10030    2    1    2    0    0  0.00000000000E+00  0.00000000000E+00 -0.51381560161E+03  0.19659577627E+04  0.18976257408E+04 0.  0.
        3    1    3    3  502    0 -0.56686672789E+03  0.39510739872E+03  0.41673572217E+03  0.80691784963E+03  0.10100000352E+00 0. -1.
       -3    1    3    3    0  502  0.56686672789E+03 -0.39510739872E+03 -0.93055132378E+03  0.11590399131E+04  0.10100000352E+00 0.  1.
</event>
<event>
 5   0  0.5841424E-05  0.1894768E+04  0.7818609E-02  0.8657465E-01
        1   -1    0    0  501    0  0.00000000000E+00  0.00000000000E+00  0.75954313687E+03  0.75954313688E+03  0.50400001928E-02 0. -1.
       -1   -1    0    0    0  501  0.00000000000E+00  0.00000000000E+00 -0.11816796979E+04  0.11816796979E+04  0.50400001928E-02 0.  1.
    10030    2    1    2    0    0  0.00000000000E+00  0.00000000000E+00 -0.42213656103E+03  0.19412228348E+04  0.18947682756E+04 0.  0.
        1    1    3    3  502    0 -0.45862162163E+03  0.75985941614E+03  0.12844224641E+03  0.89678176544E+03  0.50400001928E-02 0. -1.
       -1    1    3    3    0  502  0.45862162163E+03 -0.75985941614E+03 -0.55057880745E+03  0.10444410694E+04  0.50400001928E-02 0.  1.
</event>
<event>
 5   0  0.5841424E-05  0.1888633E+04  0.7818609E-02  0.8660535E-01
       -1   -1    0    0    0  501  0.00000000000E+00  0.00000000000E+00  0.12805564225E+04  0.12805564225E+04  0.50400001928E-02 0. -1.
        1   -1    0    0  501    0  0.00000000000E+00  0.00000000000E+00 -0.69636452998E+03  0.69636453000E+03  0.50400001928E-02 0.  1.
    10030    2    1    2    0    0  0.00000000000E+00  0.00000000000E+00  0.58419189254E+03  0.19769209525E+04  0.18886334438E+04 0.  0.
        1    1    3    3  502    0 -0.29982881682E+03  0.30380724006E+03  0.11738133872E+04  0.12490132211E+04  0.50400001928E-02 0. -1.
       -1    1    3    3    0  502  0.29982881682E+03 -0.30380724006E+03 -0.58962149464E+03  0.72790773143E+03  0.50400001928E-02 0.  1.
</event>
<event>
 5   0  0.1141890E-04  0.1883684E+04  0.7818609E-02  0.8663021E-01
        2   -1    0    0  501    0  0.00000000000E+00  0.00000000000E+00  0.17316351246E+04  0.17316351246E+04  0.25500000920E-02 0. -1.
       -2   -1    0    0    0  501  0.00000000000E+00  0.00000000000E+00 -0.51227083052E+03  0.51227083053E+03  0.25500000920E-02 0.  1.
    10030    2    1    2    0    0  0.00000000000E+00  0.00000000000E+00  0.12193642940E+04  0.22439059551E+04  0.18836837988E+04 0.  0.
        2    1    3    3  502    0 -0.92656500816E+03  0.11957243159E+03  0.46750122364E+03  0.10446902291E+04  0.25500000920E-02 0.  1.
       -2    1    3    3    0  502  0.92656500816E+03 -0.11957243159E+03  0.75186307041E+03  0.11992157260E+04  0.25500000920E-02 0. -1.
</event>
<event>
 5   0  0.1101678E-04  0.1904688E+04  0.7818609E-02  0.8652526E-01
        2   -1    0    0  501    0  0.00000000000E+00  0.00000000000E+00  0.67965881840E+03  0.67965881840E+03  0.25500000920E-02 0.  1.
       -2   -1    0    0    0  501  0.00000000000E+00  0.00000000000E+00 -0.13344325958E+04  0.13344325958E+04  0.25500000920E-02 0. -1.
    10030    2    1    2    0    0  0.00000000000E+00  0.00000000000E+00 -0.65477377736E+03  0.20140914142E+04  0.19046877763E+04 0.  0.
        4    1    3    3  502    0  0.29772165674E+03 -0.34748384742E+03 -0.12105695706E+04  0.12941651778E+04  0.12699999809E+01 0. -1.
       -4    1    3    3    0  502 -0.29772165674E+03  0.34748384742E+03  0.55579579328E+03  0.71992623639E+03  0.12699999809E+01 0.  1.
</event>
<event>
 5   0  0.5628936E-05  0.1865716E+04  0.7818609E-02  0.8672113E-01
        1   -1    0    0  501    0  0.00000000000E+00  0.00000000000E+00  0.69510251823E+03  0.69510251825E+03  0.50400001928E-02 0.  1.
       -1   -1    0    0    0  501  0.00000000000E+00  0.00000000000E+00 -0.12519359200E+04  0.12519359200E+04  0.50400001928E-02 0. -1.
    10030    2    1    2    0    0  0.00000000000E+00  0.00000000000E+00 -0.55683340178E+03  0.19470384383E+04  0.18657157454E+04 0.  0.
        5    1    3    3  502    0 -0.48743263758E+02  0.30935904418E+03 -0.11954228254E+04  0.12357737436E+04  0.46999998093E+01 0. -1.
       -5    1    3    3    0  502  0.48743263758E+02 -0.30935904418E+03  0.63858942358E+03  0.71126469467E+03  0.46999998093E+01 0.  1.
</event>
<event>
 5   0  0.1118206E-04  0.2027559E+04  0.7818609E-02  0.8593843E-01
        2   -1    0    0  501    0  0.00000000000E+00  0.00000000000E+00  0.26774765406E+04  0.26774765406E+04  0.25500000920E-02 0.  1.
       -2   -1    0    0    0  501  0.00000000000E+00  0.00000000000E+00 -0.38384985832E+03  0.38384985833E+03  0.25500000920E-02 0. -1.
    10030    2    1    2    0    0  0.00000000000E+00  0.00000000000E+00  0.22936266823E+04  0.30613263989E+04  0.20275591146E+04 0.  0.
        1    1    3    3  502    0 -0.28615445331E+03  0.48182127158E+03  0.24223644926E+04  0.24863398489E+04  0.50400001928E-02 0.  1.
       -1    1    3    3    0  502  0.28615445331E+03 -0.48182127158E+03 -0.12873781037E+03  0.57498655005E+03  0.50400001928E-02 0. -1.
</event>
<event>
 5   0  0.5628936E-05  0.1901188E+04  0.7818609E-02  0.8654265E-01
       -1   -1    0    0    0  501  0.00000000000E+00  0.00000000000E+00  0.67441423282E+03  0.67441423284E+03  0.50400001928E-02 0. -1.
        1   -1    0    0  501    0  0.00000000000E+00  0.00000000000E+00 -0.13398720669E+04  0.13398720669E+04  0.50400001928E-02 0.  1.
    10030    2    1    2    0    0  0.00000000000E+00  0.00000000000E+00 -0.66545783404E+03  0.20142862997E+04  0.19011878309E+04 0.  0.
        5    1    3    3  502    0 -0.76048694061E+03  0.39055702496E+03  0.10760483651E+03  0.86167050978E+03  0.46999998093E+01 0.  1.
       -5    1    3    3    0  502  0.76048694061E+03 -0.39055702496E+03 -0.77306267055E+03  0.11526157899E+04  0.46999998093E+01 0. -1.
</event>
<event>
 5   0  0.5614989E-05  0.1906029E+04  0.7818609E-02  0.8651861E-01
        1   -1    0    0  501    0  0.00000000000E+00  0.00000000000E+00  0.11516654418E+04  0.11516654418E+04  0.50400001928E-02 0. -1.
       -1   -1    0    0    0  501  0.00000000000E+00  0.00000000000E+00 -0.78862854816E+03  0.78862854818E+03  0.50400001928E-02 0.  1.
    10030    2    1    2    0    0  0.00000000000E+00  0.00000000000E+00  0.36303689364E+03  0.19402939900E+04  0.19060285888E+04 0.  0.
        4    1    3    3  502    0  0.70209195214E+03  0.37769078663E+03 -0.35002874627E+03  0.87069235421E+03  0.12699999809E+01 0.  1.
       -4    1    3    3    0  502 -0.70209195214E+03 -0.37769078663E+03  0.71306563991E+03  0.10696016358E+04  0.12699999809E+01 0. -1.
</event>
<event>
 5   0  0.5841424E-05  0.1906876E+04  0.7818609E-02  0.8651441E-01
       -1   -1    0    0    0  501  0.00000000000E+00  0.00000000000E+00  0.10994797331E+04  0.10994797331E+04  0.50400001928E-02 0. -1.
        1   -1    0    0  501    0  0.00000000000E+00  0.00000000000E+00 -0.82679455608E+03  0.82679455610E+03  0.50400001928E-02 0.  1.
    10030    2    1    2    0    0  0.00000000000E+00  0.00000000000E+00  0.27268517699E+03  0.19262742892E+04  0.19068758301E+04 0.  0.
        1    1    3    3  502    0  0.41479849751E+03 -0.54231193845E+03  0.80860777834E+03  0.10583036291E+04  0.50400001928E-02 0. -1.
       -1    1    3    3    0  502 -0.41479849751E+03  0.54231193845E+03 -0.53592260135E+03  0.86797066009E+03  0.50400001928E-02 0.  1.
</event>
<event>
 5   0  0.5841424E-05  0.1884623E+04  0.7818609E-02  0.8662549E-01
        1   -1    0    0  501    0  0.00000000000E+00  0.00000000000E+00  0.13054501252E+04  0.13054501252E+04  0.50400001928E-02 0. -1.
       -1   -1    0    0    0  501  0.00000000000E+00  0.00000000000E+00 -0.68018762234E+03  0.68018762236E+03  0.50400001928E-02 0.  1.
    10030    2    1    2    0    0  0.00000000000E+00  0.00000000000E+00  0.62526250282E+03  0.19856377475E+04  0.18846230570E+04 0.  0.
        1    1    3    3  502    0 -0.69974056111E+03 -0.51252387943E+03 -0.75393030202E+02  0.87063292430E+03  0.50400001928E-02 0.  1.
       -1    1    3    3    0  502  0.69974056111E+03  0.51252387943E+03  0.70065553302E+03  0.11150048232E+04  0.50400001928E-02 0. -1.
</event>
<event>
 5   0  0.5841424E-05  0.1905976E+04  0.7818609E-02  0.8651887E-01
        1   -1    0    0  501    0  0.00000000000E+00  0.00000000000E+00  0.14725375905E+04  0.14725375905E+04  0.50400001928E-02 0.  1.
       -1   -1    0    0    0  501  0.00000000000E+00  0.00000000000E+00 -0.61674897844E+03  0.61674897846E+03  0.50400001928E-02 0. -1.
    10030    2    1    2    0    0  0.00000000000E+00  0.00000000000E+00  0.85578861203E+03  0.20892865689E+04  0.19059759229E+04 0.  0.
        1    1    3    3  502    0 -0.30422865837E+03  0.32366221649E+02  0.14172407146E+04  0.14498875446E+04  0.50400001928E-02 0.  1.
       -1    1    3    3    0  502  0.30422865837E+03 -0.32366221649E+02 -0.56145210254E+03  0.63939902435E+03  0.50400001928E-02 0. -1.
</event>
<event>
 5   0  0.5824956E-05  0.1900617E+04  0.7818609E-02  0.8654549E-01
        1   -1    0    0  501    0  0.00000000000E+00  0.00000000000E+00  0.12347916559E+04  0.12347916559E+04  0.50400001928E-02 0. -1.
       -1   -1    0    0    0  501  0.00000000000E+00  0.00000000000E+00 -0.73136762335E+03  0.73136762337E+03  0.50400001928E-02 0.  1.
    10030    2    1    2    0    0  0.00000000000E+00  0.00000000000E+00  0.50342403250E+03  0.19661592792E+04  0.19006174141E+04 0.  0.
        2    1    3    3  502    0 -0.40467706004E+03  0.22535185851E+03  0.11101095717E+04  0.12028675090E+04  0.25500000920E-02 0. -1.
       -2    1    3    3    0  502  0.40467706004E+03 -0.22535185851E+03 -0.60668553917E+03  0.76329177024E+03  0.25500000920E-02 0.  1.
</event>
<event>
 5   0  0.5628936E-05  0.1897064E+04  0.7818609E-02  0.8656319E-01
        1   -1    0    0  501    0  0.00000000000E+00  0.00000000000E+00  0.15535658742E+04  0.15535658742E+04  0.50400001928E-02 0. -1.
       -1   -1    0    0    0  501  0.00000000000E+00  0.00000000000E+00 -0.57912734699E+03  0.57912734701E+03  0.50400001928E-02 0.  1.
    10030    2    1    2    0    0  0.00000000000E+00  0.00000000000E+00  0.97443852720E+03  0.21326932212E+04  0.18970635025E+04 0.  0.
        5    1    3    3  502    0  0.92488373451E+03  0.20175076518E+03  0.41998169017E+03  0.10356254167E+04  0.46999998093E+01 0. -1.
       -5    1    3    3    0  502 -0.92488373451E+03 -0.20175076518E+03  0.55445683703E+03  0.10970678045E+04  0.46999998093E+01 0.  1.
</event>
<event>
 5   0  0.1133638E-04  0.1906464E+04  0.7818609E-02  0.8651646E-01
        2   -1    0    0  501    0  0.00000000000E+00  0.00000000000E+00  0.15459726441E+04  0.15459726441E+04  0.25500000920E-02 0.  1.
       -2   -1    0    0    0  501  0.00000000000E+00  0.00000000000E+00 -0.58775371704E+03  0.58775371705E+03  0.25500000920E-02 0. -1.
    10030    2    1    2    0    0  0.00000000000E+00  0.00000000000E+00  0.95821892707E+03  0.21337263612E+04  0.19064639184E+04 0.  0.
        3    1    3    3  502    0 -0.92635256491E+03 -0.22430737288E+03  0.46295695624E+03  0.10596093741E+04  0.10100000352E+00 0. -1.
       -3    1    3    3    0  502  0.92635256491E+03  0.22430737288E+03  0.49526197083E+03  0.10741169871E+04  0.10100000352E+00 0.  1.
</event>
<event>
 5   0  0.5579109E-05  0.1895536E+04  0.7818609E-02  0.8657082E-01
       -1   -1    0    0    0  501  0.00000000000E+00  0.00000000000E+00  0.74540829994E+03  0.74540829996E+03  0.50400001928E-02 0. -1.
        1   -1    0    0  501    0  0.00000000000E+00  0.00000000000E+00 -0.12050632045E+04  0.12050632045E+04  0.50400001928E-02 0.  1.
    10030    2    1    2    0    0  0.00000000000E+00  0.00000000000E+00 -0.45965490459E+03  0.19504715045E+04  0.18955359291E+04 0.  0.
        3    1    3    3  502    0 -0.81193979553E+03 -0.56650842527E+02 -0.72950216052E+03  0.10929908334E+04  0.10100000352E+00 0.  1.
       -3    1    3    3    0  502  0.81193979553E+03  0.56650842527E+02  0.26984725594E+03  0.85748067108E+03  0.10100000352E+00 0. -1.
</event>
<event>
 5   0  0.5824956E-05  0.1892483E+04  0.7818609E-02  0.8658607E-01
       -1   -1    0    0    0  501  0.00000000000E+00  0.00000000000E+00  0.57417239218E+03  0.57417239220E+03  0.50400001928E-02 0. -1.
        1   -1    0    0  501    0  0.00000000000E+00  0.00000000000E+00 -0.15594140814E+04  0.15594140814E+04  0.50400001928E-02 0.  1.
    10030    2    1    2    0    0  0.00000000000E+00  0.00000000000E+00 -0.98524168925E+03  0.21335864736E+04  0.18924825109E+04 0.  0.
        2    1    3    3  502    0 -0.79455009980E+03 -0.36431077178E+03 -0.84040566417E+02  0.87812016054E+03  0.25500000920E-02 0. -1.
       -2    1    3    3    0  502  0.79455009980E+03  0.36431077178E+03 -0.90120112283E+03  0.12554663131E+04  0.25500000920E-02 0.  1.
</event>
<event>
 5   0  0.1182630E-04  0.1875022E+04  0.7818609E-02  0.8667390E-01
        2   -1    0    0  501    0  0.00000000000E+00  0.00000000000E+00  0.78964328779E+03  0.78964328779E+03  0.25500000920E-02 0.  1.
       -2   -1    0    0    0  501  0.00000000000E+00  0.00000000000E+00 -0.11130688187E+04  0.11130688187E+04  0.25500000920E-02 0. -1.
    10030    2    1    2    0    0  0.00000000000E+00  0.00000000000E+00 -0.32342553090E+03  0.19027121065E+04  0.18750224762E+04 0.  0.
        5    1    3    3  502    0  0.86865869749E+03 -0.82521027320E+02 -0.50959840214E+03  0.10104901158E+04  0.46999998093E+01 0. -1.
       -5    1    3    3    0  502 -0.86865869749E+03  0.82521027320E+02  0.18617287124E+03  0.89222199068E+03  0.46999998093E+01 0.  1.
</event>
<event>
 5   0  0.1133638E-04  0.1893423E+04  0.7818609E-02  0.8658137E-01
       -2   -1    0    0    0  501  0.00000000000E+00  0.00000000000E+00  0.63209193119E+03  0.63209193119E+03  0.25500000920E-02 0. -1.
        2   -1    0    0  501    0  0.00000000000E+00  0.00000000000E+00 -0.14179310390E+04  0.14179310390E+04  0.25500000920E-02 0.  1.
    10030    2    1    2    0    0  0.00000000000E+00  0.00000000000E+00 -0.78583910777E+03  0.20500229702E+04  0.18934231104E+04 0.  0.
        3    1    3    3  502    0 -0.47638212235E+02 -0.55731410666E+03  0.43405502857E+03  0.70800578442E+03  0.10100000352E+00 0. -1.
       -3    1    3    3    0  502  0.47638212235E+02  0.55731410666E+03 -0.12198941363E+04  0.13420171857E+04  0.10100000352E+00 0.  1.
</event>
<event>
 5   0  0.5841424E-05  0.1922762E+04  0.7818609E-02  0.8643608E-01
       -1   -1    0    0    0  501  0.00000000000E+00  0.00000000000E+00  0.77834459704E+03  0.77834459706E+03  0.50400001928E-02 0.  1.
        1   -1    0    0  501    0  0.00000000000E+00  0.00000000000E+00 -0.11874605813E+04  0.11874605813E+04  0.50400001928E-02 0. -1.
    10030    2    1    2    0    0  0.00000000000E+00  0.00000000000E+00 -0.40911598423E+03  0.19658051783E+04  0.19227621045E+04 0.  0.
        1    1    3    3  502    0  0.27819325117E+03  0.91948740779E+03 -0.24287973804E+03  0.99087796688E+03  0.50400001928E-02 0. -1.
       -1    1    3    3    0  502 -0.27819325117E+03 -0.91948740779E+03 -0.16623624619E+03  0.97492721146E+03  0.50400001928E-02 0.  1.
</event>
<event>
 5   0  0.1101678E-04  0.1933323E+04  0.7818609E-02  0.8638445E-01
        2   -1    0    0  501    0  0.00000000000E+00  0.00000000000E+00  0.14393971425E+04  0.14393971425E+04  0.25500000920E-02 0. -1.
       -2   -1    0    0    0  501  0.00000000000E+00  0.00000000000E+00 -0.64918478565E+03  0.64918478566E+03  0.25500000920E-02 0.  1.
    10030    2    1    2    0    0  0.00000000000E+00  0.00000000000E+00  0.79021235686E+03  0.20885819282E+04  0.19333232792E+04 0.  0.
        4    1    3    3  502    0  0.67397085023E+03 -0.51619187474E+03  0.89455653742E+03  0.12332573819E+04  0.12699999809E+01 0. -1.
       -4    1    3    3    0  502 -0.67397085023E+03  0.51619187474E+03 -0.10434418055E+03  0.85532454626E+03  0.12699999809E+01 0.  1.
</event>
<event>
 5   0  0.1118206E-04  0.1898679E+04  0.7818609E-02  0.8655514E-01
       -2   -1    0    0    0  501  0.00000000000E+00  0.00000000000E+00  0.43986450501E+03  0.43986450502E+03  0.25500000920E-02 0.  1.
        2   -1    0    0  501    0  0.00000000000E+00  0.00000000000E+00 -0.20489151968E+04  0.20489151968E+04  0.25500000920E-02 0. -1.
    10030    2    1    2    0    0  0.00000000000E+00  0.00000000000E+00 -0.16090506918E+04  0.24887797018E+04  0.18986785603E+04 0.  0.
        1    1    3    3  502    0 -0.58430993904E+03  0.41492654123E+03  0.11609923259E+02  0.71674048987E+03  0.50400001928E-02 0.  1.
       -1    1    3    3    0  502  0.58430993904E+03 -0.41492654123E+03 -0.16206606150E+04  0.17720392119E+04  0.50400001928E-02 0. -1.
</event>
<event>
 5   0  0.1133638E-04  0.1902356E+04  0.7818609E-02  0.8653684E-01
       -2   -1    0    0    0  501  0.00000000000E+00  0.00000000000E+00  0.11304831891E+04  0.11304831891E+04  0.25500000920E-02 0. -1.
        2   -1    0    0  501    0  0.00000000000E+00  0.00000000000E+00 -0.80031242197E+03  0.80031242197E+03  0.25500000920E-02 0.  1.
    10030    2    1    2    0    0  0.00000000000E+00  0.00000000000E+00  0.33017076711E+03  0.19307956110E+04  0.19023561591E+04 0.  0.
        3    1    3    3  502    0  0.74755718144E+03 -0.41063204598E+03 -0.26225457453E+03  0.89232162855E+03  0.10100000352E+00 0. -1.
       -3    1    3    3    0  502 -0.74755718144E+03  0.41063204598E+03  0.59242534164E+03  0.10384739825E+04  0.10100000352E+00 0.  1.
</event>
<event>
 5   0  0.5628936E-05  0.1897340E+04  0.7818609E-02  0.8656182E-01
       -1   -1    0    0    0  501  0.00000000000E+00  0.00000000000E+00  0.11152287145E+04  0.11152287145E+04  0.50400001928E-02 0.  1.
        1   -1    0    0  501    0  0.00000000000E+00  0.00000000000E+00 -0.80698681128E+03  0.80698681130E+03  0.50400001928E-02 0. -1.
    10030    2    1    2    0    0  0.00000000000E+00  0.00000000000E+00  0.30824190322E+03  0.19222155258E+04  0.18973401005E+04 0.  0.
        5    1    3    3  502    0  0.84126004578E+03  0.40779357249E+03  0.31728748891E+03  0.98727276018E+03  0.46999998093E+01 0.  1.
       -5    1    3    3    0  502 -0.84126004578E+03 -0.40779357249E+03 -0.90455856847E+01  0.93494276563E+03  0.46999998093E+01 0. -1.
</event>
<event>
 5   0  0.5824956E-05  0.1898800E+04  0.7818609E-02  0.8655454E-01
        1   -1    0    0  501    0  0.00000000000E+00  0.00000000000E+00  0.74916908857E+03  0.74916908859E+03  0.50400001928E-02 0.  1.
       -1   -1    0    0    0  501  0.00000000000E+00  0.00000000000E+00 -0.12031473721E+04  0.12031473721E+04  0.50400001928E-02 0. -1.
    10030    2    1    2    0    0  0.00000000000E+00  0.00000000000E+00 -0.45397828350E+03  0.19523164607E+04  0.18988004847E+04 0.  0.
        2    1    3    3  502    0 -0.18248435500E+03 -0.72899799787E+03  0.36955455162E+03  0.83744205014E+03  0.25500000920E-02 0.  1.
       -2    1    3    3    0  502  0.18248435500E+03  0.72899799787E+03 -0.82353283512E+03  0.11148744105E+04  0.25500000920E-02 0. -1.
</event>
<event>
 5   0  0.5579109E-05  0.1895312E+04  0.7818609E-02  0.8657194E-01
        1   -1    0    0  501    0  0.00000000000E+00  0.00000000000E+00  0.76891283923E+03  0.76891283924E+03  0.50400001928E-02 0.  1.
       -1   -1    0    0    0  501  0.00000000000E+00  0.00000000000E+00 -0.11679497160E+04  0.11679497161E+04  0.50400001928E-02 0. -1.
    10030    2    1    2    0    0  0.00000000000E+00  0.00000000000E+00 -0.39903687682E+03  0.19368625553E+04  0.18953116179E+04 0.  0.
        3    1    3    3  502    0 -0.82342628194E+03 -0.41472352404E+03 -0.42346903403E+03  0.10145700943E+04  0.10100000352E+00 0. -1.
       -3    1    3    3    0  502  0.82342628194E+03  0.41472352404E+03  0.24432157210E+02  0.92229246104E+03  0.10100000352E+00 0.  1.
</event>
<event>
 5   0  0.1141890E-04  0.1902828E+04  0.7818609E-02  0.8653450E-01
       -2   -1    0    0    0  501  0.00000000000E+00  0.00000000000E+00  0.59560817777E+03  0.59560817777E+03  0.25500000920E-02 0. -1.
        2   -1    0    0  501    0  0.00000000000E+00  0.00000000000E+00 -0.15197724265E+04  0.15197724265E+04  0.25500000920E-02 0.  1.
    10030    2    1    2    0    0  0.00000000000E+00  0.00000000000E+00 -0.92416424878E+03  0.21153806043E+04  0.19028283008E+04 0.  0.
        2    1    3    3  502    0  0.62373665759E+03  0.97809101020E+02  0.32916241725E+03  0.71201259483E+03  0.25500000920E-02 0.  1.
       -2    1    3    3    0  502 -0.62373665759E+03 -0.97809101020E+02 -0.12533266660E+04  0.14033680095E+04  0.25500000920E-02 0. -1.
</event>
<event>
 5   0  0.1101678E-04  0.1899103E+04  0.7818609E-02  0.8655303E-01
        2   -1    0    0  501    0  0.00000000000E+00  0.00000000000E+00  0.45812007850E+03  0.45812007851E+03  0.25500000920E-02 0. -1.
       -2   -1    0    0    0  501  0.00000000000E+00  0.00000000000E+00 -0.19681482424E+04  0.19681482424E+04  0.25500000920E-02 0.  1.
    10030    2    1    2    0    0  0.00000000000E+00  0.00000000000E+00 -0.15100281639E+04  0.24262683209E+04  0.18991031855E+04 0.  0.
        4    1    3    3  502    0 -0.43559810074E+03 -0.38868161443E+03 -0.17117782906E+04  0.18085921685E+04  0.12699999809E+01 0.  1.
       -4    1    3    3    0  502  0.43559810074E+03  0.38868161443E+03  0.20175012671E+03  0.61767615244E+03  0.12699999809E+01 0. -1.
</event>
<event>
 5   0  0.5824956E-05  0.1905576E+04  0.7818609E-02  0.8652086E-01
        1   -1    0    0  501    0  0.00000000000E+00  0.00000000000E+00  0.10253036703E+04  0.10253036703E+04  0.50400001928E-02 0. -1.
       -1   -1    0    0    0  501  0.00000000000E+00  0.00000000000E+00 -0.88540148154E+03  0.88540148156E+03  0.50400001928E-02 0.  1.
    10030    2    1    2    0    0  0.00000000000E+00  0.00000000000E+00  0.13990218877E+03  0.19107051519E+04  0.19055764364E+04 0.  0.
        2    1    3    3  502    0  0.43207753337E+03  0.44086519416E+03  0.79768148285E+03  0.10086371312E+04  0.25500000920E-02 0. -1.
       -2    1    3    3    0  502 -0.43207753337E+03 -0.44086519416E+03 -0.65777929408E+03  0.90206802072E+03  0.25500000920E-02 0.  1.
</event>
<event>
 5   0  0.5628936E-05  0.1905337E+04  0.7818609E-02  0.8652204E-01
       -1   -1    0    0    0  501  0.00000000000E+00  0.00000000000E+00  0.13303939216E+04  0.13303939216E+04  0.50400001928E-02 0.  1.
        1   -1    0    0  501    0  0.00000000000E+00  0.00000000000E+00 -0.68218685258E+03  0.68218685260E+03  0.50400001928E-02 0. -1.
    10030    2    1    2    0    0  0.00000000000E+00  0.00000000000E+00  0.64820706903E+03  0.20125807742E+04  0.19053369698E+04 0.  0.
        5    1    3    3  502    0  0.36439076923E+03  0.84407026911E+03  0.58779428727E+03  0.10912192566E+04  0.46999998093E+01 0.  1.
       -5    1    3    3    0  502 -0.36439076923E+03 -0.84407026911E+03  0.60412781755E+02  0.92136151759E+03  0.46999998093E+01 0. -1.
</event>
<event>
 5   0  0.5824956E-05  0.1899299E+04  0.7818609E-02  0.8655205E-01
       -1   -1    0    0    0  501  0.00000000000E+00  0.00000000000E+00  0.15479714292E+04  0.15479714292E+04  0.50400001928E-02 0. -1.
        1   -1    0    0  501    0  0.00000000000E+00  0.00000000000E+00 -0.58259094100E+03  0.58259094102E+03  0.50400001928E-02 0.  1.
    10030    2    1    2    0    0  0.00000000000E+00  0.00000000000E+00  0.96538048823E+03  0.21305623703E+04  0.18992989566E+04 0.  0.
        2    1    3    3  502    0  0.34212023215E+03  0.37223512926E+03  0.13844567624E+04  0.14738811932E+04  0.25500000920E-02 0. -1.
       -2    1    3    3    0  502 -0.34212023215E+03 -0.37223512926E+03 -0.41907627418E+03  0.65668117705E+03  0.25500000920E-02 0.  1.
</event>
<event>
 5   0  0.1141890E-04  0.1882017E+04  0.7818609E-02  0.8663860E-01
       -2   -1    0    0    0  501  0.00000000000E+00  0.00000000000E+00  0.43977840769E+03  0.43977840769E+03  0.25500000920E-02 0. -1.
        2   -1    0    0  501    0  0.00000000000E+00  0.00000000000E+00 -0.20135062107E+04  0.20135062107E+04  0.25500000920E-02 0.  1.
    10030    2    1    2    0    0  0.00000000000E+00  0.00000000000E+00 -0.15737278030E+04  0.24532846184E+04  0.18820165304E+04 0.  0.
        2    1    3    3  502    0  0.31278380889E+03  0.42417295657E+03  0.22934610143E+03  0.57476607628E+03  0.25500000920E-02 0. -1.
       -2    1    3    3    0  502 -0.31278380889E+03 -0.42417295657E+03 -0.18030739044E+04  0.18785185421E+04  0.25500000920E-02 0.  1.
</event>
<event>
 5   0  0.1133638E-04  0.1881261E+04  0.7818609E-02  0.8664241E-01
       -2   -1    0    0    0  501  0.00000000000E+00  0.00000000000E+00  0.77041727484E+03  0.77041727484E+03  0.25500000920E-02 0.  1.
        2   -1    0    0  501    0  0.00000000000E+00  0.00000000000E+00 -0.11484497661E+04  0.11484497661E+04  0.25500000920E-02 0. -1.
    10030    2    1    2    0    0  0.00000000000E+00  0.00000000000E+00 -0.37803249126E+03  0.19188670409E+04  0.18812607890E+04 0.  0.
        3    1    3    3  502    0 -0.67944293185E+03  0.65035684449E+03 -0.17537710499E+03  0.95674649828E+03  0.10100000352E+00 0. -1.
       -3    1    3    3    0  502  0.67944293185E+03 -0.65035684449E+03 -0.20265538626E+03  0.96212054266E+03  0.10100000352E+00 0.  1.
</event>
<event>
 5   0  0.1141890E-04  0.1899865E+04  0.7818609E-02  0.8654923E-01
       -2   -1    0    0    0  501  0.00000000000E+00  0.00000000000E+00  0.42499971748E+03  0.42499971748E+03  0.25500000920E-02 0. -1.
        2   -1    0    0  501    0  0.00000000000E+00  0.00000000000E+00 -0.21232300844E+04  0.21232300844E+04  0.25500000920E-02 0.  1.
    10030    2    1    2    0    0  0.00000000000E+00  0.00000000000E+00 -0.16982303669E+04  0.25482298019E+04  0.18998654542E+04 0.  0.
        2    1    3    3  502    0 -0.92301280183E+03 -0.21208301712E+03 -0.75018494265E+03  0.12081842933E+04  0.25500000920E-02 0.  1.
       -2    1    3    3    0  502  0.92301280183E+03  0.21208301712E+03 -0.94804542429E+03  0.13400455086E+04  0.25500000920E-02 0. -1.
</event>
<event>
 5   0  0.5579109E-05  0.1902408E+04  0.7818609E-02  0.8653659E-01
       -1   -1    0    0    0  501  0.00000000000E+00  0.00000000000E+00  0.74732874802E+03  0.74732874803E+03  0.50400001928E-02 0.  1.
        1   -1    0    0  501    0  0.00000000000E+00  0.00000000000E+00 -0.12106971860E+04  0.12106971860E+04  0.50400001928E-02 0. -1.
    10030    2    1    2    0    0  0.00000000000E+00  0.00000000000E+00 -0.46336843797E+03  0.19580259340E+04  0.19024077505E+04 0.  0.
        3    1    3    3  502    0  0.85841755762E+02 -0.83631092227E+03  0.22630141448E+03  0.87063029245E+03  0.10100000352E+00 0.  1.
       -3    1    3    3    0  502 -0.85841755762E+02  0.83631092227E+03 -0.68966985245E+03  0.10873956416E+04  0.10100000352E+00 0. -1.
</event>
<event>
 5   0  0.5628936E-05  0.1896040E+04  0.7818609E-02  0.8656830E-01
        1   -1    0    0  501    0  0.00000000000E+00  0.00000000000E+00  0.88001963133E+03  0.88001963135E+03  0.50400001928E-02 0.  1.
       -1   -1    0    0    0  501  0.00000000000E+00  0.00000000000E+00 -0.10212747550E+04  0.10212747550E+04  0.50400001928E-02 0. -1.
    10030    2    1    2    0    0  0.00000000000E+00  0.00000000000E+00 -0.14125512366E+03  0.19012943864E+04  0.18960399082E+04 0.  0.
        5    1    3    3  502    0 -0.64432655419E+03 -0.17542973925E+03 -0.74538717117E+03  0.10007779108E+04  0.46999998093E+01 0. -1.
       -5    1    3    3    0  502  0.64432655419E+03  0.17542973925E+03  0.60413204752E+03  0.90051647552E+03  0.46999998093E+01 0.  1.
</event>
<event>
 5   0  0.1182630E-04  0.1891001E+04  0.7818609E-02  0.8659349E-01
       -2   -1    0    0    0  501  0.00000000000E+00  0.00000000000E+00  0.89504707719E+03  0.89504707719E+03  0.25500000920E-02 0.  1.
        2   -1    0    0  501    0  0.00000000000E+00  0.00000000000E+00 -0.99879783615E+03  0.99879783615E+03  0.25500000920E-02 0. -1.
    10030    2    1    2    0    0  0.00000000000E+00  0.00000000000E+00 -0.10375075896E+03  0.18938449133E+04  0.18910008820E+04 0.  0.
        5    1    3    3  502    0  0.40159962490E+03 -0.77820240165E+03 -0.40887714414E+03  0.96648013205E+03  0.46999998093E+01 0. -1.
       -5    1    3    3    0  502 -0.40159962490E+03  0.77820240165E+03  0.30512638518E+03  0.92736478129E+03  0.46999998093E+01 0.  1.
</event>
<event>
 5   0  0.5628936E-05  0.1845279E+04  0.7818609E-02  0.8682584E-01
        1   -1    0    0  501    0  0.00000000000E+00  0.00000000000E+00  0.18080176416E+04  0.18080176416E+04  0.50400001928E-02 0. -1.
       -1   -1    0    0    0  501  0.00000000000E+00  0.00000000000E+00 -0.47082707067E+03  0.47082707069E+03  0.50400001928E-02 0.  1.
    10030    2    1    2    0    0  0.00000000000E+00  0.00000000000E+00  0.13371905709E+04  0.22788447123E+04  0.18452790032E+04 0.  0.
        5    1    3    3  502    0  0.34786009338E+02 -0.83045830857E+03  0.17403991577E+03  0.84922497078E+03  0.46999998093E+01 0.  1.
       -5    1    3    3    0  502 -0.34786009338E+02  0.83045830857E+03  0.11631506552E+04  0.14296197415E+04  0.46999998093E+01 0. -1.
</event>
<event>
 5   0  0.5824956E-05  0.1911785E+04  0.7818609E-02  0.8649013E-01
       -1   -1    0    0    0  501  0.00000000000E+00  0.00000000000E+00  0.75263293582E+03  0.75263293584E+03  0.50400001928E-02 0. -1.
        1   -1    0    0  501    0  0.00000000000E+00  0.00000000000E+00 -0.12140446723E+04  0.12140446723E+04  0.50400001928E-02 0.  1.
    10030    2    1    2    0    0  0.00000000000E+00  0.00000000000E+00 -0.46141173648E+03  0.19666776082E+04  0.19117845129E+04 0.  0.
        2    1    3    3  502    0  0.46676898040E+03  0.21866788712E+03  0.59741838223E+03  0.78904857224E+03  0.25500000920E-02 0. -1.
       -2    1    3    3    0  502 -0.46676898040E+03 -0.21866788712E+03 -0.10588301187E+04  0.11776290359E+04  0.25500000920E-02 0.  1.
</event>
<event>
 5   0  0.1182630E-04  0.1905702E+04  0.7818609E-02  0.8652023E-01
       -2   -1    0    0    0  501  0.00000000000E+00  0.00000000000E+00  0.83484274384E+03  0.83484274385E+03  0.25500000920E-02 0. -1.
        2   -1    0    0  501    0  0.00000000000E+00  0.00000000000E+00 -0.10875406341E+04  0.10875406341E+04  0.25500000920E-02 0.  1.
    10030    2    1    2    0    0  0.00000000000E+00  0.00000000000E+00 -0.25269789022E+03  0.19223833779E+04  0.19057023975E+04 0.  0.
        5    1    3    3  502    0  0.47104598502E+03  0.82812896735E+03 -0.14135905800E+03  0.96316477294E+03  0.46999998093E+01 0. -1.
       -5    1    3    3    0  502 -0.47104598502E+03 -0.82812896735E+03 -0.11133883221E+03  0.95921860497E+03  0.46999998093E+01 0.  1.
</event>
<event>
 5   0  0.5841424E-05  0.1908122E+04  0.7818609E-02  0.8650824E-01
       -1   -1    0    0    0  501  0.00000000000E+00  0.00000000000E+00  0.13469751877E+04  0.13469751877E+04  0.50400001928E-02 0. -1.
        1   -1    0    0  501    0  0.00000000000E+00  0.00000000000E+00 -0.67576063929E+03  0.67576063931E+03  0.50400001928E-02 0.  1.
    10030    2    1    2    0    0  0.00000000000E+00  0.00000000000E+00  0.67121454843E+03  0.20227358270E+04  0.19081224426E+04 0.  0.
        1    1    3    3  502    0  0.34207840267E+03 -0.34421286055E+03  0.12063679388E+04  0.13003167809E+04  0.50400001928E-02 0. -1.
       -1    1    3    3    0  502 -0.34207840267E+03  0.34421286055E+03 -0.53515339037E+03  0.72241904612E+03  0.50400001928E-02 0.  1.
</event>
<event>
 5   0  0.1133638E-04  0.1889876E+04  0.7818609E-02  0.8659912E-01
       -2   -1    0    0    0  501  0.00000000000E+00  0.00000000000E+00  0.10780193521E+04  0.10780193521E+04  0.25500000920E-02 0. -1.
        2   -1    0    0  501    0  0.00000000000E+00  0.00000000000E+00 -0.82828580750E+03  0.82828580751E+03  0.25500000920E-02 0.  1.
    10030    2    1    2    0    0  0.00000000000E+00  0.00000000000E+00  0.24973354462E+03  0.19063051596E+04  0.18898763236E+04 0.  0.
        3    1    3    3  502    0  0.42663086859E+03  0.27768908965E+03  0.92789225841E+03  0.10583521068E+04  0.10100000352E+00 0. -1.
       -3    1    3    3    0  502 -0.42663086859E+03 -0.27768908965E+03 -0.67815871378E+03  0.84795305284E+03  0.10100000352E+00 0.  1.
</event>
<event>
 5   0  0.1118206E-04  0.1897643E+04  0.7818609E-02  0.8656030E-01
        2   -1    0    0  501    0  0.00000000000E+00  0.00000000000E+00  0.16137869361E+04  0.16137869361E+04  0.25500000920E-02 0. -1.
       -2   -1    0    0    0  501  0.00000000000E+00  0.00000000000E+00 -0.55785697258E+03  0.55785697259E+03  0.25500000920E-02 0.  1.
    10030    2    1    2    0    0  0.00000000000E+00  0.00000000000E+00  0.10559299635E+04  0.21716439087E+04  0.18976430587E+04 0.  0.
        1    1    3    3  502    0  0.87905507443E+03 -0.35505513921E+03  0.48423312401E+03  0.10645579807E+04  0.50400001928E-02 0. -1.
       -1    1    3    3    0  502 -0.87905507443E+03  0.35505513921E+03  0.57169683953E+03  0.11070859281E+04  0.50400001928E-02 0.  1.
</event>
<event>
 5   0  0.1133638E-04  0.1898081E+04  0.7818609E-02  0.8655812E-01
        2   -1    0    0  501    0  0.00000000000E+00  0.00000000000E+00  0.93801522982E+03  0.93801522982E+03  0.25500000920E-02 0. -1.
       -2   -1    0    0    0  501  0.00000000000E+00  0.00000000000E+00 -0.96019515586E+03  0.96019515587E+03  0.25500000920E-02 0.  1.
    10030    2    1    2    0    0  0.00000000000E+00  0.00000000000E+00 -0.22179926045E+02  0.18982103857E+04  0.18980807989E+04 0.  0.
        3    1    3    3  502    0  0.46156219083E+03  0.28967085374E+03  0.76596296251E+03  0.94002560053E+03  0.10100000352E+00 0. -1.
       -3    1    3    3    0  502 -0.46156219083E+03 -0.28967085374E+03 -0.78814288856E+03  0.95818478515E+03  0.10100000352E+00 0.  1.
</event>
<event>
 5   0  0.5824956E-05  0.1886307E+04  0.7818609E-02  0.8661703E-01
        1   -1    0    0  501    0  0.00000000000E+00  0.00000000000E+00  0.82009417123E+03  0.82009417125E+03  0.50400001928E-02 0. -1.
       -1   -1    0    0    0  501  0.00000000000E+00  0.00000000000E+00 -0.10846780957E+04  0.10846780957E+04  0.50400001928E-02 0.  1.
    10030    2    1    2    0    0  0.00000000000E+00  0.00000000000E+00 -0.26458392442E+03  0.19047722669E+04  0.18863066388E+04 0.  0.
        2    1    3    3  502    0  0.13144581561E+03  0.62870562083E+03  0.56511317282E+03  0.85551251200E+03  0.25500000920E-02 0. -1.
       -2    1    3    3    0  502 -0.13144581561E+03 -0.62870562083E+03 -0.82969709723E+03  0.10492597549E+04  0.25500000920E-02 0.  1.
</event>
<event>
 5   0  0.1101678E-04  0.1896147E+04  0.7818609E-02  0.8656777E-01
       -2   -1    0    0    0  501  0.00000000000E+00  0.00000000000E+00  0.70387981536E+03  0.70387981537E+03  0.25500000920E-02 0.  1.
        2   -1    0    0  501    0  0.00000000000E+00  0.00000000000E+00 -0.12769835516E+04  0.12769835516E+04  0.25500000920E-02 0. -1.
    10030    2    1    2    0    0  0.00000000000E+00  0.00000000000E+00 -0.57310373620E+03  0.19808633669E+04  0.18961465624E+04 0.  0.
        4    1    3    3  502    0  0.46558761957E+03 -0.61291385746E+03 -0.86482275041E+03  0.11577371164E+04  0.12699999809E+01 0. -1.
       -4    1    3    3    0  502 -0.46558761957E+03  0.61291385746E+03  0.29171901421E+03  0.82312625053E+03  0.12699999809E+01 0.  1.
</event>
<event>
 5   0  0.5628936E-05  0.1844425E+04  0.7818609E-02  0.8683025E-01
        1   -1    0    0  501    0  0.00000000000E+00  0.00000000000E+00  0.71927961315E+03  0.71927961316E+03  0.50400001928E-02 0. -1.
       -1   -1    0    0    0  501  0.00000000000E+00  0.00000000000E+00 -0.11823990365E+04  0.11823990365E+04  0.50400001928E-02 0.  1.
    10030    2    1    2    0    0  0.00000000000E+00  0.00000000000E+00 -0.46311942337E+03  0.19016786497E+04  0.18444245949E+04 0.  0.
        5    1    3    3  502    0  0.15847025172E+03 -0.45064223244E+03 -0.10448824837E+04  0.11489093685E+04  0.46999998093E+01 0.  1.
       -5    1    3    3    0  502 -0.15847025172E+03  0.45064223244E+03  0.58176306032E+03  0.75276928118E+03  0.46999998093E+01 0. -1.
</event>
<event>
 5   0  0.5824956E-05  0.1872872E+04  0.7818609E-02  0.8668479E-01
       -1   -1    0    0    0  501  0.00000000000E+00  0.00000000000E+00  0.85180394604E+03  0.85180394605E+03  0.50400001928E-02 0. -1.
        1   -1    0    0  501    0  0.00000000000E+00  0.00000000000E+00 -0.10294768760E+04  0.10294768760E+04  0.50400001928E-02 0.  1.
    10030    2    1    2    0    0  0.00000000000E+00  0.00000000000E+00 -0.17767292992E+03  0.18812808220E+04  0.18728720889E+04 0.  0.
        2    1    3    3  502    0 -0.50612465664E+03 -0.58337468546E+03  0.44309209965E+03  0.89040372892E+03  0.25500000920E-02 0. -1.
       -2    1    3    3    0  502  0.50612465664E+03  0.58337468546E+03 -0.62076502957E+03  0.99087709310E+03  0.25500000920E-02 0.  1.
</event>
<event>
 5   0  0.5824956E-05  0.1900034E+04  0.7818609E-02  0.8654840E-01
       -1   -1    0    0    0  501  0.00000000000E+00  0.00000000000E+00  0.10069869483E+04  0.10069869483E+04  0.50400001928E-02 0.  1.
        1   -1    0    0  501    0  0.00000000000E+00  0.00000000000E+00 -0.89626993822E+03  0.89626993823E+03  0.50400001928E-02 0. -1.
    10030    2    1    2    0    0  0.00000000000E+00  0.00000000000E+00  0.11071701012E+03  0.19032568866E+04  0.19000338208E+04 0.  0.
        2    1    3    3  502    0 -0.56897681869E+03 -0.38103129794E+03  0.71496823768E+03  0.98999952076E+03  0.25500000920E-02 0.  1.
       -2    1    3    3    0  502  0.56897681869E+03  0.38103129794E+03 -0.60425122756E+03  0.91325736582E+03  0.25500000920E-02 0. -1.
</event>
<event>
 5   0  0.5579109E-05  0.1908146E+04  0.7818609E-02  0.8650812E-01
        1   -1    0    0  501    0  0.00000000000E+00  0.00000000000E+00  0.90560888108E+03  0.90560888109E+03  0.50400001928E-02 0. -1.
       -1   -1    0    0    0  501  0.00000000000E+00  0.00000000000E+00 -0.10051305357E+04  0.10051305357E+04  0.50400001928E-02 0.  1.
    10030    2    1    2    0    0  0.00000000000E+00  0.00000000000E+00 -0.99521654658E+02  0.19107394168E+04  0.19081458433E+04 0.  0.
        3    1    3    3  502    0 -0.11063204566E+03 -0.66436722618E+03 -0.72642472540E+03  0.99061402808E+03  0.10100000352E+00 0.  1.
       -3    1    3    3    0  502  0.11063204566E+03  0.66436722618E+03  0.62690307074E+03  0.92012538877E+03  0.10100000352E+00 0. -1.
</event>
<event>
 5   0  0.5628936E-05  0.1902409E+04  0.7818609E-02  0.8653658E-01
       -1   -1    0    0    0  501  0.00000000000E+00  0.00000000000E+00  0.99224181750E+03  0.99224181752E+03  0.50400001928E-02 0. -1.
        1   -1    0    0  501    0  0.00000000000E+00  0.00000000000E+00 -0.91186463755E+03  0.91186463756E+03  0.50400001928E-02 0.  1.
    10030    2    1    2    0    0  0.00000000000E+00  0.00000000000E+00  0.80377179954E+02  0.19041064551E+04  0.19024092360E+04 0.  0.
        5    1    3    3  502    0  0.51120611828E+02 -0.60239687788E+03  0.77519570892E+03  0.98307974883E+03  0.46999998093E+01 0. -1.
       -5    1    3    3    0  502 -0.51120611828E+02  0.60239687788E+03 -0.69481852897E+03  0.92102670625E+03  0.46999998093E+01 0.  1.
</event>
<event>
 5   0  0.1182630E-04  0.1893615E+04  0.7818609E-02  0.8658041E-01
        2   -1    0    0  501    0  0.00000000000E+00  0.00000000000E+00  0.14304244397E+04  0.14304244397E+04  0.25500000920E-02 0.  1.
       -2   -1    0    0    0  501  0.00000000000E+00  0.00000000000E+00 -0.62669827553E+03  0.62669827553E+03  0.25500000920E-02 0. -1.
    10030    2    1    2    0    0  0.00000000000E+00  0.00000000000E+00  0.80372616422E+03  0.20571227153E+04  0.18936150925E+04 0.  0.
        5    1    3    3  502    0 -0.55133612317E+03  0.72306910329E+03  0.11521983672E+03  0.91656868243E+03  0.46999998093E+01 0.  1.
       -5    1    3    3    0  502  0.55133612317E+03 -0.72306910329E+03  0.68850632750E+03  0.11405540328E+04  0.46999998093E+01 0. -1.
</event>
<event>
 5   0  0.5579109E-05  0.1903800E+04  0.7818609E-02  0.8652967E-01
       -1   -1    0    0    0  501  0.00000000000E+00  0.00000000000E+00  0.12064607997E+04  0.12064607997E+04  0.50400001928E-02 0.  1.
        1   -1    0    0  501    0  0.00000000000E+00  0.00000000000E+00 -0.75105096356E+03  0.75105096358E+03  0.50400001928E-02 0. -1.
    10030    2    1    2    0    0  0.00000000000E+00  0.00000000000E+00  0.45540983613E+03  0.19575117633E+04  0.19037999329E+04 0.  0.
        3    1    3    3  502    0 -0.67483209429E+03  0.85884405801E+02  0.91232725748E+03  0.11380314238E+04  0.10100000352E+00 0.  1.
       -3    1    3    3    0  502  0.67483209429E+03 -0.85884405801E+02 -0.45691742135E+03  0.81948033947E+03  0.10100000352E+00 0. -1.
</event>
<event>
 5   0  0.5628936E-05  0.1899616E+04  0.7818609E-02  0.8655047E-01
       -1   -1    0    0    0  501  0.00000000000E+00  0.00000000000E+00  0.12502936449E+04  0.12502936449E+04  0.50400001928E-02 0. -1.
        1   -1    0    0  501    0  0.00000000000E+00  0.00000000000E+00 -0.72153875675E+03  0.72153875677E+03  0.50400001928E-02 0.  1.
    10030    2    1    2    0    0  0.00000000000E+00  0.00000000000E+00  0.52875488814E+03  0.19718324017E+04  0.18996160898E+04 0.  0.
        5    1    3    3  502    0  0.43052916542E+03 -0.71651389309E+03  0.73248216806E+03  0.11114403888E+04  0.46999998093E+01 0.  1.
       -5    1    3    3    0  502 -0.43052916542E+03  0.71651389309E+03 -0.20372727992E+03  0.86039201289E+03  0.46999998093E+01 0. -1.
</event>
<event>
 5   0  0.5614989E-05  0.1897081E+04  0.7818609E-02  0.8656311E-01
        1   -1    0    0  501    0  0.00000000000E+00  0.00000000000E+00  0.15401335803E+04  0.15401335804E+04  0.50400001928E-02 0. -1.
       -1   -1    0    0    0  501  0.00000000000E+00  0.00000000000E+00 -0.58418888199E+03  0.58418888201E+03  0.50400001928E-02 0.  1.
    10030    2    1    2    0    0  0.00000000000E+00  0.00000000000E+00  0.95594469835E+03  0.21243224624E+04  0.18970808253E+04 0.  0.
        4    1    3    3  502    0  0.29155930383E+03 -0.75062439416E+03 -0.83355496741E+02  0.80956380878E+03  0.12699999809E+01 0.  1.
       -4    1    3    3    0  502 -0.29155930383E+03  0.75062439416E+03  0.10393001951E+04  0.13147586536E+04  0.12699999809E+01 0. -1.
</event>
<event>
 5   0  0.5824956E-05  0.1862411E+04  0.7818609E-02  0.8673796E-01
       -1   -1    0    0    0  501  0.00000000000E+00  0.00000000000E+00  0.87838997237E+03  0.87838997238E+03  0.50400001928E-02 0. -1.
        1   -1    0    0  501    0  0.00000000000E+00  0.00000000000E+00 -0.98719651630E+03  0.98719651632E+03  0.50400001928E-02 0.  1.
    10030    2    1    2    0    0  0.00000000000E+00  0.00000000000E+00 -0.10880654393E+03  0.18655864887E+04  0.18624108255E+04 0.  0.
        2    1    3    3  502    0  0.27531381806E+03  0.76426901488E+03  0.40160773440E+03  0.90619732832E+03  0.25500000920E-02 0. -1.
       -2    1    3    3    0  502 -0.27531381806E+03 -0.76426901488E+03 -0.51041427834E+03  0.95938916038E+03  0.25500000920E-02 0.  1.
</event>
<event>
 5   0  0.1141890E-04  0.1899658E+04  0.7818609E-02  0.8655026E-01
        2   -1    0    0  501    0  0.00000000000E+00  0.00000000000E+00  0.78883320745E+03  0.78883320746E+03  0.25500000920E-02 0. -1.
       -2   -1    0    0    0  501  0.00000000000E+00  0.00000000000E+00 -0.11436833853E+04  0.11436833853E+04  0.25500000920E-02 0.  1.
    10030    2    1    2    0    0  0.00000000000E+00  0.00000000000E+00 -0.35485017780E+03  0.19325165927E+04  0.18996583199E+04 0.  0.
        2    1    3    3  502    0 -0.41400503330E+03  0.22695545764E+03 -0.10158570614E+04  0.11202118177E+04  0.25500000920E-02 0.  1.
       -2    1    3    3    0  502  0.41400503330E+03 -0.22695545764E+03  0.66100688359E+03  0.81230477501E+03  0.25500000920E-02 0. -1.
</event>
<event>
 5   0  0.1133638E-04  0.1893210E+04  0.7818609E-02  0.8658243E-01
        2   -1    0    0  501    0  0.00000000000E+00  0.00000000000E+00  0.11620244575E+04  0.11620244575E+04  0.25500000920E-02 0.  1.
       -2   -1    0    0    0  501  0.00000000000E+00  0.00000000000E+00 -0.77112078464E+03  0.77112078464E+03  0.25500000920E-02 0. -1.
    10030    2    1    2    0    0  0.00000000000E+00  0.00000000000E+00  0.39090367285E+03  0.19331452421E+04  0.18932101959E+04 0.  0.
        3    1    3    3  502    0 -0.45298522067E+03 -0.25885933394E+03  0.10019591840E+04  0.11296574620E+04  0.10100000352E+00 0.  1.
       -3    1    3    3    0  502  0.45298522067E+03  0.25885933394E+03 -0.61105551113E+03  0.80348778012E+03  0.10100000352E+00 0. -1.
</event>
<event>
 5   0  0.1101678E-04  0.1898009E+04  0.7818609E-02  0.8655848E-01
        2   -1    0    0  501    0  0.00000000000E+00  0.00000000000E+00  0.69165248591E+03  0.69165248591E+03  0.25500000920E-02 0.  1.
       -2   -1    0    0    0  501  0.00000000000E+00  0.00000000000E+00 -0.13021130013E+04  0.13021130013E+04  0.25500000920E-02 0. -1.
    10030    2    1    2    0    0  0.00000000000E+00  0.00000000000E+00 -0.61046051538E+03  0.19937654872E+04  0.18980091615E+04 0.  0.
        4    1    3    3  502    0 -0.79519225908E+03 -0.51667607630E+03 -0.34344104605E+03  0.10085823029E+04  0.12699999809E+01 0.  1.
       -4    1    3    3    0  502  0.79519225908E+03  0.51667607630E+03 -0.26701946933E+03  0.98518318430E+03  0.12699999809E+01 0. -1.
</event>
<event>
 5   0  0.5628936E-05  0.1899562E+04  0.7818609E-02  0.8655074E-01
        1   -1    0    0  501    0  0.00000000000E+00  0.00000000000E+00  0.17217083065E+04  0.17217083065E+04  0.50400001928E-02 0.  1.
       -1   -1    0    0    0  501  0.00000000000E+00  0.00000000000E+00 -0.52394710714E+03  0.52394710716E+03  0.50400001928E-02 0. -1.
    10030    2    1    2    0    0  0.00000000000E+00  0.00000000000E+00  0.11977611994E+04  0.22456554137E+04  0.18995621459E+04 0.  0.
        5    1    3    3  502    0 -0.66088447083E+02 -0.75021840065E+03 -0.85228816907E+02  0.75794549458E+03  0.46999998093E+01 0. -1.
       -5    1    3    3    0  502  0.66088447083E+02  0.75021840065E+03  0.12829900163E+04  0.14877099191E+04  0.46999998093E+01 0.  1.
</event>
<event>
 5   0  0.1118206E-04  0.1904275E+04  0.7818609E-02  0.8652731E-01
        2   -1    0    0  501    0  0.00000000000E+00  0.00000000000E+00  0.26768481584E+04  0.26768481584E+04  0.25500000920E-02 0. -1.
       -2   -1    0    0    0  501  0.00000000000E+00  0.00000000000E+00 -0.33866923906E+03  0.33866923907E+03  0.25500000920E-02 0.  1.
    10030    2    1    2    0    0  0.00000000000E+00  0.00000000000E+00  0.23381789193E+04  0.30155173975E+04  0.19042753256E+04 0.  0.
        1    1    3    3  502    0  0.10750916878E+02 -0.11154226159E+03  0.26663694209E+04  0.26687231304E+04  0.50400001928E-02 0. -1.
       -1    1    3    3    0  502 -0.10750916878E+02  0.11154226159E+03 -0.32819050153E+03  0.34679426705E+03  0.50400001928E-02 0.  1.
</event>
<event>
 5   0  0.1182630E-04  0.1896478E+04  0.7818609E-02  0.8656611E-01
        2   -1    0    0  501    0  0.00000000000E+00  0.00000000000E+00  0.14157076048E+04  0.14157076048E+04  0.25500000920E-02 0.  1.
       -2   -1    0    0    0  501  0.00000000000E+00  0.00000000000E+00 -0.63512944708E+03  0.63512944709E+03  0.25500000920E-02 0. -1.
    10030    2    1    2    0    0  0.00000000000E+00  0.00000000000E+00  0.78057815772E+03  0.20508370519E+04  0.18964784083E+04 0.  0.
        5    1    3    3  502    0 -0.59250787675E+03  0.36635036203E+02 -0.40930363249E+03  0.72108200883E+03  0.46999998093E+01 0. -1.
       -5    1    3    3    0  502  0.59250787675E+03 -0.36635036203E+02  0.11898817902E+04  0.13297550431E+04  0.46999998093E+01 0.  1.
</event>
<event>
 5   0  0.5614989E-05  0.1898492E+04  0.7818609E-02  0.8655608E-01
       -1   -1    0    0    0  501  0.00000000000E+00  0.00000000000E+00  0.84463016210E+03  0.84463016211E+03  0.50400001928E-02 0. -1.
        1   -1    0    0  501    0  0.00000000000E+00  0.00000000000E+00 -0.10668191530E+04  0.10668191530E+04  0.50400001928E-02 0.  1.
    10030    2    1    2    0    0  0.00000000000E+00  0.00000000000E+00 -0.22218899088E+03  0.19114493151E+04  0.18984916477E+04 0.  0.
        4    1    3    3  502    0  0.56016038370E+03  0.28990077729E+03  0.60314417080E+03  0.87270076189E+03  0.12699999809E+01 0. -1.
       -4    1    3    3    0  502 -0.56016038370E+03 -0.28990077729E+03 -0.82533316167E+03  0.10387485532E+04  0.12699999809E+01 0.  1.
</event>
<event>
 5   0  0.5824956E-05  0.1893965E+04  0.7818609E-02  0.8657866E-01
       -1   -1    0    0    0  501  0.00000000000E+00  0.00000000000E+00  0.18383051084E+04  0.18383051084E+04  0.50400001928E-02 0. -1.
        1   -1    0    0  501    0  0.00000000000E+00  0.00000000000E+00 -0.48782765985E+03  0.48782765988E+03  0.50400001928E-02 0.  1.
    10030    2    1    2    0    0  0.00000000000E+00  0.00000000000E+00  0.13504774485E+04  0.23261327683E+04  0.18939652364E+04 0.  0.
        2    1    3    3  502    0 -0.14671883091E+03  0.91641687053E+03  0.44406059582E+03  0.10288518400E+04  0.25500000920E-02 0.  1.
       -2    1    3    3    0  502  0.14671883091E+03 -0.91641687053E+03  0.90641685270E+03  0.12972809282E+04  0.25500000920E-02 0. -1.
</event>
<event>
 5   0  0.5824956E-05  0.1899214E+04  0.7818609E-02  0.8655248E-01
       -1   -1    0    0    0  501  0.00000000000E+00  0.00000000000E+00  0.11908321950E+04  0.11908321951E+04  0.50400001928E-02 0.  1.
        1   -1    0    0  501    0  0.00000000000E+00  0.00000000000E+00 -0.75724607003E+03  0.75724607005E+03  0.50400001928E-02 0. -1.
    10030    2    1    2    0    0  0.00000000000E+00  0.00000000000E+00  0.43358612501E+03  0.19480782651E+04  0.18992135212E+04 0.  0.
        2    1    3    3  502    0 -0.53706678348E+02 -0.88274851543E+03  0.57155836218E+03  0.10529996724E+04  0.25500000920E-02 0.  1.
       -2    1    3    3    0  502  0.53706678348E+02  0.88274851543E+03 -0.13797223717E+03  0.89507859265E+03  0.25500000920E-02 0. -1.
</event>
<event>
 5   0  0.5628936E-05  0.1890850E+04  0.7818609E-02  0.8659425E-01
        1   -1    0    0  501    0  0.00000000000E+00  0.00000000000E+00  0.12979599257E+04  0.12979599257E+04  0.50400001928E-02 0.  1.
       -1   -1    0    0    0  501  0.00000000000E+00  0.00000000000E+00 -0.68864068535E+03  0.68864068537E+03  0.50400001928E-02 0. -1.
    10030    2    1    2    0    0  0.00000000000E+00  0.00000000000E+00  0.60931924037E+03  0.19866006111E+04  0.18908495581E+04 0.  0.
        5    1    3    3  502    0 -0.67356653796E+03  0.11891915420E+03  0.99037557709E+03  0.12036193418E+04  0.46999998093E+01 0.  1.
       -5    1    3    3    0  502  0.67356653796E+03 -0.11891915420E+03 -0.38105633672E+03  0.78298126929E+03  0.46999998093E+01 0. -1.
</event>
<event>
 5   0  0.5824956E-05  0.1912829E+04  0.7818609E-02  0.8648497E-01
       -1   -1    0    0    0  501  0.00000000000E+00  0.00000000000E+00  0.12488188863E+04  0.12488188863E+04  0.50400001928E-02 0.  1.
        1   -1    0    0  501    0  0.00000000000E+00  0.00000000000E+00 -0.73247502440E+03  0.73247502442E+03  0.50400001928E-02 0. -1.
    10030    2    1    2    0    0  0.00000000000E+00  0.00000000000E+00  0.51634386187E+03  0.19812939107E+04  0.19128289461E+04 0.  0.
        2    1    3    3  502    0 -0.31224144298E+03  0.13731281818E+03 -0.66733005193E+03  0.74945241808E+03  0.25500000920E-02 0. -1.
       -2    1    3    3    0  502  0.31224144298E+03 -0.13731281818E+03  0.11836739138E+04  0.12318414926E+04  0.25500000920E-02 0.  1.
</event>
<event>
 5   0  0.1141890E-04  0.1904143E+04  0.7818609E-02  0.8652797E-01
       -2   -1    0    0    0  501  0.00000000000E+00  0.00000000000E+00  0.37296934557E+03  0.37296934557E+03  0.25500000920E-02 0.  1.
        2   -1    0    0  501    0  0.00000000000E+00  0.00000000000E+00 -0.24303350325E+04  0.24303350325E+04  0.25500000920E-02 0. -1.
    10030    2    1    2    0    0  0.00000000000E+00  0.00000000000E+00 -0.20573656869E+04  0.28033043781E+04  0.19041433419E+04 0.  0.
        2    1    3    3  502    0  0.47550918919E+03 -0.74718851418E+03 -0.15429906816E+04  0.17791064915E+04  0.25500000920E-02 0. -1.
       -2    1    3    3    0  502 -0.47550918919E+03  0.74718851418E+03 -0.51437500539E+03  0.10241978866E+04  0.25500000920E-02 0.  1.
</event>
<event>
 5   0  0.1141890E-04  0.1911620E+04  0.7818609E-02  0.8649094E-01
       -2   -1    0    0    0  501  0.00000000000E+00  0.00000000000E+00  0.94842203101E+03  0.94842203101E+03  0.25500000920E-02 0.  1.
        2   -1    0    0  501    0  0.00000000000E+00  0.00000000000E+00 -0.96325555021E+03  0.96325555021E+03  0.25500000920E-02 0. -1.
    10030    2    1    2    0    0  0.00000000000E+00  0.00000000000E+00 -0.14833519199E+02  0.19116775812E+04  0.19116200306E+04 0.  0.
        2    1    3    3  502    0 -0.34120017359E+03 -0.40056889945E+03  0.79054196165E+03  0.94964708960E+03  0.25500000920E-02 0.  1.
       -2    1    3    3    0  502  0.34120017359E+03  0.40056889945E+03 -0.80537548085E+03  0.96203049162E+03  0.25500000920E-02 0. -1.
</event>
<event>
 5   0  0.1133638E-04  0.1864707E+04  0.7818609E-02  0.8672626E-01
        2   -1    0    0  501    0  0.00000000000E+00  0.00000000000E+00  0.16463467530E+04  0.16463467530E+04  0.25500000920E-02 0. -1.
       -2   -1    0    0    0  501  0.00000000000E+00  0.00000000000E+00 -0.52800737709E+03  0.52800737709E+03  0.25500000920E-02 0.  1.
    10030    2    1    2    0    0  0.00000000000E+00  0.00000000000E+00  0.11183393759E+04  0.21743541301E+04  0.18647071951E+04 0.  0.
        3    1    3    3  502    0  0.90451357742E+03 -0.17869136189E+03  0.72077607166E+03  0.11702963600E+04  0.10100000352E+00 0.  1.
       -3    1    3    3    0  502 -0.90451357742E+03  0.17869136189E+03  0.39756330422E+03  0.10040577701E+04  0.10100000352E+00 0. -1.
</event>
<event>
 5   0  0.5841424E-05  0.1909647E+04  0.7818609E-02  0.8650069E-01
       -1   -1    0    0    0  501  0.00000000000E+00  0.00000000000E+00  0.56612908740E+03  0.56612908742E+03  0.50400001928E-02 0.  1.
        1   -1    0    0  501    0  0.00000000000E+00  0.00000000000E+00 -0.16103887535E+04  0.16103887535E+04  0.50400001928E-02 0. -1.
    10030    2    1    2    0    0  0.00000000000E+00  0.00000000000E+00 -0.10442596661E+04  0.21765178410E+04  0.19096469992E+04 0.  0.
        1    1    3    3  502    0  0.16963730185E+03 -0.46385429080E+03  0.40922716464E+03  0.64140820823E+03  0.50400001928E-02 0.  1.
       -1    1    3    3    0  502 -0.16963730185E+03  0.46385429080E+03 -0.14534868308E+04  0.15351096327E+04  0.50400001928E-02 0. -1.
</event>
<event>
 5   0  0.5824956E-05  0.1893173E+04  0.7818609E-02  0.8658262E-01
       -1   -1    0    0    0  501  0.00000000000E+00  0.00000000000E+00  0.12389154950E+04  0.12389154950E+04  0.50400001928E-02 0. -1.
        1   -1    0    0  501    0  0.00000000000E+00  0.00000000000E+00 -0.72323383987E+03  0.72323383988E+03  0.50400001928E-02 0.  1.
    10030    2    1    2    0    0  0.00000000000E+00  0.00000000000E+00  0.51568165509E+03  0.19621493349E+04  0.18931725867E+04 0.  0.
        2    1    3    3  502    0  0.22566925529E+03 -0.81999489719E+03 -0.17288139707E+03  0.86787454258E+03  0.25500000920E-02 0.  1.
       -2    1    3    3    0  502 -0.22566925529E+03  0.81999489719E+03  0.68856305216E+03  0.10942747923E+04  0.25500000920E-02 0. -1.
</event>
<event>
 5   0  0.5824956E-05  0.1893844E+04  0.7818609E-02  0.8657927E-01
       -1   -1    0    0    0  501  0.00000000000E+00  0.00000000000E+00  0.16395583808E+04  0.16395583808E+04  0.50400001928E-02 0.  1.
        1   -1    0    0  501    0  0.00000000000E+00  0.00000000000E+00 -0.54689212210E+03  0.54689212212E+03  0.50400001928E-02 0. -1.
    10030    2    1    2    0    0  0.00000000000E+00  0.00000000000E+00  0.10926662587E+04  0.21864505029E+04  0.18938443043E+04 0.  0.
        2    1    3    3  502    0  0.44744308120E+03  0.10777071427E+03  0.15017446726E+04  0.15706867605E+04  0.25500000920E-02 0.  1.
       -2    1    3    3    0  502 -0.44744308120E+03 -0.10777071427E+03 -0.40907841393E+03  0.61576374245E+03  0.25500000920E-02 0. -1.
</event>
<event>
 5   0  0.1133638E-04  0.1900122E+04  0.7818609E-02  0.8654796E-01
       -2   -1    0    0    0  501  0.00000000000E+00  0.00000000000E+00  0.39416526350E+03  0.39416526351E+03  0.25500000920E-02 0.  1.
        2   -1    0    0  501    0  0.00000000000E+00  0.00000000000E+00 -0.22899416685E+04  0.22899416685E+04  0.25500000920E-02 0. -1.
    10030    2    1    2    0    0  0.00000000000E+00  0.00000000000E+00 -0.18957764050E+04  0.26841069320E+04  0.19001215342E+04 0.  0.
        3    1    3    3  502    0 -0.27259366866E+03  0.77236884873E+03 -0.16279251757E+04  0.18223614720E+04  0.10100000352E+00 0. -1.
       -3    1    3    3    0  502  0.27259366866E+03 -0.77236884873E+03 -0.26785122932E+03  0.86174546006E+03  0.10100000352E+00 0.  1.
</event>
<event>
 5   0  0.1141890E-04  0.1883708E+04  0.7818609E-02  0.8663009E-01
       -2   -1    0    0    0  501  0.00000000000E+00  0.00000000000E+00  0.14456668338E+04  0.14456668338E+04  0.25500000920E-02 0.  1.
        2   -1    0    0  501    0  0.00000000000E+00  0.00000000000E+00 -0.61361906923E+03  0.61361906923E+03  0.25500000920E-02 0. -1.
    10030    2    1    2    0    0  0.00000000000E+00  0.00000000000E+00  0.83204776452E+03  0.20592859030E+04  0.18837077660E+04 0.  0.
        2    1    3    3  502    0 -0.92109320592E+03 -0.40697909741E-01  0.20103097827E+03  0.94277576861E+03  0.25500000920E-02 0. -1.
       -2    1    3    3    0  502  0.92109320592E+03  0.40697909741E-01  0.63101678625E+03  0.11165101344E+04  0.25500000920E-02 0.  1.
</event>
<event>
 5   0  0.1141890E-04  0.1786555E+04  0.7818609E-02  0.8713482E-01
        2   -1    0    0  501    0  0.00000000000E+00  0.00000000000E+00  0.15206696568E+04  0.15206696568E+04  0.25500000920E-02 0.  1.
       -2   -1    0    0    0  501  0.00000000000E+00  0.00000000000E+00 -0.52473219567E+03  0.52473219567E+03  0.25500000920E-02 0. -1.
    10030    2    1    2    0    0  0.00000000000E+00  0.00000000000E+00  0.99593746114E+03  0.20454018525E+04  0.17865545924E+04 0.  0.
        2    1    3    3  502    0 -0.52398155206E+03  0.64817948042E+02 -0.32697430999E+03  0.62102353634E+03  0.25500000920E-02 0. -1.
       -2    1    3    3    0  502  0.52398155206E+03 -0.64817948042E+02  0.13229117711E+04  0.14243783161E+04  0.25500000920E-02 0.  1.
</event>
<event>
 5   0  0.5614989E-05  0.1858736E+04  0.7818609E-02  0.8675673E-01
       -1   -1    0    0    0  501  0.00000000000E+00  0.00000000000E+00  0.34285982357E+03  0.34285982361E+03  0.50400001928E-02 0.  1.
        1   -1    0    0  501    0  0.00000000000E+00  0.00000000000E+00 -0.25191776399E+04  0.25191776399E+04  0.50400001928E-02 0. -1.
    10030    2    1    2    0    0  0.00000000000E+00  0.00000000000E+00 -0.21763178164E+04  0.28620374635E+04  0.18587359159E+04 0.  0.
        4    1    3    3  502    0  0.21104524936E+03 -0.59138065420E+03 -0.33157045796E+02  0.62878627373E+03  0.12699999809E+01 0.  1.
       -4    1    3    3    0  502 -0.21104524936E+03  0.59138065420E+03 -0.21431607706E+04  0.22332511898E+04  0.12699999809E+01 0. -1.
</event>
<event>
 5   0  0.4061125E-05  0.1896853E+04  0.7818609E-02  0.8656425E-01
       -3   -1    0    0    0  501  0.00000000000E+00  0.00000000000E+00  0.94345973351E+03  0.94345973891E+03  0.10100000352E+00 0. -1.
        3   -1    0    0  501    0  0.00000000000E+00  0.00000000000E+00 -0.95341899485E+03  0.95341900020E+03  0.10100000352E+00 0.  1.
    10030    2    1    2    0    0  0.00000000000E+00  0.00000000000E+00 -0.99592613447E+01  0.18968787391E+04  0.18968525942E+04 0.  0.
        5    1    3    3  502    0  0.10261891092E+03 -0.88937063481E+03  0.30804159074E+03  0.94679590122E+03  0.46999998093E+01 0. -1.
       -5    1    3    3    0  502 -0.10261891092E+03  0.88937063481E+03 -0.31800085208E+03  0.95008283790E+03  0.46999998093E+01 0.  1.
</event>
<event>
 5   0  0.1118206E-04  0.1888007E+04  0.7818609E-02  0.8660849E-01
       -2   -1    0    0    0  501  0.00000000000E+00  0.00000000000E+00  0.92639404255E+03  0.92639404255E+03  0.25500000920E-02 0. -1.
        2   -1    0    0  501    0  0.00000000000E+00  0.00000000000E+00 -0.96194778692E+03  0.96194778693E+03  0.25500000920E-02 0.  1.
    10030    2    1    2    0    0  0.00000000000E+00  0.00000000000E+00 -0.35553744373E+02  0.18883418295E+04  0.18880070964E+04 0.  0.
        1    1    3    3  502    0 -0.87830243092E+03  0.12547968887E+02 -0.36362725793E+03  0.95068259394E+03  0.50400001928E-02 0.  1.
       -1    1    3    3    0  502  0.87830243092E+03 -0.12547968887E+02  0.32807351355E+03  0.93765923554E+03  0.50400001928E-02 0. -1.
</event>
<event>
 5   0  0.1133638E-04  0.1901972E+04  0.7818609E-02  0.8653875E-01
        2   -1    0    0  501    0  0.00000000000E+00  0.00000000000E+00  0.13626995825E+04  0.13626995825E+04  0.25500000920E-02 0.  1.
       -2   -1    0    0    0  501  0.00000000000E+00  0.00000000000E+00 -0.66366398638E+03  0.66366398638E+03  0.25500000920E-02 0. -1.
    10030    2    1    2    0    0  0.00000000000E+00  0.00000000000E+00  0.69903559613E+03  0.20263635689E+04  0.19019722786E+04 0.  0.
        3    1    3    3  502    0  0.62139134832E+03 -0.64489864164E+02  0.11134100775E+04  0.12767020644E+04  0.10100000352E+00 0.  1.
       -3    1    3    3    0  502 -0.62139134832E+03  0.64489864164E+02 -0.41437448135E+03  0.74966150451E+03  0.10100000352E+00 0. -1.
</event>
<event>
 5   0  0.5824956E-05  0.1908331E+04  0.7818609E-02  0.8650721E-01
        1   -1    0    0  501    0  0.00000000000E+00  0.00000000000E+00  0.14518108663E+04  0.14518108663E+04  0.50400001928E-02 0.  1.
       -1   -1    0    0    0  501  0.00000000000E+00  0.00000000000E+00 -0.62710078311E+03  0.62710078313E+03  0.50400001928E-02 0. -1.
    10030    2    1    2    0    0  0.00000000000E+00  0.00000000000E+00  0.82471008317E+03  0.20789116494E+04  0.19083309264E+04 0.  0.
        2    1    3    3  502    0 -0.37483794003E+03 -0.57863257836E+03  0.11309483502E+04  0.13245238061E+04  0.25500000920E-02 0.  1.
       -2    1    3    3    0  502  0.37483794003E+03  0.57863257836E+03 -0.30623826701E+03  0.75438784337E+03  0.25500000920E-02 0. -1.
</event>
<event>
 5   0  0.1133638E-04  0.1906241E+04  0.7818609E-02  0.8651756E-01
       -2   -1    0    0    0  501  0.00000000000E+00  0.00000000000E+00  0.41181131001E+03  0.41181131002E+03  0.25500000920E-02 0.  1.
        2   -1    0    0  501    0  0.00000000000E+00  0.00000000000E+00 -0.22059590300E+04  0.22059590300E+04  0.25500000920E-02 0. -1.
    10030    2    1    2    0    0  0.00000000000E+00  0.00000000000E+00 -0.17941477200E+04  0.26177703400E+04  0.19062411998E+04 0.  0.
        3    1    3    3  502    0 -0.78575518621E+03  0.14315492258E+03 -0.18279980154E+03  0.81934139537E+03  0.10100000352E+00 0.  1.
       -3    1    3    3    0  502  0.78575518621E+03 -0.14315492258E+03 -0.16113479185E+04  0.17984289447E+04  0.10100000352E+00 0. -1.
</event>
<event>
 5   0  0.1141890E-04  0.1915208E+04  0.7818609E-02  0.8647323E-01
        2   -1    0    0  501    0  0.00000000000E+00  0.00000000000E+00  0.71875553407E+03  0.71875553407E+03  0.25500000920E-02 0.  1.
       -2   -1    0    0    0  501  0.00000000000E+00  0.00000000000E+00 -0.12758234605E+04  0.12758234605E+04  0.25500000920E-02 0. -1.
    10030    2    1    2    0    0  0.00000000000E+00  0.00000000000E+00 -0.55706792643E+03  0.19945789946E+04  0.19152077409E+04 0.  0.
        2    1    3    3  502    0 -0.59961129699E+03 -0.90751915947E+01  0.49899144665E+03  0.78013366189E+03  0.25500000920E-02 0.  1.
       -2    1    3    3    0  502  0.59961129699E+03  0.90751915947E+01 -0.10560593731E+04  0.12144453327E+04  0.25500000920E-02 0. -1.
</event>
<event>
 5   0  0.1133638E-04  0.1901549E+04  0.7818609E-02  0.8654086E-01
       -2   -1    0    0    0  501  0.00000000000E+00  0.00000000000E+00  0.30142454215E+03  0.30142454217E+03  0.25500000920E-02 0. -1.
        2   -1    0    0  501    0  0.00000000000E+00  0.00000000000E+00 -0.29989983972E+04  0.29989983972E+04  0.25500000920E-02 0.  1.
    10030    2    1    2    0    0  0.00000000000E+00  0.00000000000E+00 -0.26975738550E+04  0.33004229393E+04  0.19015485466E+04 0.  0.
        3    1    3    3  502    0  0.22012175335E+03  0.78215279619E+03 -0.22057045180E+04  0.23506060950E+04  0.10100000352E+00 0.  1.
       -3    1    3    3    0  502 -0.22012175335E+03 -0.78215279619E+03 -0.49186933700E+03  0.94981684433E+03  0.10100000352E+00 0. -1.
</event>
<event>
 5   0  0.5628936E-05  0.1874110E+04  0.7818609E-02  0.8667852E-01
        1   -1    0    0  501    0  0.00000000000E+00  0.00000000000E+00  0.17739157994E+04  0.17739157994E+04  0.50400001928E-02 0.  1.
       -1   -1    0    0    0  501  0.00000000000E+00  0.00000000000E+00 -0.49499068563E+03  0.49499068566E+03  0.50400001928E-02 0. -1.
    10030    2    1    2    0    0  0.00000000000E+00  0.00000000000E+00  0.12789251138E+04  0.22689064850E+04  0.18741097063E+04 0.  0.
        5    1    3    3  502    0 -0.36215534037E+03 -0.62178442601E+03 -0.87212181924E+02  0.72484509908E+03  0.46999998093E+01 0. -1.
       -5    1    3    3    0  502  0.36215534037E+03  0.62178442601E+03  0.13661372957E+04  0.15440613860E+04  0.46999998093E+01 0.  1.
</event>
<event>
 5   0  0.5628936E-05  0.1909125E+04  0.7818609E-02  0.8650327E-01
        1   -1    0    0  501    0  0.00000000000E+00  0.00000000000E+00  0.17377794648E+04  0.17377794648E+04  0.50400001928E-02 0.  1.
       -1   -1    0    0    0  501  0.00000000000E+00  0.00000000000E+00 -0.52434152047E+03  0.52434152049E+03  0.50400001928E-02 0. -1.
    10030    2    1    2    0    0  0.00000000000E+00  0.00000000000E+00  0.12134379444E+04  0.22621209853E+04  0.19091253776E+04 0.  0.
        5    1    3    3  502    0 -0.19862190812E+03 -0.15913053938E+02 -0.49941082324E+03  0.53771474597E+03  0.46999998093E+01 0. -1.
       -5    1    3    3    0  502  0.19862190812E+03  0.15913053938E+02  0.17128487676E+04  0.17244062393E+04  0.46999998093E+01 0.  1.
</event>
<event>
 5   0  0.1118206E-04  0.1921443E+04  0.7818609E-02  0.8644256E-01
       -2   -1    0    0    0  501  0.00000000000E+00  0.00000000000E+00  0.78650764402E+03  0.78650764402E+03  0.25500000920E-02 0. -1.
        2   -1    0    0  501    0  0.00000000000E+00  0.00000000000E+00 -0.11735247422E+04  0.11735247422E+04  0.25500000920E-02 0.  1.
    10030    2    1    2    0    0  0.00000000000E+00  0.00000000000E+00 -0.38701709816E+03  0.19600323862E+04  0.19214433951E+04 0.  0.
        1    1    3    3  502    0 -0.24347529133E+03  0.24626273666E+02 -0.11411980895E+04  0.11671417011E+04  0.50400001928E-02 0.  1.
       -1    1    3    3    0  502  0.24347529133E+03 -0.24626273666E+02  0.75418099135E+03  0.79289068514E+03  0.50400001928E-02 0. -1.
</event>
<event>
 5   0  0.5614989E-05  0.1853801E+04  0.7818609E-02  0.8678201E-01
       -1   -1    0    0    0  501  0.00000000000E+00  0.00000000000E+00  0.10979479312E+04  0.10979479312E+04  0.50400001928E-02 0. -1.
        1   -1    0    0  501    0  0.00000000000E+00  0.00000000000E+00 -0.78250019023E+03  0.78250019025E+03  0.50400001928E-02 0.  1.
    10030    2    1    2    0    0  0.00000000000E+00  0.00000000000E+00  0.31544774098E+03  0.18804481215E+04  0.18538009225E+04 0.  0.
        4    1    3    3  502    0  0.84339145933E+03  0.32705411544E+03  0.36279139262E+03  0.97462441769E+03  0.12699999809E+01 0. -1.
       -4    1    3    3    0  502 -0.84339145933E+03 -0.32705411544E+03 -0.47343651635E+02  0.90582370379E+03  0.12699999809E+01 0.  1.
</event>
<event>
 5   0  0.1141890E-04  0.1868252E+04  0.7818609E-02  0.8670823E-01
        2   -1    0    0  501    0  0.00000000000E+00  0.00000000000E+00  0.11731583803E+04  0.11731583803E+04  0.25500000920E-02 0. -1.
       -2   -1    0    0    0  501  0.00000000000E+00  0.00000000000E+00 -0.74379679179E+03  0.74379679179E+03  0.25500000920E-02 0.  1.
    10030    2    1    2    0    0  0.00000000000E+00  0.00000000000E+00  0.42936158849E+03  0.19169551721E+04  0.18682520596E+04 0.  0.
        2    1    3    3  502    0  0.61317750205E+03 -0.97238414619E+02 -0.50147516405E+03  0.79807223888E+03  0.25500000920E-02 0.  1.
       -2    1    3    3    0  502 -0.61317750205E+03  0.97238414619E+02  0.93083675254E+03  0.11188829332E+04  0.25500000920E-02 0. -1.
</event>
<event>
 5   0  0.5841424E-05  0.1917075E+04  0.7818609E-02  0.8646404E-01
        1   -1    0    0  501    0  0.00000000000E+00  0.00000000000E+00  0.84058404720E+03  0.84058404721E+03  0.50400001928E-02 0. -1.
       -1   -1    0    0    0  501  0.00000000000E+00  0.00000000000E+00 -0.10930421994E+04  0.10930421994E+04  0.50400001928E-02 0.  1.
    10030    2    1    2    0    0  0.00000000000E+00  0.00000000000E+00 -0.25245815218E+03  0.19336262466E+04  0.19170746837E+04 0.  0.
        1    1    3    3  502    0 -0.30460595040E+03 -0.86595861753E+03 -0.40451828372E+03  0.10031471249E+04  0.50400001928E-02 0.  1.
       -1    1    3    3    0  502  0.30460595040E+03  0.86595861753E+03  0.15206013154E+03  0.93047912170E+03  0.50400001928E-02 0. -1.
</event>
<event>
 5   0  0.1101678E-04  0.1893666E+04  0.7818609E-02  0.8658016E-01
        2   -1    0    0  501    0  0.00000000000E+00  0.00000000000E+00  0.67003752508E+03  0.67003752508E+03  0.25500000920E-02 0.  1.
       -2   -1    0    0    0  501  0.00000000000E+00  0.00000000000E+00 -0.13379742754E+04  0.13379742754E+04  0.25500000920E-02 0. -1.
    10030    2    1    2    0    0  0.00000000000E+00  0.00000000000E+00 -0.66793675035E+03  0.20080118005E+04  0.18936662558E+04 0.  0.
        4    1    3    3  502    0  0.59237744765E+03  0.17228090983E+02 -0.11169904453E+04  0.12644671270E+04  0.12699999809E+01 0. -1.
       -4    1    3    3    0  502 -0.59237744765E+03 -0.17228090983E+02  0.44905369494E+03  0.74354467347E+03  0.12699999809E+01 0.  1.
</event>
<event>
 5   0  0.5614989E-05  0.1902826E+04  0.7818609E-02  0.8653451E-01
       -1   -1    0    0    0  501  0.00000000000E+00  0.00000000000E+00  0.57260831362E+03  0.57260831364E+03  0.50400001928E-02 0.  1.
        1   -1    0    0  501    0  0.00000000000E+00  0.00000000000E+00 -0.15808131840E+04  0.15808131840E+04  0.50400001928E-02 0. -1.
    10030    2    1    2    0    0  0.00000000000E+00  0.00000000000E+00 -0.10082048704E+04  0.21534214977E+04  0.19028260787E+04 0.  0.
        4    1    3    3  502    0  0.50104271294E+03 -0.49261926036E+03  0.22183264382E+03  0.73683707197E+03  0.12699999809E+01 0.  1.
       -4    1    3    3    0  502 -0.50104271294E+03  0.49261926036E+03 -0.12300375142E+04  0.14165844257E+04  0.12699999809E+01 0. -1.
</event>
<event>
 5   0  0.4061125E-05  0.1899222E+04  0.7818609E-02  0.8655244E-01
       -4   -1    0    0    0  501  0.00000000000E+00  0.00000000000E+00  0.11517761312E+04  0.11517768313E+04  0.12699999809E+01 0.  1.
        4   -1    0    0  501    0  0.00000000000E+00  0.00000000000E+00 -0.78292952829E+03  0.78293055833E+03  0.12699999809E+01 0. -1.
    10030    2    1    2    0    0  0.00000000000E+00  0.00000000000E+00  0.36884660287E+03  0.19347073897E+04  0.18992221743E+04 0.  0.
        2    1    3    3  502    0 -0.65307135265E+03 -0.66993142318E+03  0.18747204476E+02  0.93576800603E+03  0.25500000920E-02 0. -1.
       -2    1    3    3    0  502  0.65307135265E+03  0.66993142318E+03  0.35009939840E+03  0.99893938364E+03  0.25500000920E-02 0.  1.
</event>
<event>
 5   0  0.5614989E-05  0.1906239E+04  0.7818609E-02  0.8651757E-01
        1   -1    0    0  501    0  0.00000000000E+00  0.00000000000E+00  0.22376931336E+04  0.22376931336E+04  0.50400001928E-02 0.  1.
       -1   -1    0    0    0  501  0.00000000000E+00  0.00000000000E+00 -0.40597040641E+03  0.40597040644E+03  0.50400001928E-02 0. -1.
    10030    2    1    2    0    0  0.00000000000E+00  0.00000000000E+00  0.18317227271E+04  0.26436635400E+04  0.19062394298E+04 0.  0.
        4    1    3    3  502    0 -0.16203709080E+03 -0.72245105442E+03  0.17482518945E+04  0.18985725807E+04  0.12699999809E+01 0.  1.
       -4    1    3    3    0  502  0.16203709080E+03  0.72245105442E+03  0.83470832683E+02  0.74509095930E+03  0.12699999809E+01 0. -1.
</event>
<event>
 5   0  0.5628936E-05  0.1895262E+04  0.7818609E-02  0.8657218E-01
       -1   -1    0    0    0  501  0.00000000000E+00  0.00000000000E+00  0.57620893464E+03  0.57620893466E+03  0.50400001928E-02 0.  1.
        1   -1    0    0  501    0  0.00000000000E+00  0.00000000000E+00 -0.15584705966E+04  0.15584705966E+04  0.50400001928E-02 0. -1.
    10030    2    1    2    0    0  0.00000000000E+00  0.00000000000E+00 -0.98226166198E+03  0.21346795313E+04  0.18952621794E+04 0.  0.
        5    1    3    3  502    0 -0.22410006053E+03  0.37484773717E+03  0.45608762819E+03  0.63148212784E+03  0.46999998093E+01 0.  1.
       -5    1    3    3    0  502  0.22410006053E+03 -0.37484773717E+03 -0.14383492902E+04  0.15031974034E+04  0.46999998093E+01 0. -1.
</event>
<event>
 5   0  0.1118206E-04  0.1910652E+04  0.7818609E-02  0.8649572E-01
        2   -1    0    0  501    0  0.00000000000E+00  0.00000000000E+00  0.23137644906E+04  0.23137644906E+04  0.25500000920E-02 0.  1.
       -2   -1    0    0    0  501  0.00000000000E+00  0.00000000000E+00 -0.39444293111E+03  0.39444293112E+03  0.25500000920E-02 0. -1.
    10030    2    1    2    0    0  0.00000000000E+00  0.00000000000E+00  0.19193215595E+04  0.27082074217E+04  0.19106522945E+04 0.  0.
        1    1    3    3  502    0  0.24673844713E+02 -0.55203910127E+03 -0.14492404459E+03  0.57127834430E+03  0.50400001928E-02 0. -1.
       -1    1    3    3    0  502 -0.24673844713E+02  0.55203910127E+03  0.20642456041E+04  0.21369290774E+04  0.50400001928E-02 0.  1.
</event>
<event>
 5   0  0.5628936E-05  0.1903008E+04  0.7818609E-02  0.8653360E-01
        1   -1    0    0  501    0  0.00000000000E+00  0.00000000000E+00  0.14374919217E+04  0.14374919217E+04  0.50400001928E-02 0.  1.
       -1   -1    0    0    0  501  0.00000000000E+00  0.00000000000E+00 -0.62981918127E+03  0.62981918129E+03  0.50400001928E-02 0. -1.
    10030    2    1    2    0    0  0.00000000000E+00  0.00000000000E+00  0.80767274044E+03  0.20673111030E+04  0.19030081295E+04 0.  0.
        5    1    3    3  502    0 -0.26276256644E+03 -0.24971640589E+03  0.13595275157E+04  0.14070321978E+04  0.46999998093E+01 0.  1.
       -5    1    3    3    0  502  0.26276256644E+03  0.24971640589E+03 -0.55185477526E+03  0.66027890521E+03  0.46999998093E+01 0. -1.
</event>
<event>
 5   0  0.1118206E-04  0.1893204E+04  0.7818609E-02  0.8658247E-01
        2   -1    0    0  501    0  0.00000000000E+00  0.00000000000E+00  0.95929995977E+03  0.95929995978E+03  0.25500000920E-02 0.  1.
       -2   -1    0    0    0  501  0.00000000000E+00  0.00000000000E+00 -0.93407165544E+03  0.93407165545E+03  0.25500000920E-02 0. -1.
    10030    2    1    2    0    0  0.00000000000E+00  0.00000000000E+00  0.25228304328E+02  0.18933716152E+04  0.18932035300E+04 0.  0.
        1    1    3    3  502    0  0.11338103281E+03 -0.20506707337E+03  0.92983631984E+03  0.95890737035E+03  0.50400001928E-02 0.  1.
       -1    1    3    3    0  502 -0.11338103281E+03  0.20506707337E+03 -0.90460801552E+03  0.93446424487E+03  0.50400001928E-02 0. -1.
</event>
<event>
 5   0  0.5579109E-05  0.1897780E+04  0.7818609E-02  0.8655962E-01
        1   -1    0    0  501    0  0.00000000000E+00  0.00000000000E+00  0.20062744577E+04  0.20062744577E+04  0.50400001928E-02 0. -1.
       -1   -1    0    0    0  501  0.00000000000E+00  0.00000000000E+00 -0.44878805417E+03  0.44878805419E+03  0.50400001928E-02 0.  1.
    10030    2    1    2    0    0  0.00000000000E+00  0.00000000000E+00  0.15574864035E+04  0.24550625119E+04  0.18977797660E+04 0.  0.
        3    1    3    3  502    0 -0.76081395110E+02  0.89128241406E+03  0.11882794817E+04  0.14873401955E+04  0.10100000352E+00 0. -1.
       -3    1    3    3    0  502  0.76081395110E+02 -0.89128241406E+03  0.36920692179E+03  0.96772231637E+03  0.10100000352E+00 0.  1.
</event>
<event>
 5   0  0.5628936E-05  0.1901066E+04  0.7818609E-02  0.8654326E-01
        1   -1    0    0  501    0  0.00000000000E+00  0.00000000000E+00  0.86422710564E+03  0.86422710566E+03  0.50400001928E-02 0.  1.
       -1   -1    0    0    0  501  0.00000000000E+00  0.00000000000E+00 -0.10454576706E+04  0.10454576706E+04  0.50400001928E-02 0. -1.
    10030    2    1    2    0    0  0.00000000000E+00  0.00000000000E+00 -0.18123056496E+03  0.19096847763E+04  0.19010658660E+04 0.  0.
        5    1    3    3  502    0 -0.45153320397E+03 -0.74998965102E+03 -0.46259678734E+03  0.99014372117E+03  0.46999998093E+01 0. -1.
       -5    1    3    3    0  502  0.45153320397E+03  0.74998965102E+03  0.28136622238E+03  0.91954105510E+03  0.46999998093E+01 0.  1.
</event>
<event>
 5   0  0.1101678E-04  0.1830226E+04  0.7818609E-02  0.8690389E-01
        2   -1    0    0  501    0  0.00000000000E+00  0.00000000000E+00  0.75142141355E+03  0.75142141356E+03  0.25500000920E-02 0.  1.
       -2   -1    0    0    0  501  0.00000000000E+00  0.00000000000E+00 -0.11144635724E+04  0.11144635724E+04  0.25500000920E-02 0. -1.
    10030    2    1    2    0    0  0.00000000000E+00  0.00000000000E+00 -0.36304215886E+03  0.18658849860E+04  0.18302259893E+04 0.  0.
        4    1    3    3  502    0 -0.73175243547E+03 -0.26539717649E+03  0.30903255788E+03  0.83749628228E+03  0.12699999809E+01 0.  1.
       -4    1    3    3    0  502  0.73175243547E+03  0.26539717649E+03 -0.67207471674E+03  0.10283887037E+04  0.12699999809E+01 0. -1.
</event>
<event>
 5   0  0.1141890E-04  0.1897069E+04  0.7818609E-02  0.8656317E-01
       -2   -1    0    0    0  501  0.00000000000E+00  0.00000000000E+00  0.70409270452E+03  0.70409270452E+03  0.25500000920E-02 0.  1.
        2   -1    0    0  501    0  0.00000000000E+00  0.00000000000E+00 -0.12778392708E+04  0.12778392708E+04  0.25500000920E-02 0. -1.
    10030    2    1    2    0    0  0.00000000000E+00  0.00000000000E+00 -0.57374656632E+03  0.19819319754E+04  0.18970685893E+04 0.  0.
        2    1    3    3  502    0 -0.59768876734E+03 -0.73622511991E+03 -0.26451455194E+03  0.98449339154E+03  0.25500000920E-02 0.  1.
       -2    1    3    3    0  502  0.59768876734E+03  0.73622511991E+03 -0.30923201438E+03  0.99743858383E+03  0.25500000920E-02 0. -1.
</event>
<event>
 5   0  0.5614989E-05  0.1901881E+04  0.7818609E-02  0.8653921E-01
        1   -1    0    0  501    0  0.00000000000E+00  0.00000000000E+00  0.17482526413E+04  0.17482526414E+04  0.50400001928E-02 0.  1.
       -1   -1    0    0    0  501  0.00000000000E+00  0.00000000000E+00 -0.51725252117E+03  0.51725252119E+03  0.50400001928E-02 0. -1.
    10030    2    1    2    0    0  0.00000000000E+00  0.00000000000E+00  0.12310001202E+04  0.22655051625E+04  0.19018812649E+04 0.  0.
        4    1    3    3  502    0  0.24008018328E+03 -0.39237405347E+03  0.16069054989E+04  0.16714493075E+04  0.12699999809E+01 0.  1.
       -4    1    3    3    0  502 -0.24008018328E+03  0.39237405347E+03 -0.37590537873E+03  0.59405585503E+03  0.12699999809E+01 0. -1.
</event>
<event>
 5   0  0.1182630E-04  0.1900724E+04  0.7818609E-02  0.8654496E-01
       -2   -1    0    0    0  501  0.00000000000E+00  0.00000000000E+00  0.62648519765E+03  0.62648519766E+03  0.25500000920E-02 0. -1.
        2   -1    0    0  501    0  0.00000000000E+00  0.00000000000E+00 -0.14416751723E+04  0.14416751723E+04  0.25500000920E-02 0.  1.
    10030    2    1    2    0    0  0.00000000000E+00  0.00000000000E+00 -0.81518997469E+03  0.20681603700E+04  0.19007242360E+04 0.  0.
        5    1    3    3  502    0  0.18021277030E+03 -0.86311356757E+03 -0.79340622374E+03  0.11861522663E+04  0.46999998093E+01 0.  1.
       -5    1    3    3    0  502 -0.18021277030E+03  0.86311356757E+03 -0.21783750949E+02  0.88200810365E+03  0.46999998093E+01 0. -1.
</event>
<event>
 5   0  0.5841424E-05  0.1902677E+04  0.7818609E-02  0.8653525E-01
       -1   -1    0    0    0  501  0.00000000000E+00  0.00000000000E+00  0.46531897358E+03  0.46531897361E+03  0.50400001928E-02 0.  1.
        1   -1    0    0  501    0  0.00000000000E+00  0.00000000000E+00 -0.19449992978E+04  0.19449992979E+04  0.50400001928E-02 0. -1.
    10030    2    1    2    0    0  0.00000000000E+00  0.00000000000E+00 -0.14796803243E+04  0.24103182715E+04  0.19026771423E+04 0.  0.
        1    1    3    3  502    0  0.47923702407E+03 -0.31204841538E+03  0.22326617396E+03  0.61391377508E+03  0.50400001928E-02 0.  1.
       -1    1    3    3    0  502 -0.47923702407E+03  0.31204841538E+03 -0.17029464982E+04  0.17964044964E+04  0.50400001928E-02 0. -1.
</event>
<event>
 5   0  0.1101678E-04  0.1909518E+04  0.7818609E-02  0.8650133E-01
        2   -1    0    0  501    0  0.00000000000E+00  0.00000000000E+00  0.82778820587E+03  0.82778820587E+03  0.25500000920E-02 0. -1.
       -2   -1    0    0    0  501  0.00000000000E+00  0.00000000000E+00 -0.11012048794E+04  0.11012048794E+04  0.25500000920E-02 0.  1.
    10030    2    1    2    0    0  0.00000000000E+00  0.00000000000E+00 -0.27341667348E+03  0.19289930852E+04  0.19095176473E+04 0.  0.
        4    1    3    3  502    0  0.80786479943E+02  0.41832698899E+02  0.82339885459E+03  0.82841035524E+03  0.12699999809E+01 0. -1.
       -4    1    3    3    0  502 -0.80786479943E+02 -0.41832698899E+02 -0.10968155281E+04  0.11005827300E+04  0.12699999809E+01 0.  1.
</event>
<event>
 5   0  0.5824956E-05  0.1915355E+04  0.7818609E-02  0.8647251E-01
       -1   -1    0    0    0  501  0.00000000000E+00  0.00000000000E+00  0.99880420586E+03  0.99880420587E+03  0.50400001928E-02 0.  1.
        1   -1    0    0  501    0  0.00000000000E+00  0.00000000000E+00 -0.91824390031E+03  0.91824390033E+03  0.50400001928E-02 0. -1.
    10030    2    1    2    0    0  0.00000000000E+00  0.00000000000E+00  0.80560305547E+02  0.19170481062E+04  0.19153546613E+04 0.  0.
        2    1    3    3  502    0  0.67092627236E+03 -0.22751048496E+03  0.68524323501E+03  0.98562740163E+03  0.25500000920E-02 0.  1.
       -2    1    3    3    0  502 -0.67092627236E+03  0.22751048496E+03 -0.60468292946E+03  0.93142070457E+03  0.25500000920E-02 0. -1.
</event>
<event>
 5   0  0.5824956E-05  0.1936343E+04  0.7818609E-02  0.8636975E-01
       -1   -1    0    0    0  501  0.00000000000E+00  0.00000000000E+00  0.16421972601E+04  0.16421972601E+04  0.50400001928E-02 0. -1.
        1   -1    0    0  501    0  0.00000000000E+00  0.00000000000E+00 -0.57079383851E+03  0.57079383853E+03  0.50400001928E-02 0.  1.
    10030    2    1    2    0    0  0.00000000000E+00  0.00000000000E+00  0.10714034216E+04  0.22129910986E+04  0.19363430251E+04 0.  0.
        2    1    3    3  502    0 -0.13153893036E+03 -0.53413040582E+03 -0.37484360545E+03  0.66566170776E+03  0.25500000920E-02 0.  1.
       -2    1    3    3    0  502  0.13153893036E+03  0.53413040582E+03  0.14462470270E+04  0.15473293909E+04  0.25500000920E-02 0. -1.
</event>
<event>
 5   0  0.1141890E-04  0.1895277E+04  0.7818609E-02  0.8657211E-01
       -2   -1    0    0    0  501  0.00000000000E+00  0.00000000000E+00  0.36422118894E+03  0.36422118895E+03  0.25500000920E-02 0. -1.
        2   -1    0    0  501    0  0.00000000000E+00  0.00000000000E+00 -0.24655871019E+04  0.24655871019E+04  0.25500000920E-02 0.  1.
    10030    2    1    2    0    0  0.00000000000E+00  0.00000000000E+00 -0.21013659129E+04  0.28298082908E+04  0.18952773577E+04 0.  0.
        2    1    3    3  502    0 -0.43228248345E+03 -0.47528057033E+03 -0.10592350352E+02  0.64255113721E+03  0.25500000920E-02 0. -1.
       -2    1    3    3    0  502  0.43228248345E+03  0.47528057033E+03 -0.20907735626E+04  0.21872571536E+04  0.25500000920E-02 0.  1.
</event>
<event>
 5   0  0.4061125E-05  0.1857500E+04  0.7818609E-02  0.8676305E-01
        3   -1    0    0  501    0  0.00000000000E+00  0.00000000000E+00  0.71832325456E+03  0.71832326166E+03  0.10100000352E+00 0.  1.
       -3   -1    0    0    0  501  0.00000000000E+00  0.00000000000E+00 -0.12008198591E+04  0.12008198634E+04  0.10100000352E+00 0. -1.
    10030    2    1    2    0    0  0.00000000000E+00  0.00000000000E+00 -0.48249660455E+03  0.19191431250E+04  0.18575002990E+04 0.  0.
        2    1    3    3  502    0  0.98727852833E+02  0.91134402039E+03 -0.87023967910E+02  0.92079763434E+03  0.25500000920E-02 0.  1.
       -2    1    3    3    0  502 -0.98727852833E+02 -0.91134402039E+03 -0.39547263664E+03  0.99834549068E+03  0.25500000920E-02 0. -1.
</event>
<event>
 5   0  0.5841424E-05  0.1899801E+04  0.7818609E-02  0.8654956E-01
        1   -1    0    0  501    0  0.00000000000E+00  0.00000000000E+00  0.13154024536E+04  0.13154024536E+04  0.50400001928E-02 0. -1.
       -1   -1    0    0    0  501  0.00000000000E+00  0.00000000000E+00 -0.68595789618E+03  0.68595789620E+03  0.50400001928E-02 0.  1.
    10030    2    1    2    0    0  0.00000000000E+00  0.00000000000E+00  0.62944455745E+03  0.20013603498E+04  0.18998007261E+04 0.  0.
        1    1    3    3  502    0  0.18390810625E+03 -0.28011218727E+02  0.12960250194E+04  0.13093080886E+04  0.50400001928E-02 0. -1.
       -1    1    3    3    0  502 -0.18390810625E+03  0.28011218727E+02 -0.66658046199E+03  0.69205226121E+03  0.50400001928E-02 0.  1.
</event>
<event>
 5   0  0.5628936E-05  0.1895607E+04  0.7818609E-02  0.8657046E-01
       -1   -1    0    0    0  501  0.00000000000E+00  0.00000000000E+00  0.14522177399E+04  0.14522177399E+04  0.50400001928E-02 0. -1.
        1   -1    0    0  501    0  0.00000000000E+00  0.00000000000E+00 -0.61859273849E+03  0.61859273851E+03  0.50400001928E-02 0.  1.
    10030    2    1    2    0    0  0.00000000000E+00  0.00000000000E+00  0.83362500137E+03  0.20708104784E+04  0.18956068671E+04 0.  0.
        5    1    3    3  502    0 -0.56889049961E+03  0.60807896287E+03  0.91132430092E+03  0.12344757985E+04  0.46999998093E+01 0. -1.
       -5    1    3    3    0  502  0.56889049961E+03 -0.60807896287E+03 -0.77699299557E+02  0.83633467988E+03  0.46999998093E+01 0.  1.
</event>
<event>
 5   0  0.1141890E-04  0.1898575E+04  0.7818609E-02  0.8655566E-01
       -2   -1    0    0    0  501  0.00000000000E+00  0.00000000000E+00  0.41052613691E+03  0.41052613692E+03  0.25500000920E-02 0. -1.
        2   -1    0    0  501    0  0.00000000000E+00  0.00000000000E+00 -0.21951009481E+04  0.21951009481E+04  0.25500000920E-02 0.  1.
    10030    2    1    2    0    0  0.00000000000E+00  0.00000000000E+00 -0.17845748111E+04  0.26056270850E+04  0.18985745309E+04 0.  0.
        2    1    3    3  502    0 -0.47473587657E+03  0.10199070141E+03  0.22719232788E+03  0.53609011325E+03  0.25500000920E-02 0. -1.
       -2    1    3    3    0  502  0.47473587657E+03 -0.10199070141E+03 -0.20117671390E+04  0.20695369717E+04  0.25500000920E-02 0.  1.
</event>
<event>
 5   0  0.1141890E-04  0.1907021E+04  0.7818609E-02  0.8651370E-01
       -2   -1    0    0    0  501  0.00000000000E+00  0.00000000000E+00  0.51922155559E+03  0.51922155559E+03  0.25500000920E-02 0. -1.
        2   -1    0    0  501    0  0.00000000000E+00  0.00000000000E+00 -0.17510482607E+04  0.17510482607E+04  0.25500000920E-02 0.  1.
    10030    2    1    2    0    0  0.00000000000E+00  0.00000000000E+00 -0.12318267051E+04  0.22702698163E+04  0.19070207150E+04 0.  0.
        2    1    3    3  502    0  0.69134403281E+03  0.16861570393E+03  0.13963742177E+03  0.72518027888E+03  0.25500000920E-02 0. -1.
       -2    1    3    3    0  502 -0.69134403281E+03 -0.16861570393E+03 -0.13714641269E+04  0.15450895374E+04  0.25500000920E-02 0.  1.
</event>
<event>
 5   0  0.5841424E-05  0.1897910E+04  0.7818609E-02  0.8655897E-01
        1   -1    0    0  501    0  0.00000000000E+00  0.00000000000E+00  0.58491684923E+03  0.58491684926E+03  0.50400001928E-02 0. -1.
       -1   -1    0    0    0  501  0.00000000000E+00  0.00000000000E+00 -0.15395624361E+04  0.15395624362E+04  0.50400001928E-02 0.  1.
    10030    2    1    2    0    0  0.00000000000E+00  0.00000000000E+00 -0.95464558691E+03  0.21244792854E+04  0.18979104398E+04 0.  0.
        1    1    3    3  502    0 -0.45902620004E+03  0.35496149000E+03 -0.13178358099E+04  0.14399284474E+04  0.50400001928E-02 0.  1.
       -1    1    3    3    0  502  0.45902620004E+03 -0.35496149000E+03  0.36319022301E+03  0.68455083801E+03  0.50400001928E-02 0. -1.
</event>
<event>
 5   0  0.1133638E-04  0.1896322E+04  0.7818609E-02  0.8656690E-01
        2   -1    0    0  501    0  0.00000000000E+00  0.00000000000E+00  0.11290676489E+04  0.11290676489E+04  0.25500000920E-02 0. -1.
       -2   -1    0    0    0  501  0.00000000000E+00  0.00000000000E+00 -0.79624007161E+03  0.79624007162E+03  0.25500000920E-02 0.  1.
    10030    2    1    2    0    0  0.00000000000E+00  0.00000000000E+00  0.33282757733E+03  0.19253077206E+04  0.18963216032E+04 0.  0.
        3    1    3    3  502    0  0.72571062246E+03 -0.60845120066E+03  0.11944518373E+03  0.95453440653E+03  0.10100000352E+00 0. -1.
       -3    1    3    3    0  502 -0.72571062246E+03  0.60845120066E+03  0.21338239360E+03  0.97077331403E+03  0.10100000352E+00 0.  1.
</event>
<event>
 5   0  0.1133638E-04  0.1897842E+04  0.7818609E-02  0.8655932E-01
       -2   -1    0    0    0  501  0.00000000000E+00  0.00000000000E+00  0.56354125643E+03  0.56354125643E+03  0.25500000920E-02 0.  1.
        2   -1    0    0  501    0  0.00000000000E+00  0.00000000000E+00 -0.15978433845E+04  0.15978433845E+04  0.25500000920E-02 0. -1.
    10030    2    1    2    0    0  0.00000000000E+00  0.00000000000E+00 -0.10343021281E+04  0.21613846409E+04  0.18978415829E+04 0.  0.
        3    1    3    3  502    0  0.40659347640E+03  0.84504081878E+03 -0.68233911949E+03  0.11597408869E+04  0.10100000352E+00 0. -1.
       -3    1    3    3    0  502 -0.40659347640E+03 -0.84504081878E+03 -0.35196300857E+03  0.10016437541E+04  0.10100000352E+00 0.  1.
</event>
<event>
 5   0  0.1101678E-04  0.1888033E+04  0.7818609E-02  0.8660836E-01
       -2   -1    0    0    0  501  0.00000000000E+00  0.00000000000E+00  0.44631193990E+03  0.44631193991E+03  0.25500000920E-02 0.  1.
        2   -1    0    0  501    0  0.00000000000E+00  0.00000000000E+00 -0.19967366508E+04  0.19967366508E+04  0.25500000920E-02 0. -1.
    10030    2    1    2    0    0  0.00000000000E+00  0.00000000000E+00 -0.15504247109E+04  0.24430485907E+04  0.18880332710E+04 0.  0.
        4    1    3    3  502    0  0.82785181568E+03  0.28664599428E+02 -0.18933700580E+03  0.84971195275E+03  0.12699999809E+01 0.  1.
       -4    1    3    3    0  502 -0.82785181568E+03 -0.28664599428E+02 -0.13610877051E+04  0.15933366379E+04  0.12699999809E+01 0. -1.
</event>
<event>
 5   0  0.5614989E-05  0.1905435E+04  0.7818609E-02  0.8652156E-01
        1   -1    0    0  501    0  0.00000000000E+00  0.00000000000E+00  0.84010139608E+03  0.84010139610E+03  0.50400001928E-02 0.  1.
       -1   -1    0    0    0  501  0.00000000000E+00  0.00000000000E+00 -0.10804296651E+04  0.10804296652E+04  0.50400001928E-02 0. -1.
    10030    2    1    2    0    0  0.00000000000E+00  0.00000000000E+00 -0.24032826906E+03  0.19205310613E+04  0.19054348271E+04 0.  0.
        4    1    3    3  502    0  0.79198686547E+01  0.78325048608E+03 -0.66679363460E+03  0.10286687573E+04  0.12699999809E+01 0. -1.
       -4    1    3    3    0  502 -0.79198686547E+01 -0.78325048608E+03  0.42646536554E+03  0.89186230393E+03  0.12699999809E+01 0.  1.
</event>
<event>
 5   0  0.5614989E-05  0.1895308E+04  0.7818609E-02  0.8657195E-01
        1   -1    0    0  501    0  0.00000000000E+00  0.00000000000E+00  0.17717073473E+04  0.17717073473E+04  0.50400001928E-02 0. -1.
       -1   -1    0    0    0  501  0.00000000000E+00  0.00000000000E+00 -0.50688294956E+03  0.50688294959E+03  0.50400001928E-02 0.  1.
    10030    2    1    2    0    0  0.00000000000E+00  0.00000000000E+00  0.12648243977E+04  0.22785902969E+04  0.18953081501E+04 0.  0.
        4    1    3    3  502    0  0.43417534026E+03 -0.27796549655E+03 -0.32354607039E+03  0.60865155543E+03  0.12699999809E+01 0.  1.
       -4    1    3    3    0  502 -0.43417534026E+03  0.27796549655E+03  0.15883704681E+04  0.16699387415E+04  0.12699999809E+01 0. -1.
</event>
<event>
 5   0  0.1182630E-04  0.2002029E+04  0.7818609E-02  0.8605673E-01
        2   -1    0    0  501    0  0.00000000000E+00  0.00000000000E+00  0.25311528589E+04  0.25311528589E+04  0.25500000920E-02 0.  1.
       -2   -1    0    0    0  501  0.00000000000E+00  0.00000000000E+00 -0.39587891910E+03  0.39587891911E+03  0.25500000920E-02 0. -1.
    10030    2    1    2    0    0  0.00000000000E+00  0.00000000000E+00  0.21352739397E+04  0.29270317780E+04  0.20020290286E+04 0.  0.
        5    1    3    3  502    0 -0.69763755150E+03 -0.66214115247E+03  0.14730154335E+04  0.17592400679E+04  0.46999998093E+01 0. -1.
       -5    1    3    3    0  502  0.69763755150E+03  0.66214115247E+03  0.66225850620E+03  0.11677917101E+04  0.46999998093E+01 0.  1.
</event>
<event>
 5   0  0.5614989E-05  0.1896360E+04  0.7818609E-02  0.8656670E-01
        1   -1    0    0  501    0  0.00000000000E+00  0.00000000000E+00  0.63365631562E+03  0.63365631564E+03  0.50400001928E-02 0. -1.
       -1   -1    0    0    0  501  0.00000000000E+00  0.00000000000E+00 -0.14188224123E+04  0.14188224123E+04  0.50400001928E-02 0.  1.
    10030    2    1    2    0    0  0.00000000000E+00  0.00000000000E+00 -0.78516609667E+03  0.20524787279E+04  0.18963604956E+04 0.  0.
        4    1    3    3  502    0 -0.45161519039E+03 -0.80420548814E+03 -0.63055045409E+03  0.11172726773E+04  0.12699999809E+01 0.  1.
       -4    1    3    3    0  502  0.45161519039E+03  0.80420548814E+03 -0.15461564258E+03  0.93520605065E+03  0.12699999809E+01 0. -1.
</event>
<event>
 5   0  0.1133638E-04  0.1898355E+04  0.7818609E-02  0.8655676E-01
       -2   -1    0    0    0  501  0.00000000000E+00  0.00000000000E+00  0.41045554598E+03  0.41045554598E+03  0.25500000920E-02 0. -1.
        2   -1    0    0  501    0  0.00000000000E+00  0.00000000000E+00 -0.21949706222E+04  0.21949706222E+04  0.25500000920E-02 0.  1.
    10030    2    1    2    0    0  0.00000000000E+00  0.00000000000E+00 -0.17845150762E+04  0.26054261682E+04  0.18983549354E+04 0.  0.
        3    1    3    3  502    0  0.40143750151E+03 -0.63947784795E+03 -0.16816981494E+04  0.18434187428E+04  0.10100000352E+00 0.  1.
       -3    1    3    3    0  502 -0.40143750151E+03  0.63947784795E+03 -0.10281692684E+03  0.76200742534E+03  0.10100000352E+00 0. -1.
</event>
<event>
 5   0  0.1133638E-04  0.1907515E+04  0.7818609E-02  0.8651125E-01
        2   -1    0    0  501    0  0.00000000000E+00  0.00000000000E+00  0.17492992404E+04  0.17492992404E+04  0.25500000920E-02 0.  1.
       -2   -1    0    0    0  501  0.00000000000E+00  0.00000000000E+00 -0.52001016219E+03  0.52001016220E+03  0.25500000920E-02 0. -1.
    10030    2    1    2    0    0  0.00000000000E+00  0.00000000000E+00  0.12292890782E+04  0.22693094026E+04  0.19075150136E+04 0.  0.
        3    1    3    3  502    0 -0.83545787733E+03 -0.44895187705E+03  0.73423852846E+03  0.11994389853E+04  0.10100000352E+00 0.  1.
       -3    1    3    3    0  502  0.83545787733E+03  0.44895187705E+03  0.49505054976E+03  0.10698704173E+04  0.10100000352E+00 0. -1.
</event>
<event>
 5   0  0.5614989E-05  0.1899418E+04  0.7818609E-02  0.8655146E-01
        1   -1    0    0  501    0  0.00000000000E+00  0.00000000000E+00  0.16866532849E+04  0.16866532849E+04  0.50400001928E-02 0.  1.
       -1   -1    0    0    0  501  0.00000000000E+00  0.00000000000E+00 -0.53475569909E+03  0.53475569911E+03  0.50400001928E-02 0. -1.
    10030    2    1    2    0    0  0.00000000000E+00  0.00000000000E+00  0.11518975858E+04  0.22214089840E+04  0.18994182863E+04 0.  0.
        4    1    3    3  502    0  0.41236161707E+03 -0.78305076973E+03  0.17295559801E+03  0.90173491836E+03  0.12699999809E+01 0. -1.
       -4    1    3    3    0  502 -0.41236161707E+03  0.78305076973E+03  0.97894198783E+03  0.13196740657E+04  0.12699999809E+01 0.  1.
</event>
<event>
 5   0  0.5579109E-05  0.1864538E+04  0.7818609E-02  0.8672712E-01
       -1   -1    0    0    0  501  0.00000000000E+00  0.00000000000E+00  0.93482213460E+03  0.93482213462E+03  0.50400001928E-02 0. -1.
        1   -1    0    0  501    0  0.00000000000E+00  0.00000000000E+00 -0.92972308129E+03  0.92972308130E+03  0.50400001928E-02 0.  1.
    10030    2    1    2    0    0  0.00000000000E+00  0.00000000000E+00  0.50990533144E+01  0.18645452159E+04  0.18645382436E+04 0.  0.
        3    1    3    3  502    0 -0.54595941270E+03 -0.26364005548E+03  0.71075267344E+03  0.93420936207E+03  0.10100000352E+00 0. -1.
       -3    1    3    3    0  502  0.54595941270E+03  0.26364005548E+03 -0.70565362013E+03  0.93033585386E+03  0.10100000352E+00 0.  1.
</event>
<event>
 5   0  0.5614989E-05  0.1898661E+04  0.7818609E-02  0.8655523E-01
        1   -1    0    0  501    0  0.00000000000E+00  0.00000000000E+00  0.76671954078E+03  0.76671954080E+03  0.50400001928E-02 0. -1.
       -1   -1    0    0    0  501  0.00000000000E+00  0.00000000000E+00 -0.11754338821E+04  0.11754338821E+04  0.50400001928E-02 0.  1.
    10030    2    1    2    0    0  0.00000000000E+00  0.00000000000E+00 -0.40871434131E+03  0.19421534229E+04  0.18986607136E+04 0.  0.
        4    1    3    3  502    0 -0.27757142493E+03  0.90737934122E+03 -0.23406286715E+03  0.97732809409E+03  0.12699999809E+01 0. -1.
       -4    1    3    3    0  502  0.27757142493E+03 -0.90737934122E+03 -0.17465147416E+03  0.96482532882E+03  0.12699999809E+01 0.  1.
</event>
<event>
 5   0  0.1182630E-04  0.1895862E+04  0.7818609E-02  0.8656919E-01
       -2   -1    0    0    0  501  0.00000000000E+00  0.00000000000E+00  0.73170092416E+03  0.73170092416E+03  0.25500000920E-02 0.  1.
        2   -1    0    0  501    0  0.00000000000E+00  0.00000000000E+00 -0.12280610050E+04  0.12280610050E+04  0.25500000920E-02 0. -1.
    10030    2    1    2    0    0  0.00000000000E+00  0.00000000000E+00 -0.49636008083E+03  0.19597619291E+04  0.18958622020E+04 0.  0.
        5    1    3    3  502    0 -0.56864061597E+03 -0.16302069345E+03 -0.10138360693E+04  0.11738030337E+04  0.46999998093E+01 0. -1.
       -5    1    3    3    0  502  0.56864061597E+03  0.16302069345E+03  0.51747598846E+03  0.78595889540E+03  0.46999998093E+01 0.  1.
</event>
<event>
 5   0  0.5614989E-05  0.1878919E+04  0.7818609E-02  0.8665422E-01
        1   -1    0    0  501    0  0.00000000000E+00  0.00000000000E+00  0.10293727377E+04  0.10293727377E+04  0.50400001928E-02 0. -1.
       -1   -1    0    0    0  501  0.00000000000E+00  0.00000000000E+00 -0.85739957213E+03  0.85739957215E+03  0.50400001928E-02 0.  1.
    10030    2    1    2    0    0  0.00000000000E+00  0.00000000000E+00  0.17197316552E+03  0.18867723098E+04  0.18789185665E+04 0.  0.
        4    1    3    3  502    0  0.90452614584E+03  0.23219845089E+03  0.18887687337E+03  0.95276427058E+03  0.12699999809E+01 0. -1.
       -4    1    3    3    0  502 -0.90452614584E+03 -0.23219845089E+03 -0.16903707845E+02  0.93400803923E+03  0.12699999809E+01 0.  1.
</event>
<event>
 5   0  0.5824956E-05  0.1797616E+04  0.7818609E-02  0.8707568E-01
        1   -1    0    0  501    0  0.00000000000E+00  0.00000000000E+00  0.90263902648E+03  0.90263902650E+03  0.50400001928E-02 0. -1.
       -1   -1    0    0    0  501  0.00000000000E+00  0.00000000000E+00 -0.89499324733E+03  0.89499324734E+03  0.50400001928E-02 0.  1.
    10030    2    1    2    0    0  0.00000000000E+00  0.00000000000E+00  0.76457791531E+01  0.17976322738E+04  0.17976160141E+04 0.  0.
        2    1    3    3  502    0  0.28307584268E+02  0.75899760357E+03  0.48442806062E+03  0.90086027078E+03  0.25500000920E-02 0. -1.
       -2    1    3    3    0  502 -0.28307584268E+02 -0.75899760357E+03 -0.47678228146E+03  0.89677200306E+03  0.25500000920E-02 0.  1.
</event>
<event>
 5   0  0.4061125E-05  0.1895989E+04  0.7818609E-02  0.8656856E-01
       -3   -1    0    0    0  501  0.00000000000E+00  0.00000000000E+00  0.15192870117E+04  0.15192870150E+04  0.10100000352E+00 0. -1.
        3   -1    0    0  501    0  0.00000000000E+00  0.00000000000E+00 -0.59152312616E+03  0.59152313478E+03  0.10100000352E+00 0.  1.
    10030    2    1    2    0    0  0.00000000000E+00  0.00000000000E+00  0.92776388552E+03  0.21108101498E+04  0.18959888347E+04 0.  0.
        2    1    3    3  502    0  0.18166259511E+03 -0.22277032939E+02  0.14994308443E+04  0.15105596385E+04  0.25500000920E-02 0. -1.
       -2    1    3    3    0  502 -0.18166259511E+03  0.22277032939E+02 -0.57166695874E+03  0.60025051135E+03  0.25500000920E-02 0.  1.
</event>
<event>
 5   0  0.1141890E-04  0.1820332E+04  0.7818609E-02  0.8695561E-01
        2   -1    0    0  501    0  0.00000000000E+00  0.00000000000E+00  0.11047253139E+04  0.11047253139E+04  0.25500000920E-02 0. -1.
       -2   -1    0    0    0  501  0.00000000000E+00  0.00000000000E+00 -0.74987153917E+03  0.74987153918E+03  0.25500000920E-02 0.  1.
    10030    2    1    2    0    0  0.00000000000E+00  0.00000000000E+00  0.35485377473E+03  0.18545968531E+04  0.18203319164E+04 0.  0.
        2    1    3    3  502    0  0.62936700645E+02 -0.72470691909E+03 -0.37989927282E+03  0.82066107764E+03  0.25500000920E-02 0.  1.
       -2    1    3    3    0  502 -0.62936700645E+02  0.72470691909E+03  0.73475304755E+03  0.10339357754E+04  0.25500000920E-02 0. -1.
</event>
<event>
 5   0  0.1101678E-04  0.1913126E+04  0.7818609E-02  0.8648350E-01
        2   -1    0    0  501    0  0.00000000000E+00  0.00000000000E+00  0.13493137038E+04  0.13493137038E+04  0.25500000920E-02 0.  1.
       -2   -1    0    0    0  501  0.00000000000E+00  0.00000000000E+00 -0.67813211772E+03  0.67813211772E+03  0.25500000920E-02 0. -1.
    10030    2    1    2    0    0  0.00000000000E+00  0.00000000000E+00  0.67118158610E+03  0.20274458215E+04  0.19131261949E+04 0.  0.
        4    1    3    3  502    0  0.86496919909E+01 -0.56337836918E+03  0.11547901800E+04  0.12849171089E+04  0.12699999809E+01 0.  1.
       -4    1    3    3    0  502 -0.86496919909E+01  0.56337836918E+03 -0.48360859393E+03  0.74252871261E+03  0.12699999809E+01 0. -1.
</event>
<event>
 5   0  0.1133638E-04  0.1899199E+04  0.7818609E-02  0.8655255E-01
        2   -1    0    0  501    0  0.00000000000E+00  0.00000000000E+00  0.15352438880E+04  0.15352438880E+04  0.25500000920E-02 0.  1.
       -2   -1    0    0    0  501  0.00000000000E+00  0.00000000000E+00 -0.58735908980E+03  0.58735908980E+03  0.25500000920E-02 0. -1.
    10030    2    1    2    0    0  0.00000000000E+00  0.00000000000E+00  0.94788479817E+03  0.21226029778E+04  0.18991992551E+04 0.  0.
        3    1    3    3  502    0  0.40088853481E+03 -0.71978425510E+03  0.10016468142E+04  0.12969569545E+04  0.10100000352E+00 0.  1.
       -3    1    3    3    0  502 -0.40088853481E+03  0.71978425510E+03 -0.53762015984E+02  0.82564602330E+03  0.10100000352E+00 0. -1.
</event>
<event>
 5   0  0.5841424E-05  0.1890070E+04  0.7818609E-02  0.8659815E-01
        1   -1    0    0  501    0  0.00000000000E+00  0.00000000000E+00  0.18518087411E+04  0.18518087411E+04  0.50400001928E-02 0. -1.
       -1   -1    0    0    0  501  0.00000000000E+00  0.00000000000E+00 -0.48228033082E+03  0.48228033084E+03  0.50400001928E-02 0.  1.
    10030    2    1    2    0    0  0.00000000000E+00  0.00000000000E+00  0.13695284103E+04  0.23340890719E+04  0.18900697683E+04 0.  0.
        1    1    3    3  502    0  0.74195228697E+03 -0.21772512943E+03  0.13809832011E+02  0.77336158400E+03  0.50400001928E-02 0.  1.
       -1    1    3    3    0  502 -0.74195228697E+03  0.21772512943E+03  0.13557185782E+04  0.15607274879E+04  0.50400001928E-02 0. -1.
</event>
<event>
 5   0  0.5579109E-05  0.1873902E+04  0.7818609E-02  0.8667957E-01
        1   -1    0    0  501    0  0.00000000000E+00  0.00000000000E+00  0.25360816694E+04  0.25360816694E+04  0.50400001928E-02 0. -1.
       -1   -1    0    0    0  501  0.00000000000E+00  0.00000000000E+00 -0.34615477478E+03  0.34615477481E+03  0.50400001928E-02 0.  1.
    10030    2    1    2    0    0  0.00000000000E+00  0.00000000000E+00  0.21899268946E+04  0.28822364442E+04  0.18739015760E+04 0.  0.
        3    1    3    3  502    0 -0.40134585671E+03 -0.84602584919E+03  0.10453963660E+04  0.14034570911E+04  0.10100000352E+00 0. -1.
       -3    1    3    3    0  502  0.40134585671E+03  0.84602584919E+03  0.11445305286E+04  0.14787793532E+04  0.10100000352E+00 0.  1.
</event>
<event>
 5   0  0.5628936E-05  0.1787622E+04  0.7818609E-02  0.8712910E-01
       -1   -1    0    0    0  501  0.00000000000E+00  0.00000000000E+00  0.57129992828E+03  0.57129992830E+03  0.50400001928E-02 0.  1.
        1   -1    0    0  501    0  0.00000000000E+00  0.00000000000E+00 -0.13983867782E+04  0.13983867782E+04  0.50400001928E-02 0. -1.
    10030    2    1    2    0    0  0.00000000000E+00  0.00000000000E+00 -0.82708684991E+03  0.19696867065E+04  0.17876221817E+04 0.  0.
        5    1    3    3  502    0 -0.38672447043E+03  0.32785905066E+03  0.39751560303E+03  0.64427332537E+03  0.46999998093E+01 0.  1.
       -5    1    3    3    0  502  0.38672447043E+03 -0.32785905066E+03 -0.12246024529E+04  0.13254133811E+04  0.46999998093E+01 0. -1.
</event>
<event>
 5   0  0.5628936E-05  0.1921563E+04  0.7818609E-02  0.8644197E-01
       -1   -1    0    0    0  501  0.00000000000E+00  0.00000000000E+00  0.14603376917E+04  0.14603376917E+04  0.50400001928E-02 0.  1.
        1   -1    0    0  501    0  0.00000000000E+00  0.00000000000E+00 -0.63211492096E+03  0.63211492098E+03  0.50400001928E-02 0. -1.
    10030    2    1    2    0    0  0.00000000000E+00  0.00000000000E+00  0.82822277069E+03  0.20924526126E+04  0.19215631601E+04 0.  0.
        5    1    3    3  502    0 -0.75775845835E+03 -0.35560592817E+03  0.92767405498E+03  0.12495017806E+04  0.46999998093E+01 0.  1.
       -5    1    3    3    0  502  0.75775845835E+03  0.35560592817E+03 -0.99451284292E+02  0.84295083207E+03  0.46999998093E+01 0. -1.
</event>
<event>
 5   0  0.1141890E-04  0.1894861E+04  0.7818609E-02  0.8657419E-01
       -2   -1    0    0    0  501  0.00000000000E+00  0.00000000000E+00  0.11544605645E+04  0.11544605645E+04  0.25500000920E-02 0. -1.
        2   -1    0    0  501    0  0.00000000000E+00  0.00000000000E+00 -0.77752721776E+03  0.77752721776E+03  0.25500000920E-02 0.  1.
    10030    2    1    2    0    0  0.00000000000E+00  0.00000000000E+00  0.37693334673E+03  0.19319877823E+04  0.18948609561E+04 0.  0.
        2    1    3    3  502    0  0.33419917371E+03 -0.87540703518E+03  0.33120227316E+03  0.99384179360E+03  0.25500000920E-02 0.  1.
       -2    1    3    3    0  502 -0.33419917371E+03  0.87540703518E+03  0.45731073570E+02  0.93814598866E+03  0.25500000920E-02 0. -1.
</event>
<event>
 5   0  0.1141890E-04  0.1828179E+04  0.7818609E-02  0.8691456E-01
        2   -1    0    0  501    0  0.00000000000E+00  0.00000000000E+00  0.12802094974E+04  0.12802094974E+04  0.25500000920E-02 0. -1.
       -2   -1    0    0    0  501  0.00000000000E+00  0.00000000000E+00 -0.65267392797E+03  0.65267392797E+03  0.25500000920E-02 0.  1.
    10030    2    1    2    0    0  0.00000000000E+00  0.00000000000E+00  0.62753556948E+03  0.19328834254E+04  0.18281787236E+04 0.  0.
        2    1    3    3  502    0 -0.47472878277E+03 -0.78113140667E+03  0.31912447931E+03  0.96818083279E+03  0.25500000920E-02 0. -1.
       -2    1    3    3    0  502  0.47472878277E+03  0.78113140667E+03  0.30841109017E+03  0.96470259263E+03  0.25500000920E-02 0.  1.
</event>
<event>
 5   0  0.5579109E-05  0.1907353E+04  0.7818609E-02  0.8651205E-01
       -1   -1    0    0    0  501  0.00000000000E+00  0.00000000000E+00  0.10747591065E+04  0.10747591065E+04  0.50400001928E-02 0.  1.
        1   -1    0    0  501    0  0.00000000000E+00  0.00000000000E+00 -0.84623502634E+03  0.84623502636E+03  0.50400001928E-02 0. -1.
    10030    2    1    2    0    0  0.00000000000E+00  0.00000000000E+00  0.22852408013E+03  0.19209941328E+04  0.19073529310E+04 0.  0.
        3    1    3    3  502    0  0.28396689318E+03  0.65877769584E+03 -0.51862178286E+03  0.88520834430E+03  0.10100000352E+00 0. -1.
       -3    1    3    3    0  502 -0.28396689318E+03 -0.65877769584E+03  0.74714586299E+03  0.10357857885E+04  0.10100000352E+00 0.  1.
</event>
<event>
 5   0  0.5841424E-05  0.1890092E+04  0.7818609E-02  0.8659804E-01
       -1   -1    0    0    0  501  0.00000000000E+00  0.00000000000E+00  0.48594032477E+03  0.48594032480E+03  0.50400001928E-02 0.  1.
        1   -1    0    0  501    0  0.00000000000E+00  0.00000000000E+00 -0.18379041123E+04  0.18379041123E+04  0.50400001928E-02 0. -1.
    10030    2    1    2    0    0  0.00000000000E+00  0.00000000000E+00 -0.13519637875E+04  0.23238444371E+04  0.18900917663E+04 0.  0.
        1    1    3    3  502    0 -0.28118925934E+03  0.65496523480E+03  0.86959375389E+02  0.71805904448E+03  0.50400001928E-02 0.  1.
       -1    1    3    3    0  502  0.28118925934E+03 -0.65496523480E+03 -0.14389231629E+04  0.16057853926E+04  0.50400001928E-02 0. -1.
</event>
<event>
 5   0  0.1118206E-04  0.1886528E+04  0.7818609E-02  0.8661591E-01
        2   -1    0    0  501    0  0.00000000000E+00  0.00000000000E+00  0.14496063675E+04  0.14496063675E+04  0.25500000920E-02 0. -1.
       -2   -1    0    0    0  501  0.00000000000E+00  0.00000000000E+00 -0.61378538866E+03  0.61378538866E+03  0.25500000920E-02 0.  1.
    10030    2    1    2    0    0  0.00000000000E+00  0.00000000000E+00  0.83582097882E+03  0.20633917561E+04  0.18865282480E+04 0.  0.
        1    1    3    3  502    0  0.70684405660E+03 -0.50762207270E+03  0.19871572621E+02  0.87046169845E+03  0.50400001928E-02 0.  1.
       -1    1    3    3    0  502 -0.70684405660E+03  0.50762207270E+03  0.81594940620E+03  0.11929300577E+04  0.50400001928E-02 0. -1.
</event>
<event>
 5   0  0.1182630E-04  0.1855837E+04  0.7818609E-02  0.8677157E-01
        2   -1    0    0  501    0  0.00000000000E+00  0.00000000000E+00  0.13663875224E+04  0.13663875224E+04  0.25500000920E-02 0. -1.
       -2   -1    0    0    0  501  0.00000000000E+00  0.00000000000E+00 -0.63015293029E+03  0.63015293030E+03  0.25500000920E-02 0.  1.
    10030    2    1    2    0    0  0.00000000000E+00  0.00000000000E+00  0.73623459208E+03  0.19965404527E+04  0.18558373864E+04 0.  0.
        5    1    3    3  502    0  0.57168166697E+03 -0.18931340731E+03 -0.39134477053E+03  0.71821467122E+03  0.46999998093E+01 0.  1.
       -5    1    3    3    0  502 -0.57168166697E+03  0.18931340731E+03  0.11275793626E+04  0.12783257815E+04  0.46999998093E+01 0. -1.
</event>
<event>
 5   0  0.5824956E-05  0.1904767E+04  0.7818609E-02  0.8652487E-01
        1   -1    0    0  501    0  0.00000000000E+00  0.00000000000E+00  0.12423023440E+04  0.12423023440E+04  0.50400001928E-02 0.  1.
       -1   -1    0    0    0  501  0.00000000000E+00  0.00000000000E+00 -0.73012388352E+03  0.73012388354E+03  0.50400001928E-02 0. -1.
    10030    2    1    2    0    0  0.00000000000E+00  0.00000000000E+00  0.51217846049E+03  0.19724262276E+04  0.19047672949E+04 0.  0.
        2    1    3    3  502    0 -0.37275212231E+03  0.25192347546E+03 -0.61314711331E+03  0.76049915499E+03  0.25500000920E-02 0. -1.
       -2    1    3    3    0  502  0.37275212231E+03 -0.25192347546E+03  0.11253255738E+04  0.12119270726E+04  0.25500000920E-02 0.  1.
</event>
<event>
 5   0  0.5824956E-05  0.1894298E+04  0.7818609E-02  0.8657700E-01
       -1   -1    0    0    0  501  0.00000000000E+00  0.00000000000E+00  0.10994900869E+04  0.10994900869E+04  0.50400001928E-02 0. -1.
        1   -1    0    0  501    0  0.00000000000E+00  0.00000000000E+00 -0.81591527985E+03  0.81591527987E+03  0.50400001928E-02 0.  1.
    10030    2    1    2    0    0  0.00000000000E+00  0.00000000000E+00  0.28357480703E+03  0.19154053668E+04  0.18942975077E+04 0.  0.
        2    1    3    3  502    0  0.70834404008E+03 -0.35561024073E+03  0.66610259337E+03  0.10353272851E+04  0.25500000920E-02 0. -1.
       -2    1    3    3    0  502 -0.70834404008E+03  0.35561024073E+03 -0.38252778634E+03  0.88007808163E+03  0.25500000920E-02 0.  1.
</event>
<event>
 5   0  0.5579109E-05  0.1879795E+04  0.7818609E-02  0.8664980E-01
        1   -1    0    0  501    0  0.00000000000E+00  0.00000000000E+00  0.74444759575E+03  0.74444759576E+03  0.50400001928E-02 0.  1.
       -1   -1    0    0    0  501  0.00000000000E+00  0.00000000000E+00 -0.11866611504E+04  0.11866611504E+04  0.50400001928E-02 0. -1.
    10030    2    1    2    0    0  0.00000000000E+00  0.00000000000E+00 -0.44221355467E+03  0.19311087462E+04  0.18797947126E+04 0.  0.
        3    1    3    3  502    0  0.16540687038E+03 -0.66597387091E+03 -0.88092177200E+03  0.11166484711E+04  0.10100000352E+00 0. -1.
       -3    1    3    3    0  502 -0.16540687038E+03  0.66597387091E+03  0.43870821733E+03  0.81446027506E+03  0.10100000352E+00 0.  1.
</event>
<event>
 5   0  0.1133638E-04  0.1889272E+04  0.7818609E-02  0.8660215E-01
        2   -1    0    0  501    0  0.00000000000E+00  0.00000000000E+00  0.16918571770E+04  0.16918571771E+04  0.25500000920E-02 0.  1.
       -2   -1    0    0    0  501  0.00000000000E+00  0.00000000000E+00 -0.52743030148E+03  0.52743030149E+03  0.25500000920E-02 0. -1.
    10030    2    1    2    0    0  0.00000000000E+00  0.00000000000E+00  0.11644268756E+04  0.22192874785E+04  0.18892715432E+04 0.  0.
        3    1    3    3  502    0 -0.14697473067E+03 -0.51320392770E+03 -0.33325032949E+03  0.62931362227E+03  0.10100000352E+00 0. -1.
       -3    1    3    3    0  502  0.14697473067E+03  0.51320392770E+03  0.14976772051E+04  0.15899738563E+04  0.10100000352E+00 0.  1.
</event>
<event>
 5   0  0.5628936E-05  0.1897017E+04  0.7818609E-02  0.8656343E-01
       -1   -1    0    0    0  501  0.00000000000E+00  0.00000000000E+00  0.60360221917E+03  0.60360221919E+03  0.50400001928E-02 0. -1.
        1   -1    0    0  501    0  0.00000000000E+00  0.00000000000E+00 -0.14904985479E+04  0.14904985479E+04  0.50400001928E-02 0.  1.
    10030    2    1    2    0    0  0.00000000000E+00  0.00000000000E+00 -0.88689632875E+03  0.20941007671E+04  0.18970168489E+04 0.  0.
        5    1    3    3  502    0 -0.11562314444E+03  0.94026951401E+03 -0.49487897406E+03  0.10688324282E+04  0.46999998093E+01 0. -1.
       -5    1    3    3    0  502  0.11562314444E+03 -0.94026951401E+03 -0.39201735469E+03  0.10252683390E+04  0.46999998093E+01 0.  1.
</event>
<event>
 5   0  0.5614989E-05  0.1876437E+04  0.7818609E-02  0.8666675E-01
        1   -1    0    0  501    0  0.00000000000E+00  0.00000000000E+00  0.15643234801E+04  0.15643234801E+04  0.50400001928E-02 0. -1.
       -1   -1    0    0    0  501  0.00000000000E+00  0.00000000000E+00 -0.56270554690E+03  0.56270554693E+03  0.50400001928E-02 0.  1.
    10030    2    1    2    0    0  0.00000000000E+00  0.00000000000E+00  0.10016179332E+04  0.21270290270E+04  0.18764365158E+04 0.  0.
        4    1    3    3  502    0  0.29061299550E+03 -0.86617720050E+03  0.74269055943E+03  0.11774165515E+04  0.12699999809E+01 0.  1.
       -4    1    3    3    0  502 -0.29061299550E+03  0.86617720050E+03  0.25892737373E+03  0.94961247548E+03  0.12699999809E+01 0. -1.
</event>
<event>
 5   0  0.1133638E-04  0.1900359E+04  0.7818609E-02  0.8654678E-01
       -2   -1    0    0    0  501  0.00000000000E+00  0.00000000000E+00  0.85511706309E+03  0.85511706309E+03  0.25500000920E-02 0.  1.
        2   -1    0    0  501    0  0.00000000000E+00  0.00000000000E+00 -0.10558102249E+04  0.10558102249E+04  0.25500000920E-02 0. -1.
    10030    2    1    2    0    0  0.00000000000E+00  0.00000000000E+00 -0.20069316177E+03  0.19109272879E+04  0.19003592699E+04 0.  0.
        3    1    3    3  502    0  0.55101799044E+03 -0.26200159970E+03 -0.83280354368E+03  0.10323891788E+04  0.10100000352E+00 0. -1.
       -3    1    3    3    0  502 -0.55101799044E+03  0.26200159970E+03  0.63211038191E+03  0.87853810910E+03  0.10100000352E+00 0.  1.
</event>
<event>
 5   0  0.1182630E-04  0.1859780E+04  0.7818609E-02  0.8675140E-01
       -2   -1    0    0    0  501  0.00000000000E+00  0.00000000000E+00  0.54898469388E+03  0.54898469389E+03  0.25500000920E-02 0.  1.
        2   -1    0    0  501    0  0.00000000000E+00  0.00000000000E+00 -0.15750811055E+04  0.15750811055E+04  0.25500000920E-02 0. -1.
    10030    2    1    2    0    0  0.00000000000E+00  0.00000000000E+00 -0.10260964116E+04  0.21240657994E+04  0.18597800069E+04 0.  0.
        5    1    3    3  502    0  0.19534702510E+03 -0.32514023541E+03 -0.14826932566E+04  0.15304502658E+04  0.46999998093E+01 0. -1.
       -5    1    3    3    0  502 -0.19534702510E+03  0.32514023541E+03  0.45659684497E+03  0.59361553360E+03  0.46999998093E+01 0.  1.
</event>
<event>
 5   0  0.1182630E-04  0.1888931E+04  0.7818609E-02  0.8660386E-01
        2   -1    0    0  501    0  0.00000000000E+00  0.00000000000E+00  0.12660883890E+04  0.12660883890E+04  0.25500000920E-02 0. -1.
       -2   -1    0    0    0  501  0.00000000000E+00  0.00000000000E+00 -0.70454427012E+03  0.70454427012E+03  0.25500000920E-02 0.  1.
    10030    2    1    2    0    0  0.00000000000E+00  0.00000000000E+00  0.56154411888E+03  0.19706326591E+04  0.18889312533E+04 0.  0.
        5    1    3    3  502    0  0.23342743213E+03  0.50583429142E+02  0.12340482915E+04  0.12569583625E+04  0.46999998093E+01 0. -1.
       -5    1    3    3    0  502 -0.23342743213E+03 -0.50583429142E+02 -0.67250417264E+03  0.71367429657E+03  0.46999998093E+01 0.  1.
</event>
<event>
 5   0  0.1182630E-04  0.1865392E+04  0.7818609E-02  0.8672277E-01
        2   -1    0    0  501    0  0.00000000000E+00  0.00000000000E+00  0.18393034394E+04  0.18393034394E+04  0.25500000920E-02 0. -1.
       -2   -1    0    0    0  501  0.00000000000E+00  0.00000000000E+00 -0.47296284180E+03  0.47296284181E+03  0.25500000920E-02 0.  1.
    10030    2    1    2    0    0  0.00000000000E+00  0.00000000000E+00  0.13663405976E+04  0.23122662812E+04  0.18653923787E+04 0.  0.
        5    1    3    3  502    0  0.13358045835E+03 -0.78375026732E+03  0.12876283273E+04  0.15133132589E+04  0.46999998093E+01 0. -1.
       -5    1    3    3    0  502 -0.13358045835E+03  0.78375026732E+03  0.78712270325E+02  0.79895302232E+03  0.46999998093E+01 0.  1.
</event>
<event>
 5   0  0.1141890E-04  0.1925785E+04  0.7818609E-02  0.8642127E-01
        2   -1    0    0  501    0  0.00000000000E+00  0.00000000000E+00  0.22842214768E+04  0.22842214768E+04  0.25500000920E-02 0.  1.
       -2   -1    0    0    0  501  0.00000000000E+00  0.00000000000E+00 -0.40589844134E+03  0.40589844135E+03  0.25500000920E-02 0. -1.
    10030    2    1    2    0    0  0.00000000000E+00  0.00000000000E+00  0.18783230355E+04  0.26901199182E+04  0.19257849695E+04 0.  0.
        2    1    3    3  502    0 -0.64237063602E+03 -0.48506490843E+03  0.16773171668E+04  0.18604625439E+04  0.25500000920E-02 0.  1.
       -2    1    3    3    0  502  0.64237063602E+03  0.48506490843E+03  0.20100586873E+03  0.82965737427E+03  0.25500000920E-02 0. -1.
</event>
<event>
 5   0  0.1101678E-04  0.1884516E+04  0.7818609E-02  0.8662602E-01
       -2   -1    0    0    0  501  0.00000000000E+00  0.00000000000E+00  0.74375203753E+03  0.74375203753E+03  0.25500000920E-02 0. -1.
        2   -1    0    0  501    0  0.00000000000E+00  0.00000000000E+00 -0.11937454265E+04  0.11937454265E+04  0.25500000920E-02 0.  1.
    10030    2    1    2    0    0  0.00000000000E+00  0.00000000000E+00 -0.44999338896E+03  0.19374974640E+04  0.18845164825E+04 0.  0.
        4    1    3    3  502    0 -0.29634567789E+02  0.24241078453E+03 -0.11606411675E+04  0.11860567983E+04  0.12699999809E+01 0.  1.
       -4    1    3    3    0  502  0.29634567789E+02 -0.24241078453E+03  0.71064777857E+03  0.75144066575E+03  0.12699999809E+01 0. -1.
</event>
<event>
 5   0  0.1133638E-04  0.1901795E+04  0.7818609E-02  0.8653963E-01
        2   -1    0    0  501    0  0.00000000000E+00  0.00000000000E+00  0.14060286036E+04  0.14060286037E+04  0.25500000920E-02 0.  1.
       -2   -1    0    0    0  501  0.00000000000E+00  0.00000000000E+00 -0.64309254707E+03  0.64309254707E+03  0.25500000920E-02 0. -1.
    10030    2    1    2    0    0  0.00000000000E+00  0.00000000000E+00  0.76293605658E+03  0.20491211507E+04  0.19017954842E+04 0.  0.
        3    1    3    3  502    0 -0.92380994770E+02  0.80378691439E+03 -0.15683288615E+03  0.82413846915E+03  0.10100000352E+00 0. -1.
       -3    1    3    3    0  502  0.92380994770E+02 -0.80378691439E+03  0.91976894273E+03  0.12249826816E+04  0.10100000352E+00 0.  1.
</event>
<event>
 5   0  0.1182630E-04  0.1892214E+04  0.7818609E-02  0.8658742E-01
        2   -1    0    0  501    0  0.00000000000E+00  0.00000000000E+00  0.68781097730E+03  0.68781097730E+03  0.25500000920E-02 0. -1.
       -2   -1    0    0    0  501  0.00000000000E+00  0.00000000000E+00 -0.13014020471E+04  0.13014020471E+04  0.25500000920E-02 0.  1.
    10030    2    1    2    0    0  0.00000000000E+00  0.00000000000E+00 -0.61359106978E+03  0.19892130244E+04  0.18922141674E+04 0.  0.
        5    1    3    3  502    0  0.15606759785E+03  0.50534816074E+03  0.51786759133E+03  0.74023157918E+03  0.46999998093E+01 0. -1.
       -5    1    3    3    0  502 -0.15606759785E+03 -0.50534816074E+03 -0.11314586611E+04  0.12489814452E+04  0.46999998093E+01 0.  1.
</event>
<event>
 5   0  0.1118206E-04  0.1900352E+04  0.7818609E-02  0.8654681E-01
       -2   -1    0    0    0  501  0.00000000000E+00  0.00000000000E+00  0.78260944827E+03  0.78260944828E+03  0.25500000920E-02 0. -1.
        2   -1    0    0  501    0  0.00000000000E+00  0.00000000000E+00 -0.11536202969E+04  0.11536202969E+04  0.25500000920E-02 0.  1.
    10030    2    1    2    0    0  0.00000000000E+00  0.00000000000E+00 -0.37101084863E+03  0.19362297452E+04  0.19003516981E+04 0.  0.
        1    1    3    3  502    0  0.85346208660E+03 -0.41736802277E+03 -0.20130773179E+03  0.97114283326E+03  0.50400001928E-02 0.  1.
       -1    1    3    3    0  502 -0.85346208660E+03  0.41736802277E+03 -0.16970311684E+03  0.96508691193E+03  0.50400001928E-02 0. -1.
</event>
<event>
 5   0  0.1118206E-04  0.1897000E+04  0.7818609E-02  0.8656351E-01
       -2   -1    0    0    0  501  0.00000000000E+00  0.00000000000E+00  0.86294114316E+03  0.86294114317E+03  0.25500000920E-02 0.  1.
        2   -1    0    0  501    0  0.00000000000E+00  0.00000000000E+00 -0.10425416360E+04  0.10425416360E+04  0.25500000920E-02 0. -1.
    10030    2    1    2    0    0  0.00000000000E+00  0.00000000000E+00 -0.17960049288E+03  0.19054827792E+04  0.18969998115E+04 0.  0.
        1    1    3    3  502    0 -0.45713980120E+03  0.26859552442E+03 -0.87978503303E+03  0.10272010796E+04  0.50400001928E-02 0. -1.
       -1    1    3    3    0  502  0.45713980120E+03 -0.26859552442E+03  0.70018454014E+03  0.87828169961E+03  0.50400001928E-02 0.  1.
</event>
<event>
 5   0  0.5824956E-05  0.1916068E+04  0.7818609E-02  0.8646899E-01
        1   -1    0    0  501    0  0.00000000000E+00  0.00000000000E+00  0.88934904938E+03  0.88934904939E+03  0.50400001928E-02 0.  1.
       -1   -1    0    0    0  501  0.00000000000E+00  0.00000000000E+00 -0.10320239502E+04  0.10320239502E+04  0.50400001928E-02 0. -1.
    10030    2    1    2    0    0  0.00000000000E+00  0.00000000000E+00 -0.14267490084E+03  0.19213729996E+04  0.19160683903E+04 0.  0.
        2    1    3    3  502    0  0.21466017159E+03 -0.53721600027E+03  0.69441894124E+03  0.90382392432E+03  0.25500000920E-02 0.  1.
       -2    1    3    3    0  502 -0.21466017159E+03  0.53721600027E+03 -0.83709384209E+03  0.10175490753E+04  0.25500000920E-02 0. -1.
</event>
<event>
 5   0  0.1133638E-04  0.1915572E+04  0.7818609E-02  0.8647144E-01
       -2   -1    0    0    0  501  0.00000000000E+00  0.00000000000E+00  0.83291421540E+03  0.83291421541E+03  0.25500000920E-02 0.  1.
        2   -1    0    0  501    0  0.00000000000E+00  0.00000000000E+00 -0.11013790848E+04  0.11013790848E+04  0.25500000920E-02 0. -1.
    10030    2    1    2    0    0  0.00000000000E+00  0.00000000000E+00 -0.26846486939E+03  0.19342933002E+04  0.19155722866E+04 0.  0.
        3    1    3    3  502    0  0.84766098458E+03 -0.18272453852E+03 -0.54494685703E+03  0.10241506183E+04  0.10100000352E+00 0.  1.
       -3    1    3    3    0  502 -0.84766098458E+03  0.18272453852E+03  0.27648198764E+03  0.91014268192E+03  0.10100000352E+00 0. -1.
</event>
<event>
 5   0  0.5614989E-05  0.1911536E+04  0.7818609E-02  0.8649136E-01
       -1   -1    0    0    0  501  0.00000000000E+00  0.00000000000E+00  0.53992626430E+03  0.53992626432E+03  0.50400001928E-02 0. -1.
        1   -1    0    0  501    0  0.00000000000E+00  0.00000000000E+00 -0.16918832364E+04  0.16918832364E+04  0.50400001928E-02 0.  1.
    10030    2    1    2    0    0  0.00000000000E+00  0.00000000000E+00 -0.11519569721E+04  0.22318095007E+04  0.19115357130E+04 0.  0.
        4    1    3    3  502    0  0.94692503643E+03  0.12960615824E+03 -0.57004788136E+03  0.11128436462E+04  0.12699999809E+01 0.  1.
       -4    1    3    3    0  502 -0.94692503643E+03 -0.12960615824E+03 -0.58190909071E+03  0.11189658545E+04  0.12699999809E+01 0. -1.
</event>
<event>
 5   0  0.5841424E-05  0.1895586E+04  0.7818609E-02  0.8657056E-01
       -1   -1    0    0    0  501  0.00000000000E+00  0.00000000000E+00  0.16271309333E+04  0.16271309333E+04  0.50400001928E-02 0. -1.
        1   -1    0    0  501    0  0.00000000000E+00  0.00000000000E+00 -0.55208341753E+03  0.55208341755E+03  0.50400001928E-02 0.  1.
    10030    2    1    2    0    0  0.00000000000E+00  0.00000000000E+00  0.10750475157E+04  0.21792143508E+04  0.18955864596E+04 0.  0.
        1    1    3    3  502    0  0.35034011050E+03  0.86560376209E+03  0.72397563441E+03  0.11815874006E+04  0.50400001928E-02 0.  1.
       -1    1    3    3    0  502 -0.35034011050E+03 -0.86560376209E+03  0.35107188132E+03  0.99762695024E+03  0.50400001928E-02 0. -1.
</event>
<event>
 5   0  0.4061125E-05  0.1856667E+04  0.7818609E-02  0.8676732E-01
       -3   -1    0    0    0  501  0.00000000000E+00  0.00000000000E+00  0.57701058198E+03  0.57701059082E+03  0.10100000352E+00 0.  1.
        3   -1    0    0  501    0  0.00000000000E+00  0.00000000000E+00 -0.14935653271E+04  0.14935653305E+04  0.10100000352E+00 0. -1.
    10030    2    1    2    0    0  0.00000000000E+00  0.00000000000E+00 -0.91655474513E+03  0.20705759213E+04  0.18566669182E+04 0.  0.
        2    1    3    3  502    0  0.30367716956E+03  0.33518399271E+03  0.44582469321E+03  0.63508093135E+03  0.25500000920E-02 0.  1.
       -2    1    3    3    0  502 -0.30367716956E+03 -0.33518399271E+03 -0.13623794383E+04  0.14354949900E+04  0.25500000920E-02 0. -1.
</event>
<event>
 5   0  0.1101678E-04  0.1904344E+04  0.7818609E-02  0.8652697E-01
        2   -1    0    0  501    0  0.00000000000E+00  0.00000000000E+00  0.13091538434E+04  0.13091538434E+04  0.25500000920E-02 0.  1.
       -2   -1    0    0    0  501  0.00000000000E+00  0.00000000000E+00 -0.69253266600E+03  0.69253266601E+03  0.25500000920E-02 0. -1.
    10030    2    1    2    0    0  0.00000000000E+00  0.00000000000E+00  0.61662117742E+03  0.20016865094E+04  0.19043442981E+04 0.  0.
        4    1    3    3  502    0 -0.55904188027E+03 -0.68037759162E+03 -0.72403371732E+02  0.88356400572E+03  0.12699999809E+01 0. -1.
       -4    1    3    3    0  502  0.55904188027E+03  0.68037759162E+03  0.68902454915E+03  0.11181225037E+04  0.12699999809E+01 0.  1.
</event>
<event>
 5   0  0.5824956E-05  0.1908592E+04  0.7818609E-02  0.8650591E-01
       -1   -1    0    0    0  501  0.00000000000E+00  0.00000000000E+00  0.34310335585E+03  0.34310335589E+03  0.50400001928E-02 0. -1.
        1   -1    0    0  501    0  0.00000000000E+00  0.00000000000E+00 -0.26542473722E+04  0.26542473722E+04  0.50400001928E-02 0.  1.
    10030    2    1    2    0    0  0.00000000000E+00  0.00000000000E+00 -0.23111440163E+04  0.29973507280E+04  0.19085923407E+04 0.  0.
        2    1    3    3  502    0 -0.13830318753E+03 -0.59003067390E+01  0.32725193625E+03  0.35532578725E+03  0.25500000920E-02 0. -1.
       -2    1    3    3    0  502  0.13830318753E+03  0.59003067390E+01 -0.26383959526E+04  0.26420249408E+04  0.25500000920E-02 0.  1.
</event>
<event>
 5   0  0.1141890E-04  0.1808115E+04  0.7818609E-02  0.8701996E-01
       -2   -1    0    0    0  501  0.00000000000E+00  0.00000000000E+00  0.16976110487E+04  0.16976110487E+04  0.25500000920E-02 0.  1.
        2   -1    0    0  501    0  0.00000000000E+00  0.00000000000E+00 -0.48145306223E+03  0.48145306224E+03  0.25500000920E-02 0. -1.
    10030    2    1    2    0    0  0.00000000000E+00  0.00000000000E+00  0.12161579864E+04  0.21790641109E+04  0.18081150825E+04 0.  0.
        2    1    3    3  502    0 -0.55645696697E+03  0.70739556615E+03  0.50534188471E+03  0.10321934235E+04  0.25500000920E-02 0. -1.
       -2    1    3    3    0  502  0.55645696697E+03 -0.70739556615E+03  0.71081610172E+03  0.11468706874E+04  0.25500000920E-02 0.  1.
</event>
<event>
 5   0  0.1118206E-04  0.1875999E+04  0.7818609E-02  0.8666896E-01
        2   -1    0    0  501    0  0.00000000000E+00  0.00000000000E+00  0.10417212469E+04  0.10417212469E+04  0.25500000920E-02 0. -1.
       -2   -1    0    0    0  501  0.00000000000E+00  0.00000000000E+00 -0.84460483195E+03  0.84460483196E+03  0.25500000920E-02 0.  1.
    10030    2    1    2    0    0  0.00000000000E+00  0.00000000000E+00  0.19711641490E+03  0.18863260788E+04  0.18759987192E+04 0.  0.
        1    1    3    3  502    0  0.21648465128E+03 -0.88197101425E+02  0.10119633184E+04  0.10386116168E+04  0.50400001928E-02 0. -1.
       -1    1    3    3    0  502 -0.21648465128E+03  0.88197101425E+02 -0.81484690345E+03  0.84771446196E+03  0.50400001928E-02 0.  1.
</event>
<event>
 5   0  0.1182630E-04  0.1908833E+04  0.7818609E-02  0.8650472E-01
        2   -1    0    0  501    0  0.00000000000E+00  0.00000000000E+00  0.93775391004E+03  0.93775391005E+03  0.25500000920E-02 0.  1.
       -2   -1    0    0    0  501  0.00000000000E+00  0.00000000000E+00 -0.97137564361E+03  0.97137564362E+03  0.25500000920E-02 0. -1.
    10030    2    1    2    0    0  0.00000000000E+00  0.00000000000E+00 -0.33621733568E+02  0.19091295537E+04  0.19088334741E+04 0.  0.
        5    1    3    3  502    0  0.76128430598E+03 -0.92952939275E+02 -0.58496162925E+03  0.96457049568E+03  0.46999998093E+01 0. -1.
       -5    1    3    3    0  502 -0.76128430598E+03  0.92952939275E+02  0.55133989568E+03  0.94455905798E+03  0.46999998093E+01 0.  1.
</event>
<event>
 5   0  0.5824956E-05  0.1908488E+04  0.7818609E-02  0.8650643E-01
       -1   -1    0    0    0  501  0.00000000000E+00  0.00000000000E+00  0.59675898970E+03  0.59675898972E+03  0.50400001928E-02 0.  1.
        1   -1    0    0  501    0  0.00000000000E+00  0.00000000000E+00 -0.15258785699E+04  0.15258785699E+04  0.50400001928E-02 0. -1.
    10030    2    1    2    0    0  0.00000000000E+00  0.00000000000E+00 -0.92911958023E+03  0.21226375597E+04  0.19084881491E+04 0.  0.
        2    1    3    3  502    0  0.64653233724E+03 -0.14622071139E+03  0.29890273627E+03  0.72713644200E+03  0.25500000920E-02 0.  1.
       -2    1    3    3    0  502 -0.64653233724E+03  0.14622071139E+03 -0.12280223165E+04  0.13955011177E+04  0.25500000920E-02 0. -1.
</event>
<event>
 5   0  0.5614989E-05  0.1898185E+04  0.7818609E-02  0.8655760E-01
       -1   -1    0    0    0  501  0.00000000000E+00  0.00000000000E+00  0.52377185371E+03  0.52377185373E+03  0.50400001928E-02 0. -1.
        1   -1    0    0  501    0  0.00000000000E+00  0.00000000000E+00 -0.17197887656E+04  0.17197887656E+04  0.50400001928E-02 0.  1.
    10030    2    1    2    0    0  0.00000000000E+00  0.00000000000E+00 -0.11960169118E+04  0.22435606193E+04  0.18981853964E+04 0.  0.
        4    1    3    3  502    0 -0.40487589389E+03 -0.33545808067E+03 -0.15319127244E+04  0.16196341628E+04  0.12699999809E+01 0.  1.
       -4    1    3    3    0  502  0.40487589389E+03  0.33545808067E+03  0.33589581252E+03  0.62392645649E+03  0.12699999809E+01 0. -1.
</event>
<event>
 5   0  0.1101678E-04  0.1894480E+04  0.7818609E-02  0.8657609E-01
        2   -1    0    0  501    0  0.00000000000E+00  0.00000000000E+00  0.67415565492E+03  0.67415565493E+03  0.25500000920E-02 0. -1.
       -2   -1    0    0    0  501  0.00000000000E+00  0.00000000000E+00 -0.13309445037E+04  0.13309445037E+04  0.25500000920E-02 0.  1.
    10030    2    1    2    0    0  0.00000000000E+00  0.00000000000E+00 -0.65678884874E+03  0.20051001586E+04  0.18944801541E+04 0.  0.
        4    1    3    3  502    0 -0.18342448648E+03 -0.47778683936E+03 -0.11720170192E+04  0.12788863563E+04  0.12699999809E+01 0.  1.
       -4    1    3    3    0  502  0.18342448648E+03  0.47778683936E+03  0.51522817047E+03  0.72621380230E+03  0.12699999809E+01 0. -1.
</event>
<event>
 5   0  0.1133638E-04  0.1900550E+04  0.7818609E-02  0.8654583E-01
        2   -1    0    0  501    0  0.00000000000E+00  0.00000000000E+00  0.11510411888E+04  0.11510411888E+04  0.25500000920E-02 0.  1.
       -2   -1    0    0    0  501  0.00000000000E+00  0.00000000000E+00 -0.78452648157E+03  0.78452648158E+03  0.25500000920E-02 0. -1.
    10030    2    1    2    0    0  0.00000000000E+00  0.00000000000E+00  0.36651470725E+03  0.19355676704E+04  0.19005497037E+04 0.  0.
        3    1    3    3  502    0  0.91969721627E+03  0.13048065566E+03 -0.20819685422E+02  0.92914026961E+03  0.10100000352E+00 0. -1.
       -3    1    3    3    0  502 -0.91969721627E+03 -0.13048065566E+03  0.38733439267E+03  0.10064274008E+04  0.10100000352E+00 0.  1.
</event>
<event>
 5   0  0.5841424E-05  0.1894910E+04  0.7818609E-02  0.8657394E-01
       -1   -1    0    0    0  501  0.00000000000E+00  0.00000000000E+00  0.63583553133E+03  0.63583553135E+03  0.50400001928E-02 0. -1.
        1   -1    0    0  501    0  0.00000000000E+00  0.00000000000E+00 -0.14117967529E+04  0.14117967529E+04  0.50400001928E-02 0.  1.
    10030    2    1    2    0    0  0.00000000000E+00  0.00000000000E+00 -0.77596122154E+03  0.20476322842E+04  0.18949095372E+04 0.  0.
        1    1    3    3  502    0 -0.29436007548E+03  0.80241388244E+03 -0.82977755980E+03  0.11912374623E+04  0.50400001928E-02 0. -1.
       -1    1    3    3    0  502  0.29436007548E+03 -0.80241388244E+03  0.53816338257E+02  0.85639482194E+03  0.50400001928E-02 0.  1.
</event>
<event>
 5   0  0.5579109E-05  0.1900911E+04  0.7818609E-02  0.8654403E-01
        1   -1    0    0  501    0  0.00000000000E+00  0.00000000000E+00  0.16449396051E+04  0.16449396051E+04  0.50400001928E-02 0.  1.
       -1   -1    0    0    0  501  0.00000000000E+00  0.00000000000E+00 -0.54917844587E+03  0.54917844590E+03  0.50400001928E-02 0. -1.
    10030    2    1    2    0    0  0.00000000000E+00  0.00000000000E+00  0.10957611592E+04  0.21941180510E+04  0.19009107037E+04 0.  0.
        3    1    3    3  502    0 -0.13145377655E+03  0.53757259265E+03 -0.34403174576E+03  0.65163044743E+03  0.10100000352E+00 0. -1.
       -3    1    3    3    0  502  0.13145377655E+03 -0.53757259265E+03  0.14397929049E+04  0.15424876035E+04  0.10100000352E+00 0.  1.
</event>
<event>
 5   0  0.5824956E-05  0.1900938E+04  0.7818609E-02  0.8654390E-01
        1   -1    0    0  501    0  0.00000000000E+00  0.00000000000E+00  0.79272454723E+03  0.79272454725E+03  0.50400001928E-02 0. -1.
       -1   -1    0    0    0  501  0.00000000000E+00  0.00000000000E+00 -0.11396025081E+04  0.11396025081E+04  0.50400001928E-02 0.  1.
    10030    2    1    2    0    0  0.00000000000E+00  0.00000000000E+00 -0.34687796082E+03  0.19323270553E+04  0.19009375395E+04 0.  0.
        2    1    3    3  502    0 -0.38328685881E+03 -0.48944365303E+03 -0.90428752430E+03  0.10973603931E+04  0.25500000920E-02 0.  1.
       -2    1    3    3    0  502  0.38328685881E+03  0.48944365303E+03  0.55740956347E+03  0.83496666226E+03  0.25500000920E-02 0. -1.
</event>
<event>
 5   0  0.5824956E-05  0.1894417E+04  0.7818609E-02  0.8657640E-01
        1   -1    0    0  501    0  0.00000000000E+00  0.00000000000E+00  0.19092646235E+04  0.19092646235E+04  0.50400001928E-02 0.  1.
       -1   -1    0    0    0  501  0.00000000000E+00  0.00000000000E+00 -0.46992128649E+03  0.46992128652E+03  0.50400001928E-02 0. -1.
    10030    2    1    2    0    0  0.00000000000E+00  0.00000000000E+00  0.14393433370E+04  0.23791859100E+04  0.18944171538E+04 0.  0.
        2    1    3    3  502    0  0.18490025840E+03  0.54876247965E+03 -0.22172551753E+03  0.62007303583E+03  0.25500000920E-02 0. -1.
       -2    1    3    3    0  502 -0.18490025840E+03 -0.54876247965E+03  0.16610688545E+04  0.17591128742E+04  0.25500000920E-02 0.  1.
</event>
<event>
 5   0  0.1182630E-04  0.1908131E+04  0.7818609E-02  0.8650820E-01
        2   -1    0    0  501    0  0.00000000000E+00  0.00000000000E+00  0.10211342420E+04  0.10211342420E+04  0.25500000920E-02 0. -1.
       -2   -1    0    0    0  501  0.00000000000E+00  0.00000000000E+00 -0.89140144064E+03  0.89140144065E+03  0.25500000920E-02 0.  1.
    10030    2    1    2    0    0  0.00000000000E+00  0.00000000000E+00  0.12973280135E+03  0.19125356826E+04  0.19081305347E+04 0.  0.
        5    1    3    3  502    0  0.71621291312E+03 -0.35417293653E+03  0.58743270351E+03  0.99171501806E+03  0.46999998093E+01 0. -1.
       -5    1    3    3    0  502 -0.71621291312E+03  0.35417293653E+03 -0.45769990216E+03  0.92082066458E+03  0.46999998093E+01 0.  1.
</event>
<event>
 5   0  0.4061125E-05  0.1896552E+04  0.7818609E-02  0.8656575E-01
       -3   -1    0    0    0  501  0.00000000000E+00  0.00000000000E+00  0.21887618424E+04  0.21887618447E+04  0.10100000352E+00 0. -1.
        3   -1    0    0  501    0  0.00000000000E+00  0.00000000000E+00 -0.41083825465E+03  0.41083826707E+03  0.10100000352E+00 0.  1.
    10030    2    1    2    0    0  0.00000000000E+00  0.00000000000E+00  0.17779235877E+04  0.25996001117E+04  0.18965517281E+04 0.  0.
        2    1    3    3  502    0 -0.33154213262E+03 -0.21173272937E+03  0.20716418080E+04  0.21086608820E+04  0.25500000920E-02 0. -1.
       -2    1    3    3    0  502  0.33154213262E+03  0.21173272937E+03 -0.29371822032E+03  0.49093922978E+03  0.25500000920E-02 0.  1.
</event>
<event>
 5   0  0.5579109E-05  0.1901214E+04  0.7818609E-02  0.8654253E-01
        1   -1    0    0  501    0  0.00000000000E+00  0.00000000000E+00  0.22803148113E+04  0.22803148113E+04  0.50400001928E-02 0. -1.
       -1   -1    0    0    0  501  0.00000000000E+00  0.00000000000E+00 -0.39628442287E+03  0.39628442290E+03  0.50400001928E-02 0.  1.
    10030    2    1    2    0    0  0.00000000000E+00  0.00000000000E+00  0.18840303885E+04  0.26765992342E+04  0.19012135482E+04 0.  0.
        3    1    3    3  502    0  0.57435849598E+03  0.64103040324E+03  0.15101356437E+04  0.17381936981E+04  0.10100000352E+00 0. -1.
       -3    1    3    3    0  502 -0.57435849598E+03 -0.64103040324E+03  0.37389474480E+03  0.93840553609E+03  0.10100000352E+00 0.  1.
</event>
<event>
 5   0  0.5628936E-05  0.1829143E+04  0.7818609E-02  0.8690953E-01
        1   -1    0    0  501    0  0.00000000000E+00  0.00000000000E+00  0.11992953949E+04  0.11992953949E+04  0.50400001928E-02 0.  1.
       -1   -1    0    0    0  501  0.00000000000E+00  0.00000000000E+00 -0.69744351465E+03  0.69744351467E+03  0.50400001928E-02 0. -1.
    10030    2    1    2    0    0  0.00000000000E+00  0.00000000000E+00  0.50185188029E+03  0.18967389096E+04  0.18291427450E+04 0.  0.
        5    1    3    3  502    0 -0.27844025394E+03 -0.69920475633E+03 -0.28789417239E+03  0.80580482177E+03  0.46999998093E+01 0.  1.
       -5    1    3    3    0  502  0.27844025394E+03  0.69920475633E+03  0.78974605268E+03  0.10909340878E+04  0.46999998093E+01 0. -1.
</event>
<event>
 5   0  0.5841424E-05  0.1890252E+04  0.7818609E-02  0.8659724E-01
       -1   -1    0    0    0  501  0.00000000000E+00  0.00000000000E+00  0.90164654459E+03  0.90164654460E+03  0.50400001928E-02 0.  1.
        1   -1    0    0  501    0  0.00000000000E+00  0.00000000000E+00 -0.99070244289E+03  0.99070244290E+03  0.50400001928E-02 0. -1.
    10030    2    1    2    0    0  0.00000000000E+00  0.00000000000E+00 -0.89055898302E+02  0.18923489875E+04  0.18902522947E+04 0.  0.
        1    1    3    3  502    0  0.13701572328E+03  0.73949294029E+03 -0.61756160107E+03  0.97314204940E+03  0.50400001928E-02 0. -1.
       -1    1    3    3    0  502 -0.13701572328E+03 -0.73949294029E+03  0.52850570277E+03  0.91920693810E+03  0.50400001928E-02 0.  1.
</event>
<event>
 5   0  0.1141890E-04  0.1901753E+04  0.7818609E-02  0.8653984E-01
       -2   -1    0    0    0  501  0.00000000000E+00  0.00000000000E+00  0.71725527154E+03  0.71725527155E+03  0.25500000920E-02 0.  1.
        2   -1    0    0  501    0  0.00000000000E+00  0.00000000000E+00 -0.12605914379E+04  0.12605914379E+04  0.25500000920E-02 0. -1.
    10030    2    1    2    0    0  0.00000000000E+00  0.00000000000E+00 -0.54333616632E+03  0.19778467094E+04  0.19017527222E+04 0.  0.
        2    1    3    3  502    0  0.18419042064E+03 -0.61302736845E+03  0.45962951436E+03  0.78802789037E+03  0.25500000920E-02 0.  1.
       -2    1    3    3    0  502 -0.18419042064E+03  0.61302736845E+03 -0.10029656807E+04  0.11898188190E+04  0.25500000920E-02 0. -1.
</event>
<event>
 5   0  0.1118206E-04  0.1925925E+04  0.7818609E-02  0.8642058E-01
        2   -1    0    0  501    0  0.00000000000E+00  0.00000000000E+00  0.52088531996E+03  0.52088531996E+03  0.25500000920E-02 0. -1.
       -2   -1    0    0    0  501  0.00000000000E+00  0.00000000000E+00 -0.17802321716E+04  0.17802321716E+04  0.25500000920E-02 0.  1.
    10030    2    1    2    0    0  0.00000000000E+00  0.00000000000E+00 -0.12593468517E+04  0.23011174916E+04  0.19259250290E+04 0.  0.
        1    1    3    3  502    0  0.95725668961E+03 -0.10107547771E+03 -0.59716703386E+03  0.11327687709E+04  0.50400001928E-02 0.  1.
       -1    1    3    3    0  502 -0.95725668961E+03  0.10107547771E+03 -0.66217981781E+03  0.11683487207E+04  0.50400001928E-02 0. -1.
</event>
<event>
 5   0  0.4061125E-05  0.1989657E+04  0.7818609E-02  0.8611472E-01
       -3   -1    0    0    0  501  0.00000000000E+00  0.00000000000E+00  0.14107211208E+04  0.14107211244E+04  0.10100000352E+00 0. -1.
        3   -1    0    0  501    0  0.00000000000E+00  0.00000000000E+00 -0.70154456248E+03  0.70154456975E+03  0.10100000352E+00 0.  1.
    10030    2    1    2    0    0  0.00000000000E+00  0.00000000000E+00  0.70917655833E+03  0.21122656942E+04  0.19896569986E+04 0.  0.
        1    1    3    3  502    0 -0.32488810905E+03 -0.71432812866E+03  0.10037139328E+04  0.12740716690E+04  0.50400001928E-02 0. -1.
       -1    1    3    3    0  502  0.32488810905E+03  0.71432812866E+03 -0.29453737450E+03  0.83819402515E+03  0.50400001928E-02 0.  1.
</event>
<event>
 5   0  0.5824956E-05  0.1900469E+04  0.7818609E-02  0.8654623E-01
       -1   -1    0    0    0  501  0.00000000000E+00  0.00000000000E+00  0.78279359971E+03  0.78279359973E+03  0.50400001928E-02 0. -1.
        1   -1    0    0  501    0  0.00000000000E+00  0.00000000000E+00 -0.11534919037E+04  0.11534919037E+04  0.50400001928E-02 0.  1.
    10030    2    1    2    0    0  0.00000000000E+00  0.00000000000E+00 -0.37069830398E+03  0.19362855034E+04  0.19004694994E+04 0.  0.
        2    1    3    3  502    0 -0.63531883351E+03 -0.38534618216E+03  0.41811763482E+03  0.85261014354E+03  0.25500000920E-02 0.  1.
       -2    1    3    3    0  502  0.63531883351E+03  0.38534618216E+03 -0.78881593881E+03  0.10836753599E+04  0.25500000920E-02 0. -1.
</event>
<event>
 5   0  0.5579109E-05  0.1902840E+04  0.7818609E-02  0.8653444E-01
       -1   -1    0    0    0  501  0.00000000000E+00  0.00000000000E+00  0.66253224761E+03  0.66253224763E+03  0.50400001928E-02 0.  1.
        1   -1    0    0  501    0  0.00000000000E+00  0.00000000000E+00 -0.13662732662E+04  0.13662732662E+04  0.50400001928E-02 0. -1.
    10030    2    1    2    0    0  0.00000000000E+00  0.00000000000E+00 -0.70374101856E+03  0.20288055138E+04  0.19028400857E+04 0.  0.
        3    1    3    3  502    0 -0.51318687774E+03  0.15608363322E+03  0.48594538145E+03  0.72378573902E+03  0.10100000352E+00 0.  1.
       -3    1    3    3    0  502  0.51318687774E+03 -0.15608363322E+03 -0.11896864000E+04  0.13050197748E+04  0.10100000352E+00 0. -1.
</event>
<event>
 5   0  0.1141890E-04  0.1896339E+04  0.7818609E-02  0.8656681E-01
        2   -1    0    0  501    0  0.00000000000E+00  0.00000000000E+00  0.94712646417E+03  0.94712646417E+03  0.25500000920E-02 0. -1.
       -2   -1    0    0    0  501  0.00000000000E+00  0.00000000000E+00 -0.94921327598E+03  0.94921327598E+03  0.25500000920E-02 0.  1.
    10030    2    1    2    0    0  0.00000000000E+00  0.00000000000E+00 -0.20868118094E+01  0.18963397402E+04  0.18963385919E+04 0.  0.
        2    1    3    3  502    0 -0.31094098994E+03 -0.43332996803E+03 -0.78498638701E+03  0.94903255382E+03  0.25500000920E-02 0.  1.
       -2    1    3    3    0  502  0.31094098994E+03  0.43332996803E+03  0.78289957520E+03  0.94730718633E+03  0.25500000920E-02 0. -1.
</event>
<event>
 5   0  0.1118206E-04  0.1904916E+04  0.7818609E-02  0.8652413E-01
        2   -1    0    0  501    0  0.00000000000E+00  0.00000000000E+00  0.75092038311E+03  0.75092038311E+03  0.25500000920E-02 0.  1.
       -2   -1    0    0    0  501  0.00000000000E+00  0.00000000000E+00 -0.12080853964E+04  0.12080853964E+04  0.25500000920E-02 0. -1.
    10030    2    1    2    0    0  0.00000000000E+00  0.00000000000E+00 -0.45716501327E+03  0.19590057795E+04  0.19049156923E+04 0.  0.
        1    1    3    3  502    0  0.41501112974E+03 -0.48469000883E+03  0.49861515857E+03  0.80979980171E+03  0.50400001928E-02 0.  1.
       -1    1    3    3    0  502 -0.41501112974E+03  0.48469000883E+03 -0.95578017184E+03  0.11492059778E+04  0.50400001928E-02 0. -1.
</event>
<event>
 5   0  0.5841424E-05  0.1896889E+04  0.7818609E-02  0.8656407E-01
       -1   -1    0    0    0  501  0.00000000000E+00  0.00000000000E+00  0.12293250528E+04  0.12293250528E+04  0.50400001928E-02 0. -1.
        1   -1    0    0  501    0  0.00000000000E+00  0.00000000000E+00 -0.73174046584E+03  0.73174046585E+03  0.50400001928E-02 0.  1.
    10030    2    1    2    0    0  0.00000000000E+00  0.00000000000E+00  0.49758458693E+03  0.19610655186E+04  0.18968889127E+04 0.  0.
        1    1    3    3  502    0  0.22470463501E+03 -0.46662293515E+03 -0.57264460184E+03  0.77210813793E+03  0.50400001928E-02 0.  1.
       -1    1    3    3    0  502 -0.22470463501E+03  0.46662293515E+03  0.10702291888E+04  0.11889573807E+04  0.50400001928E-02 0. -1.
</event>
<event>
 5   0  0.1141890E-04  0.1892585E+04  0.7818609E-02  0.8658556E-01
       -2   -1    0    0    0  501  0.00000000000E+00  0.00000000000E+00  0.48961635263E+03  0.48961635264E+03  0.25500000920E-02 0. -1.
        2   -1    0    0  501    0  0.00000000000E+00  0.00000000000E+00 -0.18289203409E+04  0.18289203409E+04  0.25500000920E-02 0.  1.
    10030    2    1    2    0    0  0.00000000000E+00  0.00000000000E+00 -0.13393039883E+04  0.23185366936E+04  0.18925848003E+04 0.  0.
        2    1    3    3  502    0 -0.23928873436E+03 -0.76911086688E+03 -0.12781013503E+04  0.15107394499E+04  0.25500000920E-02 0.  1.
       -2    1    3    3    0  502  0.23928873436E+03  0.76911086688E+03 -0.61202638026E+02  0.80779724366E+03  0.25500000920E-02 0. -1.
</event>
<event>
 5   0  0.5614989E-05  0.1960297E+04  0.7818609E-02  0.8625411E-01
       -1   -1    0    0    0  501  0.00000000000E+00  0.00000000000E+00  0.61716614157E+03  0.61716614159E+03  0.50400001928E-02 0. -1.
        1   -1    0    0  501    0  0.00000000000E+00  0.00000000000E+00 -0.15566172183E+04  0.15566172183E+04  0.50400001928E-02 0.  1.
    10030    2    1    2    0    0  0.00000000000E+00  0.00000000000E+00 -0.93945107674E+03  0.21737833599E+04  0.19602973678E+04 0.  0.
        4    1    3    3  502    0  0.17944830961E+02 -0.69994442280E+03 -0.12303127462E+04  0.14155971455E+04  0.12699999809E+01 0.  1.
       -4    1    3    3    0  502 -0.17944830961E+02  0.69994442280E+03  0.29086166951E+03  0.75818621437E+03  0.12699999809E+01 0. -1.
</event>
<event>
 5   0  0.5579109E-05  0.1906629E+04  0.7818609E-02  0.8651564E-01
        1   -1    0    0  501    0  0.00000000000E+00  0.00000000000E+00  0.56641723613E+03  0.56641723616E+03  0.50400001928E-02 0.  1.
       -1   -1    0    0    0  501  0.00000000000E+00  0.00000000000E+00 -0.16044864026E+04  0.16044864026E+04  0.50400001928E-02 0. -1.
    10030    2    1    2    0    0  0.00000000000E+00  0.00000000000E+00 -0.10380691665E+04  0.21709036388E+04  0.19066292284E+04 0.  0.
        3    1    3    3  502    0 -0.73963169199E+03  0.17808683901E+03  0.13508445213E+03  0.77266925746E+03  0.10100000352E+00 0.  1.
       -3    1    3    3    0  502  0.73963169199E+03 -0.17808683901E+03 -0.11731536186E+04  0.13982343813E+04  0.10100000352E+00 0. -1.
</event>
<event>
 5   0  0.1182630E-04  0.1920191E+04  0.7818609E-02  0.8644871E-01
        2   -1    0    0  501    0  0.00000000000E+00  0.00000000000E+00  0.11451429351E+04  0.11451429351E+04  0.25500000920E-02 0.  1.
       -2   -1    0    0    0  501  0.00000000000E+00  0.00000000000E+00 -0.80495043011E+03  0.80495043011E+03  0.25500000920E-02 0. -1.
    10030    2    1    2    0    0  0.00000000000E+00  0.00000000000E+00  0.34019250501E+03  0.19500933652E+04  0.19201909261E+04 0.  0.
        5    1    3    3  502    0 -0.59363481307E+02  0.23348070685E+03 -0.77374394872E+03  0.81039438026E+03  0.46999998093E+01 0. -1.
       -5    1    3    3    0  502  0.59363481307E+02 -0.23348070685E+03  0.11139364537E+04  0.11396989850E+04  0.46999998093E+01 0.  1.
</event>
<event>
 5   0  0.1141890E-04  0.1886217E+04  0.7818609E-02  0.8661747E-01
        2   -1    0    0  501    0  0.00000000000E+00  0.00000000000E+00  0.33781933663E+03  0.33781933664E+03  0.25500000920E-02 0. -1.
       -2   -1    0    0    0  501  0.00000000000E+00  0.00000000000E+00 -0.26329280184E+04  0.26329280184E+04  0.25500000920E-02 0.  1.
    10030    2    1    2    0    0  0.00000000000E+00  0.00000000000E+00 -0.22951086818E+04  0.29707473551E+04  0.18862173752E+04 0.  0.
        2    1    3    3  502    0 -0.70549023497E+03  0.49507706023E+03 -0.54444699209E+03  0.10194313584E+04  0.25500000920E-02 0. -1.
       -2    1    3    3    0  502  0.70549023497E+03 -0.49507706023E+03 -0.17506616897E+04  0.19513159967E+04  0.25500000920E-02 0.  1.
</event>
<event>
 5   0  0.4061125E-05  0.1893009E+04  0.7818609E-02  0.8658344E-01
        3   -1    0    0  501    0  0.00000000000E+00  0.00000000000E+00  0.62772991768E+03  0.62772992580E+03  0.10100000352E+00 0. -1.
       -3   -1    0    0    0  501  0.00000000000E+00  0.00000000000E+00 -0.14271590699E+04  0.14271590735E+04  0.10100000352E+00 0.  1.
    10030    2    1    2    0    0  0.00000000000E+00  0.00000000000E+00 -0.79942915223E+03  0.20548889993E+04  0.18930086714E+04 0.  0.
        4    1    3    3  502    0 -0.38981517880E+03 -0.86180538711E+03 -0.36204164798E+03  0.10127883129E+04  0.12699999809E+01 0. -1.
       -4    1    3    3    0  502  0.38981517880E+03  0.86180538711E+03 -0.43738750425E+03  0.10421006864E+04  0.12699999809E+01 0.  1.
</event>
<event>
 5   0  0.5824956E-05  0.1892854E+04  0.7818609E-02  0.8658422E-01
       -1   -1    0    0    0  501  0.00000000000E+00  0.00000000000E+00  0.78368391978E+03  0.78368391980E+03  0.50400001928E-02 0. -1.
        1   -1    0    0  501    0  0.00000000000E+00  0.00000000000E+00 -0.11429656253E+04  0.11429656253E+04  0.50400001928E-02 0.  1.
    10030    2    1    2    0    0  0.00000000000E+00  0.00000000000E+00 -0.35928170554E+03  0.19266495451E+04  0.18928536990E+04 0.  0.
        2    1    3    3  502    0 -0.56846322815E+03 -0.37447170458E+03 -0.84890958577E+03  0.10881300401E+04  0.25500000920E-02 0.  1.
       -2    1    3    3    0  502  0.56846322815E+03  0.37447170458E+03  0.48962788022E+03  0.83851950507E+03  0.25500000920E-02 0. -1.
</event>
<event>
 5   0  0.5841424E-05  0.1911518E+04  0.7818609E-02  0.8649144E-01
       -1   -1    0    0    0  501  0.00000000000E+00  0.00000000000E+00  0.12781025836E+04  0.12781025836E+04  0.50400001928E-02 0. -1.
        1   -1    0    0  501    0  0.00000000000E+00  0.00000000000E+00 -0.71471209043E+03  0.71471209045E+03  0.50400001928E-02 0.  1.
    10030    2    1    2    0    0  0.00000000000E+00  0.00000000000E+00  0.56339049317E+03  0.19928146741E+04  0.19115181080E+04 0.  0.
        1    1    3    3  502    0  0.47390786796E+03  0.72336794410E+03  0.70597481915E+03  0.11163558103E+04  0.50400001928E-02 0. -1.
       -1    1    3    3    0  502 -0.47390786796E+03 -0.72336794410E+03 -0.14258432598E+03  0.87645886378E+03  0.50400001928E-02 0.  1.
</event>
<event>
 5   0  0.1141890E-04  0.1897465E+04  0.7818609E-02  0.8656119E-01
        2   -1    0    0  501    0  0.00000000000E+00  0.00000000000E+00  0.11895872643E+04  0.11895872643E+04  0.25500000920E-02 0.  1.
       -2   -1    0    0    0  501  0.00000000000E+00  0.00000000000E+00 -0.75664318059E+03  0.75664318059E+03  0.25500000920E-02 0. -1.
    10030    2    1    2    0    0  0.00000000000E+00  0.00000000000E+00  0.43294408367E+03  0.19462304449E+04  0.18974647203E+04 0.  0.
        2    1    3    3  502    0  0.83865670442E+01  0.54027117666E+03 -0.58339665224E+03  0.79518232670E+03  0.25500000920E-02 0. -1.
       -2    1    3    3    0  502 -0.83865670442E+01 -0.54027117666E+03  0.10163407359E+04  0.11510481182E+04  0.25500000920E-02 0.  1.
</event>
<event>
 5   0  0.5841424E-05  0.1889909E+04  0.7818609E-02  0.8659895E-01
       -1   -1    0    0    0  501  0.00000000000E+00  0.00000000000E+00  0.42102096803E+03  0.42102096806E+03  0.50400001928E-02 0. -1.
        1   -1    0    0  501    0  0.00000000000E+00  0.00000000000E+00 -0.21208905677E+04  0.21208905677E+04  0.50400001928E-02 0.  1.
    10030    2    1    2    0    0  0.00000000000E+00  0.00000000000E+00 -0.16998695997E+04  0.25419115357E+04  0.18899094157E+04 0.  0.
        1    1    3    3  502    0 -0.62558895253E+03 -0.62875664917E+03 -0.12883337246E+04  0.15641292298E+04  0.50400001928E-02 0.  1.
       -1    1    3    3    0  502  0.62558895253E+03  0.62875664917E+03 -0.41153587501E+03  0.97778230596E+03  0.50400001928E-02 0. -1.
</event>
<event>
 5   0  0.1182630E-04  0.1905755E+04  0.7818609E-02  0.8651997E-01
       -2   -1    0    0    0  501  0.00000000000E+00  0.00000000000E+00  0.84418492232E+03  0.84418492233E+03  0.25500000920E-02 0. -1.
        2   -1    0    0  501    0  0.00000000000E+00  0.00000000000E+00 -0.10755651088E+04  0.10755651088E+04  0.25500000920E-02 0.  1.
    10030    2    1    2    0    0  0.00000000000E+00  0.00000000000E+00 -0.23138018649E+03  0.19197500311E+04  0.19057553336E+04 0.  0.
        5    1    3    3  502    0 -0.59735982176E+03 -0.20772104211E+03  0.60226168613E+03  0.87334301197E+03  0.46999998093E+01 0. -1.
       -5    1    3    3    0  502  0.59735982176E+03  0.20772104211E+03 -0.83364187262E+03  0.10464070192E+04  0.46999998093E+01 0.  1.
</event>
<event>
 5   0  0.5579109E-05  0.1900634E+04  0.7818609E-02  0.8654541E-01
       -1   -1    0    0    0  501  0.00000000000E+00  0.00000000000E+00  0.75095792274E+03  0.75095792275E+03  0.50400001928E-02 0. -1.
        1   -1    0    0  501    0  0.00000000000E+00  0.00000000000E+00 -0.12026001229E+04  0.12026001229E+04  0.50400001928E-02 0.  1.
    10030    2    1    2    0    0  0.00000000000E+00  0.00000000000E+00 -0.45164220015E+03  0.19535580457E+04  0.19006336735E+04 0.  0.
        3    1    3    3  502    0  0.17306513384E+03 -0.32662852134E+03 -0.11256788884E+04  0.11848167375E+04  0.10100000352E+00 0.  1.
       -3    1    3    3    0  502 -0.17306513384E+03  0.32662852134E+03  0.67403668826E+03  0.76874130813E+03  0.10100000352E+00 0. -1.
</event>
<event>
 5   0  0.4061125E-05  0.1913438E+04  0.7818609E-02  0.8648196E-01
        3   -1    0    0  501    0  0.00000000000E+00  0.00000000000E+00  0.67466371782E+03  0.67466372538E+03  0.10100000352E+00 0. -1.
       -3   -1    0    0    0  501  0.00000000000E+00  0.00000000000E+00 -0.13566923989E+04  0.13566924027E+04  0.10100000352E+00 0.  1.
    10030    2    1    2    0    0  0.00000000000E+00  0.00000000000E+00 -0.68202868109E+03  0.20313561281E+04  0.19134379000E+04 0.  0.
        5    1    3    3  502    0 -0.31636522032E+03  0.33950836882E+03  0.54716550984E+03  0.71747130276E+03  0.46999998093E+01 0. -1.
       -5    1    3    3    0  502  0.31636522032E+03 -0.33950836882E+03 -0.12291941909E+04  0.13138848253E+04  0.46999998093E+01 0.  1.
</event>
<event>
 5   0  0.5628936E-05  0.1978926E+04  0.7818609E-02  0.8616538E-01
       -1   -1    0    0    0  501  0.00000000000E+00  0.00000000000E+00  0.75297998583E+03  0.75297998585E+03  0.50400001928E-02 0.  1.
        1   -1    0    0  501    0  0.00000000000E+00  0.00000000000E+00 -0.13002159369E+04  0.13002159370E+04  0.50400001928E-02 0. -1.
    10030    2    1    2    0    0  0.00000000000E+00  0.00000000000E+00 -0.54723595112E+03  0.20531959228E+04  0.19789255446E+04 0.  0.
        5    1    3    3  502    0 -0.12769930881E+03 -0.58378260692E+03  0.54458875451E+03  0.80852226138E+03  0.46999998093E+01 0.  1.
       -5    1    3    3    0  502  0.12769930881E+03  0.58378260692E+03 -0.10918247056E+04  0.12446736614E+04  0.46999998093E+01 0. -1.
</event>
<event>
 5   0  0.1141890E-04  0.1884716E+04  0.7818609E-02  0.8662502E-01
        2   -1    0    0  501    0  0.00000000000E+00  0.00000000000E+00  0.97913184183E+03  0.97913184183E+03  0.25500000920E-02 0. -1.
       -2   -1    0    0    0  501  0.00000000000E+00  0.00000000000E+00 -0.90696485478E+03  0.90696485478E+03  0.25500000920E-02 0.  1.
    10030    2    1    2    0    0  0.00000000000E+00  0.00000000000E+00  0.72166987044E+02  0.18860966966E+04  0.18847155422E+04 0.  0.
        2    1    3    3  502    0  0.91298220888E+03 -0.25694382164E+02  0.26829114770E+03  0.95193321980E+03  0.25500000920E-02 0. -1.
       -2    1    3    3    0  502 -0.91298220888E+03  0.25694382164E+02 -0.19612416066E+03  0.93416347681E+03  0.25500000920E-02 0.  1.
</event>
<event>
 5   0  0.5841424E-05  0.1919412E+04  0.7818609E-02  0.8645253E-01
       -1   -1    0    0    0  501  0.00000000000E+00  0.00000000000E+00  0.74090720145E+03  0.74090720147E+03  0.50400001928E-02 0.  1.
        1   -1    0    0  501    0  0.00000000000E+00  0.00000000000E+00 -0.12431192298E+04  0.12431192298E+04  0.50400001928E-02 0. -1.
    10030    2    1    2    0    0  0.00000000000E+00  0.00000000000E+00 -0.50221202835E+03  0.19840264313E+04  0.19194123993E+04 0.  0.
        1    1    3    3  502    0  0.57378301532E+03  0.70252398388E+03 -0.57513781276E+03  0.10740346365E+04  0.50400001928E-02 0.  1.
       -1    1    3    3    0  502 -0.57378301532E+03 -0.70252398388E+03  0.72925784408E+02  0.90999179483E+03  0.50400001928E-02 0. -1.
</event>
<event>
 5   0  0.1141890E-04  0.1905254E+04  0.7818609E-02  0.8652246E-01
       -2   -1    0    0    0  501  0.00000000000E+00  0.00000000000E+00  0.83998061455E+03  0.83998061456E+03  0.25500000920E-02 0. -1.
        2   -1    0    0  501    0  0.00000000000E+00  0.00000000000E+00 -0.10803799976E+04  0.10803799976E+04  0.25500000920E-02 0.  1.
    10030    2    1    2    0    0  0.00000000000E+00  0.00000000000E+00 -0.24039938302E+03  0.19203606121E+04  0.19052540558E+04 0.  0.
        2    1    3    3  502    0 -0.53893261250E+03 -0.40093039087E+03  0.56065960727E+03  0.87494727519E+03  0.25500000920E-02 0. -1.
       -2    1    3    3    0  502  0.53893261250E+03  0.40093039087E+03 -0.80105899029E+03  0.10454133369E+04  0.25500000920E-02 0.  1.
</event>
<event>
 5   0  0.5824956E-05  0.1894434E+04  0.7818609E-02  0.8657632E-01
        1   -1    0    0  501    0  0.00000000000E+00  0.00000000000E+00  0.18260917379E+04  0.18260917379E+04  0.50400001928E-02 0. -1.
       -1   -1    0    0    0  501  0.00000000000E+00  0.00000000000E+00 -0.49133337655E+03  0.49133337657E+03  0.50400001928E-02 0.  1.
    10030    2    1    2    0    0  0.00000000000E+00  0.00000000000E+00  0.13347583613E+04  0.23174251144E+04  0.18944337618E+04 0.  0.
        2    1    3    3  502    0 -0.88679797145E+03  0.25073396038E+03  0.39953463252E+03  0.10044431709E+04  0.25500000920E-02 0.  1.
       -2    1    3    3    0  502  0.88679797145E+03 -0.25073396038E+03  0.93522372879E+03  0.13129819435E+04  0.25500000920E-02 0. -1.
</event>
<event>
 5   0  0.5824956E-05  0.1889213E+04  0.7818609E-02  0.8660244E-01
        1   -1    0    0  501    0  0.00000000000E+00  0.00000000000E+00  0.59218047205E+03  0.59218047207E+03  0.50400001928E-02 0. -1.
       -1   -1    0    0    0  501  0.00000000000E+00  0.00000000000E+00 -0.15067733115E+04  0.15067733115E+04  0.50400001928E-02 0.  1.
    10030    2    1    2    0    0  0.00000000000E+00  0.00000000000E+00 -0.91459283943E+03  0.20989537836E+04  0.18892133081E+04 0.  0.
        2    1    3    3  502    0 -0.29906941365E+03 -0.54422256259E+03  0.33352900999E+03  0.70488460923E+03  0.25500000920E-02 0. -1.
       -2    1    3    3    0  502  0.29906941365E+03  0.54422256259E+03 -0.12481218494E+04  0.13940691743E+04  0.25500000920E-02 0.  1.
</event>
<event>
 5   0  0.5614989E-05  0.1891301E+04  0.7818609E-02  0.8659198E-01
        1   -1    0    0  501    0  0.00000000000E+00  0.00000000000E+00  0.10202244449E+04  0.10202244449E+04  0.50400001928E-02 0. -1.
       -1   -1    0    0    0  501  0.00000000000E+00  0.00000000000E+00 -0.87652788083E+03  0.87652788084E+03  0.50400001928E-02 0.  1.
    10030    2    1    2    0    0  0.00000000000E+00  0.00000000000E+00  0.14369656406E+03  0.18967523257E+04  0.18913013199E+04 0.  0.
        4    1    3    3  502    0  0.27469815366E+03  0.50259423369E+03 -0.68277872915E+03  0.89120617437E+03  0.12699999809E+01 0.  1.
       -4    1    3    3    0  502 -0.27469815366E+03 -0.50259423369E+03  0.82647529321E+03  0.10055461514E+04  0.12699999809E+01 0. -1.
</event>
<event>
 5   0  0.5614989E-05  0.1879078E+04  0.7818609E-02  0.8665341E-01
       -1   -1    0    0    0  501  0.00000000000E+00  0.00000000000E+00  0.97859146153E+03  0.97859146155E+03  0.50400001928E-02 0. -1.
        1   -1    0    0  501    0  0.00000000000E+00  0.00000000000E+00 -0.90204526806E+03  0.90204526807E+03  0.50400001928E-02 0.  1.
    10030    2    1    2    0    0  0.00000000000E+00  0.00000000000E+00  0.76546193477E+02  0.18806367296E+04  0.18790782818E+04 0.  0.
        4    1    3    3  502    0 -0.53835698384E+03 -0.76998669453E+03  0.43220125603E+02  0.94051972014E+03  0.12699999809E+01 0.  1.
       -4    1    3    3    0  502  0.53835698384E+03  0.76998669453E+03  0.33326067873E+02  0.94011700948E+03  0.12699999809E+01 0. -1.
</event>
<event>
 5   0  0.5628936E-05  0.1911127E+04  0.7818609E-02  0.8649338E-01
       -1   -1    0    0    0  501  0.00000000000E+00  0.00000000000E+00  0.73044761535E+03  0.73044761536E+03  0.50400001928E-02 0. -1.
        1   -1    0    0  501    0  0.00000000000E+00  0.00000000000E+00 -0.12500572507E+04  0.12500572507E+04  0.50400001928E-02 0.  1.
    10030    2    1    2    0    0  0.00000000000E+00  0.00000000000E+00 -0.51960963532E+03  0.19805048660E+04  0.19111267230E+04 0.  0.
        5    1    3    3  502    0 -0.22255809343E+03  0.60859131057E+03 -0.98755446883E+03  0.11811864405E+04  0.46999998093E+01 0.  1.
       -5    1    3    3    0  502  0.22255809343E+03 -0.60859131057E+03  0.46794483351E+03  0.79931842557E+03  0.46999998093E+01 0. -1.
</event>
<event>
 5   0  0.5579109E-05  0.1899325E+04  0.7818609E-02  0.8655192E-01
        1   -1    0    0  501    0  0.00000000000E+00  0.00000000000E+00  0.14901541883E+04  0.14901541883E+04  0.50400001928E-02 0.  1.
       -1   -1    0    0    0  501  0.00000000000E+00  0.00000000000E+00 -0.60521205235E+03  0.60521205237E+03  0.50400001928E-02 0. -1.
    10030    2    1    2    0    0  0.00000000000E+00  0.00000000000E+00  0.88494213594E+03  0.20953662407E+04  0.18993254325E+04 0.  0.
        3    1    3    3  502    0  0.70229051780E+03  0.54124821956E+03  0.67219217434E+02  0.88920191181E+03  0.10100000352E+00 0. -1.
       -3    1    3    3    0  502 -0.70229051780E+03 -0.54124821956E+03  0.81772291851E+03  0.12061643289E+04  0.10100000352E+00 0.  1.
</event>
<event>
 5   0  0.1182630E-04  0.1903016E+04  0.7818609E-02  0.8653357E-01
       -2   -1    0    0    0  501  0.00000000000E+00  0.00000000000E+00  0.47299085166E+03  0.47299085166E+03  0.25500000920E-02 0. -1.
        2   -1    0    0  501    0  0.00000000000E+00  0.00000000000E+00 -0.19141329017E+04  0.19141329017E+04  0.25500000920E-02 0.  1.
    10030    2    1    2    0    0  0.00000000000E+00  0.00000000000E+00 -0.14411420500E+04  0.23871237534E+04  0.19030158710E+04 0.  0.
        5    1    3    3  502    0  0.87568593844E+03  0.15086109697E+03 -0.11473592201E+04  0.14512202463E+04  0.46999998093E+01 0.  1.
       -5    1    3    3    0  502 -0.87568593844E+03 -0.15086109697E+03 -0.29378282998E+03  0.93590350708E+03  0.46999998093E+01 0. -1.
</event>
<event>
 5   0  0.5628936E-05  0.1907735E+04  0.7818609E-02  0.8651016E-01
        1   -1    0    0  501    0  0.00000000000E+00  0.00000000000E+00  0.19135644194E+04  0.19135644194E+04  0.50400001928E-02 0.  1.
       -1   -1    0    0    0  501  0.00000000000E+00  0.00000000000E+00 -0.47548063201E+03  0.47548063204E+03  0.50400001928E-02 0. -1.
    10030    2    1    2    0    0  0.00000000000E+00  0.00000000000E+00  0.14380837874E+04  0.23890450514E+04  0.19077345932E+04 0.  0.
        5    1    3    3  502    0  0.35568456776E+03 -0.32779296348E+03 -0.31049401958E+03  0.57479419347E+03  0.46999998093E+01 0. -1.
       -5    1    3    3    0  502 -0.35568456776E+03  0.32779296348E+03  0.17485778069E+04  0.18142508579E+04  0.46999998093E+01 0.  1.
</event>
<event>
 5   0  0.1118206E-04  0.1906786E+04  0.7818609E-02  0.8651486E-01
        2   -1    0    0  501    0  0.00000000000E+00  0.00000000000E+00  0.22324771360E+04  0.22324771360E+04  0.25500000920E-02 0.  1.
       -2   -1    0    0    0  501  0.00000000000E+00  0.00000000000E+00 -0.40715251240E+03  0.40715251241E+03  0.25500000920E-02 0. -1.
    10030    2    1    2    0    0  0.00000000000E+00  0.00000000000E+00  0.18253246236E+04  0.26396296484E+04  0.19067864850E+04 0.  0.
        1    1    3    3  502    0 -0.37318768950E+03 -0.79747388167E+03  0.40643300171E+03  0.96975328226E+03  0.50400001928E-02 0. -1.
       -1    1    3    3    0  502  0.37318768950E+03  0.79747388167E+03  0.14188916219E+04  0.16698763661E+04  0.50400001928E-02 0.  1.
</event>
<event>
 5   0  0.5579109E-05  0.1906423E+04  0.7818609E-02  0.8651666E-01
       -1   -1    0    0    0  501  0.00000000000E+00  0.00000000000E+00  0.13742278429E+04  0.13742278429E+04  0.50400001928E-02 0. -1.
        1   -1    0    0  501    0  0.00000000000E+00  0.00000000000E+00 -0.66117982856E+03  0.66117982858E+03  0.50400001928E-02 0.  1.
    10030    2    1    2    0    0  0.00000000000E+00  0.00000000000E+00  0.71304801436E+03  0.20354076715E+04  0.19064225446E+04 0.  0.
        3    1    3    3  502    0  0.20315371395E+03 -0.33124761032E+03 -0.57277743830E+03  0.69214912762E+03  0.10100000352E+00 0.  1.
       -3    1    3    3    0  502 -0.20315371395E+03  0.33124761032E+03  0.12858254527E+04  0.13432585439E+04  0.10100000352E+00 0. -1.
</event>
<event>
 5   0  0.5614989E-05  0.1915087E+04  0.7818609E-02  0.8647383E-01
       -1   -1    0    0    0  501  0.00000000000E+00  0.00000000000E+00  0.34758520141E+03  0.34758520145E+03  0.50400001928E-02 0.  1.
        1   -1    0    0  501    0  0.00000000000E+00  0.00000000000E+00 -0.26378837994E+04  0.26378837994E+04  0.50400001928E-02 0. -1.
    10030    2    1    2    0    0  0.00000000000E+00  0.00000000000E+00 -0.22902985980E+04  0.29854690008E+04  0.19150868093E+04 0.  0.
        4    1    3    3  502    0 -0.95059381900E+03  0.11495910178E+03 -0.11348610025E+04  0.14848418474E+04  0.12699999809E+01 0. -1.
       -4    1    3    3    0  502  0.95059381900E+03 -0.11495910178E+03 -0.11554375955E+04  0.15006271535E+04  0.12699999809E+01 0.  1.
</event>
<event>
 5   0  0.1118206E-04  0.1904315E+04  0.7818609E-02  0.8652711E-01
        2   -1    0    0  501    0  0.00000000000E+00  0.00000000000E+00  0.23429029282E+04  0.23429029282E+04  0.25500000920E-02 0. -1.
       -2   -1    0    0    0  501  0.00000000000E+00  0.00000000000E+00 -0.38695755271E+03  0.38695755272E+03  0.25500000920E-02 0.  1.
    10030    2    1    2    0    0  0.00000000000E+00  0.00000000000E+00  0.19559453755E+04  0.27298604809E+04  0.19043150825E+04 0.  0.
        1    1    3    3  502    0 -0.25409607859E+03 -0.65567376611E+03  0.57694079099E+02  0.70555050245E+03  0.50400001928E-02 0.  1.
       -1    1    3    3    0  502  0.25409607859E+03  0.65567376611E+03  0.18982512964E+04  0.20243099785E+04  0.50400001928E-02 0. -1.
</event>
<event>
 5   0  0.1133638E-04  0.1900643E+04  0.7818609E-02  0.8654536E-01
       -2   -1    0    0    0  501  0.00000000000E+00  0.00000000000E+00  0.74226384597E+03  0.74226384598E+03  0.25500000920E-02 0. -1.
        2   -1    0    0  501    0  0.00000000000E+00  0.00000000000E+00 -0.12166983279E+04  0.12166983279E+04  0.25500000920E-02 0.  1.
    10030    2    1    2    0    0  0.00000000000E+00  0.00000000000E+00 -0.47443448189E+03  0.19589621738E+04  0.19006432387E+04 0.  0.
        3    1    3    3  502    0  0.13009719550E+03 -0.76958691314E+03 -0.79599794209E+03  0.11148103117E+04  0.10100000352E+00 0.  1.
       -3    1    3    3    0  502 -0.13009719550E+03  0.76958691314E+03  0.32156346020E+03  0.84415186210E+03  0.10100000352E+00 0. -1.
</event>
<event>
 5   0  0.1118206E-04  0.1879546E+04  0.7818609E-02  0.8665105E-01
       -2   -1    0    0    0  501  0.00000000000E+00  0.00000000000E+00  0.75642981894E+03  0.75642981894E+03  0.25500000920E-02 0. -1.
        2   -1    0    0  501    0  0.00000000000E+00  0.00000000000E+00 -0.11675549623E+04  0.11675549623E+04  0.25500000920E-02 0.  1.
    10030    2    1    2    0    0  0.00000000000E+00  0.00000000000E+00 -0.41112514333E+03  0.19239847812E+04  0.18795461034E+04 0.  0.
        1    1    3    3  502    0 -0.21338874332E+03  0.77425748764E+03 -0.70512145388E+03  0.10687402293E+04  0.50400001928E-02 0.  1.
       -1    1    3    3    0  502  0.21338874332E+03 -0.77425748764E+03  0.29399631055E+03  0.85524455192E+03  0.50400001928E-02 0. -1.
</event>
<event>
 5   0  0.1133638E-04  0.1904061E+04  0.7818609E-02  0.8652838E-01
        2   -1    0    0  501    0  0.00000000000E+00  0.00000000000E+00  0.17060975595E+04  0.17060975595E+04  0.25500000920E-02 0.  1.
       -2   -1    0    0    0  501  0.00000000000E+00  0.00000000000E+00 -0.53124849750E+03  0.53124849751E+03  0.25500000920E-02 0. -1.
    10030    2    1    2    0    0  0.00000000000E+00  0.00000000000E+00  0.11748490620E+04  0.22373460570E+04  0.19040606766E+04 0.  0.
        3    1    3    3  502    0  0.26080239291E+03  0.91023944738E+03  0.47105401945E+03  0.10575659030E+04  0.10100000352E+00 0.  1.
       -3    1    3    3    0  502 -0.26080239291E+03 -0.91023944738E+03  0.70379504255E+03  0.11797801540E+04  0.10100000352E+00 0. -1.
</event>
<event>
 5   0  0.1141890E-04  0.1909492E+04  0.7818609E-02  0.8650146E-01
        2   -1    0    0  501    0  0.00000000000E+00  0.00000000000E+00  0.12905660431E+04  0.12905660431E+04  0.25500000920E-02 0. -1.
       -2   -1    0    0    0  501  0.00000000000E+00  0.00000000000E+00 -0.70631033877E+03  0.70631033878E+03  0.25500000920E-02 0.  1.
    10030    2    1    2    0    0  0.00000000000E+00  0.00000000000E+00  0.58425570435E+03  0.19968763819E+04  0.19094922248E+04 0.  0.
        2    1    3    3  502    0 -0.13487302953E+03 -0.33542123105E+03 -0.63196342205E+03  0.72806311756E+03  0.25500000920E-02 0.  1.
       -2    1    3    3    0  502  0.13487302953E+03  0.33542123105E+03  0.12162191264E+04  0.12688132643E+04  0.25500000920E-02 0. -1.
</event>
<event>
 5   0  0.1118206E-04  0.1901751E+04  0.7818609E-02  0.8653985E-01
       -2   -1    0    0    0  501  0.00000000000E+00  0.00000000000E+00  0.99823229570E+03  0.99823229571E+03  0.25500000920E-02 0. -1.
        2   -1    0    0  501    0  0.00000000000E+00  0.00000000000E+00 -0.90576545176E+03  0.90576545177E+03  0.25500000920E-02 0.  1.
    10030    2    1    2    0    0  0.00000000000E+00  0.00000000000E+00  0.92466843940E+02  0.19039977475E+04  0.19017511155E+04 0.  0.
        1    1    3    3  502    0 -0.61416570085E+03  0.39325425308E+03 -0.56466436027E+03  0.92233088176E+03  0.50400001928E-02 0.  1.
       -1    1    3    3    0  502  0.61416570085E+03 -0.39325425308E+03  0.65713120421E+03  0.98166686571E+03  0.50400001928E-02 0. -1.
</event>
<event>
 5   0  0.5628936E-05  0.1896596E+04  0.7818609E-02  0.8656553E-01
        1   -1    0    0  501    0  0.00000000000E+00  0.00000000000E+00  0.90439865422E+03  0.90439865424E+03  0.50400001928E-02 0. -1.
       -1   -1    0    0    0  501  0.00000000000E+00  0.00000000000E+00 -0.99432811540E+03  0.99432811541E+03  0.50400001928E-02 0.  1.
    10030    2    1    2    0    0  0.00000000000E+00  0.00000000000E+00 -0.89929461180E+02  0.18987267697E+04  0.18965959079E+04 0.  0.
        5    1    3    3  502    0 -0.18395330131E+03  0.51788773665E+03 -0.81862039081E+03  0.98600606442E+03  0.46999998093E+01 0.  1.
       -5    1    3    3    0  502  0.18395330131E+03 -0.51788773665E+03  0.72869092963E+03  0.91272070523E+03  0.46999998093E+01 0. -1.
</event>
<event>
 5   0  0.5628936E-05  0.1906733E+04  0.7818609E-02  0.8651512E-01
        1   -1    0    0  501    0  0.00000000000E+00  0.00000000000E+00  0.99614431131E+03  0.99614431133E+03  0.50400001928E-02 0. -1.
       -1   -1    0    0    0  501  0.00000000000E+00  0.00000000000E+00 -0.91242583582E+03  0.91242583584E+03  0.50400001928E-02 0.  1.
    10030    2    1    2    0    0  0.00000000000E+00  0.00000000000E+00  0.83718475491E+02  0.19085701472E+04  0.19067331285E+04 0.  0.
        5    1    3    3  502    0 -0.91506390302E+03 -0.19916201840E+03 -0.13685761855E+03  0.94644574801E+03  0.46999998093E+01 0.  1.
       -5    1    3    3    0  502  0.91506390302E+03  0.19916201840E+03  0.22057609404E+03  0.96212439915E+03  0.46999998093E+01 0. -1.
</event>
<event>
 5   0  0.1141890E-04  0.1909869E+04  0.7818609E-02  0.8649959E-01
       -2   -1    0    0    0  501  0.00000000000E+00  0.00000000000E+00  0.56401342023E+03  0.56401342023E+03  0.25500000920E-02 0.  1.
        2   -1    0    0  501    0  0.00000000000E+00  0.00000000000E+00 -0.16168059524E+04  0.16168059524E+04  0.25500000920E-02 0. -1.
    10030    2    1    2    0    0  0.00000000000E+00  0.00000000000E+00 -0.10527925322E+04  0.21808193726E+04  0.19098693726E+04 0.  0.
        2    1    3    3  502    0 -0.10625847785E+03  0.48692396314E+03  0.40372853193E+03  0.64139109559E+03  0.25500000920E-02 0.  1.
       -2    1    3    3    0  502  0.10625847785E+03 -0.48692396314E+03 -0.14565210641E+04  0.15394282770E+04  0.25500000920E-02 0. -1.
</event>
<event>
 5   0  0.5579109E-05  0.1911258E+04  0.7818609E-02  0.8649273E-01
        1   -1    0    0  501    0  0.00000000000E+00  0.00000000000E+00  0.13696343733E+04  0.13696343733E+04  0.50400001928E-02 0. -1.
       -1   -1    0    0    0  501  0.00000000000E+00  0.00000000000E+00 -0.66676705939E+03  0.66676705940E+03  0.50400001928E-02 0.  1.
    10030    2    1    2    0    0  0.00000000000E+00  0.00000000000E+00  0.70286731389E+03  0.20364014327E+04  0.19112583117E+04 0.  0.
        3    1    3    3  502    0  0.69678680168E+03  0.62246918429E+03  0.13768046771E+03  0.94442345046E+03  0.10100000352E+00 0.  1.
       -3    1    3    3    0  502 -0.69678680168E+03 -0.62246918429E+03  0.56518684617E+03  0.10919779822E+04  0.10100000352E+00 0. -1.
</event>
<event>
 5   0  0.5628936E-05  0.1894408E+04  0.7818609E-02  0.8657645E-01
       -1   -1    0    0    0  501  0.00000000000E+00  0.00000000000E+00  0.80625747040E+03  0.80625747041E+03  0.50400001928E-02 0.  1.
        1   -1    0    0  501    0  0.00000000000E+00  0.00000000000E+00 -0.11127896433E+04  0.11127896433E+04  0.50400001928E-02 0. -1.
    10030    2    1    2    0    0  0.00000000000E+00  0.00000000000E+00 -0.30653217288E+03  0.19190471137E+04  0.18944075199E+04 0.  0.
        5    1    3    3  502    0  0.83600831779E+03 -0.36729186926E+03  0.10172124673E+03  0.91879406108E+03  0.46999998093E+01 0.  1.
       -5    1    3    3    0  502 -0.83600831779E+03  0.36729186926E+03 -0.40825341961E+03  0.10002530526E+04  0.46999998093E+01 0. -1.
</event>
<event>
 5   0  0.4061125E-05  0.1941578E+04  0.7818609E-02  0.8634433E-01
       -4   -1    0    0    0  501  0.00000000000E+00  0.00000000000E+00  0.74020691197E+03  0.74020800146E+03  0.12699999809E+01 0.  1.
        4   -1    0    0  501    0  0.00000000000E+00  0.00000000000E+00 -0.12731971956E+04  0.12731978290E+04  0.12699999809E+01 0. -1.
    10030    2    1    2    0    0  0.00000000000E+00  0.00000000000E+00 -0.53299028366E+03  0.20134058305E+04  0.19415778109E+04 0.  0.
        4    1    3    3  502    0 -0.56161436658E+02  0.79562355066E+03 -0.84037453328E+03  0.11586206931E+04  0.12699999809E+01 0.  1.
       -4    1    3    3    0  502  0.56161436658E+02 -0.79562355066E+03  0.30738424962E+03  0.85478513742E+03  0.12699999809E+01 0. -1.
</event>
<event>
 5   0  0.1133638E-04  0.1905126E+04  0.7818609E-02  0.8652309E-01
        2   -1    0    0  501    0  0.00000000000E+00  0.00000000000E+00  0.18877496966E+04  0.18877496966E+04  0.25500000920E-02 0. -1.
       -2   -1    0    0    0  501  0.00000000000E+00  0.00000000000E+00 -0.48066537566E+03  0.48066537567E+03  0.25500000920E-02 0.  1.
    10030    2    1    2    0    0  0.00000000000E+00  0.00000000000E+00  0.14070843209E+04  0.23684150722E+04  0.19051256306E+04 0.  0.
        3    1    3    3  502    0  0.40427475691E+03  0.15088036710E+02  0.17756440444E+04  0.18211473061E+04  0.10100000352E+00 0. -1.
       -3    1    3    3    0  502 -0.40427475691E+03 -0.15088036710E+02 -0.36855972345E+03  0.54726776616E+03  0.10100000352E+00 0.  1.
</event>
<event>
 5   0  0.4061125E-05  0.1905307E+04  0.7818609E-02  0.8652219E-01
        3   -1    0    0  501    0  0.00000000000E+00  0.00000000000E+00  0.10128946106E+04  0.10128946156E+04  0.10100000352E+00 0. -1.
       -3   -1    0    0    0  501  0.00000000000E+00  0.00000000000E+00 -0.89599510313E+03  0.89599510882E+03  0.10100000352E+00 0.  1.
    10030    2    1    2    0    0  0.00000000000E+00  0.00000000000E+00  0.11689950747E+03  0.19088897245E+04  0.19053069268E+04 0.  0.
        4    1    3    3  502    0 -0.27714596383E+03  0.44334446599E+03  0.85630320129E+03  0.10033050315E+04  0.12699999809E+01 0. -1.
       -4    1    3    3    0  502  0.27714596383E+03 -0.44334446599E+03 -0.73940369382E+03  0.90558469296E+03  0.12699999809E+01 0.  1.
</event>
<event>
 5   0  0.1141890E-04  0.1891599E+04  0.7818609E-02  0.8659049E-01
       -2   -1    0    0    0  501  0.00000000000E+00  0.00000000000E+00  0.52756784772E+03  0.52756784772E+03  0.25500000920E-02 0. -1.
        2   -1    0    0  501    0  0.00000000000E+00  0.00000000000E+00 -0.16955867770E+04  0.16955867770E+04  0.25500000920E-02 0.  1.
    10030    2    1    2    0    0  0.00000000000E+00  0.00000000000E+00 -0.11680189292E+04  0.22231546247E+04  0.18915993937E+04 0.  0.
        2    1    3    3  502    0 -0.54518239938E+03 -0.66288775695E+03 -0.10510149657E+04  0.13569364337E+04  0.25500000920E-02 0.  1.
       -2    1    3    3    0  502  0.54518239938E+03  0.66288775695E+03 -0.11700396353E+03  0.86621819099E+03  0.25500000920E-02 0. -1.
</event>
<event>
 5   0  0.5579109E-05  0.1893796E+04  0.7818609E-02  0.8657951E-01
       -1   -1    0    0    0  501  0.00000000000E+00  0.00000000000E+00  0.48057816484E+03  0.48057816486E+03  0.50400001928E-02 0. -1.
        1   -1    0    0  501    0  0.00000000000E+00  0.00000000000E+00 -0.18657021527E+04  0.18657021527E+04  0.50400001928E-02 0.  1.
    10030    2    1    2    0    0  0.00000000000E+00  0.00000000000E+00 -0.13851239878E+04  0.23462803175E+04  0.18937958884E+04 0.  0.
        3    1    3    3  502    0 -0.76946003607E+03  0.34078060826E+03 -0.12303425349E+04  0.14906183057E+04  0.10100000352E+00 0. -1.
       -3    1    3    3    0  502  0.76946003607E+03 -0.34078060826E+03 -0.15478145297E+03  0.85566201181E+03  0.10100000352E+00 0.  1.
</event>
<event>
 5   0  0.1118206E-04  0.1886952E+04  0.7818609E-02  0.8661378E-01
        2   -1    0    0  501    0  0.00000000000E+00  0.00000000000E+00  0.23284999291E+04  0.23284999291E+04  0.25500000920E-02 0. -1.
       -2   -1    0    0    0  501  0.00000000000E+00  0.00000000000E+00 -0.38228354775E+03  0.38228354776E+03  0.25500000920E-02 0.  1.
    10030    2    1    2    0    0  0.00000000000E+00  0.00000000000E+00  0.19462163813E+04  0.27107834769E+04  0.18869522663E+04 0.  0.
        1    1    3    3  502    0 -0.42820525765E+03 -0.65709499309E+03  0.17264828946E+04  0.18962797151E+04  0.50400001928E-02 0. -1.
       -1    1    3    3    0  502  0.42820525765E+03  0.65709499309E+03  0.21973348673E+03  0.81450376171E+03  0.50400001928E-02 0.  1.
</event>
<event>
 5   0  0.5824956E-05  0.1891777E+04  0.7818609E-02  0.8658960E-01
        1   -1    0    0  501    0  0.00000000000E+00  0.00000000000E+00  0.51285188354E+03  0.51285188357E+03  0.50400001928E-02 0. -1.
       -1   -1    0    0    0  501  0.00000000000E+00  0.00000000000E+00 -0.17445678645E+04  0.17445678645E+04  0.50400001928E-02 0.  1.
    10030    2    1    2    0    0  0.00000000000E+00  0.00000000000E+00 -0.12317159810E+04  0.22574197481E+04  0.18917768529E+04 0.  0.
        2    1    3    3  502    0 -0.50413338645E+03  0.87638107203E+02 -0.15651526592E+04  0.16466735426E+04  0.25500000920E-02 0.  1.
       -2    1    3    3    0  502  0.50413338645E+03 -0.87638107203E+02  0.33343667824E+03  0.61074620553E+03  0.25500000920E-02 0. -1.
</event>
<event>
 5   0  0.5628936E-05  0.1905817E+04  0.7818609E-02  0.8651966E-01
       -1   -1    0    0    0  501  0.00000000000E+00  0.00000000000E+00  0.56012007177E+03  0.56012007179E+03  0.50400001928E-02 0. -1.
        1   -1    0    0  501    0  0.00000000000E+00  0.00000000000E+00 -0.16211423512E+04  0.16211423512E+04  0.50400001928E-02 0.  1.
    10030    2    1    2    0    0  0.00000000000E+00  0.00000000000E+00 -0.10610222795E+04  0.21812624230E+04  0.19058167489E+04 0.  0.
        5    1    3    3  502    0  0.60993311245E+03  0.77491597556E+02  0.30270980438E+03  0.68533106235E+03  0.46999998093E+01 0. -1.
       -5    1    3    3    0  502 -0.60993311245E+03 -0.77491597556E+02 -0.13637320838E+04  0.14959313607E+04  0.46999998093E+01 0.  1.
</event>
<event>
 5   0  0.5628936E-05  0.1893745E+04  0.7818609E-02  0.8657976E-01
        1   -1    0    0  501    0  0.00000000000E+00  0.00000000000E+00  0.74540462666E+03  0.74540462668E+03  0.50400001928E-02 0.  1.
       -1   -1    0    0    0  501  0.00000000000E+00  0.00000000000E+00 -0.12027925283E+04  0.12027925283E+04  0.50400001928E-02 0. -1.
    10030    2    1    2    0    0  0.00000000000E+00  0.00000000000E+00 -0.45738790162E+03  0.19481971550E+04  0.18937445609E+04 0.  0.
        5    1    3    3  502    0 -0.26336008999E+03 -0.20114762485E+03 -0.11411738188E+04  0.11883259985E+04  0.46999998093E+01 0. -1.
       -5    1    3    3    0  502  0.26336008999E+03  0.20114762485E+03  0.68378591716E+03  0.75987115650E+03  0.46999998093E+01 0.  1.
</event>
<event>
 5   0  0.5824956E-05  0.1896817E+04  0.7818609E-02  0.8656442E-01
       -1   -1    0    0    0  501  0.00000000000E+00  0.00000000000E+00  0.83585813995E+03  0.83585813997E+03  0.50400001928E-02 0. -1.
        1   -1    0    0  501    0  0.00000000000E+00  0.00000000000E+00 -0.10761140311E+04  0.10761140311E+04  0.50400001928E-02 0.  1.
    10030    2    1    2    0    0  0.00000000000E+00  0.00000000000E+00 -0.24025589116E+03  0.19119721711E+04  0.18968169890E+04 0.  0.
        2    1    3    3  502    0 -0.41863235087E+03  0.10992160607E+03  0.73050010602E+03  0.84909729100E+03  0.25500000920E-02 0. -1.
       -2    1    3    3    0  502  0.41863235087E+03 -0.10992160607E+03 -0.97075599718E+03  0.10628748801E+04  0.25500000920E-02 0.  1.
</event>
<event>
 5   0  0.1101678E-04  0.1905533E+04  0.7818609E-02  0.8652107E-01
       -2   -1    0    0    0  501  0.00000000000E+00  0.00000000000E+00  0.62069023979E+03  0.62069023980E+03  0.25500000920E-02 0. -1.
        2   -1    0    0  501    0  0.00000000000E+00  0.00000000000E+00 -0.14625079712E+04  0.14625079712E+04  0.25500000920E-02 0.  1.
    10030    2    1    2    0    0  0.00000000000E+00  0.00000000000E+00 -0.84181773145E+03  0.20831982110E+04  0.19055334407E+04 0.  0.
        4    1    3    3  502    0  0.29227473649E+03 -0.72944592003E+03  0.16806746636E+03  0.80359452337E+03  0.12699999809E+01 0. -1.
       -4    1    3    3    0  502 -0.29227473649E+03  0.72944592003E+03 -0.10098851978E+04  0.12796036877E+04  0.12699999809E+01 0.  1.
</event>
<event>
 5   0  0.5614989E-05  0.1701570E+04  0.7818609E-02  0.8760470E-01
       -1   -1    0    0    0  501  0.00000000000E+00  0.00000000000E+00  0.71555216373E+03  0.71555216375E+03  0.50400001928E-02 0.  1.
        1   -1    0    0  501    0  0.00000000000E+00  0.00000000000E+00 -0.10115752492E+04  0.10115752492E+04  0.50400001928E-02 0. -1.
    10030    2    1    2    0    0  0.00000000000E+00  0.00000000000E+00 -0.29602308550E+03  0.17271274130E+04  0.17015696970E+04 0.  0.
        4    1    3    3  502    0  0.79307187402E+02 -0.82706140946E+03  0.37803791277E+02  0.83171566327E+03  0.12699999809E+01 0. -1.
       -4    1    3    3    0  502 -0.79307187402E+02  0.82706140946E+03 -0.33382687678E+03  0.89541174973E+03  0.12699999809E+01 0.  1.
</event>
<event>
 5   0  0.5628936E-05  0.1905143E+04  0.7818609E-02  0.8652301E-01
        1   -1    0    0  501    0  0.00000000000E+00  0.00000000000E+00  0.12461830105E+04  0.12461830105E+04  0.50400001928E-02 0. -1.
       -1   -1    0    0    0  501  0.00000000000E+00  0.00000000000E+00 -0.72813743107E+03  0.72813743108E+03  0.50400001928E-02 0.  1.
    10030    2    1    2    0    0  0.00000000000E+00  0.00000000000E+00  0.51804557941E+03  0.19743204416E+04  0.19051430350E+04 0.  0.
        5    1    3    3  502    0 -0.42057762634E+03  0.22280665275E+03 -0.59606999887E+03  0.76279084802E+03  0.46999998093E+01 0.  1.
       -5    1    3    3    0  502  0.42057762634E+03 -0.22280665275E+03  0.11141155783E+04  0.12115295935E+04  0.46999998093E+01 0. -1.
</event>
<event>
 5   0  0.5824956E-05  0.1935759E+04  0.7818609E-02  0.8637259E-01
       -1   -1    0    0    0  501  0.00000000000E+00  0.00000000000E+00  0.70432185413E+03  0.70432185415E+03  0.50400001928E-02 0.  1.
        1   -1    0    0  501    0  0.00000000000E+00  0.00000000000E+00 -0.13300601066E+04  0.13300601066E+04  0.50400001928E-02 0. -1.
    10030    2    1    2    0    0  0.00000000000E+00  0.00000000000E+00 -0.62573825246E+03  0.20343819608E+04  0.19357586631E+04 0.  0.
        2    1    3    3  502    0  0.56997669927E+03 -0.25025910289E+03 -0.10917680093E+04  0.12567658662E+04  0.25500000920E-02 0. -1.
       -2    1    3    3    0  502 -0.56997669927E+03  0.25025910289E+03  0.46602975682E+03  0.77761609458E+03  0.25500000920E-02 0.  1.
</event>
<event>
 5   0  0.1118206E-04  0.1898276E+04  0.7818609E-02  0.8655715E-01
       -2   -1    0    0    0  501  0.00000000000E+00  0.00000000000E+00  0.78639787368E+03  0.78639787368E+03  0.25500000920E-02 0. -1.
        2   -1    0    0  501    0  0.00000000000E+00  0.00000000000E+00 -0.11455563026E+04  0.11455563026E+04  0.25500000920E-02 0.  1.
    10030    2    1    2    0    0  0.00000000000E+00  0.00000000000E+00 -0.35915842887E+03  0.19319541762E+04  0.18982761027E+04 0.  0.
        1    1    3    3  502    0  0.29796539610E+03  0.15084216256E+03  0.72462333867E+03  0.79788202026E+03  0.50400001928E-02 0. -1.
       -1    1    3    3    0  502 -0.29796539610E+03 -0.15084216256E+03 -0.10837817675E+04  0.11340721560E+04  0.50400001928E-02 0.  1.
</event>
<event>
 5   0  0.1133638E-04  0.1899788E+04  0.7818609E-02  0.8654962E-01
       -2   -1    0    0    0  501  0.00000000000E+00  0.00000000000E+00  0.58677951336E+03  0.58677951336E+03  0.25500000920E-02 0. -1.
        2   -1    0    0  501    0  0.00000000000E+00  0.00000000000E+00 -0.15377135410E+04  0.15377135410E+04  0.25500000920E-02 0.  1.
    10030    2    1    2    0    0  0.00000000000E+00  0.00000000000E+00 -0.95093402763E+03  0.21244930544E+04  0.18997882022E+04 0.  0.
        3    1    3    3  502    0  0.33051380128E+03 -0.81602881424E+03 -0.87423403293E+03  0.12407366977E+04  0.10100000352E+00 0.  1.
       -3    1    3    3    0  502 -0.33051380128E+03  0.81602881424E+03 -0.76699994699E+02  0.88375635664E+03  0.10100000352E+00 0. -1.
</event>
<event>
 5   0  0.1133638E-04  0.1906487E+04  0.7818609E-02  0.8651634E-01
       -2   -1    0    0    0  501  0.00000000000E+00  0.00000000000E+00  0.97278939308E+03  0.97278939308E+03  0.25500000920E-02 0. -1.
        2   -1    0    0  501    0  0.00000000000E+00  0.00000000000E+00 -0.93409001890E+03  0.93409001891E+03  0.25500000920E-02 0.  1.
    10030    2    1    2    0    0  0.00000000000E+00  0.00000000000E+00  0.38699374173E+02  0.19068794120E+04  0.19064866772E+04 0.  0.
        3    1    3    3  502    0  0.45239579097E+03 -0.11744249881E+03  0.85031452285E+03  0.97030381334E+03  0.10100000352E+00 0. -1.
       -3    1    3    3    0  502 -0.45239579097E+03  0.11744249881E+03 -0.81161514868E+03  0.93657559865E+03  0.10100000352E+00 0.  1.
</event>
<event>
 5   0  0.5614989E-05  0.1885184E+04  0.7818609E-02  0.8662267E-01
       -1   -1    0    0    0  501  0.00000000000E+00  0.00000000000E+00  0.58427564508E+03  0.58427564510E+03  0.50400001928E-02 0. -1.
        1   -1    0    0  501    0  0.00000000000E+00  0.00000000000E+00 -0.15206514681E+04  0.15206514681E+04  0.50400001928E-02 0.  1.
    10030    2    1    2    0    0  0.00000000000E+00  0.00000000000E+00 -0.93637582299E+03  0.21049271132E+04  0.18851839353E+04 0.  0.
        4    1    3    3  502    0 -0.50136408840E+03 -0.40055263817E+03 -0.12390773179E+04  0.13953933416E+04  0.12699999809E+01 0.  1.
       -4    1    3    3    0  502  0.50136408840E+03  0.40055263817E+03  0.30270149493E+03  0.70953377158E+03  0.12699999809E+01 0. -1.
</event>
<event>
 5   0  0.1118206E-04  0.1900232E+04  0.7818609E-02  0.8654741E-01
        2   -1    0    0  501    0  0.00000000000E+00  0.00000000000E+00  0.12742393226E+04  0.12742393226E+04  0.25500000920E-02 0.  1.
       -2   -1    0    0    0  501  0.00000000000E+00  0.00000000000E+00 -0.70843884764E+03  0.70843884765E+03  0.25500000920E-02 0. -1.
    10030    2    1    2    0    0  0.00000000000E+00  0.00000000000E+00  0.56580047497E+03  0.19826781703E+04  0.19002322356E+04 0.  0.
        1    1    3    3  502    0  0.18949936888E+03 -0.36630881396E+03 -0.61017375472E+03  0.73648093591E+03  0.50400001928E-02 0. -1.
       -1    1    3    3    0  502 -0.18949936888E+03  0.36630881396E+03  0.11759742297E+04  0.12461972343E+04  0.50400001928E-02 0.  1.
</event>
<event>
 5   0  0.5824956E-05  0.1899220E+04  0.7818609E-02  0.8655245E-01
       -1   -1    0    0    0  501  0.00000000000E+00  0.00000000000E+00  0.94070717462E+03  0.94070717463E+03  0.50400001928E-02 0.  1.
        1   -1    0    0  501    0  0.00000000000E+00  0.00000000000E+00 -0.95859679545E+03  0.95859679546E+03  0.50400001928E-02 0. -1.
    10030    2    1    2    0    0  0.00000000000E+00  0.00000000000E+00 -0.17889620832E+02  0.18993039701E+04  0.18992197167E+04 0.  0.
        2    1    3    3  502    0 -0.16357392994E+03 -0.86144047599E+03 -0.37354672011E+03  0.95308618516E+03  0.25500000920E-02 0. -1.
       -2    1    3    3    0  502  0.16357392994E+03  0.86144047599E+03  0.35565709928E+03  0.94621778493E+03  0.25500000920E-02 0.  1.
</event>
<event>
 5   0  0.5579109E-05  0.1892250E+04  0.7818609E-02  0.8658723E-01
       -1   -1    0    0    0  501  0.00000000000E+00  0.00000000000E+00  0.10477237007E+04  0.10477237008E+04  0.50400001928E-02 0.  1.
        1   -1    0    0  501    0  0.00000000000E+00  0.00000000000E+00 -0.85437886127E+03  0.85437886129E+03  0.50400001928E-02 0. -1.
    10030    2    1    2    0    0  0.00000000000E+00  0.00000000000E+00  0.19334483947E+03  0.19021025620E+04  0.18922504934E+04 0.  0.
        3    1    3    3  502    0  0.35974765755E+03  0.23096063467E+03 -0.75175511254E+03  0.86481035569E+03  0.10100000352E+00 0. -1.
       -3    1    3    3    0  502 -0.35974765755E+03 -0.23096063467E+03  0.94509995201E+03  0.10372922064E+04  0.10100000352E+00 0.  1.
</event>
<event>
 5   0  0.5628936E-05  0.1903176E+04  0.7818609E-02  0.8653277E-01
       -1   -1    0    0    0  501  0.00000000000E+00  0.00000000000E+00  0.13419486628E+04  0.13419486628E+04  0.50400001928E-02 0. -1.
        1   -1    0    0  501    0  0.00000000000E+00  0.00000000000E+00 -0.67477952890E+03  0.67477952892E+03  0.50400001928E-02 0.  1.
    10030    2    1    2    0    0  0.00000000000E+00  0.00000000000E+00  0.66716913387E+03  0.20167281917E+04  0.19031757528E+04 0.  0.
        5    1    3    3  502    0  0.57433727543E+03 -0.65098042251E+03 -0.79356561944E+02  0.87175591215E+03  0.46999998093E+01 0. -1.
       -5    1    3    3    0  502 -0.57433727543E+03  0.65098042251E+03  0.74652569581E+03  0.11449722796E+04  0.46999998093E+01 0.  1.
</event>
<event>
 5   0  0.1141890E-04  0.1941124E+04  0.7818609E-02  0.8634653E-01
        2   -1    0    0  501    0  0.00000000000E+00  0.00000000000E+00  0.13757593799E+04  0.13757593799E+04  0.25500000920E-02 0.  1.
       -2   -1    0    0    0  501  0.00000000000E+00  0.00000000000E+00 -0.68470603350E+03  0.68470603351E+03  0.25500000920E-02 0. -1.
    10030    2    1    2    0    0  0.00000000000E+00  0.00000000000E+00  0.69105334644E+03  0.20604654135E+04  0.19411241569E+04 0.  0.
        2    1    3    3  502    0  0.67901482862E+03  0.39956224767E+03 -0.25613674111E+03  0.82844260960E+03  0.25500000920E-02 0.  1.
       -2    1    3    3    0  502 -0.67901482862E+03 -0.39956224767E+03  0.94719008755E+03  0.12320228039E+04  0.25500000920E-02 0. -1.
</event>
<event>
 5   0  0.1118206E-04  0.1894939E+04  0.7818609E-02  0.8657380E-01
       -2   -1    0    0    0  501  0.00000000000E+00  0.00000000000E+00  0.13160118435E+04  0.13160118435E+04  0.25500000920E-02 0. -1.
        2   -1    0    0  501    0  0.00000000000E+00  0.00000000000E+00 -0.68213527292E+03  0.68213527292E+03  0.25500000920E-02 0.  1.
    10030    2    1    2    0    0  0.00000000000E+00  0.00000000000E+00  0.63387657057E+03  0.19981471164E+04  0.18949386249E+04 0.  0.
        1    1    3    3  502    0 -0.40582341511E+03 -0.79154708963E+03 -0.27112701161E+02  0.88992951290E+03  0.50400001928E-02 0.  1.
       -1    1    3    3    0  502  0.40582341511E+03  0.79154708963E+03  0.66098927173E+03  0.11082176035E+04  0.50400001928E-02 0. -1.
</event>
<event>
 5   0  0.1133638E-04  0.1908453E+04  0.7818609E-02  0.8650660E-01
       -2   -1    0    0    0  501  0.00000000000E+00  0.00000000000E+00  0.13179929745E+04  0.13179929745E+04  0.25500000920E-02 0.  1.
        2   -1    0    0  501    0  0.00000000000E+00  0.00000000000E+00 -0.69085975230E+03  0.69085975231E+03  0.25500000920E-02 0. -1.
    10030    2    1    2    0    0  0.00000000000E+00  0.00000000000E+00  0.62713322221E+03  0.20088527268E+04  0.19084530908E+04 0.  0.
        3    1    3    3  502    0 -0.59697066384E+03 -0.71432489395E+02 -0.46640922001E+03  0.76092978963E+03  0.10100000352E+00 0. -1.
       -3    1    3    3    0  502  0.59697066384E+03  0.71432489395E+02  0.10935424422E+04  0.12479229372E+04  0.10100000352E+00 0.  1.
</event>
<event>
 5   0  0.5824956E-05  0.1887271E+04  0.7818609E-02  0.8661218E-01
       -1   -1    0    0    0  501  0.00000000000E+00  0.00000000000E+00  0.89358313806E+03  0.89358313807E+03  0.50400001928E-02 0.  1.
        1   -1    0    0  501    0  0.00000000000E+00  0.00000000000E+00 -0.99649182697E+03  0.99649182698E+03  0.50400001928E-02 0. -1.
    10030    2    1    2    0    0  0.00000000000E+00  0.00000000000E+00 -0.10290868890E+03  0.18900749651E+04  0.18872713571E+04 0.  0.
        2    1    3    3  502    0  0.61868932882E+03 -0.60969869904E+03  0.31779284895E+03  0.92493312410E+03  0.25500000920E-02 0.  1.
       -2    1    3    3    0  502 -0.61868932882E+03  0.60969869904E+03 -0.42070153785E+03  0.96514184096E+03  0.25500000920E-02 0. -1.
</event>
<event>
 5   0  0.1101678E-04  0.1804121E+04  0.7818609E-02  0.8704111E-01
       -2   -1    0    0    0  501  0.00000000000E+00  0.00000000000E+00  0.13402311777E+04  0.13402311777E+04  0.25500000920E-02 0. -1.
        2   -1    0    0  501    0  0.00000000000E+00  0.00000000000E+00 -0.60714373557E+03  0.60714373557E+03  0.25500000920E-02 0.  1.
    10030    2    1    2    0    0  0.00000000000E+00  0.00000000000E+00  0.73308744209E+03  0.19473749132E+04  0.18041207983E+04 0.  0.
        4    1    3    3  502    0 -0.22107532155E+03  0.64159502464E+03  0.10080337735E+04  0.12151757794E+04  0.12699999809E+01 0. -1.
       -4    1    3    3    0  502  0.22107532155E+03 -0.64159502464E+03 -0.27494633146E+03  0.73219913379E+03  0.12699999809E+01 0.  1.
</event>
<event>
 5   0  0.1118206E-04  0.1893800E+04  0.7818609E-02  0.8657949E-01
       -2   -1    0    0    0  501  0.00000000000E+00  0.00000000000E+00  0.47965771962E+03  0.47965771963E+03  0.25500000920E-02 0.  1.
        2   -1    0    0  501    0  0.00000000000E+00  0.00000000000E+00 -0.18692901510E+04  0.18692901510E+04  0.25500000920E-02 0. -1.
    10030    2    1    2    0    0  0.00000000000E+00  0.00000000000E+00 -0.13896324314E+04  0.23489478706E+04  0.18937998322E+04 0.  0.
        1    1    3    3  502    0 -0.52920925688E+02  0.93843026894E+03 -0.55248824385E+03  0.10902730179E+04  0.50400001928E-02 0.  1.
       -1    1    3    3    0  502  0.52920925688E+02 -0.93843026894E+03 -0.83714418753E+03  0.12586748527E+04  0.50400001928E-02 0. -1.
</event>
<event>
 5   0  0.5841424E-05  0.1899888E+04  0.7818609E-02  0.8654912E-01
       -1   -1    0    0    0  501  0.00000000000E+00  0.00000000000E+00  0.82184739779E+03  0.82184739781E+03  0.50400001928E-02 0. -1.
        1   -1    0    0  501    0  0.00000000000E+00  0.00000000000E+00 -0.10980057197E+04  0.10980057197E+04  0.50400001928E-02 0.  1.
    10030    2    1    2    0    0  0.00000000000E+00  0.00000000000E+00 -0.27615832193E+03  0.19198531175E+04  0.18998875162E+04 0.  0.
        1    1    3    3  502    0  0.90644331837E+03  0.25635362386E+03 -0.14167233440E+02  0.94210263794E+03  0.50400001928E-02 0.  1.
       -1    1    3    3    0  502 -0.90644331837E+03 -0.25635362386E+03 -0.26199108849E+03  0.97775047960E+03  0.50400001928E-02 0. -1.
</event>
<event>
 5   0  0.5628936E-05  0.1897732E+04  0.7818609E-02  0.8655986E-01
       -1   -1    0    0    0  501  0.00000000000E+00  0.00000000000E+00  0.12574820041E+04  0.12574820041E+04  0.50400001928E-02 0.  1.
        1   -1    0    0  501    0  0.00000000000E+00  0.00000000000E+00 -0.71599166722E+03  0.71599166724E+03  0.50400001928E-02 0. -1.
    10030    2    1    2    0    0  0.00000000000E+00  0.00000000000E+00  0.54149033683E+03  0.19734736713E+04  0.18977319480E+04 0.  0.
        5    1    3    3  502    0  0.24089997558E+02  0.45159712365E+03  0.11381862942E+04  0.12247491255E+04  0.46999998093E+01 0.  1.
       -5    1    3    3    0  502 -0.24089997558E+02 -0.45159712365E+03 -0.59669595733E+03  0.74872454586E+03  0.46999998093E+01 0. -1.
</event>
<event>
 5   0  0.1182630E-04  0.1906240E+04  0.7818609E-02  0.8651757E-01
       -2   -1    0    0    0  501  0.00000000000E+00  0.00000000000E+00  0.18727765190E+04  0.18727765190E+04  0.25500000920E-02 0. -1.
        2   -1    0    0  501    0  0.00000000000E+00  0.00000000000E+00 -0.48507511051E+03  0.48507511051E+03  0.25500000920E-02 0.  1.
    10030    2    1    2    0    0  0.00000000000E+00  0.00000000000E+00  0.13877014085E+04  0.23578516296E+04  0.19062395200E+04 0.  0.
        5    1    3    3  502    0 -0.65758214087E+02 -0.92370615931E+03  0.41490573200E+03  0.10147541909E+04  0.46999998093E+01 0.  1.
       -5    1    3    3    0  502  0.65758214087E+02  0.92370615931E+03  0.97279567654E+03  0.13430974387E+04  0.46999998093E+01 0. -1.
</event>
<event>
 5   0  0.1182630E-04  0.1900238E+04  0.7818609E-02  0.8654738E-01
        2   -1    0    0  501    0  0.00000000000E+00  0.00000000000E+00  0.84592025883E+03  0.84592025883E+03  0.25500000920E-02 0.  1.
       -2   -1    0    0    0  501  0.00000000000E+00  0.00000000000E+00 -0.10671529577E+04  0.10671529577E+04  0.25500000920E-02 0. -1.
    10030    2    1    2    0    0  0.00000000000E+00  0.00000000000E+00 -0.22123269888E+03  0.19130732165E+04  0.19002382021E+04 0.  0.
        5    1    3    3  502    0 -0.73754828213E+03 -0.44893945552E+03  0.28852097800E+03  0.91037934288E+03  0.46999998093E+01 0. -1.
       -5    1    3    3    0  502  0.73754828213E+03  0.44893945552E+03 -0.50975367688E+03  0.10026938737E+04  0.46999998093E+01 0.  1.
</event>
<event>
 5   0  0.1182630E-04  0.1914354E+04  0.7818609E-02  0.8647744E-01
       -2   -1    0    0    0  501  0.00000000000E+00  0.00000000000E+00  0.90074755940E+03  0.90074755940E+03  0.25500000920E-02 0.  1.
        2   -1    0    0  501    0  0.00000000000E+00  0.00000000000E+00 -0.10171421182E+04  0.10171421182E+04  0.25500000920E-02 0. -1.
    10030    2    1    2    0    0  0.00000000000E+00  0.00000000000E+00 -0.11639455877E+03  0.19178896776E+04  0.19143544922E+04 0.  0.
        5    1    3    3  502    0  0.78726464673E+03  0.51270464101E+03  0.12521049731E+03  0.94781402793E+03  0.46999998093E+01 0.  1.
       -5    1    3    3    0  502 -0.78726464673E+03 -0.51270464101E+03 -0.24160505608E+03  0.97007564964E+03  0.46999998093E+01 0. -1.
</event>
<event>
 5   0  0.1101678E-04  0.1913208E+04  0.7818609E-02  0.8648310E-01
        2   -1    0    0  501    0  0.00000000000E+00  0.00000000000E+00  0.98945217645E+03  0.98945217645E+03  0.25500000920E-02 0. -1.
       -2   -1    0    0    0  501  0.00000000000E+00  0.00000000000E+00 -0.92484635223E+03  0.92484635223E+03  0.25500000920E-02 0.  1.
    10030    2    1    2    0    0  0.00000000000E+00  0.00000000000E+00  0.64605824217E+02  0.19142985287E+04  0.19132080243E+04 0.  0.
        4    1    3    3  502    0  0.76577568410E+03 -0.27529109999E+03  0.53547326873E+03  0.97413080360E+03  0.12699999809E+01 0. -1.
       -4    1    3    3    0  502 -0.76577568410E+03  0.27529109999E+03 -0.47086744451E+03  0.94016772509E+03  0.12699999809E+01 0.  1.
</event>
<event>
 5   0  0.1101678E-04  0.1899691E+04  0.7818609E-02  0.8655010E-01
       -2   -1    0    0    0  501  0.00000000000E+00  0.00000000000E+00  0.63715052855E+03  0.63715052855E+03  0.25500000920E-02 0. -1.
        2   -1    0    0  501    0  0.00000000000E+00  0.00000000000E+00 -0.14160024684E+04  0.14160024684E+04  0.25500000920E-02 0.  1.
    10030    2    1    2    0    0  0.00000000000E+00  0.00000000000E+00 -0.77885193982E+03  0.20531529969E+04  0.18996912603E+04 0.  0.
        4    1    3    3  502    0 -0.11530900878E+03 -0.39047630903E+03 -0.13169093702E+04  0.13784120638E+04  0.12699999809E+01 0.  1.
       -4    1    3    3    0  502  0.11530900878E+03  0.39047630903E+03  0.53805743043E+03  0.67474093307E+03  0.12699999809E+01 0. -1.
</event>
<event>
 5   0  0.5628936E-05  0.1896395E+04  0.7818609E-02  0.8656653E-01
       -1   -1    0    0    0  501  0.00000000000E+00  0.00000000000E+00  0.80713567547E+03  0.80713567548E+03  0.50400001928E-02 0.  1.
        1   -1    0    0  501    0  0.00000000000E+00  0.00000000000E+00 -0.11139129886E+04  0.11139129886E+04  0.50400001928E-02 0. -1.
    10030    2    1    2    0    0  0.00000000000E+00  0.00000000000E+00 -0.30677731311E+03  0.19210486641E+04  0.18963954361E+04 0.  0.
        5    1    3    3  502    0  0.11954705304E+03  0.14846040472E+03 -0.10942933061E+04  0.11107798699E+04  0.46999998093E+01 0. -1.
       -5    1    3    3    0  502 -0.11954705304E+03 -0.14846040472E+03  0.78751599296E+03  0.81026879418E+03  0.46999998093E+01 0.  1.
</event>
<event>
 5   0  0.1133638E-04  0.1876110E+04  0.7818609E-02  0.8666840E-01
       -2   -1    0    0    0  501  0.00000000000E+00  0.00000000000E+00  0.33439247274E+03  0.33439247275E+03  0.25500000920E-02 0. -1.
        2   -1    0    0  501    0  0.00000000000E+00  0.00000000000E+00 -0.26314815775E+04  0.26314815775E+04  0.25500000920E-02 0.  1.
    10030    2    1    2    0    0  0.00000000000E+00  0.00000000000E+00 -0.22970891047E+04  0.29658740502E+04  0.18761104783E+04 0.  0.
        3    1    3    3  502    0 -0.62611961766E+03 -0.63056272768E+03 -0.16236261507E+04  0.18508908711E+04  0.10100000352E+00 0. -1.
       -3    1    3    3    0  502  0.62611961766E+03  0.63056272768E+03 -0.67346295403E+03  0.11149831792E+04  0.10100000352E+00 0.  1.
</event>
<event>
 5   0  0.1141890E-04  0.1879443E+04  0.7818609E-02  0.8665157E-01
        2   -1    0    0  501    0  0.00000000000E+00  0.00000000000E+00  0.18062924335E+04  0.18062924335E+04  0.25500000920E-02 0.  1.
       -2   -1    0    0    0  501  0.00000000000E+00  0.00000000000E+00 -0.48888897071E+03  0.48888897072E+03  0.25500000920E-02 0. -1.
    10030    2    1    2    0    0  0.00000000000E+00  0.00000000000E+00  0.13174034628E+04  0.22951814042E+04  0.18794429479E+04 0.  0.
        2    1    3    3  502    0 -0.66550034725E+03  0.94192870039E+01 -0.15144200831E+03  0.68257901890E+03  0.25500000920E-02 0. -1.
       -2    1    3    3    0  502  0.66550034725E+03 -0.94192870039E+01  0.14688454711E+04  0.16126023853E+04  0.25500000920E-02 0.  1.
</event>
<event>
 5   0  0.5579109E-05  0.1842857E+04  0.7818609E-02  0.8683835E-01
       -1   -1    0    0    0  501  0.00000000000E+00  0.00000000000E+00  0.90470829061E+03  0.90470829062E+03  0.50400001928E-02 0.  1.
        1   -1    0    0  501    0  0.00000000000E+00  0.00000000000E+00 -0.93845763749E+03  0.93845763751E+03  0.50400001928E-02 0. -1.
    10030    2    1    2    0    0  0.00000000000E+00  0.00000000000E+00 -0.33749346882E+02  0.18431659281E+04  0.18428569180E+04 0.  0.
        3    1    3    3  502    0  0.52765389902E+02 -0.88691539092E+03  0.22735328586E+03  0.91711102044E+03  0.10100000352E+00 0.  1.
       -3    1    3    3    0  502 -0.52765389902E+02  0.88691539092E+03 -0.26110263275E+03  0.92605490769E+03  0.10100000352E+00 0. -1.
</event>
<event>
 5   0  0.1182630E-04  0.1904305E+04  0.7818609E-02  0.8652717E-01
        2   -1    0    0  501    0  0.00000000000E+00  0.00000000000E+00  0.24418155948E+04  0.24418155948E+04  0.25500000920E-02 0. -1.
       -2   -1    0    0    0  501  0.00000000000E+00  0.00000000000E+00 -0.37127874694E+03  0.37127874695E+03  0.25500000920E-02 0.  1.
    10030    2    1    2    0    0  0.00000000000E+00  0.00000000000E+00  0.20705368479E+04  0.28130943418E+04  0.19043048436E+04 0.  0.
        5    1    3    3  502    0  0.78223262608E+03  0.23310904201E+03  0.31105784772E+03  0.87350259381E+03  0.46999998093E+01 0.  1.
       -5    1    3    3    0  502 -0.78223262608E+03 -0.23310904201E+03  0.17594790002E+04  0.19395917480E+04  0.46999998093E+01 0. -1.
</event>
<event>
 5   0  0.1141890E-04  0.1901865E+04  0.7818609E-02  0.8653928E-01
        2   -1    0    0  501    0  0.00000000000E+00  0.00000000000E+00  0.11700133402E+04  0.11700133402E+04  0.25500000920E-02 0.  1.
       -2   -1    0    0    0  501  0.00000000000E+00  0.00000000000E+00 -0.77287396310E+03  0.77287396310E+03  0.25500000920E-02 0. -1.
    10030    2    1    2    0    0  0.00000000000E+00  0.00000000000E+00  0.39713937711E+03  0.19428873033E+04  0.19018652393E+04 0.  0.
        2    1    3    3  502    0 -0.38432276737E+03 -0.61343411636E+03  0.82852891534E+03  0.11002116016E+04  0.25500000920E-02 0.  1.
       -2    1    3    3    0  502  0.38432276737E+03  0.61343411636E+03 -0.43138953823E+03  0.84267570176E+03  0.25500000920E-02 0. -1.
</event>
<event>
 5   0  0.5841424E-05  0.1930654E+04  0.7818609E-02  0.8639746E-01
       -1   -1    0    0    0  501  0.00000000000E+00  0.00000000000E+00  0.69362121487E+03  0.69362121489E+03  0.50400001928E-02 0. -1.
        1   -1    0    0  501    0  0.00000000000E+00  0.00000000000E+00 -0.13434661464E+04  0.13434661464E+04  0.50400001928E-02 0.  1.
    10030    2    1    2    0    0  0.00000000000E+00  0.00000000000E+00 -0.64984493153E+03  0.20370873613E+04  0.19306544182E+04 0.  0.
        1    1    3    3  502    0 -0.76905248842E+03 -0.70412612128E+02 -0.93603826416E+03  0.12134938392E+04  0.50400001928E-02 0.  1.
       -1    1    3    3    0  502  0.76905248842E+03  0.70412612128E+02  0.28619333262E+03  0.82359352205E+03  0.50400001928E-02 0. -1.
</event>
<event>
 5   0  0.1182630E-04  0.1900562E+04  0.7818609E-02  0.8654577E-01
       -2   -1    0    0    0  501  0.00000000000E+00  0.00000000000E+00  0.63286282383E+03  0.63286282383E+03  0.25500000920E-02 0.  1.
        2   -1    0    0  501    0  0.00000000000E+00  0.00000000000E+00 -0.14269031636E+04  0.14269031636E+04  0.25500000920E-02 0. -1.
    10030    2    1    2    0    0  0.00000000000E+00  0.00000000000E+00 -0.79404033975E+03  0.20597659874E+04  0.19005619858E+04 0.  0.
        5    1    3    3  502    0 -0.71424144017E+03 -0.53641690601E+03 -0.45625695104E+02  0.89442032958E+03  0.46999998093E+01 0.  1.
       -5    1    3    3    0  502  0.71424144017E+03  0.53641690601E+03 -0.74841464464E+03  0.11653456578E+04  0.46999998093E+01 0. -1.
</event>
<event>
 5   0  0.4061125E-05  0.1909944E+04  0.7818609E-02  0.8649922E-01
       -4   -1    0    0    0  501  0.00000000000E+00  0.00000000000E+00  0.78449998663E+03  0.78450101461E+03  0.12699999809E+01 0. -1.
        4   -1    0    0  501    0  0.00000000000E+00  0.00000000000E+00 -0.11624858443E+04  0.11624865380E+04  0.12699999809E+01 0.  1.
    10030    2    1    2    0    0  0.00000000000E+00  0.00000000000E+00 -0.37798585764E+03  0.19469875526E+04  0.19099442980E+04 0.  0.
        4    1    3    3  502    0 -0.86147325064E+03 -0.34062847337E+03  0.47467750538E+02  0.92758758006E+03  0.12699999809E+01 0.  1.
       -4    1    3    3    0  502  0.86147325064E+03  0.34062847337E+03 -0.42545360818E+03  0.10193999726E+04  0.12699999809E+01 0. -1.
</event>
<event>
 5   0  0.1133638E-04  0.1900035E+04  0.7818609E-02  0.8654839E-01
        2   -1    0    0  501    0  0.00000000000E+00  0.00000000000E+00  0.17561757552E+04  0.17561757552E+04  0.25500000920E-02 0.  1.
       -2   -1    0    0    0  501  0.00000000000E+00  0.00000000000E+00 -0.51391959453E+03  0.51391959454E+03  0.25500000920E-02 0. -1.
    10030    2    1    2    0    0  0.00000000000E+00  0.00000000000E+00  0.12422561606E+04  0.22700953497E+04  0.19000348755E+04 0.  0.
        3    1    3    3  502    0  0.42205039524E+03 -0.78436069258E+03  0.22634021408E+03  0.91900932253E+03  0.10100000352E+00 0. -1.
       -3    1    3    3    0  502 -0.42205039524E+03  0.78436069258E+03  0.10159159466E+04  0.13510860272E+04  0.10100000352E+00 0.  1.
</event>
<event>
 5   0  0.5824956E-05  0.1907487E+04  0.7818609E-02  0.8651139E-01
       -1   -1    0    0    0  501  0.00000000000E+00  0.00000000000E+00  0.13343500754E+04  0.13343500754E+04  0.50400001928E-02 0. -1.
        1   -1    0    0  501    0  0.00000000000E+00  0.00000000000E+00 -0.68170004032E+03  0.68170004034E+03  0.50400001928E-02 0.  1.
    10030    2    1    2    0    0  0.00000000000E+00  0.00000000000E+00  0.65265003503E+03  0.20160501157E+04  0.19074868285E+04 0.  0.
        2    1    3    3  502    0 -0.57389805211E+02 -0.73403269532E+03  0.96707046745E+03  0.12154517171E+04  0.25500000920E-02 0. -1.
       -2    1    3    3    0  502  0.57389805211E+02  0.73403269532E+03 -0.31442043242E+03  0.80059839862E+03  0.25500000920E-02 0.  1.
</event>
<event>
 5   0  0.5628936E-05  0.1897056E+04  0.7818609E-02  0.8656323E-01
       -1   -1    0    0    0  501  0.00000000000E+00  0.00000000000E+00  0.59831138441E+03  0.59831138443E+03  0.50400001928E-02 0.  1.
        1   -1    0    0  501    0  0.00000000000E+00  0.00000000000E+00 -0.15037417324E+04  0.15037417324E+04  0.50400001928E-02 0. -1.
    10030    2    1    2    0    0  0.00000000000E+00  0.00000000000E+00 -0.90543034803E+03  0.21020531169E+04  0.18970564544E+04 0.  0.
        5    1    3    3  502    0  0.37453993041E+03 -0.87143400083E+03 -0.44992724265E+03  0.10498256955E+04  0.46999998093E+01 0. -1.
       -5    1    3    3    0  502 -0.37453993041E+03  0.87143400083E+03 -0.45550310538E+03  0.10522274214E+04  0.46999998093E+01 0.  1.
</event>
<event>
 5   0  0.1141890E-04  0.1891453E+04  0.7818609E-02  0.8659123E-01
       -2   -1    0    0    0  501  0.00000000000E+00  0.00000000000E+00  0.48175370551E+03  0.48175370552E+03  0.25500000920E-02 0. -1.
        2   -1    0    0  501    0  0.00000000000E+00  0.00000000000E+00 -0.18565469198E+04  0.18565469198E+04  0.25500000920E-02 0.  1.
    10030    2    1    2    0    0  0.00000000000E+00  0.00000000000E+00 -0.13747932143E+04  0.23383006253E+04  0.18914527307E+04 0.  0.
        2    1    3    3  502    0 -0.60991430801E+02 -0.70054028861E+02 -0.18508943421E+04  0.18532235124E+04  0.25500000920E-02 0.  1.
       -2    1    3    3    0  502  0.60991430801E+02  0.70054028861E+02  0.47610112776E+03  0.48507711289E+03  0.25500000920E-02 0. -1.
</event>
<event>
 5   0  0.1118206E-04  0.1845477E+04  0.7818609E-02  0.8682483E-01
        2   -1    0    0  501    0  0.00000000000E+00  0.00000000000E+00  0.19048255074E+04  0.19048255074E+04  0.25500000920E-02 0. -1.
       -2   -1    0    0    0  501  0.00000000000E+00  0.00000000000E+00 -0.44699417835E+03  0.44699417835E+03  0.25500000920E-02 0.  1.
    10030    2    1    2    0    0  0.00000000000E+00  0.00000000000E+00  0.14578313291E+04  0.23518196858E+04  0.18454765375E+04 0.  0.
        1    1    3    3  502    0 -0.18835489503E+03 -0.60845086233E+02 -0.41962054015E+03  0.46396237859E+03  0.50400001928E-02 0.  1.
       -1    1    3    3    0  502  0.18835489503E+03  0.60845086233E+02  0.18774518692E+04  0.18878573072E+04  0.50400001928E-02 0. -1.
</event>
<event>
 5   0  0.5614989E-05  0.1892931E+04  0.7818609E-02  0.8658383E-01
        1   -1    0    0  501    0  0.00000000000E+00  0.00000000000E+00  0.18682657750E+04  0.18682657750E+04  0.50400001928E-02 0.  1.
       -1   -1    0    0    0  501  0.00000000000E+00  0.00000000000E+00 -0.47948062963E+03  0.47948062966E+03  0.50400001928E-02 0. -1.
    10030    2    1    2    0    0  0.00000000000E+00  0.00000000000E+00  0.13887851454E+04  0.23477464047E+04  0.18929313249E+04 0.  0.
        4    1    3    3  502    0  0.71871046890E+03 -0.22447268555E+03 -0.16859877361E+02  0.75313915914E+03  0.12699999809E+01 0. -1.
       -4    1    3    3    0  502 -0.71871046890E+03  0.22447268555E+03  0.14056450228E+04  0.15946072455E+04  0.12699999809E+01 0.  1.
</event>
<event>
 5   0  0.5579109E-05  0.1912434E+04  0.7818609E-02  0.8648692E-01
       -1   -1    0    0    0  501  0.00000000000E+00  0.00000000000E+00  0.88863873071E+03  0.88863873073E+03  0.50400001928E-02 0.  1.
        1   -1    0    0  501    0  0.00000000000E+00  0.00000000000E+00 -0.10289338619E+04  0.10289338619E+04  0.50400001928E-02 0. -1.
    10030    2    1    2    0    0  0.00000000000E+00  0.00000000000E+00 -0.14029513122E+03  0.19175725927E+04  0.19124335085E+04 0.  0.
        3    1    3    3  502    0 -0.51637030291E+03 -0.11359481539E+03 -0.86903722793E+03  0.10172353639E+04  0.10100000352E+00 0. -1.
       -3    1    3    3    0  502  0.51637030291E+03  0.11359481539E+03  0.72874209672E+03  0.90033722879E+03  0.10100000352E+00 0.  1.
</event>
<event>
 5   0  0.1141890E-04  0.1927004E+04  0.7818609E-02  0.8641530E-01
        2   -1    0    0  501    0  0.00000000000E+00  0.00000000000E+00  0.12268793025E+04  0.12268793025E+04  0.25500000920E-02 0. -1.
       -2   -1    0    0    0  501  0.00000000000E+00  0.00000000000E+00 -0.75666437266E+03  0.75666437267E+03  0.25500000920E-02 0.  1.
    10030    2    1    2    0    0  0.00000000000E+00  0.00000000000E+00  0.47021492979E+03  0.19835436751E+04  0.19270037444E+04 0.  0.
        2    1    3    3  502    0  0.28434741075E+03  0.50475740826E+03  0.10275678107E+04  0.11796309155E+04  0.25500000920E-02 0. -1.
       -2    1    3    3    0  502 -0.28434741075E+03 -0.50475740826E+03 -0.55735288093E+03  0.80391275962E+03  0.25500000920E-02 0.  1.
</event>
<event>
 5   0  0.5579109E-05  0.1901289E+04  0.7818609E-02  0.8654215E-01
        1   -1    0    0  501    0  0.00000000000E+00  0.00000000000E+00  0.42997895748E+03  0.42997895751E+03  0.50400001928E-02 0. -1.
       -1   -1    0    0    0  501  0.00000000000E+00  0.00000000000E+00 -0.21017890594E+04  0.21017890594E+04  0.50400001928E-02 0.  1.
    10030    2    1    2    0    0  0.00000000000E+00  0.00000000000E+00 -0.16718101019E+04  0.25317680169E+04  0.19012891086E+04 0.  0.
        3    1    3    3  502    0 -0.78699231587E+03 -0.23442908931E+02 -0.12649691854E+03  0.79743837117E+03  0.10100000352E+00 0. -1.
       -3    1    3    3    0  502  0.78699231587E+03  0.23442908931E+02 -0.15453131834E+04  0.17343296457E+04  0.10100000352E+00 0.  1.
</event>
<event>
 5   0  0.5841424E-05  0.1875259E+04  0.7818609E-02  0.8667270E-01
       -1   -1    0    0    0  501  0.00000000000E+00  0.00000000000E+00  0.55668448894E+03  0.55668448896E+03  0.50400001928E-02 0.  1.
        1   -1    0    0  501    0  0.00000000000E+00  0.00000000000E+00 -0.15792597178E+04  0.15792597178E+04  0.50400001928E-02 0. -1.
    10030    2    1    2    0    0  0.00000000000E+00  0.00000000000E+00 -0.10225752288E+04  0.21359442067E+04  0.18752593303E+04 0.  0.
        1    1    3    3  502    0 -0.21498065411E+03  0.68352936281E+03 -0.12001034350E+04  0.13977400782E+04  0.50400001928E-02 0. -1.
       -1    1    3    3    0  502  0.21498065411E+03 -0.68352936281E+03  0.17752820612E+03  0.73820412859E+03  0.50400001928E-02 0.  1.
</event>
<event>
 5   0  0.5824956E-05  0.1896756E+04  0.7818609E-02  0.8656473E-01
       -1   -1    0    0    0  501  0.00000000000E+00  0.00000000000E+00  0.45201452301E+03  0.45201452304E+03  0.50400001928E-02 0.  1.
        1   -1    0    0  501    0  0.00000000000E+00  0.00000000000E+00 -0.19898056397E+04  0.19898056398E+04  0.50400001928E-02 0. -1.
    10030    2    1    2    0    0  0.00000000000E+00  0.00000000000E+00 -0.15377911167E+04  0.24418201628E+04  0.18967562281E+04 0.  0.
        2    1    3    3  502    0  0.25360561490E+03  0.51510649809E+03  0.20284907298E+03  0.60893206411E+03  0.25500000920E-02 0.  1.
       -2    1    3    3    0  502 -0.25360561490E+03 -0.51510649809E+03 -0.17406401897E+04  0.18328880987E+04  0.25500000920E-02 0. -1.
</event>
<event>
 5   0  0.1101678E-04  0.1899788E+04  0.7818609E-02  0.8654962E-01
       -2   -1    0    0    0  501  0.00000000000E+00  0.00000000000E+00  0.37009053708E+03  0.37009053709E+03  0.25500000920E-02 0.  1.
        2   -1    0    0  501    0  0.00000000000E+00  0.00000000000E+00 -0.24380485137E+04  0.24380485137E+04  0.25500000920E-02 0. -1.
    10030    2    1    2    0    0  0.00000000000E+00  0.00000000000E+00 -0.20679579766E+04  0.28081390508E+04  0.18997880765E+04 0.  0.
        4    1    3    3  502    0  0.29148933676E+03  0.83279185346E+03 -0.51391824927E+03  0.10210885782E+04  0.12699999809E+01 0.  1.
       -4    1    3    3    0  502 -0.29148933676E+03 -0.83279185346E+03 -0.15540397273E+04  0.17870504726E+04  0.12699999809E+01 0. -1.
</event>
<event>
 5   0  0.4061125E-05  0.1845552E+04  0.7818609E-02  0.8682444E-01
        4   -1    0    0  501    0  0.00000000000E+00  0.00000000000E+00  0.82465793810E+03  0.82465891602E+03  0.12699999809E+01 0. -1.
       -4   -1    0    0    0  501  0.00000000000E+00  0.00000000000E+00 -0.10325662908E+04  0.10325670718E+04  0.12699999809E+01 0.  1.
    10030    2    1    2    0    0  0.00000000000E+00  0.00000000000E+00 -0.20790835271E+03  0.18572259879E+04  0.18455520819E+04 0.  0.
        1    1    3    3  502    0 -0.28008401281E+03 -0.18234257673E+03 -0.96952260554E+03  0.10255096061E+04  0.50400001928E-02 0.  1.
       -1    1    3    3    0  502  0.28008401281E+03  0.18234257673E+03  0.76161425284E+03  0.83171638175E+03  0.50400001928E-02 0. -1.
</event>
<event>
 5   0  0.1101678E-04  0.1919668E+04  0.7818609E-02  0.8645128E-01
        2   -1    0    0  501    0  0.00000000000E+00  0.00000000000E+00  0.63992026758E+03  0.63992026758E+03  0.25500000920E-02 0.  1.
       -2   -1    0    0    0  501  0.00000000000E+00  0.00000000000E+00 -0.14396815387E+04  0.14396815387E+04  0.25500000920E-02 0. -1.
    10030    2    1    2    0    0  0.00000000000E+00  0.00000000000E+00 -0.79976127107E+03  0.20796018062E+04  0.19196680916E+04 0.  0.
        4    1    3    3  502    0  0.75852332362E+03  0.56446658534E+03 -0.22088914961E+03  0.97096538958E+03  0.12699999809E+01 0. -1.
       -4    1    3    3    0  502 -0.75852332362E+03 -0.56446658534E+03 -0.57887212146E+03  0.11086364167E+04  0.12699999809E+01 0.  1.
</event>
<event>
 5   0  0.1118206E-04  0.1912717E+04  0.7818609E-02  0.8648552E-01
        2   -1    0    0  501    0  0.00000000000E+00  0.00000000000E+00  0.81496378131E+03  0.81496378132E+03  0.25500000920E-02 0. -1.
       -2   -1    0    0    0  501  0.00000000000E+00  0.00000000000E+00 -0.11222844787E+04  0.11222844787E+04  0.25500000920E-02 0.  1.
    10030    2    1    2    0    0  0.00000000000E+00  0.00000000000E+00 -0.30732069735E+03  0.19372482600E+04  0.19127166047E+04 0.  0.
        1    1    3    3  502    0 -0.85790062421E+03 -0.19660110833E+03 -0.53259211577E+03  0.10287370114E+04  0.50400001928E-02 0.  1.
       -1    1    3    3    0  502  0.85790062421E+03  0.19660110833E+03  0.22527141842E+03  0.90851124858E+03  0.50400001928E-02 0. -1.
</event>
<event>
 5   0  0.1182630E-04  0.1893129E+04  0.7818609E-02  0.8658284E-01
       -2   -1    0    0    0  501  0.00000000000E+00  0.00000000000E+00  0.48037029918E+03  0.48037029919E+03  0.25500000920E-02 0.  1.
        2   -1    0    0  501    0  0.00000000000E+00  0.00000000000E+00 -0.18651946797E+04  0.18651946797E+04  0.25500000920E-02 0. -1.
    10030    2    1    2    0    0  0.00000000000E+00  0.00000000000E+00 -0.13848243805E+04  0.23455649789E+04  0.18931287609E+04 0.  0.
        5    1    3    3  502    0  0.46608962062E+03  0.69859971936E+03 -0.12334416959E+04  0.14922069593E+04  0.46999998093E+01 0. -1.
       -5    1    3    3    0  502 -0.46608962062E+03 -0.69859971936E+03 -0.15138268464E+03  0.85335801956E+03  0.46999998093E+01 0.  1.
</event>
<event>
 5   0  0.1133638E-04  0.1901497E+04  0.7818609E-02  0.8654112E-01
        2   -1    0    0  501    0  0.00000000000E+00  0.00000000000E+00  0.71803601708E+03  0.71803601709E+03  0.25500000920E-02 0.  1.
       -2   -1    0    0    0  501  0.00000000000E+00  0.00000000000E+00 -0.12588816395E+04  0.12588816395E+04  0.25500000920E-02 0. -1.
    10030    2    1    2    0    0  0.00000000000E+00  0.00000000000E+00 -0.54084562238E+03  0.19769176565E+04  0.19014966299E+04 0.  0.
        3    1    3    3  502    0 -0.13749565714E+03  0.60211359956E+03 -0.10219183440E+04  0.11940531624E+04  0.10100000352E+00 0. -1.
       -3    1    3    3    0  502  0.13749565714E+03 -0.60211359956E+03  0.48107272166E+03  0.78286449417E+03  0.10100000352E+00 0.  1.
</event>
<event>
 5   0  0.1101678E-04  0.1826224E+04  0.7818609E-02  0.8692477E-01
       -2   -1    0    0    0  501  0.00000000000E+00  0.00000000000E+00  0.13286424717E+04  0.13286424717E+04  0.25500000920E-02 0.  1.
        2   -1    0    0  501    0  0.00000000000E+00  0.00000000000E+00 -0.62753808915E+03  0.62753808915E+03  0.25500000920E-02 0. -1.
    10030    2    1    2    0    0  0.00000000000E+00  0.00000000000E+00  0.70110438255E+03  0.19561805609E+04  0.18262242555E+04 0.  0.
        4    1    3    3  502    0 -0.42054161790E+03  0.43963252936E+03 -0.37881351986E+03  0.71668215339E+03  0.12699999809E+01 0. -1.
       -4    1    3    3    0  502  0.42054161790E+03 -0.43963252936E+03  0.10799179024E+04  0.12394984075E+04  0.12699999809E+01 0.  1.
</event>
<event>
 5   0  0.5579109E-05  0.1891422E+04  0.7818609E-02  0.8659138E-01
        1   -1    0    0  501    0  0.00000000000E+00  0.00000000000E+00  0.15807128753E+04  0.15807128753E+04  0.50400001928E-02 0.  1.
       -1   -1    0    0    0  501  0.00000000000E+00  0.00000000000E+00 -0.56580121891E+03  0.56580121894E+03  0.50400001928E-02 0. -1.
    10030    2    1    2    0    0  0.00000000000E+00  0.00000000000E+00  0.10149116564E+04  0.21465140942E+04  0.18914219747E+04 0.  0.
        3    1    3    3  502    0 -0.33055431828E+03 -0.85974685477E+03  0.26421667547E+03  0.95824906648E+03  0.10100000352E+00 0. -1.
       -3    1    3    3    0  502  0.33055431828E+03  0.85974685477E+03  0.75069498092E+03  0.11882650278E+04  0.10100000352E+00 0.  1.
</event>
<event>
 5   0  0.5824956E-05  0.1907117E+04  0.7818609E-02  0.8651322E-01
        1   -1    0    0  501    0  0.00000000000E+00  0.00000000000E+00  0.11312119796E+04  0.11312119796E+04  0.50400001928E-02 0.  1.
       -1   -1    0    0    0  501  0.00000000000E+00  0.00000000000E+00 -0.80380475927E+03  0.80380475929E+03  0.50400001928E-02 0. -1.
    10030    2    1    2    0    0  0.00000000000E+00  0.00000000000E+00  0.32740722036E+03  0.19350167389E+04  0.19071167484E+04 0.  0.
        2    1    3    3  502    0 -0.24467480983E+03 -0.90780120247E+03  0.32510556524E+03  0.99481777946E+03  0.25500000920E-02 0. -1.
       -2    1    3    3    0  502  0.24467480983E+03  0.90780120247E+03  0.23016551119E+01  0.94019895947E+03  0.25500000920E-02 0.  1.
</event>
<event>
 5   0  0.5628936E-05  0.1892991E+04  0.7818609E-02  0.8658353E-01
        1   -1    0    0  501    0  0.00000000000E+00  0.00000000000E+00  0.70482480208E+03  0.70482480210E+03  0.50400001928E-02 0.  1.
       -1   -1    0    0    0  501  0.00000000000E+00  0.00000000000E+00 -0.12710302494E+04  0.12710302494E+04  0.50400001928E-02 0. -1.
    10030    2    1    2    0    0  0.00000000000E+00  0.00000000000E+00 -0.56620544735E+03  0.19758550515E+04  0.18929909076E+04 0.  0.
        5    1    3    3  502    0 -0.42090215648E+03 -0.83003254027E+03 -0.10316467861E+03  0.93636407671E+03  0.46999998093E+01 0.  1.
       -5    1    3    3    0  502  0.42090215648E+03  0.83003254027E+03 -0.46304076873E+03  0.10394909748E+04  0.46999998093E+01 0. -1.
</event>
<event>
 5   0  0.1101678E-04  0.1899884E+04  0.7818609E-02  0.8654914E-01
       -2   -1    0    0    0  501  0.00000000000E+00  0.00000000000E+00  0.41865180611E+03  0.41865180612E+03  0.25500000920E-02 0. -1.
        2   -1    0    0  501    0  0.00000000000E+00  0.00000000000E+00 -0.21554656847E+04  0.21554656847E+04  0.25500000920E-02 0.  1.
    10030    2    1    2    0    0  0.00000000000E+00  0.00000000000E+00 -0.17368138786E+04  0.25741174908E+04  0.18998837879E+04 0.  0.
        4    1    3    3  502    0  0.76956434097E+03 -0.36686952409E+03 -0.30070434871E+03  0.90401727905E+03  0.12699999809E+01 0. -1.
       -4    1    3    3    0  502 -0.76956434097E+03  0.36686952409E+03 -0.14361095298E+04  0.16701002117E+04  0.12699999809E+01 0.  1.
</event>
<event>
 5   0  0.5841424E-05  0.1899032E+04  0.7818609E-02  0.8655339E-01
       -1   -1    0    0    0  501  0.00000000000E+00  0.00000000000E+00  0.10103305814E+04  0.10103305814E+04  0.50400001928E-02 0.  1.
        1   -1    0    0  501    0  0.00000000000E+00  0.00000000000E+00 -0.89236155860E+03  0.89236155862E+03  0.50400001928E-02 0. -1.
    10030    2    1    2    0    0  0.00000000000E+00  0.00000000000E+00  0.11796902278E+03  0.19026921400E+04  0.18990315135E+04 0.  0.
        1    1    3    3  502    0  0.14246332286E+03 -0.93516241804E+03  0.14133556241E+03  0.95645192650E+03  0.50400001928E-02 0. -1.
       -1    1    3    3    0  502 -0.14246332286E+03  0.93516241804E+03 -0.23366539630E+02  0.94624021351E+03  0.50400001928E-02 0.  1.
</event>
<event>
 5   0  0.5628936E-05  0.1889959E+04  0.7818609E-02  0.8659871E-01
        1   -1    0    0  501    0  0.00000000000E+00  0.00000000000E+00  0.18868426733E+04  0.18868426733E+04  0.50400001928E-02 0.  1.
       -1   -1    0    0    0  501  0.00000000000E+00  0.00000000000E+00 -0.47327014859E+03  0.47327014862E+03  0.50400001928E-02 0. -1.
    10030    2    1    2    0    0  0.00000000000E+00  0.00000000000E+00  0.14135725247E+04  0.23601128219E+04  0.18899590603E+04 0.  0.
        5    1    3    3  502    0  0.35582421643E+03 -0.87082773604E+03  0.59500686228E+03  0.11131069468E+04  0.46999998093E+01 0. -1.
       -5    1    3    3    0  502 -0.35582421643E+03  0.87082773604E+03  0.81856566238E+03  0.12470058751E+04  0.46999998093E+01 0.  1.
</event>
<event>
 5   0  0.5841424E-05  0.1883214E+04  0.7818609E-02  0.8663257E-01
        1   -1    0    0  501    0  0.00000000000E+00  0.00000000000E+00  0.15291846562E+04  0.15291846562E+04  0.50400001928E-02 0. -1.
       -1   -1    0    0    0  501  0.00000000000E+00  0.00000000000E+00 -0.57980152697E+03  0.57980152699E+03  0.50400001928E-02 0.  1.
    10030    2    1    2    0    0  0.00000000000E+00  0.00000000000E+00  0.94938312918E+03  0.21089861832E+04  0.18832138473E+04 0.  0.
        1    1    3    3  502    0  0.26576195428E+03  0.61340666799E+03 -0.26792628971E+03  0.72019556610E+03  0.50400001928E-02 0.  1.
       -1    1    3    3    0  502 -0.26576195428E+03 -0.61340666799E+03  0.12173094189E+04  0.13887906171E+04  0.50400001928E-02 0. -1.
</event>
<event>
 5   0  0.5824956E-05  0.1896970E+04  0.7818609E-02  0.8656366E-01
        1   -1    0    0  501    0  0.00000000000E+00  0.00000000000E+00  0.90375627253E+03  0.90375627254E+03  0.50400001928E-02 0.  1.
       -1   -1    0    0    0  501  0.00000000000E+00  0.00000000000E+00 -0.99542757488E+03  0.99542757489E+03  0.50400001928E-02 0. -1.
    10030    2    1    2    0    0  0.00000000000E+00  0.00000000000E+00 -0.91671302352E+02  0.18991838474E+04  0.18969701259E+04 0.  0.
        2    1    3    3  502    0 -0.60497416920E+03 -0.54217149950E+03 -0.53597845046E+03  0.97325052254E+03  0.25500000920E-02 0. -1.
       -2    1    3    3    0  502  0.60497416920E+03  0.54217149950E+03  0.44430714811E+03  0.92593332489E+03  0.25500000920E-02 0.  1.
</event>
<event>
 5   0  0.1182630E-04  0.1902384E+04  0.7818609E-02  0.8653671E-01
       -2   -1    0    0    0  501  0.00000000000E+00  0.00000000000E+00  0.45322357632E+03  0.45322357633E+03  0.25500000920E-02 0. -1.
        2   -1    0    0  501    0  0.00000000000E+00  0.00000000000E+00 -0.19962905306E+04  0.19962905306E+04  0.25500000920E-02 0.  1.
    10030    2    1    2    0    0  0.00000000000E+00  0.00000000000E+00 -0.15430669543E+04  0.24495141069E+04  0.19023836981E+04 0.  0.
        5    1    3    3  502    0  0.62632756217E+03 -0.68441559178E+03 -0.10417243058E+04  0.13949632743E+04  0.46999998093E+01 0.  1.
       -5    1    3    3    0  502 -0.62632756217E+03  0.68441559178E+03 -0.50134264850E+03  0.10545508326E+04  0.46999998093E+01 0. -1.
</event>
<event>
 5   0  0.1101678E-04  0.1904495E+04  0.7818609E-02  0.8652622E-01
        2   -1    0    0  501    0  0.00000000000E+00  0.00000000000E+00  0.18564849435E+04  0.18564849435E+04  0.25500000920E-02 0. -1.
       -2   -1    0    0    0  501  0.00000000000E+00  0.00000000000E+00 -0.48843678917E+03  0.48843678917E+03  0.25500000920E-02 0.  1.
    10030    2    1    2    0    0  0.00000000000E+00  0.00000000000E+00  0.13680481543E+04  0.23449217327E+04  0.19044952559E+04 0.  0.
        4    1    3    3  502    0 -0.82581495457E+03  0.46069127590E+03  0.82205192082E+03  0.12529875356E+04  0.12699999809E+01 0. -1.
       -4    1    3    3    0  502  0.82581495457E+03 -0.46069127590E+03  0.54599623353E+03  0.10919341971E+04  0.12699999809E+01 0.  1.
</event>
<event>
 5   0  0.5628936E-05  0.1910356E+04  0.7818609E-02  0.8649719E-01
       -1   -1    0    0    0  501  0.00000000000E+00  0.00000000000E+00  0.89480020385E+03  0.89480020387E+03  0.50400001928E-02 0.  1.
        1   -1    0    0  501    0  0.00000000000E+00  0.00000000000E+00 -0.10196301766E+04  0.10196301766E+04  0.50400001928E-02 0. -1.
    10030    2    1    2    0    0  0.00000000000E+00  0.00000000000E+00 -0.12482997272E+03  0.19144303805E+04  0.19103562912E+04 0.  0.
        5    1    3    3  502    0 -0.14927336901E+03 -0.61365146565E+03  0.65569716210E+03  0.91039086022E+03  0.46999998093E+01 0.  1.
       -5    1    3    3    0  502  0.14927336901E+03  0.61365146565E+03 -0.78052713483E+03  0.10040395202E+04  0.46999998093E+01 0. -1.
</event>
<event>
 5   0  0.5824956E-05  0.1892467E+04  0.7818609E-02  0.8658615E-01
        1   -1    0    0  501    0  0.00000000000E+00  0.00000000000E+00  0.13624424644E+04  0.13624424645E+04  0.50400001928E-02 0. -1.
       -1   -1    0    0    0  501  0.00000000000E+00  0.00000000000E+00 -0.65717101264E+03  0.65717101266E+03  0.50400001928E-02 0.  1.
    10030    2    1    2    0    0  0.00000000000E+00  0.00000000000E+00  0.70527145181E+03  0.20196134771E+04  0.18924668494E+04 0.  0.
        2    1    3    3  502    0  0.16913155358E+03  0.90260925267E+03  0.10916591094E+03  0.92478437570E+03  0.25500000920E-02 0.  1.
       -2    1    3    3    0  502 -0.16913155358E+03 -0.90260925267E+03  0.59610554087E+03  0.10948291014E+04  0.25500000920E-02 0. -1.
</event>
<event>
 5   0  0.1101678E-04  0.1861467E+04  0.7818609E-02  0.8674278E-01
       -2   -1    0    0    0  501  0.00000000000E+00  0.00000000000E+00  0.74582736053E+03  0.74582736053E+03  0.25500000920E-02 0. -1.
        2   -1    0    0  501    0  0.00000000000E+00  0.00000000000E+00 -0.11614813810E+04  0.11614813810E+04  0.25500000920E-02 0.  1.
    10030    2    1    2    0    0  0.00000000000E+00  0.00000000000E+00 -0.41565402048E+03  0.19073087415E+04  0.18614667257E+04 0.  0.
        4    1    3    3  502    0  0.59568017584E+03  0.22357522806E+03 -0.90385128796E+03  0.11053368347E+04  0.12699999809E+01 0.  1.
       -4    1    3    3    0  502 -0.59568017584E+03 -0.22357522806E+03  0.48819726748E+03  0.80197190684E+03  0.12699999809E+01 0. -1.
</event>
<event>
 5   0  0.5841424E-05  0.1948818E+04  0.7818609E-02  0.8630931E-01
        1   -1    0    0  501    0  0.00000000000E+00  0.00000000000E+00  0.12753407576E+04  0.12753407576E+04  0.50400001928E-02 0.  1.
       -1   -1    0    0    0  501  0.00000000000E+00  0.00000000000E+00 -0.74448602073E+03  0.74448602075E+03  0.50400001928E-02 0. -1.
    10030    2    1    2    0    0  0.00000000000E+00  0.00000000000E+00  0.53085473689E+03  0.20198267784E+04  0.19488184787E+04 0.  0.
        1    1    3    3  502    0  0.50208244948E+03  0.74281494586E+03 -0.13006865329E+03  0.90596836836E+03  0.50400001928E-02 0.  1.
       -1    1    3    3    0  502 -0.50208244948E+03 -0.74281494586E+03  0.66092339018E+03  0.11138584100E+04  0.50400001928E-02 0. -1.
</event>
<event>
 5   0  0.1118206E-04  0.1908328E+04  0.7818609E-02  0.8650722E-01
        2   -1    0    0  501    0  0.00000000000E+00  0.00000000000E+00  0.64772563790E+03  0.64772563791E+03  0.25500000920E-02 0. -1.
       -2   -1    0    0    0  501  0.00000000000E+00  0.00000000000E+00 -0.14055784308E+04  0.14055784308E+04  0.25500000920E-02 0.  1.
    10030    2    1    2    0    0  0.00000000000E+00  0.00000000000E+00 -0.75785279285E+03  0.20533040687E+04  0.19083282586E+04 0.  0.
        1    1    3    3  502    0  0.63564722901E+03 -0.61727665198E+03 -0.75987347165E+03  0.11672555666E+04  0.50400001928E-02 0.  1.
       -1    1    3    3    0  502 -0.63564722901E+03  0.61727665198E+03  0.20206788076E+01  0.88604850205E+03  0.50400001928E-02 0. -1.
</event>
<event>
 5   0  0.5841424E-05  0.1902059E+04  0.7818609E-02  0.8653832E-01
       -1   -1    0    0    0  501  0.00000000000E+00  0.00000000000E+00  0.62598583694E+03  0.62598583696E+03  0.50400001928E-02 0.  1.
        1   -1    0    0  501    0  0.00000000000E+00  0.00000000000E+00 -0.14448525443E+04  0.14448525443E+04  0.50400001928E-02 0. -1.
    10030    2    1    2    0    0  0.00000000000E+00  0.00000000000E+00 -0.81886670735E+03  0.20708383813E+04  0.19020591255E+04 0.  0.
        1    1    3    3  502    0 -0.57099679727E+03  0.23950879524E+03 -0.11953276796E+04  0.13461835192E+04  0.50400001928E-02 0. -1.
       -1    1    3    3    0  502  0.57099679727E+03 -0.23950879524E+03  0.37646097229E+03  0.72465486210E+03  0.50400001928E-02 0.  1.
</event>
<event>
 5   0  0.5841424E-05  0.1892331E+04  0.7818609E-02  0.8658683E-01
        1   -1    0    0  501    0  0.00000000000E+00  0.00000000000E+00  0.92516180418E+03  0.92516180419E+03  0.50400001928E-02 0. -1.
       -1   -1    0    0    0  501  0.00000000000E+00  0.00000000000E+00 -0.96764640670E+03  0.96764640671E+03  0.50400001928E-02 0.  1.
    10030    2    1    2    0    0  0.00000000000E+00  0.00000000000E+00 -0.42484602521E+02  0.18928082109E+04  0.18923313615E+04 0.  0.
        1    1    3    3  502    0  0.31516642498E+02  0.79223697720E+03 -0.53770250808E+03  0.95799619729E+03  0.50400001928E-02 0. -1.
       -1    1    3    3    0  502 -0.31516642498E+02 -0.79223697720E+03  0.49521790555E+03  0.93481201362E+03  0.50400001928E-02 0.  1.
</event>
<event>
 5   0  0.1133638E-04  0.1780294E+04  0.7818609E-02  0.8716850E-01
       -2   -1    0    0    0  501  0.00000000000E+00  0.00000000000E+00  0.10665650266E+04  0.10665650266E+04  0.25500000920E-02 0.  1.
        2   -1    0    0  501    0  0.00000000000E+00  0.00000000000E+00 -0.74290990401E+03  0.74290990402E+03  0.25500000920E-02 0. -1.
    10030    2    1    2    0    0  0.00000000000E+00  0.00000000000E+00  0.32365512255E+03  0.18094749306E+04  0.17802940448E+04 0.  0.
        3    1    3    3  502    0  0.63409143465E+02  0.65904691182E+03  0.76655731017E+03  0.10129035845E+04  0.10100000352E+00 0.  1.
       -3    1    3    3    0  502 -0.63409143465E+02 -0.65904691182E+03 -0.44290218762E+03  0.79657134611E+03  0.10100000352E+00 0. -1.
</event>
<event>
 5   0  0.4061125E-05  0.1899564E+04  0.7818609E-02  0.8655074E-01
        3   -1    0    0  501    0  0.00000000000E+00  0.00000000000E+00  0.48053435434E+03  0.48053436495E+03  0.10100000352E+00 0. -1.
       -3   -1    0    0    0  501  0.00000000000E+00  0.00000000000E+00 -0.18772547184E+04  0.18772547212E+04  0.10100000352E+00 0.  1.
    10030    2    1    2    0    0  0.00000000000E+00  0.00000000000E+00 -0.13967203641E+04  0.23577890861E+04  0.18995635286E+04 0.  0.
        1    1    3    3  502    0 -0.50701982023E+03 -0.58080019771E+02  0.29589500463E+03  0.58991206174E+03  0.50400001928E-02 0. -1.
       -1    1    3    3    0  502  0.50701982023E+03  0.58080019771E+02 -0.16926153687E+04  0.17678770244E+04  0.50400001928E-02 0.  1.
</event>
<event>
 5   0  0.1133638E-04  0.1900116E+04  0.7818609E-02  0.8654799E-01
       -2   -1    0    0    0  501  0.00000000000E+00  0.00000000000E+00  0.37539744251E+03  0.37539744252E+03  0.25500000920E-02 0.  1.
        2   -1    0    0  501    0  0.00000000000E+00  0.00000000000E+00 -0.24044118430E+04  0.24044118430E+04  0.25500000920E-02 0. -1.
    10030    2    1    2    0    0  0.00000000000E+00  0.00000000000E+00 -0.20290144005E+04  0.27798092855E+04  0.19001158455E+04 0.  0.
        3    1    3    3  502    0 -0.79156440441E+03 -0.50898668039E+03 -0.82393683821E+03  0.12508051690E+04  0.10100000352E+00 0. -1.
       -3    1    3    3    0  502  0.79156440441E+03  0.50898668039E+03 -0.12050775623E+04  0.15290041166E+04  0.10100000352E+00 0.  1.
</event>
<event>
 5   0  0.1101678E-04  0.1905300E+04  0.7818609E-02  0.8652223E-01
       -2   -1    0    0    0  501  0.00000000000E+00  0.00000000000E+00  0.66891959926E+03  0.66891959926E+03  0.25500000920E-02 0. -1.
        2   -1    0    0  501    0  0.00000000000E+00  0.00000000000E+00 -0.13567285028E+04  0.13567285028E+04  0.25500000920E-02 0.  1.
    10030    2    1    2    0    0  0.00000000000E+00  0.00000000000E+00 -0.68780890352E+03  0.20256481020E+04  0.19053002770E+04 0.  0.
        4    1    3    3  502    0 -0.17248789637E+03  0.23076683503E+03 -0.13092997711E+04  0.13406240748E+04  0.12699999809E+01 0.  1.
       -4    1    3    3    0  502  0.17248789637E+03 -0.23076683503E+03  0.62149086754E+03  0.68502402723E+03  0.12699999809E+01 0. -1.
</event>
<event>
 5   0  0.1133638E-04  0.1900833E+04  0.7818609E-02  0.8654442E-01
       -2   -1    0    0    0  501  0.00000000000E+00  0.00000000000E+00  0.82564817027E+03  0.82564817027E+03  0.25500000920E-02 0.  1.
        2   -1    0    0  501    0  0.00000000000E+00  0.00000000000E+00 -0.10940394048E+04  0.10940394048E+04  0.25500000920E-02 0. -1.
    10030    2    1    2    0    0  0.00000000000E+00  0.00000000000E+00 -0.26839123455E+03  0.19196875751E+04  0.19008331150E+04 0.  0.
        3    1    3    3  502    0  0.49343355946E+03 -0.22217491086E+03  0.65486936647E+03  0.84952472945E+03  0.10100000352E+00 0.  1.
       -3    1    3    3    0  502 -0.49343355946E+03  0.22217491086E+03 -0.92326060102E+03  0.10701628456E+04  0.10100000352E+00 0. -1.
</event>
<event>
 5   0  0.1118206E-04  0.1929432E+04  0.7818609E-02  0.8640343E-01
        2   -1    0    0  501    0  0.00000000000E+00  0.00000000000E+00  0.25903891508E+04  0.25903891508E+04  0.25500000920E-02 0.  1.
       -2   -1    0    0    0  501  0.00000000000E+00  0.00000000000E+00 -0.35928072414E+03  0.35928072414E+03  0.25500000920E-02 0. -1.
    10030    2    1    2    0    0  0.00000000000E+00  0.00000000000E+00  0.22311084267E+04  0.29496698750E+04  0.19294319267E+04 0.  0.
        1    1    3    3  502    0  0.38051361199E+03  0.77497771488E+03  0.45747713175E+03  0.97707031148E+03  0.50400001928E-02 0.  1.
       -1    1    3    3    0  502 -0.38051361199E+03 -0.77497771488E+03  0.17736312949E+04  0.19725995635E+04  0.50400001928E-02 0. -1.
</event>
<event>
 5   0  0.5824956E-05  0.1901692E+04  0.7818609E-02  0.8654014E-01
        1   -1    0    0  501    0  0.00000000000E+00  0.00000000000E+00  0.16960188705E+04  0.16960188705E+04  0.50400001928E-02 0. -1.
       -1   -1    0    0    0  501  0.00000000000E+00  0.00000000000E+00 -0.53307692492E+03  0.53307692494E+03  0.50400001928E-02 0.  1.
    10030    2    1    2    0    0  0.00000000000E+00  0.00000000000E+00  0.11629419455E+04  0.22290957954E+04  0.19016924295E+04 0.  0.
        2    1    3    3  502    0 -0.33637594115E+03  0.58164152613E+02  0.16217141588E+04  0.16572533467E+04  0.25500000920E-02 0. -1.
       -2    1    3    3    0  502  0.33637594115E+03 -0.58164152613E+02 -0.45877221326E+03  0.57184244867E+03  0.25500000920E-02 0.  1.
</event>
<event>
 5   0  0.5614989E-05  0.1891614E+04  0.7818609E-02  0.8659042E-01
       -1   -1    0    0    0  501  0.00000000000E+00  0.00000000000E+00  0.46482167951E+03  0.46482167954E+03  0.50400001928E-02 0. -1.
        1   -1    0    0  501    0  0.00000000000E+00  0.00000000000E+00 -0.19245023522E+04  0.19245023522E+04  0.50400001928E-02 0.  1.
    10030    2    1    2    0    0  0.00000000000E+00  0.00000000000E+00 -0.14596806727E+04  0.23893240317E+04  0.18916135077E+04 0.  0.
        4    1    3    3  502    0 -0.21865407717E+03 -0.74778235204E+03 -0.52499204076E+02  0.78086223549E+03  0.12699999809E+01 0. -1.
       -4    1    3    3    0  502  0.21865407717E+03  0.74778235204E+03 -0.14071814686E+04  0.16084617962E+04  0.12699999809E+01 0.  1.
</event>
<event>
 5   0  0.1182630E-04  0.1888112E+04  0.7818609E-02  0.8660797E-01
        2   -1    0    0  501    0  0.00000000000E+00  0.00000000000E+00  0.16363522130E+04  0.16363522130E+04  0.25500000920E-02 0.  1.
       -2   -1    0    0    0  501  0.00000000000E+00  0.00000000000E+00 -0.54465140021E+03  0.54465140022E+03  0.25500000920E-02 0. -1.
    10030    2    1    2    0    0  0.00000000000E+00  0.00000000000E+00  0.10917008128E+04  0.21810036132E+04  0.18881117807E+04 0.  0.
        5    1    3    3  502    0  0.56432128836E+03  0.70393123916E+02 -0.32456900325E+03  0.65481358894E+03  0.46999998093E+01 0. -1.
       -5    1    3    3    0  502 -0.56432128836E+03 -0.70393123916E+02  0.14162698160E+04  0.15261900243E+04  0.46999998093E+01 0.  1.
</event>
<event>
 5   0  0.5841424E-05  0.1904133E+04  0.7818609E-02  0.8652802E-01
       -1   -1    0    0    0  501  0.00000000000E+00  0.00000000000E+00  0.10542502520E+04  0.10542502521E+04  0.50400001928E-02 0.  1.
        1   -1    0    0  501    0  0.00000000000E+00  0.00000000000E+00 -0.85978675250E+03  0.85978675251E+03  0.50400001928E-02 0. -1.
    10030    2    1    2    0    0  0.00000000000E+00  0.00000000000E+00  0.19446349955E+03  0.19140370046E+04  0.19041327691E+04 0.  0.
        1    1    3    3  502    0 -0.84358660645E+03  0.22930762075E+03  0.47630073438E+03  0.99553138429E+03  0.50400001928E-02 0.  1.
       -1    1    3    3    0  502  0.84358660645E+03 -0.22930762075E+03 -0.28183723483E+03  0.91850562028E+03  0.50400001928E-02 0. -1.
</event>
<event>
 5   0  0.5614989E-05  0.1898933E+04  0.7818609E-02  0.8655387E-01
       -1   -1    0    0    0  501  0.00000000000E+00  0.00000000000E+00  0.80707071803E+03  0.80707071804E+03  0.50400001928E-02 0. -1.
        1   -1    0    0  501    0  0.00000000000E+00  0.00000000000E+00 -0.11169865020E+04  0.11169865020E+04  0.50400001928E-02 0.  1.
    10030    2    1    2    0    0  0.00000000000E+00  0.00000000000E+00 -0.30991578394E+03  0.19240572200E+04  0.18989334882E+04 0.  0.
        4    1    3    3  502    0  0.94742427189E+03  0.31591302631E+02 -0.10063207054E+03  0.95327812725E+03  0.12699999809E+01 0. -1.
       -4    1    3    3    0  502 -0.94742427189E+03 -0.31591302631E+02 -0.20928371340E+03  0.97077909277E+03  0.12699999809E+01 0.  1.
</event>
<event>
 5   0  0.5628936E-05  0.1899719E+04  0.7818609E-02  0.8654996E-01
        1   -1    0    0  501    0  0.00000000000E+00  0.00000000000E+00  0.78441374100E+03  0.78441374102E+03  0.50400001928E-02 0. -1.
       -1   -1    0    0    0  501  0.00000000000E+00  0.00000000000E+00 -0.11502008949E+04  0.11502008949E+04  0.50400001928E-02 0.  1.
    10030    2    1    2    0    0  0.00000000000E+00  0.00000000000E+00 -0.36578715393E+03  0.19346146360E+04  0.18997193339E+04 0.  0.
        5    1    3    3  502    0 -0.84705182060E+03 -0.42308757202E+03 -0.25985568315E+03  0.98185892390E+03  0.46999998093E+01 0. -1.
       -5    1    3    3    0  502  0.84705182060E+03  0.42308757202E+03 -0.10593147078E+03  0.95275571206E+03  0.46999998093E+01 0.  1.
</event>
<event>
 5   0  0.1101678E-04  0.1891407E+04  0.7818609E-02  0.8659146E-01
        2   -1    0    0  501    0  0.00000000000E+00  0.00000000000E+00  0.23470636828E+04  0.23470636828E+04  0.25500000920E-02 0.  1.
       -2   -1    0    0    0  501  0.00000000000E+00  0.00000000000E+00 -0.38105264589E+03  0.38105264590E+03  0.25500000920E-02 0. -1.
    10030    2    1    2    0    0  0.00000000000E+00  0.00000000000E+00  0.19660110369E+04  0.27281163286E+04  0.18914067002E+04 0.  0.
        4    1    3    3  502    0 -0.26569641157E+03  0.74375696182E+03  0.17332955706E+04  0.19047530416E+04  0.12699999809E+01 0.  1.
       -4    1    3    3    0  502  0.26569641157E+03 -0.74375696182E+03  0.23271546625E+03  0.82336328708E+03  0.12699999809E+01 0. -1.
</event>
<event>
 5   0  0.5841424E-05  0.1899261E+04  0.7818609E-02  0.8655224E-01
       -1   -1    0    0    0  501  0.00000000000E+00  0.00000000000E+00  0.13942565804E+04  0.13942565804E+04  0.50400001928E-02 0. -1.
        1   -1    0    0  501    0  0.00000000000E+00  0.00000000000E+00 -0.64679515884E+03  0.64679515886E+03  0.50400001928E-02 0.  1.
    10030    2    1    2    0    0  0.00000000000E+00  0.00000000000E+00  0.74746142151E+03  0.20410517392E+04  0.18992613368E+04 0.  0.
        1    1    3    3  502    0  0.53187915457E+03  0.76352404970E+03  0.57744526080E+03  0.10951289599E+04  0.50400001928E-02 0. -1.
       -1    1    3    3    0  502 -0.53187915457E+03 -0.76352404970E+03  0.17001616071E+03  0.94592277934E+03  0.50400001928E-02 0.  1.
</event>
<event>
 5   0  0.1141890E-04  0.1887466E+04  0.7818609E-02  0.8661121E-01
        2   -1    0    0  501    0  0.00000000000E+00  0.00000000000E+00  0.10297475087E+04  0.10297475087E+04  0.25500000920E-02 0. -1.
       -2   -1    0    0    0  501  0.00000000000E+00  0.00000000000E+00 -0.86490304620E+03  0.86490304620E+03  0.25500000920E-02 0.  1.
    10030    2    1    2    0    0  0.00000000000E+00  0.00000000000E+00  0.16484446252E+03  0.18946505549E+04  0.18874657688E+04 0.  0.
        2    1    3    3  502    0  0.35216189923E+03  0.86383025971E+03  0.22583326437E+03  0.95980278399E+03  0.25500000920E-02 0. -1.
       -2    1    3    3    0  502 -0.35216189923E+03 -0.86383025971E+03 -0.60988801850E+02  0.93484777093E+03  0.25500000920E-02 0.  1.
</event>
<event>
 5   0  0.1182630E-04  0.1895575E+04  0.7818609E-02  0.8657062E-01
       -2   -1    0    0    0  501  0.00000000000E+00  0.00000000000E+00  0.36138885479E+03  0.36138885480E+03  0.25500000920E-02 0. -1.
        2   -1    0    0  501    0  0.00000000000E+00  0.00000000000E+00 -0.24856913109E+04  0.24856913109E+04  0.25500000920E-02 0.  1.
    10030    2    1    2    0    0  0.00000000000E+00  0.00000000000E+00 -0.21243024561E+04  0.28470801657E+04  0.18955749906E+04 0.  0.
        5    1    3    3  502    0 -0.45455941664E+03  0.15822349647E+03 -0.22884546228E+04  0.23385263712E+04  0.46999998093E+01 0.  1.
       -5    1    3    3    0  502  0.45455941664E+03 -0.15822349647E+03  0.16415216669E+03  0.50855379452E+03  0.46999998093E+01 0. -1.
</event>
<event>
 5   0  0.5579109E-05  0.1894567E+04  0.7818609E-02  0.8657565E-01
       -1   -1    0    0    0  501  0.00000000000E+00  0.00000000000E+00  0.21195432281E+04  0.21195432282E+04  0.50400001928E-02 0. -1.
        1   -1    0    0  501    0  0.00000000000E+00  0.00000000000E+00 -0.42336773769E+03  0.42336773772E+03  0.50400001928E-02 0.  1.
    10030    2    1    2    0    0  0.00000000000E+00  0.00000000000E+00  0.16961754905E+04  0.25429109659E+04  0.18945672028E+04 0.  0.
        3    1    3    3  502    0 -0.46480898727E+03 -0.32190626983E+03  0.18682352936E+04  0.19519155114E+04  0.10100000352E+00 0. -1.
       -3    1    3    3    0  502  0.46480898727E+03  0.32190626983E+03 -0.17205980311E+03  0.59099545451E+03  0.10100000352E+00 0.  1.
</event>
<event>
 5   0  0.5628936E-05  0.1898922E+04  0.7818609E-02  0.8655393E-01
        1   -1    0    0  501    0  0.00000000000E+00  0.00000000000E+00  0.17300005741E+04  0.17300005741E+04  0.50400001928E-02 0. -1.
       -1   -1    0    0    0  501  0.00000000000E+00  0.00000000000E+00 -0.52108452901E+03  0.52108452904E+03  0.50400001928E-02 0.  1.
    10030    2    1    2    0    0  0.00000000000E+00  0.00000000000E+00  0.12089160450E+04  0.22510851031E+04  0.18989223621E+04 0.  0.
        5    1    3    3  502    0  0.32296715774E+03 -0.86283241040E+03  0.33240500586E+03  0.97944000905E+03  0.46999998093E+01 0. -1.
       -5    1    3    3    0  502 -0.32296715774E+03  0.86283241040E+03  0.87651103919E+03  0.12716450941E+04  0.46999998093E+01 0.  1.
</event>
<event>
 5   0  0.1141890E-04  0.1902274E+04  0.7818609E-02  0.8653725E-01
        2   -1    0    0  501    0  0.00000000000E+00  0.00000000000E+00  0.46395340084E+03  0.46395340085E+03  0.25500000920E-02 0. -1.
       -2   -1    0    0    0  501  0.00000000000E+00  0.00000000000E+00 -0.19498982105E+04  0.19498982105E+04  0.25500000920E-02 0.  1.
    10030    2    1    2    0    0  0.00000000000E+00  0.00000000000E+00 -0.14859448097E+04  0.24138516114E+04  0.19022743294E+04 0.  0.
        2    1    3    3  502    0 -0.47882992549E+03 -0.21023932307E+02 -0.17854592541E+04  0.18486711042E+04  0.25500000920E-02 0.  1.
       -2    1    3    3    0  502  0.47882992549E+03  0.21023932307E+02  0.29951444445E+03  0.56518050719E+03  0.25500000920E-02 0. -1.
</event>
<event>
 5   0  0.5614989E-05  0.1910832E+04  0.7818609E-02  0.8649483E-01
       -1   -1    0    0    0  501  0.00000000000E+00  0.00000000000E+00  0.53087092248E+03  0.53087092250E+03  0.50400001928E-02 0. -1.
        1   -1    0    0  501    0  0.00000000000E+00  0.00000000000E+00 -0.17194761951E+04  0.17194761951E+04  0.50400001928E-02 0.  1.
    10030    2    1    2    0    0  0.00000000000E+00  0.00000000000E+00 -0.11886052727E+04  0.22503471176E+04  0.19108321893E+04 0.  0.
        4    1    3    3  502    0 -0.58171203409E+03 -0.51923426876E+02  0.29617647170E+03  0.65483360340E+03  0.12699999809E+01 0. -1.
       -4    1    3    3    0  502  0.58171203409E+03  0.51923426876E+02 -0.14847817443E+04  0.15955135142E+04  0.12699999809E+01 0.  1.
</event>
<event>
 5   0  0.1133638E-04  0.1900731E+04  0.7818609E-02  0.8654492E-01
       -2   -1    0    0    0  501  0.00000000000E+00  0.00000000000E+00  0.16616636340E+04  0.16616636340E+04  0.25500000920E-02 0.  1.
        2   -1    0    0  501    0  0.00000000000E+00  0.00000000000E+00 -0.54354861380E+03  0.54354861381E+03  0.25500000920E-02 0. -1.
    10030    2    1    2    0    0  0.00000000000E+00  0.00000000000E+00  0.11181150202E+04  0.22052122478E+04  0.19007314012E+04 0.  0.
        3    1    3    3  502    0  0.26971978049E+03 -0.90532948310E+03  0.67976605535E+03  0.11638093199E+04  0.10100000352E+00 0. -1.
       -3    1    3    3    0  502 -0.26971978049E+03  0.90532948310E+03  0.43834896481E+03  0.10414029278E+04  0.10100000352E+00 0.  1.
</event>
<event>
 5   0  0.1182630E-04  0.1902756E+04  0.7818609E-02  0.8653486E-01
       -2   -1    0    0    0  501  0.00000000000E+00  0.00000000000E+00  0.96235492358E+03  0.96235492358E+03  0.25500000920E-02 0. -1.
        2   -1    0    0  501    0  0.00000000000E+00  0.00000000000E+00 -0.94052590925E+03  0.94052590925E+03  0.25500000920E-02 0.  1.
    10030    2    1    2    0    0  0.00000000000E+00  0.00000000000E+00  0.21829014327E+02  0.19028808328E+04  0.19027556223E+04 0.  0.
        5    1    3    3  502    0  0.84945334399E+03  0.33961078549E+03 -0.25023708714E+03  0.94844459987E+03  0.46999998093E+01 0.  1.
       -5    1    3    3    0  502 -0.84945334399E+03 -0.33961078549E+03  0.27206610146E+03  0.95443623297E+03  0.46999998093E+01 0. -1.
</event>
<event>
 5   0  0.1118206E-04  0.1890931E+04  0.7818609E-02  0.8659384E-01
        2   -1    0    0  501    0  0.00000000000E+00  0.00000000000E+00  0.69220782613E+03  0.69220782614E+03  0.25500000920E-02 0.  1.
       -2   -1    0    0    0  501  0.00000000000E+00  0.00000000000E+00 -0.12913817414E+04  0.12913817414E+04  0.25500000920E-02 0. -1.
    10030    2    1    2    0    0  0.00000000000E+00  0.00000000000E+00 -0.59917391530E+03  0.19835895676E+04  0.18909305095E+04 0.  0.
        1    1    3    3  502    0 -0.53664763495E+03  0.61666425339E+03 -0.79787835524E+03  0.11423114091E+04  0.50400001928E-02 0. -1.
       -1    1    3    3    0  502  0.53664763495E+03 -0.61666425339E+03  0.19870443993E+03  0.84127815851E+03  0.50400001928E-02 0.  1.
</event>
<event>
 5   0  0.5841424E-05  0.1879318E+04  0.7818609E-02  0.8665220E-01
       -1   -1    0    0    0  501  0.00000000000E+00  0.00000000000E+00  0.54399834367E+03  0.54399834370E+03  0.50400001928E-02 0. -1.
        1   -1    0    0  501    0  0.00000000000E+00  0.00000000000E+00 -0.16230909991E+04  0.16230909991E+04  0.50400001928E-02 0.  1.
    10030    2    1    2    0    0  0.00000000000E+00  0.00000000000E+00 -0.10790926554E+04  0.21670893428E+04  0.18793177647E+04 0.  0.
        1    1    3    3  502    0 -0.77115995483E+02  0.32366621562E+03  0.47379592545E+03  0.57895533066E+03  0.50400001928E-02 0. -1.
       -1    1    3    3    0  502  0.77115995483E+02 -0.32366621562E+03 -0.15528885808E+04  0.15881340121E+04  0.50400001928E-02 0.  1.
</event>
<event>
 5   0  0.1118206E-04  0.1886456E+04  0.7818609E-02  0.8661627E-01
        2   -1    0    0  501    0  0.00000000000E+00  0.00000000000E+00  0.87646792287E+03  0.87646792288E+03  0.25500000920E-02 0.  1.
       -2   -1    0    0    0  501  0.00000000000E+00  0.00000000000E+00 -0.10150736928E+04  0.10150736928E+04  0.25500000920E-02 0. -1.
    10030    2    1    2    0    0  0.00000000000E+00  0.00000000000E+00 -0.13860576996E+03  0.18915416157E+04  0.18864564995E+04 0.  0.
        1    1    3    3  502    0  0.73853996302E+03  0.18005922277E+03 -0.62921382283E+03  0.98679918704E+03  0.50400001928E-02 0.  1.
       -1    1    3    3    0  502 -0.73853996302E+03 -0.18005922277E+03  0.49060805286E+03  0.90474242868E+03  0.50400001928E-02 0. -1.
</event>
<event>
 5   0  0.5841424E-05  0.1847402E+04  0.7818609E-02  0.8681490E-01
        1   -1    0    0  501    0  0.00000000000E+00  0.00000000000E+00  0.23797026299E+04  0.23797026299E+04  0.50400001928E-02 0.  1.
       -1   -1    0    0    0  501  0.00000000000E+00  0.00000000000E+00 -0.35854209236E+03  0.35854209240E+03  0.50400001928E-02 0. -1.
    10030    2    1    2    0    0  0.00000000000E+00  0.00000000000E+00  0.20211605375E+04  0.27382447223E+04  0.18474020247E+04 0.  0.
        1    1    3    3  502    0  0.22453245398E+03  0.10896213740E+03 -0.30762035513E+03  0.39612858164E+03  0.50400001928E-02 0. -1.
       -1    1    3    3    0  502 -0.22453245398E+03 -0.10896213740E+03  0.23287808927E+04  0.23421161407E+04  0.50400001928E-02 0.  1.
</event>
<event>
 5   0  0.1101678E-04  0.1897926E+04  0.7818609E-02  0.8655889E-01
       -2   -1    0    0    0  501  0.00000000000E+00  0.00000000000E+00  0.49155599327E+03  0.49155599328E+03  0.25500000920E-02 0. -1.
        2   -1    0    0  501    0  0.00000000000E+00  0.00000000000E+00 -0.18320013368E+04  0.18320013368E+04  0.25500000920E-02 0.  1.
    10030    2    1    2    0    0  0.00000000000E+00  0.00000000000E+00 -0.13404453435E+04  0.23235573301E+04  0.18979264862E+04 0.  0.
        4    1    3    3  502    0  0.11988917018E+02  0.93374641026E+03 -0.46353082849E+03  0.10425394643E+04  0.12699999809E+01 0. -1.
       -4    1    3    3    0  502 -0.11988917018E+02 -0.93374641026E+03 -0.87691451505E+03  0.12810178658E+04  0.12699999809E+01 0.  1.
</event>
<event>
 5   0  0.5841424E-05  0.1904020E+04  0.7818609E-02  0.8652858E-01
       -1   -1    0    0    0  501  0.00000000000E+00  0.00000000000E+00  0.88470199396E+03  0.88470199398E+03  0.50400001928E-02 0.  1.
        1   -1    0    0  501    0  0.00000000000E+00  0.00000000000E+00 -0.10244392995E+04  0.10244392995E+04  0.50400001928E-02 0. -1.
    10030    2    1    2    0    0  0.00000000000E+00  0.00000000000E+00 -0.13973730551E+03  0.19091412935E+04  0.19040204736E+04 0.  0.
        1    1    3    3  502    0 -0.49392179803E+03 -0.11707028178E+03 -0.87742861855E+03  0.10136790291E+04  0.50400001928E-02 0. -1.
       -1    1    3    3    0  502  0.49392179803E+03  0.11707028178E+03  0.73769131305E+03  0.89546226432E+03  0.50400001928E-02 0.  1.
</event>
<event>
 5   0  0.1182630E-04  0.1908647E+04  0.7818609E-02  0.8650564E-01
        2   -1    0    0  501    0  0.00000000000E+00  0.00000000000E+00  0.16998854608E+04  0.16998854608E+04  0.25500000920E-02 0.  1.
       -2   -1    0    0    0  501  0.00000000000E+00  0.00000000000E+00 -0.53576164276E+03  0.53576164276E+03  0.25500000920E-02 0. -1.
    10030    2    1    2    0    0  0.00000000000E+00  0.00000000000E+00  0.11641238180E+04  0.22356471035E+04  0.19086470883E+04 0.  0.
        5    1    3    3  502    0  0.71466287901E+03  0.59392051199E+03  0.83661100749E+03  0.12503698145E+04  0.46999998093E+01 0. -1.
       -5    1    3    3    0  502 -0.71466287901E+03 -0.59392051199E+03  0.32751281051E+03  0.98527728901E+03  0.46999998093E+01 0.  1.
</event>
<event>
 5   0  0.1182630E-04  0.1908426E+04  0.7818609E-02  0.8650673E-01
        2   -1    0    0  501    0  0.00000000000E+00  0.00000000000E+00  0.22284366334E+04  0.22284366334E+04  0.25500000920E-02 0.  1.
       -2   -1    0    0    0  501  0.00000000000E+00  0.00000000000E+00 -0.40859266410E+03  0.40859266411E+03  0.25500000920E-02 0. -1.
    10030    2    1    2    0    0  0.00000000000E+00  0.00000000000E+00  0.18198439693E+04  0.26370292975E+04  0.19084264312E+04 0.  0.
        5    1    3    3  502    0  0.36857260589E+03  0.79442035900E+03  0.14334538183E+04  0.16798099332E+04  0.46999998093E+01 0.  1.
       -5    1    3    3    0  502 -0.36857260589E+03 -0.79442035900E+03  0.38639015106E+03  0.95721936433E+03  0.46999998093E+01 0. -1.
</event>
<event>
 5   0  0.1141890E-04  0.1900803E+04  0.7818609E-02  0.8654457E-01
        2   -1    0    0  501    0  0.00000000000E+00  0.00000000000E+00  0.14732872317E+04  0.14732872317E+04  0.25500000920E-02 0. -1.
       -2   -1    0    0    0  501  0.00000000000E+00  0.00000000000E+00 -0.61309346365E+03  0.61309346366E+03  0.25500000920E-02 0.  1.
    10030    2    1    2    0    0  0.00000000000E+00  0.00000000000E+00  0.86019376806E+03  0.20863806954E+04  0.19008027482E+04 0.  0.
        2    1    3    3  502    0 -0.28299714143E+03  0.63794489157E+03 -0.27802567807E+03  0.75123854029E+03  0.25500000920E-02 0.  1.
       -2    1    3    3    0  502  0.28299714143E+03 -0.63794489157E+03  0.11382194461E+04  0.13351421551E+04  0.25500000920E-02 0. -1.
</event>
<event>
 5   0  0.1141890E-04  0.1886155E+04  0.7818609E-02  0.8661779E-01
        2   -1    0    0  501    0  0.00000000000E+00  0.00000000000E+00  0.14937000238E+04  0.14937000238E+04  0.25500000920E-02 0.  1.
       -2   -1    0    0    0  501  0.00000000000E+00  0.00000000000E+00 -0.59543082877E+03  0.59543082877E+03  0.25500000920E-02 0. -1.
    10030    2    1    2    0    0  0.00000000000E+00  0.00000000000E+00  0.89826919506E+03  0.20891308526E+04  0.18861548644E+04 0.  0.
        2    1    3    3  502    0  0.73672666713E+03  0.58699440763E+03  0.39878473695E+03  0.10229163617E+04  0.25500000920E-02 0.  1.
       -2    1    3    3    0  502 -0.73672666713E+03 -0.58699440763E+03  0.49948445811E+03  0.10662144909E+04  0.25500000920E-02 0. -1.
</event>
<event>
 5   0  0.1118206E-04  0.1903509E+04  0.7818609E-02  0.8653112E-01
        2   -1    0    0  501    0  0.00000000000E+00  0.00000000000E+00  0.12669184515E+04  0.12669184515E+04  0.25500000920E-02 0. -1.
       -2   -1    0    0    0  501  0.00000000000E+00  0.00000000000E+00 -0.71499207883E+03  0.71499207884E+03  0.25500000920E-02 0.  1.
    10030    2    1    2    0    0  0.00000000000E+00  0.00000000000E+00  0.55192637263E+03  0.19819105303E+04  0.19035090305E+04 0.  0.
        1    1    3    3  502    0  0.19224016877E+03  0.35530060702E+03 -0.62129786129E+03  0.74108423024E+03  0.50400001928E-02 0.  1.
       -1    1    3    3    0  502 -0.19224016877E+03 -0.35530060702E+03  0.11732242339E+04  0.12408263001E+04  0.50400001928E-02 0. -1.
</event>
<event>
 5   0  0.5628936E-05  0.1907536E+04  0.7818609E-02  0.8651114E-01
       -1   -1    0    0    0  501  0.00000000000E+00  0.00000000000E+00  0.37528965353E+03  0.37528965356E+03  0.50400001928E-02 0.  1.
        1   -1    0    0  501    0  0.00000000000E+00  0.00000000000E+00 -0.24239247215E+04  0.24239247215E+04  0.50400001928E-02 0. -1.
    10030    2    1    2    0    0  0.00000000000E+00  0.00000000000E+00 -0.20486350680E+04  0.27992143750E+04  0.19075364940E+04 0.  0.
        5    1    3    3  502    0 -0.37657677590E+03  0.61497116491E+02 -0.23070231139E+04  0.23383690260E+04  0.46999998093E+01 0. -1.
       -5    1    3    3    0  502  0.37657677590E+03 -0.61497116491E+02  0.25838804595E+03  0.46084534908E+03  0.46999998093E+01 0.  1.
</event>
<event>
 5   0  0.5579109E-05  0.1904947E+04  0.7818609E-02  0.8652398E-01
        1   -1    0    0  501    0  0.00000000000E+00  0.00000000000E+00  0.23987373990E+04  0.23987373990E+04  0.50400001928E-02 0.  1.
       -1   -1    0    0    0  501  0.00000000000E+00  0.00000000000E+00 -0.37820122948E+03  0.37820122952E+03  0.50400001928E-02 0. -1.
    10030    2    1    2    0    0  0.00000000000E+00  0.00000000000E+00  0.20205361696E+04  0.27769386286E+04  0.19049466487E+04 0.  0.
        3    1    3    3  502    0 -0.13345809636E+03 -0.21263280146E+03  0.23496407120E+04  0.23630140197E+04  0.10100000352E+00 0.  1.
       -3    1    3    3    0  502  0.13345809636E+03  0.21263280146E+03 -0.32910454244E+03  0.41392460884E+03  0.10100000352E+00 0. -1.
</event>
<event>
 5   0  0.1133638E-04  0.1847211E+04  0.7818609E-02  0.8681589E-01
        2   -1    0    0  501    0  0.00000000000E+00  0.00000000000E+00  0.11228280833E+04  0.11228280833E+04  0.25500000920E-02 0.  1.
       -2   -1    0    0    0  501  0.00000000000E+00  0.00000000000E+00 -0.75973047576E+03  0.75973047577E+03  0.25500000920E-02 0. -1.
    10030    2    1    2    0    0  0.00000000000E+00  0.00000000000E+00  0.36309760757E+03  0.18825585591E+04  0.18472105608E+04 0.  0.
        3    1    3    3  502    0  0.65890398023E+03 -0.45299793261E+03  0.65265545271E+03  0.10321437556E+04  0.10100000352E+00 0.  1.
       -3    1    3    3    0  502 -0.65890398023E+03  0.45299793261E+03 -0.28955784514E+03  0.85041480349E+03  0.10100000352E+00 0. -1.
</event>
<event>
 5   0  0.5841424E-05  0.1899684E+04  0.7818609E-02  0.8655014E-01
        1   -1    0    0  501    0  0.00000000000E+00  0.00000000000E+00  0.10413299079E+04  0.10413299079E+04  0.50400001928E-02 0.  1.
       -1   -1    0    0    0  501  0.00000000000E+00  0.00000000000E+00 -0.86639172187E+03  0.86639172188E+03  0.50400001928E-02 0. -1.
    10030    2    1    2    0    0  0.00000000000E+00  0.00000000000E+00  0.17493818606E+03  0.19077216298E+04  0.18996837758E+04 0.  0.
        1    1    3    3  502    0 -0.15679973811E+03  0.73568895104E+03  0.66990171054E+03  0.10072699203E+04  0.50400001928E-02 0.  1.
       -1    1    3    3    0  502  0.15679973811E+03 -0.73568895104E+03 -0.49496352448E+03  0.90045170950E+03  0.50400001928E-02 0. -1.
</event>
<event>
 5   0  0.1141890E-04  0.1888463E+04  0.7818609E-02  0.8660620E-01
        2   -1    0    0  501    0  0.00000000000E+00  0.00000000000E+00  0.19587555764E+04  0.19587555764E+04  0.25500000920E-02 0.  1.
       -2   -1    0    0    0  501  0.00000000000E+00  0.00000000000E+00 -0.45517335646E+03  0.45517335647E+03  0.25500000920E-02 0. -1.
    10030    2    1    2    0    0  0.00000000000E+00  0.00000000000E+00  0.15035822199E+04  0.24139289328E+04  0.18884632379E+04 0.  0.
        2    1    3    3  502    0 -0.24296301859E+03  0.15243450134E+03 -0.39814136036E+03  0.49069730837E+03  0.25500000920E-02 0. -1.
       -2    1    3    3    0  502  0.24296301859E+03 -0.15243450134E+03  0.19017235803E+04  0.19232316245E+04  0.25500000920E-02 0.  1.
</event>
<event>
 5   0  0.5614989E-05  0.1916001E+04  0.7818609E-02  0.8646932E-01
        1   -1    0    0  501    0  0.00000000000E+00  0.00000000000E+00  0.18065446919E+04  0.18065446919E+04  0.50400001928E-02 0. -1.
       -1   -1    0    0    0  501  0.00000000000E+00  0.00000000000E+00 -0.50802252870E+03  0.50802252873E+03  0.50400001928E-02 0.  1.
    10030    2    1    2    0    0  0.00000000000E+00  0.00000000000E+00  0.12985221632E+04  0.23145672206E+04  0.19160014641E+04 0.  0.
        4    1    3    3  502    0  0.77574973408E+03  0.52016300646E+03  0.39184635512E+03  0.10128683933E+04  0.12699999809E+01 0.  1.
       -4    1    3    3    0  502 -0.77574973408E+03 -0.52016300646E+03  0.90667580805E+03  0.13016988273E+04  0.12699999809E+01 0. -1.
</event>
<event>
 5   0  0.5841424E-05  0.1895427E+04  0.7818609E-02  0.8657136E-01
        1   -1    0    0  501    0  0.00000000000E+00  0.00000000000E+00  0.17705789188E+04  0.17705789188E+04  0.50400001928E-02 0. -1.
       -1   -1    0    0    0  501  0.00000000000E+00  0.00000000000E+00 -0.50726963897E+03  0.50726963899E+03  0.50400001928E-02 0.  1.
    10030    2    1    2    0    0  0.00000000000E+00  0.00000000000E+00  0.12633092798E+04  0.22778485578E+04  0.18954270537E+04 0.  0.
        1    1    3    3  502    0  0.54570035747E+03 -0.19690886347E+03  0.15322525080E+04  0.16384015775E+04  0.50400001928E-02 0. -1.
       -1    1    3    3    0  502 -0.54570035747E+03  0.19690886347E+03 -0.26894322819E+03  0.63944698034E+03  0.50400001928E-02 0.  1.
</event>
<event>
 5   0  0.5824956E-05  0.1917456E+04  0.7818609E-02  0.8646216E-01
       -1   -1    0    0    0  501  0.00000000000E+00  0.00000000000E+00  0.68099982575E+03  0.68099982576E+03  0.50400001928E-02 0. -1.
        1   -1    0    0  501    0  0.00000000000E+00  0.00000000000E+00 -0.13497210988E+04  0.13497210988E+04  0.50400001928E-02 0.  1.
    10030    2    1    2    0    0  0.00000000000E+00  0.00000000000E+00 -0.66872127303E+03  0.20307209246E+04  0.19174564747E+04 0.  0.
        2    1    3    3  502    0 -0.47849249916E+03 -0.61728514821E+03  0.25450885225E+03  0.82144432667E+03  0.25500000920E-02 0. -1.
       -2    1    3    3    0  502  0.47849249916E+03  0.61728514821E+03 -0.92323012528E+03  0.12092765979E+04  0.25500000920E-02 0.  1.
</event>
<event>
 5   0  0.5628936E-05  0.1864968E+04  0.7818609E-02  0.8672493E-01
       -1   -1    0    0    0  501  0.00000000000E+00  0.00000000000E+00  0.82006123736E+03  0.82006123737E+03  0.50400001928E-02 0.  1.
        1   -1    0    0  501    0  0.00000000000E+00  0.00000000000E+00 -0.10603190750E+04  0.10603190750E+04  0.50400001928E-02 0. -1.
    10030    2    1    2    0    0  0.00000000000E+00  0.00000000000E+00 -0.24025783764E+03  0.18803803124E+04  0.18649681742E+04 0.  0.
        5    1    3    3  502    0 -0.39060590873E+03  0.42537478109E+03  0.61803314822E+03  0.84587454307E+03  0.46999998093E+01 0.  1.
       -5    1    3    3    0  502  0.39060590873E+03 -0.42537478109E+03 -0.85829098587E+03  0.10345057693E+04  0.46999998093E+01 0. -1.
</event>
<event>
 5   0  0.1101678E-04  0.1887852E+04  0.7818609E-02  0.8660927E-01
       -2   -1    0    0    0  501  0.00000000000E+00  0.00000000000E+00  0.60500448046E+03  0.60500448046E+03  0.25500000920E-02 0.  1.
        2   -1    0    0  501    0  0.00000000000E+00  0.00000000000E+00 -0.14727107315E+04  0.14727107315E+04  0.25500000920E-02 0. -1.
    10030    2    1    2    0    0  0.00000000000E+00  0.00000000000E+00 -0.86770625109E+03  0.20777152120E+04  0.18878523152E+04 0.  0.
        4    1    3    3  502    0  0.93574541004E+03  0.50600169454E+02 -0.55844206418E+03  0.10908890876E+04  0.12699999809E+01 0. -1.
       -4    1    3    3    0  502 -0.93574541004E+03 -0.50600169454E+02 -0.30926418690E+03  0.98682612438E+03  0.12699999809E+01 0.  1.
</event>
<event>
 5   0  0.1101678E-04  0.1903914E+04  0.7818609E-02  0.8652911E-01
        2   -1    0    0  501    0  0.00000000000E+00  0.00000000000E+00  0.84692859616E+03  0.84692859617E+03  0.25500000920E-02 0.  1.
       -2   -1    0    0    0  501  0.00000000000E+00  0.00000000000E+00 -0.10700099551E+04  0.10700099551E+04  0.25500000920E-02 0. -1.
    10030    2    1    2    0    0  0.00000000000E+00  0.00000000000E+00 -0.22308135897E+03  0.19169385513E+04  0.19039138943E+04 0.  0.
        4    1    3    3  502    0  0.87422041325E+03 -0.37474443729E+03 -0.15086799767E+03  0.96304594379E+03  0.12699999809E+01 0.  1.
       -4    1    3    3    0  502 -0.87422041325E+03  0.37474443729E+03 -0.72213361303E+02  0.95389260752E+03  0.12699999809E+01 0. -1.
</event>
<event>
 5   0  0.5824956E-05  0.1893757E+04  0.7818609E-02  0.8657970E-01
        1   -1    0    0  501    0  0.00000000000E+00  0.00000000000E+00  0.18363418839E+04  0.18363418839E+04  0.50400001928E-02 0.  1.
       -1   -1    0    0    0  501  0.00000000000E+00  0.00000000000E+00 -0.48824174482E+03  0.48824174485E+03  0.50400001928E-02 0. -1.
    10030    2    1    2    0    0  0.00000000000E+00  0.00000000000E+00  0.13481001391E+04  0.23245836288E+04  0.18937568646E+04 0.  0.
        2    1    3    3  502    0  0.42763945495E+03  0.54662928008E+03  0.14647150634E+04  0.16208236456E+04  0.25500000920E-02 0.  1.
       -2    1    3    3    0  502 -0.42763945495E+03 -0.54662928008E+03 -0.11661492432E+03  0.70375998313E+03  0.25500000920E-02 0. -1.
</event>
<event>
 5   0  0.1101678E-04  0.1897965E+04  0.7818609E-02  0.8655870E-01
        2   -1    0    0  501    0  0.00000000000E+00  0.00000000000E+00  0.71566085148E+03  0.71566085148E+03  0.25500000920E-02 0.  1.
       -2   -1    0    0    0  501  0.00000000000E+00  0.00000000000E+00 -0.12583723790E+04  0.12583723790E+04  0.25500000920E-02 0. -1.
    10030    2    1    2    0    0  0.00000000000E+00  0.00000000000E+00 -0.54271152752E+03  0.19740332305E+04  0.18979650663E+04 0.  0.
        4    1    3    3  502    0 -0.69025952671E+03 -0.34269974954E+03 -0.84732366650E+03  0.11453647198E+04  0.12699999809E+01 0. -1.
       -4    1    3    3    0  502  0.69025952671E+03  0.34269974954E+03  0.30461213898E+03  0.82866851072E+03  0.12699999809E+01 0.  1.
</event>
<event>
 5   0  0.1118206E-04  0.1885530E+04  0.7818609E-02  0.8662093E-01
       -2   -1    0    0    0  501  0.00000000000E+00  0.00000000000E+00  0.45161581498E+03  0.45161581499E+03  0.25500000920E-02 0.  1.
        2   -1    0    0  501    0  0.00000000000E+00  0.00000000000E+00 -0.19680577576E+04  0.19680577576E+04  0.25500000920E-02 0. -1.
    10030    2    1    2    0    0  0.00000000000E+00  0.00000000000E+00 -0.15164419426E+04  0.24196735726E+04  0.18855301728E+04 0.  0.
        1    1    3    3  502    0 -0.82126437881E+03 -0.45916319957E+03 -0.83414099686E+03  0.12574168865E+04  0.50400001928E-02 0.  1.
       -1    1    3    3    0  502  0.82126437881E+03  0.45916319957E+03 -0.68230094573E+03  0.11622566861E+04  0.50400001928E-02 0. -1.
</event>
<event>
 5   0  0.1101678E-04  0.1903873E+04  0.7818609E-02  0.8652931E-01
       -2   -1    0    0    0  501  0.00000000000E+00  0.00000000000E+00  0.53274473201E+03  0.53274473202E+03  0.25500000920E-02 0.  1.
        2   -1    0    0  501    0  0.00000000000E+00  0.00000000000E+00 -0.17009697849E+04  0.17009697849E+04  0.25500000920E-02 0. -1.
    10030    2    1    2    0    0  0.00000000000E+00  0.00000000000E+00 -0.11682250529E+04  0.22337145169E+04  0.19038725716E+04 0.  0.
        4    1    3    3  502    0  0.32598746252E+03 -0.41623273667E+03 -0.15128800291E+04  0.16025994859E+04  0.12699999809E+01 0. -1.
       -4    1    3    3    0  502 -0.32598746252E+03  0.41623273667E+03  0.34465497625E+03  0.63111503099E+03  0.12699999809E+01 0.  1.
</event>
<event>
 5   0  0.5628936E-05  0.1880979E+04  0.7818609E-02  0.8664382E-01
       -1   -1    0    0    0  501  0.00000000000E+00  0.00000000000E+00  0.56069463619E+03  0.56069463621E+03  0.50400001928E-02 0. -1.
        1   -1    0    0  501    0  0.00000000000E+00  0.00000000000E+00 -0.15775447026E+04  0.15775447026E+04  0.50400001928E-02 0.  1.
    10030    2    1    2    0    0  0.00000000000E+00  0.00000000000E+00 -0.10168500664E+04  0.21382393388E+04  0.18809793759E+04 0.  0.
        5    1    3    3  502    0  0.26665204699E+03  0.66260516529E+03 -0.12039474145E+04  0.13998787041E+04  0.46999998093E+01 0.  1.
       -5    1    3    3    0  502 -0.26665204699E+03 -0.66260516529E+03  0.18709734813E+03  0.73836063472E+03  0.46999998093E+01 0. -1.
</event>
<event>
 5   0  0.1182630E-04  0.1914176E+04  0.7818609E-02  0.8647832E-01
       -2   -1    0    0    0  501  0.00000000000E+00  0.00000000000E+00  0.78360845636E+03  0.78360845636E+03  0.25500000920E-02 0.  1.
        2   -1    0    0  501    0  0.00000000000E+00  0.00000000000E+00 -0.11689734494E+04  0.11689734494E+04  0.25500000920E-02 0. -1.
    10030    2    1    2    0    0  0.00000000000E+00  0.00000000000E+00 -0.38536499302E+03  0.19525819057E+04  0.19141760423E+04 0.  0.
        5    1    3    3  502    0 -0.94135826008E+03 -0.25204920818E+02 -0.36700520685E+03  0.10106955890E+04  0.46999998093E+01 0.  1.
       -5    1    3    3    0  502  0.94135826008E+03  0.25204920818E+02 -0.18359786169E+02  0.94188631671E+03  0.46999998093E+01 0. -1.
</event>
<event>
 5   0  0.5628936E-05  0.1893963E+04  0.7818609E-02  0.8657867E-01
       -1   -1    0    0    0  501  0.00000000000E+00  0.00000000000E+00  0.60542785379E+03  0.60542785381E+03  0.50400001928E-02 0. -1.
        1   -1    0    0  501    0  0.00000000000E+00  0.00000000000E+00 -0.14812242111E+04  0.14812242111E+04  0.50400001928E-02 0.  1.
    10030    2    1    2    0    0  0.00000000000E+00  0.00000000000E+00 -0.87579635729E+03  0.20866520649E+04  0.18939634581E+04 0.  0.
        5    1    3    3  502    0  0.43489524981E+03  0.19713485130E+03 -0.13388724302E+04  0.14214772253E+04  0.46999998093E+01 0.  1.
       -5    1    3    3    0  502 -0.43489524981E+03 -0.19713485130E+03  0.46307607289E+03  0.66517483956E+03  0.46999998093E+01 0. -1.
</event>
<event>
 5   0  0.5579109E-05  0.1888190E+04  0.7818609E-02  0.8660757E-01
       -1   -1    0    0    0  501  0.00000000000E+00  0.00000000000E+00  0.76376658491E+03  0.76376658493E+03  0.50400001928E-02 0.  1.
        1   -1    0    0  501    0  0.00000000000E+00  0.00000000000E+00 -0.11670000174E+04  0.11670000174E+04  0.50400001928E-02 0. -1.
    10030    2    1    2    0    0  0.00000000000E+00  0.00000000000E+00 -0.40323343248E+03  0.19307666023E+04  0.18881902636E+04 0.  0.
        3    1    3    3  502    0 -0.62788653047E+03 -0.69726816290E+03 -0.94902489824E+02  0.94309643140E+03  0.10100000352E+00 0. -1.
       -3    1    3    3    0  502  0.62788653047E+03  0.69726816290E+03 -0.30833094265E+03  0.98767017093E+03  0.10100000352E+00 0.  1.
</event>
<event>
 5   0  0.1133638E-04  0.1887120E+04  0.7818609E-02  0.8661294E-01
        2   -1    0    0  501    0  0.00000000000E+00  0.00000000000E+00  0.83379151392E+03  0.83379151393E+03  0.25500000920E-02 0. -1.
       -2   -1    0    0    0  501  0.00000000000E+00  0.00000000000E+00 -0.10677796764E+04  0.10677796764E+04  0.25500000920E-02 0.  1.
    10030    2    1    2    0    0  0.00000000000E+00  0.00000000000E+00 -0.23398816246E+03  0.19015711903E+04  0.18871201688E+04 0.  0.
        3    1    3    3  502    0  0.70850201199E+03 -0.58862031744E+03  0.89161564568E+02  0.92541816164E+03  0.10100000352E+00 0. -1.
       -3    1    3    3    0  502 -0.70850201199E+03  0.58862031744E+03 -0.32314972703E+03  0.97615302867E+03  0.10100000352E+00 0.  1.
</event>
<event>
 5   0  0.5841424E-05  0.1926149E+04  0.7818609E-02  0.8641949E-01
       -1   -1    0    0    0  501  0.00000000000E+00  0.00000000000E+00  0.71793253345E+03  0.71793253347E+03  0.50400001928E-02 0. -1.
        1   -1    0    0  501    0  0.00000000000E+00  0.00000000000E+00 -0.12919215004E+04  0.12919215004E+04  0.50400001928E-02 0.  1.
    10030    2    1    2    0    0  0.00000000000E+00  0.00000000000E+00 -0.57398896697E+03  0.20098540339E+04  0.19261489826E+04 0.  0.
        1    1    3    3  502    0 -0.43415808473E+03  0.15510055715E+03  0.59530584543E+03  0.75295316919E+03  0.50400001928E-02 0. -1.
       -1    1    3    3    0  502  0.43415808473E+03 -0.15510055715E+03 -0.11692948124E+04  0.12569008647E+04  0.50400001928E-02 0.  1.
</event>
<event>
 5   0  0.5614989E-05  0.1896135E+04  0.7818609E-02  0.8656783E-01
        1   -1    0    0  501    0  0.00000000000E+00  0.00000000000E+00  0.24008435842E+04  0.24008435842E+04  0.50400001928E-02 0.  1.
       -1   -1    0    0    0  501  0.00000000000E+00  0.00000000000E+00 -0.37438160650E+03  0.37438160653E+03  0.50400001928E-02 0. -1.
    10030    2    1    2    0    0  0.00000000000E+00  0.00000000000E+00  0.20264619777E+04  0.27752251907E+04  0.18961346767E+04 0.  0.
        4    1    3    3  502    0  0.85835089292E+03 -0.24478340792E+03  0.14810063870E+04  0.17291809343E+04  0.12699999809E+01 0.  1.
       -4    1    3    3    0  502 -0.85835089292E+03  0.24478340792E+03  0.54545559069E+03  0.10460442565E+04  0.12699999809E+01 0. -1.
</event>
<event>
 5   0  0.5628936E-05  0.1904886E+04  0.7818609E-02  0.8652428E-01
       -1   -1    0    0    0  501  0.00000000000E+00  0.00000000000E+00  0.12352344673E+04  0.12352344673E+04  0.50400001928E-02 0.  1.
        1   -1    0    0  501    0  0.00000000000E+00  0.00000000000E+00 -0.73439333473E+03  0.73439333475E+03  0.50400001928E-02 0. -1.
    10030    2    1    2    0    0  0.00000000000E+00  0.00000000000E+00  0.50084113256E+03  0.19696278021E+04  0.19048863059E+04 0.  0.
        5    1    3    3  502    0 -0.72894170190E+03  0.51281375716E+03  0.59768003137E+03  0.10731157739E+04  0.46999998093E+01 0. -1.
       -5    1    3    3    0  502  0.72894170190E+03 -0.51281375716E+03 -0.96838898812E+02  0.89651202815E+03  0.46999998093E+01 0.  1.
</event>
<event>
 5   0  0.5841424E-05  0.1881648E+04  0.7818609E-02  0.8664046E-01
       -1   -1    0    0    0  501  0.00000000000E+00  0.00000000000E+00  0.10221129666E+04  0.10221129666E+04  0.50400001928E-02 0.  1.
        1   -1    0    0  501    0  0.00000000000E+00  0.00000000000E+00 -0.86599964303E+03  0.86599964304E+03  0.50400001928E-02 0. -1.
    10030    2    1    2    0    0  0.00000000000E+00  0.00000000000E+00  0.15611332356E+03  0.18881126096E+04  0.18816476442E+04 0.  0.
        1    1    3    3  502    0  0.76651706545E+03 -0.10031876073E+02  0.62536665616E+03  0.98930910479E+03  0.50400001928E-02 0.  1.
       -1    1    3    3    0  502 -0.76651706545E+03  0.10031876073E+02 -0.46925333260E+03  0.89880350485E+03  0.50400001928E-02 0. -1.
</event>
<event>
 5   0  0.5841424E-05  0.1898144E+04  0.7818609E-02  0.8655781E-01
        1   -1    0    0  501    0  0.00000000000E+00  0.00000000000E+00  0.74840771786E+03  0.74840771787E+03  0.50400001928E-02 0.  1.
       -1   -1    0    0    0  501  0.00000000000E+00  0.00000000000E+00 -0.12035381277E+04  0.12035381278E+04  0.50400001928E-02 0. -1.
    10030    2    1    2    0    0  0.00000000000E+00  0.00000000000E+00 -0.45513040989E+03  0.19519458456E+04  0.18981435389E+04 0.  0.
        1    1    3    3  502    0  0.88055236381E+02  0.29396074546E+03  0.69598370856E+03  0.76063129513E+03  0.50400001928E-02 0.  1.
       -1    1    3    3    0  502 -0.88055236381E+02 -0.29396074546E+03 -0.11511141184E+04  0.11913145505E+04  0.50400001928E-02 0. -1.
</event>
<event>
 5   0  0.1101678E-04  0.1896793E+04  0.7818609E-02  0.8656454E-01
       -2   -1    0    0    0  501  0.00000000000E+00  0.00000000000E+00  0.49284977895E+03  0.49284977895E+03  0.25500000920E-02 0.  1.
        2   -1    0    0  501    0  0.00000000000E+00  0.00000000000E+00 -0.18250102967E+04  0.18250102968E+04  0.25500000920E-02 0. -1.
    10030    2    1    2    0    0  0.00000000000E+00  0.00000000000E+00 -0.13321605178E+04  0.23178600757E+04  0.18967930001E+04 0.  0.
        4    1    3    3  502    0 -0.16022099661E+03  0.49849875432E+03 -0.16323656755E+04  0.17142902575E+04  0.12699999809E+01 0. -1.
       -4    1    3    3    0  502  0.16022099661E+03 -0.49849875432E+03  0.30020515765E+03  0.60356981816E+03  0.12699999809E+01 0.  1.
</event>
<event>
 5   0  0.5614989E-05  0.1904314E+04  0.7818609E-02  0.8652712E-01
       -1   -1    0    0    0  501  0.00000000000E+00  0.00000000000E+00  0.45093741421E+03  0.45093741423E+03  0.50400001928E-02 0.  1.
        1   -1    0    0  501    0  0.00000000000E+00  0.00000000000E+00 -0.20104857620E+04  0.20104857620E+04  0.50400001928E-02 0. -1.
    10030    2    1    2    0    0  0.00000000000E+00  0.00000000000E+00 -0.15595483478E+04  0.24614231763E+04  0.19043143132E+04 0.  0.
        4    1    3    3  502    0  0.15108994645E+03  0.70300182824E+03  0.26970095303E+02  0.71956149241E+03  0.12699999809E+01 0.  1.
       -4    1    3    3    0  502 -0.15108994645E+03 -0.70300182824E+03 -0.15865184431E+04  0.17418616839E+04  0.12699999809E+01 0. -1.
</event>
<event>
 5   0  0.5841424E-05  0.1899418E+04  0.7818609E-02  0.8655146E-01
       -1   -1    0    0    0  501  0.00000000000E+00  0.00000000000E+00  0.12306735271E+04  0.12306735271E+04  0.50400001928E-02 0. -1.
        1   -1    0    0  501    0  0.00000000000E+00  0.00000000000E+00 -0.73288898401E+03  0.73288898403E+03  0.50400001928E-02 0.  1.
    10030    2    1    2    0    0  0.00000000000E+00  0.00000000000E+00  0.49778454311E+03  0.19635625112E+04  0.18994178803E+04 0.  0.
        1    1    3    3  502    0 -0.65494234281E+03 -0.99516127957E+02  0.95238376780E+03  0.11601240336E+04  0.50400001928E-02 0. -1.
       -1    1    3    3    0  502  0.65494234281E+03  0.99516127957E+02 -0.45459922468E+03  0.80343847757E+03  0.50400001928E-02 0.  1.
</event>
<event>
 5   0  0.5579109E-05  0.1884138E+04  0.7818609E-02  0.8662792E-01
        1   -1    0    0  501    0  0.00000000000E+00  0.00000000000E+00  0.64933846738E+03  0.64933846740E+03  0.50400001928E-02 0.  1.
       -1   -1    0    0    0  501  0.00000000000E+00  0.00000000000E+00 -0.13667670242E+04  0.13667670242E+04  0.50400001928E-02 0. -1.
    10030    2    1    2    0    0  0.00000000000E+00  0.00000000000E+00 -0.71742855684E+03  0.20161054916E+04  0.18841384289E+04 0.  0.
        3    1    3    3  502    0 -0.50626281371E+03  0.18296379420E+02 -0.12086109236E+04  0.13104873784E+04  0.10100000352E+00 0. -1.
       -3    1    3    3    0  502  0.50626281371E+03 -0.18296379420E+02  0.49118236679E+03  0.70561811321E+03  0.10100000352E+00 0.  1.
</event>
<event>
 5   0  0.5628936E-05  0.1908095E+04  0.7818609E-02  0.8650838E-01
        1   -1    0    0  501    0  0.00000000000E+00  0.00000000000E+00  0.18547923306E+04  0.18547923306E+04  0.50400001928E-02 0.  1.
       -1   -1    0    0    0  501  0.00000000000E+00  0.00000000000E+00 -0.49073219114E+03  0.49073219116E+03  0.50400001928E-02 0. -1.
    10030    2    1    2    0    0  0.00000000000E+00  0.00000000000E+00  0.13640601395E+04  0.23455245218E+04  0.19080946565E+04 0.  0.
        5    1    3    3  502    0 -0.67984197583E+03  0.13687479620E+03  0.14874131380E+04  0.16411397731E+04  0.46999998093E+01 0.  1.
       -5    1    3    3    0  502  0.67984197583E+03 -0.13687479620E+03 -0.12335299847E+03  0.70438474868E+03  0.46999998093E+01 0. -1.
</event>
<event>
 5   0  0.1101678E-04  0.1896527E+04  0.7818609E-02  0.8656587E-01
       -2   -1    0    0    0  501  0.00000000000E+00  0.00000000000E+00  0.93454987987E+03  0.93454987987E+03  0.25500000920E-02 0.  1.
        2   -1    0    0  501    0  0.00000000000E+00  0.00000000000E+00 -0.96217835214E+03  0.96217835215E+03  0.25500000920E-02 0. -1.
    10030    2    1    2    0    0  0.00000000000E+00  0.00000000000E+00 -0.27628472275E+02  0.18967282320E+04  0.18965269979E+04 0.  0.
        4    1    3    3  502    0  0.39014621628E+03  0.86333898696E+03 -0.54238495636E+02  0.94895295131E+03  0.12699999809E+01 0. -1.
       -4    1    3    3    0  502 -0.39014621628E+03 -0.86333898696E+03  0.26610023361E+02  0.94777528071E+03  0.12699999809E+01 0.  1.
</event>
<event>
 5   0  0.5824956E-05  0.1907887E+04  0.7818609E-02  0.8650940E-01
       -1   -1    0    0    0  501  0.00000000000E+00  0.00000000000E+00  0.51453575648E+03  0.51453575651E+03  0.50400001928E-02 0.  1.
        1   -1    0    0  501    0  0.00000000000E+00  0.00000000000E+00 -0.17686003779E+04  0.17686003779E+04  0.50400001928E-02 0. -1.
    10030    2    1    2    0    0  0.00000000000E+00  0.00000000000E+00 -0.12540646215E+04  0.22831361345E+04  0.19078869290E+04 0.  0.
        2    1    3    3  502    0  0.11795385367E+03 -0.83547942242E+03 -0.11596156802E+04  0.14341016361E+04  0.25500000920E-02 0. -1.
       -2    1    3    3    0  502 -0.11795385367E+03  0.83547942242E+03 -0.94448941243E+02  0.84903449835E+03  0.25500000920E-02 0.  1.
</event>
<event>
 5   0  0.5614989E-05  0.1932223E+04  0.7818609E-02  0.8638981E-01
        1   -1    0    0  501    0  0.00000000000E+00  0.00000000000E+00  0.11521862921E+04  0.11521862921E+04  0.50400001928E-02 0. -1.
       -1   -1    0    0    0  501  0.00000000000E+00  0.00000000000E+00 -0.81008716693E+03  0.81008716694E+03  0.50400001928E-02 0.  1.
    10030    2    1    2    0    0  0.00000000000E+00  0.00000000000E+00  0.34209912518E+03  0.19622734591E+04  0.19322228952E+04 0.  0.
        4    1    3    3  502    0 -0.95843844138E+03  0.34390923114E+02  0.28940709877E+03  0.10017709635E+04  0.12699999809E+01 0.  1.
       -4    1    3    3    0  502  0.95843844138E+03 -0.34390923114E+02  0.52692026410E+02  0.96050249560E+03  0.12699999809E+01 0. -1.
</event>
<event>
 5   0  0.1101678E-04  0.1894916E+04  0.7818609E-02  0.8657391E-01
        2   -1    0    0  501    0  0.00000000000E+00  0.00000000000E+00  0.85365064534E+03  0.85365064535E+03  0.25500000920E-02 0.  1.
       -2   -1    0    0    0  501  0.00000000000E+00  0.00000000000E+00 -0.10515740281E+04  0.10515740281E+04  0.25500000920E-02 0. -1.
    10030    2    1    2    0    0  0.00000000000E+00  0.00000000000E+00 -0.19792338273E+03  0.19052246734E+04  0.18949161962E+04 0.  0.
        4    1    3    3  502    0 -0.61311555282E+03 -0.58374529751E+03  0.32880075273E+03  0.90817443334E+03  0.12699999809E+01 0.  1.
       -4    1    3    3    0  502  0.61311555282E+03  0.58374529751E+03 -0.52672413546E+03  0.99705024008E+03  0.12699999809E+01 0. -1.
</event>
<event>
 5   0  0.1182630E-04  0.1943282E+04  0.7818609E-02  0.8633607E-01
        2   -1    0    0  501    0  0.00000000000E+00  0.00000000000E+00  0.21370104473E+04  0.21370104473E+04  0.25500000920E-02 0. -1.
       -2   -1    0    0    0  501  0.00000000000E+00  0.00000000000E+00 -0.44177898224E+03  0.44177898224E+03  0.25500000920E-02 0.  1.
    10030    2    1    2    0    0  0.00000000000E+00  0.00000000000E+00  0.16952314651E+04  0.25787894296E+04  0.19432820696E+04 0.  0.
        5    1    3    3  502    0 -0.56298449243E+03 -0.78340984053E+03  0.69410611940E+03  0.11884813469E+04  0.46999998093E+01 0.  1.
       -5    1    3    3    0  502  0.56298449243E+03  0.78340984053E+03  0.10011253457E+04  0.13903080827E+04  0.46999998093E+01 0. -1.
</event>
<event>
 5   0  0.5614989E-05  0.1899995E+04  0.7818609E-02  0.8654859E-01
        1   -1    0    0  501    0  0.00000000000E+00  0.00000000000E+00  0.17637773187E+04  0.17637773187E+04  0.50400001928E-02 0. -1.
       -1   -1    0    0    0  501  0.00000000000E+00  0.00000000000E+00 -0.51168310844E+03  0.51168310846E+03  0.50400001928E-02 0.  1.
    10030    2    1    2    0    0  0.00000000000E+00  0.00000000000E+00  0.12520942103E+04  0.22754604272E+04  0.18999948011E+04 0.  0.
        4    1    3    3  502    0 -0.80226538842E+03  0.50676803906E+03  0.57182481671E+03  0.11078938725E+04  0.12699999809E+01 0.  1.
       -4    1    3    3    0  502  0.80226538842E+03 -0.50676803906E+03  0.68026939359E+03  0.11675665547E+04  0.12699999809E+01 0. -1.
</event>
<event>
 5   0  0.1101678E-04  0.1907366E+04  0.7818609E-02  0.8651198E-01
       -2   -1    0    0    0  501  0.00000000000E+00  0.00000000000E+00  0.71917198151E+03  0.71917198151E+03  0.25500000920E-02 0.  1.
        2   -1    0    0  501    0  0.00000000000E+00  0.00000000000E+00 -0.12646649202E+04  0.12646649202E+04  0.25500000920E-02 0. -1.
    10030    2    1    2    0    0  0.00000000000E+00  0.00000000000E+00 -0.54549293867E+03  0.19838369017E+04  0.19073663273E+04 0.  0.
        4    1    3    3  502    0 -0.37663717369E+03 -0.86252691571E+03 -0.43287245277E+03  0.10359480751E+04  0.12699999809E+01 0. -1.
       -4    1    3    3    0  502  0.37663717369E+03  0.86252691571E+03 -0.11262048590E+03  0.94788882664E+03  0.12699999809E+01 0.  1.
</event>
<event>
 5   0  0.1133638E-04  0.1905418E+04  0.7818609E-02  0.8652164E-01
        2   -1    0    0  501    0  0.00000000000E+00  0.00000000000E+00  0.38627695957E+03  0.38627695958E+03  0.25500000920E-02 0.  1.
       -2   -1    0    0    0  501  0.00000000000E+00  0.00000000000E+00 -0.23497494782E+04  0.23497494782E+04  0.25500000920E-02 0. -1.
    10030    2    1    2    0    0  0.00000000000E+00  0.00000000000E+00 -0.19634725186E+04  0.27360264378E+04  0.19054176279E+04 0.  0.
        3    1    3    3  502    0 -0.69713607756E+03 -0.59111051487E+03 -0.59578703810E+03  0.10910419590E+04  0.10100000352E+00 0.  1.
       -3    1    3    3    0  502  0.69713607756E+03  0.59111051487E+03 -0.13676854805E+04  0.16449844788E+04  0.10100000352E+00 0. -1.
</event>
<event>
 5   0  0.5628936E-05  0.1913162E+04  0.7818609E-02  0.8648332E-01
       -1   -1    0    0    0  501  0.00000000000E+00  0.00000000000E+00  0.57856408669E+03  0.57856408671E+03  0.50400001928E-02 0.  1.
        1   -1    0    0  501    0  0.00000000000E+00  0.00000000000E+00 -0.15815835581E+04  0.15815835581E+04  0.50400001928E-02 0. -1.
    10030    2    1    2    0    0  0.00000000000E+00  0.00000000000E+00 -0.10030194714E+04  0.21601476448E+04  0.19131622480E+04 0.  0.
        5    1    3    3  502    0  0.73933531949E+03 -0.40637891311E+03  0.75429635131E+01  0.84370582667E+03  0.46999998093E+01 0.  1.
       -5    1    3    3    0  502 -0.73933531949E+03  0.40637891311E+03 -0.10105624349E+04  0.13164418181E+04  0.46999998093E+01 0. -1.
</event>
<event>
 5   0  0.1141890E-04  0.1894613E+04  0.7818609E-02  0.8657542E-01
        2   -1    0    0  501    0  0.00000000000E+00  0.00000000000E+00  0.12209649395E+04  0.12209649395E+04  0.25500000920E-02 0.  1.
       -2   -1    0    0    0  501  0.00000000000E+00  0.00000000000E+00 -0.73498417159E+03  0.73498417159E+03  0.25500000920E-02 0. -1.
    10030    2    1    2    0    0  0.00000000000E+00  0.00000000000E+00  0.48598076796E+03  0.19559491111E+04  0.18946133164E+04 0.  0.
        2    1    3    3  502    0  0.13052088901E+03 -0.35847016155E+03 -0.65217552452E+03  0.75555904732E+03  0.25500000920E-02 0. -1.
       -2    1    3    3    0  502 -0.13052088901E+03  0.35847016155E+03  0.11381562925E+04  0.12003900638E+04  0.25500000920E-02 0.  1.
</event>
<event>
 5   0  0.4061125E-05  0.1899274E+04  0.7818609E-02  0.8655218E-01
       -3   -1    0    0    0  501  0.00000000000E+00  0.00000000000E+00  0.14084814655E+04  0.14084814691E+04  0.10100000352E+00 0.  1.
        3   -1    0    0  501    0  0.00000000000E+00  0.00000000000E+00 -0.64027135656E+03  0.64027136453E+03  0.10100000352E+00 0. -1.
    10030    2    1    2    0    0  0.00000000000E+00  0.00000000000E+00  0.76821010893E+03  0.20487528336E+04  0.18992739144E+04 0.  0.
        3    1    3    3  502    0 -0.72037801358E+02  0.43480093904E+02  0.14044524375E+04  0.14069707256E+04  0.10100000352E+00 0.  1.
       -3    1    3    3    0  502  0.72037801358E+02 -0.43480093904E+02 -0.63624232853E+03  0.64178210805E+03  0.10100000352E+00 0. -1.
</event>
<event>
 5   0  0.1141890E-04  0.1870813E+04  0.7818609E-02  0.8669522E-01
       -2   -1    0    0    0  501  0.00000000000E+00  0.00000000000E+00  0.66973450344E+03  0.66973450344E+03  0.25500000920E-02 0. -1.
        2   -1    0    0  501    0  0.00000000000E+00  0.00000000000E+00 -0.13064661933E+04  0.13064661933E+04  0.25500000920E-02 0.  1.
    10030    2    1    2    0    0  0.00000000000E+00  0.00000000000E+00 -0.63673168987E+03  0.19762006968E+04  0.18708131785E+04 0.  0.
        2    1    3    3  502    0  0.90633644340E+03 -0.54943789185E+02 -0.80935487167E+02  0.91160030808E+03  0.25500000920E-02 0. -1.
       -2    1    3    3    0  502 -0.90633644340E+03  0.54943789185E+02 -0.55579620270E+03  0.10646003887E+04  0.25500000920E-02 0.  1.
</event>
<event>
 5   0  0.5579109E-05  0.1911187E+04  0.7818609E-02  0.8649308E-01
       -1   -1    0    0    0  501  0.00000000000E+00  0.00000000000E+00  0.90502675800E+03  0.90502675802E+03  0.50400001928E-02 0.  1.
        1   -1    0    0  501    0  0.00000000000E+00  0.00000000000E+00 -0.10089854457E+04  0.10089854457E+04  0.50400001928E-02 0. -1.
    10030    2    1    2    0    0  0.00000000000E+00  0.00000000000E+00 -0.10395868766E+03  0.19140122037E+04  0.19111868844E+04 0.  0.
        3    1    3    3  502    0 -0.37429193839E+03 -0.48089390742E+03  0.68518312389E+03  0.91696746333E+03  0.10100000352E+00 0.  1.
       -3    1    3    3    0  502  0.37429193839E+03  0.48089390742E+03 -0.78914181155E+03  0.99704474036E+03  0.10100000352E+00 0. -1.
</event>
<event>
 5   0  0.1133638E-04  0.1899436E+04  0.7818609E-02  0.8655137E-01
       -2   -1    0    0    0  501  0.00000000000E+00  0.00000000000E+00  0.90812753967E+03  0.90812753968E+03  0.25500000920E-02 0.  1.
        2   -1    0    0  501    0  0.00000000000E+00  0.00000000000E+00 -0.99321317276E+03  0.99321317276E+03  0.25500000920E-02 0. -1.
    10030    2    1    2    0    0  0.00000000000E+00  0.00000000000E+00 -0.85085633087E+02  0.19013407124E+04  0.18994359531E+04 0.  0.
        3    1    3    3  502    0  0.84731869082E+03  0.20583188407E+03 -0.41928242139E+03  0.96752957960E+03  0.10100000352E+00 0. -1.
       -3    1    3    3    0  502 -0.84731869082E+03 -0.20583188407E+03  0.33419678830E+03  0.93381113284E+03  0.10100000352E+00 0.  1.
</event>
<event>
 5   0  0.5614989E-05  0.1906502E+04  0.7818609E-02  0.8651627E-01
       -1   -1    0    0    0  501  0.00000000000E+00  0.00000000000E+00  0.12598927810E+04  0.12598927810E+04  0.50400001928E-02 0. -1.
        1   -1    0    0  501    0  0.00000000000E+00  0.00000000000E+00 -0.72124173092E+03  0.72124173093E+03  0.50400001928E-02 0.  1.
    10030    2    1    2    0    0  0.00000000000E+00  0.00000000000E+00  0.53865105004E+03  0.19811345119E+04  0.19065017704E+04 0.  0.
        4    1    3    3  502    0 -0.28992139890E+03 -0.33980493276E+03 -0.60575906939E+03  0.75264033437E+03  0.12699999809E+01 0.  1.
       -4    1    3    3    0  502  0.28992139890E+03  0.33980493276E+03  0.11444101194E+04  0.12284941775E+04  0.12699999809E+01 0. -1.
</event>
<event>
 5   0  0.5579109E-05  0.1882684E+04  0.7818609E-02  0.8663524E-01
        1   -1    0    0  501    0  0.00000000000E+00  0.00000000000E+00  0.11591230165E+04  0.11591230165E+04  0.50400001928E-02 0. -1.
       -1   -1    0    0    0  501  0.00000000000E+00  0.00000000000E+00 -0.76447873810E+03  0.76447873812E+03  0.50400001928E-02 0.  1.
    10030    2    1    2    0    0  0.00000000000E+00  0.00000000000E+00  0.39464427840E+03  0.19236017546E+04  0.18826841487E+04 0.  0.
        3    1    3    3  502    0  0.34735105802E+03 -0.74215583618E+03  0.67072437383E+03  0.10589236226E+04  0.10100000352E+00 0. -1.
       -3    1    3    3    0  502 -0.34735105802E+03  0.74215583618E+03 -0.27608009544E+03  0.86467813201E+03  0.10100000352E+00 0.  1.
</event>
<event>
 5   0  0.1141890E-04  0.1891885E+04  0.7818609E-02  0.8658906E-01
       -2   -1    0    0    0  501  0.00000000000E+00  0.00000000000E+00  0.15611420393E+04  0.15611420393E+04  0.25500000920E-02 0.  1.
        2   -1    0    0  501    0  0.00000000000E+00  0.00000000000E+00 -0.57317456518E+03  0.57317456519E+03  0.25500000920E-02 0. -1.
    10030    2    1    2    0    0  0.00000000000E+00  0.00000000000E+00  0.98796747409E+03  0.21343166045E+04  0.18918846789E+04 0.  0.
        2    1    3    3  502    0 -0.67643453662E+03  0.63137560919E+03  0.71565184480E+03  0.11697676715E+04  0.25500000920E-02 0.  1.
       -2    1    3    3    0  502  0.67643453662E+03 -0.63137560919E+03  0.27231562930E+03  0.96454893301E+03  0.25500000920E-02 0. -1.
</event>
<event>
 5   0  0.5628936E-05  0.2070325E+04  0.7818609E-02  0.8574429E-01
       -1   -1    0    0    0  501  0.00000000000E+00  0.00000000000E+00  0.62987149107E+03  0.62987149109E+03  0.50400001928E-02 0.  1.
        1   -1    0    0  501    0  0.00000000000E+00  0.00000000000E+00 -0.17012379572E+04  0.17012379572E+04  0.50400001928E-02 0. -1.
    10030    2    1    2    0    0  0.00000000000E+00  0.00000000000E+00 -0.10713664661E+04  0.23311094483E+04  0.20703248912E+04 0.  0.
        5    1    3    3  502    0  0.49565403149E+03 -0.90674441582E+03 -0.46737109475E+03  0.11341588005E+04  0.46999998093E+01 0.  1.
       -5    1    3    3    0  502 -0.49565403149E+03  0.90674441582E+03 -0.60399537137E+03  0.11969506478E+04  0.46999998093E+01 0. -1.
</event>
<event>
 5   0  0.1101678E-04  0.1893192E+04  0.7818609E-02  0.8658253E-01
        2   -1    0    0  501    0  0.00000000000E+00  0.00000000000E+00  0.62147444270E+03  0.62147444270E+03  0.25500000920E-02 0. -1.
       -2   -1    0    0    0  501  0.00000000000E+00  0.00000000000E+00 -0.14418031709E+04  0.14418031709E+04  0.25500000920E-02 0.  1.
    10030    2    1    2    0    0  0.00000000000E+00  0.00000000000E+00 -0.82032872818E+03  0.20632776136E+04  0.18931918256E+04 0.  0.
        4    1    3    3  502    0 -0.93076474043E+03  0.93459143794E+02 -0.56803935839E+03  0.10944075745E+04  0.12699999809E+01 0.  1.
       -4    1    3    3    0  502  0.93076474043E+03 -0.93459143794E+02 -0.25228936979E+03  0.96887003906E+03  0.12699999809E+01 0. -1.
</event>
<event>
 5   0  0.1133638E-04  0.1911283E+04  0.7818609E-02  0.8649260E-01
        2   -1    0    0  501    0  0.00000000000E+00  0.00000000000E+00  0.16659805378E+04  0.16659805378E+04  0.25500000920E-02 0. -1.
       -2   -1    0    0    0  501  0.00000000000E+00  0.00000000000E+00 -0.54817599104E+03  0.54817599104E+03  0.25500000920E-02 0.  1.
    10030    2    1    2    0    0  0.00000000000E+00  0.00000000000E+00  0.11178045468E+04  0.22141565288E+04  0.19112828491E+04 0.  0.
        3    1    3    3  502    0 -0.43803796572E+02 -0.95289884198E+03  0.49219688448E+03  0.10734024217E+04  0.10100000352E+00 0. -1.
       -3    1    3    3    0  502  0.43803796572E+02  0.95289884198E+03  0.62560766228E+03  0.11407541071E+04  0.10100000352E+00 0.  1.
</event>
<event>
 5   0  0.1182630E-04  0.1851399E+04  0.7818609E-02  0.8679434E-01
        2   -1    0    0  501    0  0.00000000000E+00  0.00000000000E+00  0.20392435771E+04  0.20392435771E+04  0.25500000920E-02 0. -1.
       -2   -1    0    0    0  501  0.00000000000E+00  0.00000000000E+00 -0.42021447884E+03  0.42021447885E+03  0.25500000920E-02 0.  1.
    10030    2    1    2    0    0  0.00000000000E+00  0.00000000000E+00  0.16190290982E+04  0.24594580559E+04  0.18513991217E+04 0.  0.
        5    1    3    3  502    0 -0.20454779313E+03  0.33631363113E+03  0.19225083452E+04  0.19623982994E+04  0.46999998093E+01 0. -1.
       -5    1    3    3    0  502  0.20454779313E+03 -0.33631363113E+03 -0.30347924700E+03  0.49705975648E+03  0.46999998093E+01 0.  1.
</event>
<event>
 5   0  0.5614989E-05  0.1899803E+04  0.7818609E-02  0.8654954E-01
        1   -1    0    0  501    0  0.00000000000E+00  0.00000000000E+00  0.56107289006E+03  0.56107289008E+03  0.50400001928E-02 0.  1.
       -1   -1    0    0    0  501  0.00000000000E+00  0.00000000000E+00 -0.16081917136E+04  0.16081917136E+04  0.50400001928E-02 0. -1.
    10030    2    1    2    0    0  0.00000000000E+00  0.00000000000E+00 -0.10471188235E+04  0.21692646037E+04  0.18998029082E+04 0.  0.
        4    1    3    3  502    0  0.30946430874E+03  0.48567690780E+02  0.50039764779E+03  0.59036124346E+03  0.12699999809E+01 0.  1.
       -4    1    3    3    0  502 -0.30946430874E+03 -0.48567690780E+02 -0.15475164713E+04  0.15789033602E+04  0.12699999809E+01 0. -1.
</event>
<event>
 5   0  0.5579109E-05  0.1912345E+04  0.7818609E-02  0.8648736E-01
       -1   -1    0    0    0  501  0.00000000000E+00  0.00000000000E+00  0.95305813214E+03  0.95305813215E+03  0.50400001928E-02 0.  1.
        1   -1    0    0  501    0  0.00000000000E+00  0.00000000000E+00 -0.95929722054E+03  0.95929722055E+03  0.50400001928E-02 0. -1.
    10030    2    1    2    0    0  0.00000000000E+00  0.00000000000E+00 -0.62390884002E+01  0.19123553527E+04  0.19123451751E+04 0.  0.
        3    1    3    3  502    0 -0.72004345695E+03  0.53575469729E+03  0.32668568498E+03  0.95510168178E+03  0.10100000352E+00 0.  1.
       -3    1    3    3    0  502  0.72004345695E+03 -0.53575469729E+03 -0.33292477338E+03  0.95725367092E+03  0.10100000352E+00 0. -1.
</event>
<event>
 5   0  0.5628936E-05  0.1889005E+04  0.7818609E-02  0.8660349E-01
       -1   -1    0    0    0  501  0.00000000000E+00  0.00000000000E+00  0.96322716727E+03  0.96322716728E+03  0.50400001928E-02 0. -1.
        1   -1    0    0  501    0  0.00000000000E+00  0.00000000000E+00 -0.92614215633E+03  0.92614215634E+03  0.50400001928E-02 0.  1.
    10030    2    1    2    0    0  0.00000000000E+00  0.00000000000E+00  0.37085010938E+02  0.18893693236E+04  0.18890053317E+04 0.  0.
        5    1    3    3  502    0 -0.89772261113E+03  0.23179612879E+03 -0.16156957667E+03  0.94114937707E+03  0.46999998093E+01 0. -1.
       -5    1    3    3    0  502  0.89772261113E+03 -0.23179612879E+03  0.19865458761E+03  0.94821994655E+03  0.46999998093E+01 0.  1.
</event>
<event>
 5   0  0.1101678E-04  0.1910109E+04  0.7818609E-02  0.8649841E-01
       -2   -1    0    0    0  501  0.00000000000E+00  0.00000000000E+00  0.62033655181E+03  0.62033655181E+03  0.25500000920E-02 0.  1.
        2   -1    0    0  501    0  0.00000000000E+00  0.00000000000E+00 -0.14703785478E+04  0.14703785478E+04  0.25500000920E-02 0. -1.
    10030    2    1    2    0    0  0.00000000000E+00  0.00000000000E+00 -0.85004199604E+03  0.20907150997E+04  0.19101094819E+04 0.  0.
        4    1    3    3  502    0 -0.84790011852E+03  0.43208370071E+03 -0.33679565397E+03  0.10094869295E+04  0.12699999809E+01 0. -1.
       -4    1    3    3    0  502  0.84790011852E+03 -0.43208370071E+03 -0.51324634207E+03  0.10812281702E+04  0.12699999809E+01 0.  1.
</event>
<event>
 5   0  0.1118206E-04  0.1943739E+04  0.7818609E-02  0.8633386E-01
       -2   -1    0    0    0  501  0.00000000000E+00  0.00000000000E+00  0.44152502609E+03  0.44152502610E+03  0.25500000920E-02 0.  1.
        2   -1    0    0  501    0  0.00000000000E+00  0.00000000000E+00 -0.21392458539E+04  0.21392458539E+04  0.25500000920E-02 0. -1.
    10030    2    1    2    0    0  0.00000000000E+00  0.00000000000E+00 -0.16977208278E+04  0.25807708800E+04  0.19437392638E+04 0.  0.
        1    1    3    3  502    0  0.30107837757E+03 -0.10849114343E+03  0.36955781141E+03  0.48886756248E+03  0.50400001928E-02 0.  1.
       -1    1    3    3    0  502 -0.30107837757E+03  0.10849114343E+03 -0.20672786392E+04  0.20919033175E+04  0.50400001928E-02 0. -1.
</event>
<event>
 5   0  0.1182630E-04  0.1905995E+04  0.7818609E-02  0.8651878E-01
       -2   -1    0    0    0  501  0.00000000000E+00  0.00000000000E+00  0.62793902956E+03  0.62793902956E+03  0.25500000920E-02 0. -1.
        2   -1    0    0  501    0  0.00000000000E+00  0.00000000000E+00 -0.14463261178E+04  0.14463261178E+04  0.25500000920E-02 0.  1.
    10030    2    1    2    0    0  0.00000000000E+00  0.00000000000E+00 -0.81838708822E+03  0.20742651473E+04  0.19059954027E+04 0.  0.
        5    1    3    3  502    0 -0.66331735560E+03  0.35219139488E+03 -0.10476315445E+04  0.12890239082E+04  0.46999998093E+01 0.  1.
       -5    1    3    3    0  502  0.66331735560E+03 -0.35219139488E+03  0.22924445631E+03  0.78524123912E+03  0.46999998093E+01 0. -1.
</event>
<event>
 5   0  0.1101678E-04  0.1868093E+04  0.7818609E-02  0.8670903E-01
        2   -1    0    0  501    0  0.00000000000E+00  0.00000000000E+00  0.77450761048E+03  0.77450761049E+03  0.25500000920E-02 0. -1.
       -2   -1    0    0    0  501  0.00000000000E+00  0.00000000000E+00 -0.11264488696E+04  0.11264488696E+04  0.25500000920E-02 0.  1.
    10030    2    1    2    0    0  0.00000000000E+00  0.00000000000E+00 -0.35194125907E+03  0.19009564800E+04  0.18680933834E+04 0.  0.
        4    1    3    3  502    0 -0.92352807282E+03  0.13204510937E+03 -0.12932098563E+03  0.94184156970E+03  0.12699999809E+01 0. -1.
       -4    1    3    3    0  502  0.92352807282E+03 -0.13204510937E+03 -0.22262027344E+03  0.95911491035E+03  0.12699999809E+01 0.  1.
</event>
<event>
 5   0  0.1141890E-04  0.1908693E+04  0.7818609E-02  0.8650541E-01
       -2   -1    0    0    0  501  0.00000000000E+00  0.00000000000E+00  0.94231580279E+03  0.94231580279E+03  0.25500000920E-02 0.  1.
        2   -1    0    0  501    0  0.00000000000E+00  0.00000000000E+00 -0.96653111232E+03  0.96653111232E+03  0.25500000920E-02 0. -1.
    10030    2    1    2    0    0  0.00000000000E+00  0.00000000000E+00 -0.24215309527E+02  0.19088469151E+04  0.19086933133E+04 0.  0.
        2    1    3    3  502    0 -0.65419777812E+01 -0.55247995387E+03 -0.79030949440E+03  0.96429559464E+03  0.25500000920E-02 0. -1.
       -2    1    3    3    0  502  0.65419777812E+01  0.55247995387E+03  0.76609418487E+03  0.94455132047E+03  0.25500000920E-02 0.  1.
</event>
<event>
 5   0  0.1182630E-04  0.1906262E+04  0.7818609E-02  0.8651745E-01
       -2   -1    0    0    0  501  0.00000000000E+00  0.00000000000E+00  0.66759720110E+03  0.66759720111E+03  0.25500000920E-02 0.  1.
        2   -1    0    0  501    0  0.00000000000E+00  0.00000000000E+00 -0.13607892138E+04  0.13607892138E+04  0.25500000920E-02 0. -1.
    10030    2    1    2    0    0  0.00000000000E+00  0.00000000000E+00 -0.69319201269E+03  0.20283864149E+04  0.19062623853E+04 0.  0.
        5    1    3    3  502    0  0.79321212192E+03  0.46896808687E+03 -0.60575734209E+03  0.11027604383E+04  0.46999998093E+01 0. -1.
       -5    1    3    3    0  502 -0.79321212192E+03 -0.46896808687E+03 -0.87434670598E+02  0.92562597656E+03  0.46999998093E+01 0.  1.
</event>
<event>
 5   0  0.1182630E-04  0.1886770E+04  0.7818609E-02  0.8661470E-01
        2   -1    0    0  501    0  0.00000000000E+00  0.00000000000E+00  0.12180081496E+04  0.12180081496E+04  0.25500000920E-02 0. -1.
       -2   -1    0    0    0  501  0.00000000000E+00  0.00000000000E+00 -0.73068079619E+03  0.73068079620E+03  0.25500000920E-02 0.  1.
    10030    2    1    2    0    0  0.00000000000E+00  0.00000000000E+00  0.48732735340E+03  0.19486889458E+04  0.18867699007E+04 0.  0.
        5    1    3    3  502    0  0.50971872415E+03 -0.27122371623E+03  0.10141881568E+04  0.11670369272E+04  0.46999998093E+01 0. -1.
       -5    1    3    3    0  502 -0.50971872415E+03  0.27122371623E+03 -0.52686080342E+03  0.78165201860E+03  0.46999998093E+01 0.  1.
</event>
<event>
 5   0  0.5824956E-05  0.1928302E+04  0.7818609E-02  0.8640896E-01
        1   -1    0    0  501    0  0.00000000000E+00  0.00000000000E+00  0.87262802641E+03  0.87262802642E+03  0.50400001928E-02 0. -1.
       -1   -1    0    0    0  501  0.00000000000E+00  0.00000000000E+00 -0.10652730895E+04  0.10652730895E+04  0.50400001928E-02 0.  1.
    10030    2    1    2    0    0  0.00000000000E+00  0.00000000000E+00 -0.19264506311E+03  0.19379011160E+04  0.19283020030E+04 0.  0.
        2    1    3    3  502    0 -0.88052885333E+03  0.33907606959E+03 -0.29550986134E+03  0.98875159705E+03  0.25500000920E-02 0.  1.
       -2    1    3    3    0  502  0.88052885333E+03 -0.33907606959E+03  0.10286479823E+03  0.94914951890E+03  0.25500000920E-02 0. -1.
</event>
<event>
 5   0  0.5824956E-05  0.1898290E+04  0.7818609E-02  0.8655708E-01
        1   -1    0    0  501    0  0.00000000000E+00  0.00000000000E+00  0.15894132152E+04  0.15894132152E+04  0.50400001928E-02 0. -1.
       -1   -1    0    0    0  501  0.00000000000E+00  0.00000000000E+00 -0.56679819770E+03  0.56679819772E+03  0.50400001928E-02 0.  1.
    10030    2    1    2    0    0  0.00000000000E+00  0.00000000000E+00  0.10226150175E+04  0.21562114129E+04  0.18982903317E+04 0.  0.
        2    1    3    3  502    0  0.86591390747E+03 -0.36249724214E+03  0.35202059492E+03  0.10025615417E+04  0.25500000920E-02 0.  1.
       -2    1    3    3    0  502 -0.86591390747E+03  0.36249724214E+03  0.67059442260E+03  0.11536498712E+04  0.25500000920E-02 0. -1.
</event>
<event>
 5   0  0.5824956E-05  0.1898784E+04  0.7818609E-02  0.8655462E-01
        1   -1    0    0  501    0  0.00000000000E+00  0.00000000000E+00  0.81339503031E+03  0.81339503032E+03  0.50400001928E-02 0. -1.
       -1   -1    0    0    0  501  0.00000000000E+00  0.00000000000E+00 -0.11081273748E+04  0.11081273749E+04  0.50400001928E-02 0.  1.
    10030    2    1    2    0    0  0.00000000000E+00  0.00000000000E+00 -0.29473234454E+03  0.19215224052E+04  0.18987841369E+04 0.  0.
        2    1    3    3  502    0  0.75781818699E+03  0.35395328210E+03 -0.60193790576E+03  0.10304856005E+04  0.25500000920E-02 0. -1.
       -2    1    3    3    0  502 -0.75781818699E+03 -0.35395328210E+03  0.30720556122E+03  0.89103680468E+03  0.25500000920E-02 0.  1.
</event>
<event>
 5   0  0.5628936E-05  0.1915110E+04  0.7818609E-02  0.8647371E-01
       -1   -1    0    0    0  501  0.00000000000E+00  0.00000000000E+00  0.86436160634E+03  0.86436160636E+03  0.50400001928E-02 0. -1.
        1   -1    0    0  501    0  0.00000000000E+00  0.00000000000E+00 -0.10607964193E+04  0.10607964193E+04  0.50400001928E-02 0.  1.
    10030    2    1    2    0    0  0.00000000000E+00  0.00000000000E+00 -0.19643481298E+03  0.19251580257E+04  0.19151101243E+04 0.  0.
        5    1    3    3  502    0  0.12013200151E+03  0.74896351098E+03 -0.68567340376E+03  0.10225204864E+04  0.46999998093E+01 0.  1.
       -5    1    3    3    0  502 -0.12013200151E+03 -0.74896351098E+03  0.48923859078E+03  0.90263753925E+03  0.46999998093E+01 0. -1.
</event>
<event>
 5   0  0.1133638E-04  0.1904480E+04  0.7818609E-02  0.8652630E-01
       -2   -1    0    0    0  501  0.00000000000E+00  0.00000000000E+00  0.90635398412E+03  0.90635398412E+03  0.25500000920E-02 0. -1.
        2   -1    0    0  501    0  0.00000000000E+00  0.00000000000E+00 -0.10004485829E+04  0.10004485829E+04  0.25500000920E-02 0.  1.
    10030    2    1    2    0    0  0.00000000000E+00  0.00000000000E+00 -0.94094598771E+02  0.19068025670E+04  0.19044795184E+04 0.  0.
        3    1    3    3  502    0  0.88490338568E+03  0.34405257055E+03  0.26078598874E+02  0.94979275467E+03  0.10100000352E+00 0.  1.
       -3    1    3    3    0  502 -0.88490338568E+03 -0.34405257055E+03 -0.12017319765E+03  0.95700981235E+03  0.10100000352E+00 0. -1.
</event>
<event>
 5   0  0.5579109E-05  0.1894189E+04  0.7818609E-02  0.8657754E-01
        1   -1    0    0  501    0  0.00000000000E+00  0.00000000000E+00  0.11676224870E+04  0.11676224871E+04  0.50400001928E-02 0.  1.
       -1   -1    0    0    0  501  0.00000000000E+00  0.00000000000E+00 -0.76821778839E+03  0.76821778840E+03  0.50400001928E-02 0. -1.
    10030    2    1    2    0    0  0.00000000000E+00  0.00000000000E+00  0.39940469866E+03  0.19358402755E+04  0.18941893936E+04 0.  0.
        3    1    3    3  502    0 -0.90127892561E+03 -0.20963818266E+03 -0.65685193932E+01  0.92536210481E+03  0.10100000352E+00 0.  1.
       -3    1    3    3    0  502  0.90127892561E+03  0.20963818266E+03  0.40597321805E+03  0.10104781706E+04  0.10100000352E+00 0. -1.
</event>
<event>
 5   0  0.5824956E-05  0.1851124E+04  0.7818609E-02  0.8679575E-01
       -1   -1    0    0    0  501  0.00000000000E+00  0.00000000000E+00  0.63581709574E+03  0.63581709576E+03  0.50400001928E-02 0. -1.
        1   -1    0    0  501    0  0.00000000000E+00  0.00000000000E+00 -0.13473446480E+04  0.13473446480E+04  0.50400001928E-02 0.  1.
    10030    2    1    2    0    0  0.00000000000E+00  0.00000000000E+00 -0.71152755221E+03  0.19831617437E+04  0.18511237247E+04 0.  0.
        2    1    3    3  502    0  0.61321278758E+01  0.49372306342E+03  0.48293303349E+03  0.69066951661E+03  0.25500000920E-02 0. -1.
       -2    1    3    3    0  502 -0.61321278758E+01 -0.49372306342E+03 -0.11944605857E+04  0.12924922271E+04  0.25500000920E-02 0.  1.
</event>
<event>
 5   0  0.5628936E-05  0.1749694E+04  0.7818609E-02  0.8733518E-01
        1   -1    0    0  501    0  0.00000000000E+00  0.00000000000E+00  0.80497524777E+03  0.80497524779E+03  0.50400001928E-02 0.  1.
       -1   -1    0    0    0  501  0.00000000000E+00  0.00000000000E+00 -0.95078414150E+03  0.95078414151E+03  0.50400001928E-02 0. -1.
    10030    2    1    2    0    0  0.00000000000E+00  0.00000000000E+00 -0.14580889372E+03  0.17557593893E+04  0.17496944875E+04 0.  0.
        5    1    3    3  502    0  0.18797434142E+03  0.34337950805E+03 -0.85797926309E+03  0.94307706232E+03  0.46999998093E+01 0. -1.
       -5    1    3    3    0  502 -0.18797434142E+03 -0.34337950805E+03  0.71217036937E+03  0.81268232698E+03  0.46999998093E+01 0.  1.
</event>
<event>
 5   0  0.1141890E-04  0.1895800E+04  0.7818609E-02  0.8656950E-01
        2   -1    0    0  501    0  0.00000000000E+00  0.00000000000E+00  0.10305126205E+04  0.10305126205E+04  0.25500000920E-02 0. -1.
       -2   -1    0    0    0  501  0.00000000000E+00  0.00000000000E+00 -0.87191010365E+03  0.87191010365E+03  0.25500000920E-02 0.  1.
    10030    2    1    2    0    0  0.00000000000E+00  0.00000000000E+00  0.15860251688E+03  0.19024227242E+04  0.18957999534E+04 0.  0.
        2    1    3    3  502    0 -0.89550606167E+03 -0.29196454462E+03  0.18616253399E+03  0.96012024814E+03  0.25500000920E-02 0. -1.
       -2    1    3    3    0  502  0.89550606167E+03  0.29196454462E+03 -0.27560017105E+02  0.94230247605E+03  0.25500000920E-02 0.  1.
</event>
<event>
 5   0  0.1101678E-04  0.1881037E+04  0.7818609E-02  0.8664354E-01
       -2   -1    0    0    0  501  0.00000000000E+00  0.00000000000E+00  0.99156926542E+03  0.99156926542E+03  0.25500000920E-02 0. -1.
        2   -1    0    0  501    0  0.00000000000E+00  0.00000000000E+00 -0.89209562213E+03  0.89209562213E+03  0.25500000920E-02 0.  1.
    10030    2    1    2    0    0  0.00000000000E+00  0.00000000000E+00  0.99473643289E+02  0.18836648876E+04  0.18810365235E+04 0.  0.
        4    1    3    3  502    0 -0.31738601251E+03  0.62097915769E+03 -0.58219485454E+03  0.90846103756E+03  0.12699999809E+01 0.  1.
       -4    1    3    3    0  502  0.31738601251E+03 -0.62097915769E+03  0.68166849783E+03  0.97520385000E+03  0.12699999809E+01 0. -1.
</event>
<event>
 5   0  0.5579109E-05  0.1889969E+04  0.7818609E-02  0.8659866E-01
       -1   -1    0    0    0  501  0.00000000000E+00  0.00000000000E+00  0.69859914576E+03  0.69859914578E+03  0.50400001928E-02 0. -1.
        1   -1    0    0  501    0  0.00000000000E+00  0.00000000000E+00 -0.12782658649E+04  0.12782658649E+04  0.50400001928E-02 0.  1.
    10030    2    1    2    0    0  0.00000000000E+00  0.00000000000E+00 -0.57966671911E+03  0.19768650107E+04  0.18899687207E+04 0.  0.
        3    1    3    3  502    0  0.16209220049E+03  0.71730744722E+03  0.33090971074E+03  0.80641496896E+03  0.10100000352E+00 0. -1.
       -3    1    3    3    0  502 -0.16209220049E+03 -0.71730744722E+03 -0.91057642986E+03  0.11704500417E+04  0.10100000352E+00 0.  1.
</event>
<event>
 5   0  0.1141890E-04  0.1900385E+04  0.7818609E-02  0.8654665E-01
       -2   -1    0    0    0  501  0.00000000000E+00  0.00000000000E+00  0.79515620219E+03  0.79515620220E+03  0.25500000920E-02 0.  1.
        2   -1    0    0  501    0  0.00000000000E+00  0.00000000000E+00 -0.11354569208E+04  0.11354569208E+04  0.25500000920E-02 0. -1.
    10030    2    1    2    0    0  0.00000000000E+00  0.00000000000E+00 -0.34030071864E+03  0.19306131230E+04  0.19003848167E+04 0.  0.
        2    1    3    3  502    0 -0.81883145986E+03  0.19721204418E+03  0.27671921927E+03  0.88653881829E+03  0.25500000920E-02 0.  1.
       -2    1    3    3    0  502  0.81883145986E+03 -0.19721204418E+03 -0.61701993791E+03  0.10440743047E+04  0.25500000920E-02 0. -1.
</event>
<event>
 5   0  0.5628936E-05  0.1883822E+04  0.7818609E-02  0.8662951E-01
        1   -1    0    0  501    0  0.00000000000E+00  0.00000000000E+00  0.11886482625E+04  0.11886482625E+04  0.50400001928E-02 0.  1.
       -1   -1    0    0    0  501  0.00000000000E+00  0.00000000000E+00 -0.74639125091E+03  0.74639125092E+03  0.50400001928E-02 0. -1.
    10030    2    1    2    0    0  0.00000000000E+00  0.00000000000E+00  0.44225701155E+03  0.19350395134E+04  0.18838223521E+04 0.  0.
        5    1    3    3  502    0  0.45405558492E+03  0.32393735819E+03  0.10007584919E+04  0.11457056932E+04  0.46999998093E+01 0.  1.
       -5    1    3    3    0  502 -0.45405558492E+03 -0.32393735819E+03 -0.55850148034E+03  0.78933382024E+03  0.46999998093E+01 0. -1.
</event>
<event>
 5   0  0.5841424E-05  0.1903855E+04  0.7818609E-02  0.8652940E-01
       -1   -1    0    0    0  501  0.00000000000E+00  0.00000000000E+00  0.74269794276E+03  0.74269794277E+03  0.50400001928E-02 0. -1.
        1   -1    0    0  501    0  0.00000000000E+00  0.00000000000E+00 -0.12201007108E+04  0.12201007109E+04  0.50400001928E-02 0.  1.
    10030    2    1    2    0    0  0.00000000000E+00  0.00000000000E+00 -0.47740276809E+03  0.19627986536E+04  0.19038553390E+04 0.  0.
        1    1    3    3  502    0  0.20519299719E+02  0.46050815596E+03 -0.10973601429E+04  0.11902470696E+04  0.50400001928E-02 0.  1.
       -1    1    3    3    0  502 -0.20519299719E+02 -0.46050815596E+03  0.61995737483E+03  0.77255158404E+03  0.50400001928E-02 0. -1.
</event>
<event>
 5   0  0.5824956E-05  0.1903505E+04  0.7818609E-02  0.8653114E-01
       -1   -1    0    0    0  501  0.00000000000E+00  0.00000000000E+00  0.62001472908E+03  0.62001472910E+03  0.50400001928E-02 0.  1.
        1   -1    0    0  501    0  0.00000000000E+00  0.00000000000E+00 -0.14609863401E+04  0.14609863401E+04  0.50400001928E-02 0. -1.
    10030    2    1    2    0    0  0.00000000000E+00  0.00000000000E+00 -0.84097161104E+03  0.20810010692E+04  0.19035052402E+04 0.  0.
        2    1    3    3  502    0  0.89576138861E+03  0.54391817217E+02 -0.76704007533E+03  0.11805496230E+04  0.25500000920E-02 0.  1.
       -2    1    3    3    0  502 -0.89576138861E+03 -0.54391817217E+02 -0.73931535712E+02  0.90045144626E+03  0.25500000920E-02 0. -1.
</event>
<event>
 5   0  0.5628936E-05  0.1901161E+04  0.7818609E-02  0.8654279E-01
        1   -1    0    0  501    0  0.00000000000E+00  0.00000000000E+00  0.18180983110E+04  0.18180983110E+04  0.50400001928E-02 0. -1.
       -1   -1    0    0    0  501  0.00000000000E+00  0.00000000000E+00 -0.49700437592E+03  0.49700437595E+03  0.50400001928E-02 0.  1.
    10030    2    1    2    0    0  0.00000000000E+00  0.00000000000E+00  0.13210939351E+04  0.23151026870E+04  0.19011605050E+04 0.  0.
        5    1    3    3  502    0  0.89133895114E+03 -0.27123451223E+03  0.43102015121E+03  0.10265737904E+04  0.46999998093E+01 0.  1.
       -5    1    3    3    0  502 -0.89133895114E+03  0.27123451223E+03  0.89007378386E+03  0.12885288965E+04  0.46999998093E+01 0. -1.
</event>
<event>
 5   0  0.5579109E-05  0.1875680E+04  0.7818609E-02  0.8667058E-01
        1   -1    0    0  501    0  0.00000000000E+00  0.00000000000E+00  0.17600908762E+04  0.17600908762E+04  0.50400001928E-02 0. -1.
       -1   -1    0    0    0  501  0.00000000000E+00  0.00000000000E+00 -0.49971478416E+03  0.49971478418E+03  0.50400001928E-02 0.  1.
    10030    2    1    2    0    0  0.00000000000E+00  0.00000000000E+00  0.12603760921E+04  0.22598056604E+04  0.18756795380E+04 0.  0.
        3    1    3    3  502    0 -0.44888953327E+03  0.26810854232E+01  0.16222489212E+04  0.16832113871E+04  0.10100000352E+00 0. -1.
       -3    1    3    3    0  502  0.44888953327E+03 -0.26810854232E+01 -0.36187282913E+03  0.57659427327E+03  0.10100000352E+00 0.  1.
</event>
<event>
 5   0  0.1133638E-04  0.1888260E+04  0.7818609E-02  0.8660722E-01
        2   -1    0    0  501    0  0.00000000000E+00  0.00000000000E+00  0.18376110275E+04  0.18376110275E+04  0.25500000920E-02 0.  1.
       -2   -1    0    0    0  501  0.00000000000E+00  0.00000000000E+00 -0.48507649853E+03  0.48507649853E+03  0.25500000920E-02 0. -1.
    10030    2    1    2    0    0  0.00000000000E+00  0.00000000000E+00  0.13525345290E+04  0.23226875261E+04  0.18882604936E+04 0.  0.
        3    1    3    3  502    0 -0.81628198181E+03 -0.45422904662E+03  0.50787103897E+03  0.10632842061E+04  0.10100000352E+00 0.  1.
       -3    1    3    3    0  502  0.81628198181E+03  0.45422904662E+03  0.84466349005E+03  0.12594033199E+04  0.10100000352E+00 0. -1.
</event>
<event>
 5   0  0.1133638E-04  0.1909331E+04  0.7818609E-02  0.8650225E-01
        2   -1    0    0  501    0  0.00000000000E+00  0.00000000000E+00  0.13229311295E+04  0.13229311295E+04  0.25500000920E-02 0. -1.
       -2   -1    0    0    0  501  0.00000000000E+00  0.00000000000E+00 -0.68891464584E+03  0.68891464584E+03  0.25500000920E-02 0.  1.
    10030    2    1    2    0    0  0.00000000000E+00  0.00000000000E+00  0.63401648368E+03  0.20118457754E+04  0.19093314333E+04 0.  0.
        3    1    3    3  502    0 -0.36910392913E+02 -0.86627425415E+03 -0.10393205190E+03  0.87326705086E+03  0.10100000352E+00 0. -1.
       -3    1    3    3    0  502  0.36910392913E+02  0.86627425415E+03  0.73794853557E+03  0.11385787245E+04  0.10100000352E+00 0.  1.
</event>
<event>
 5   0  0.5628936E-05  0.1900069E+04  0.7818609E-02  0.8654822E-01
       -1   -1    0    0    0  501  0.00000000000E+00  0.00000000000E+00  0.86550872331E+03  0.86550872333E+03  0.50400001928E-02 0. -1.
        1   -1    0    0  501    0  0.00000000000E+00  0.00000000000E+00 -0.10428151562E+04  0.10428151562E+04  0.50400001928E-02 0.  1.
    10030    2    1    2    0    0  0.00000000000E+00  0.00000000000E+00 -0.17730643290E+03  0.19083238796E+04  0.19000690667E+04 0.  0.
        5    1    3    3  502    0 -0.60080928768E+03  0.32539373180E+03 -0.75158953773E+03  0.10157567642E+04  0.46999998093E+01 0.  1.
       -5    1    3    3    0  502  0.60080928768E+03 -0.32539373180E+03  0.57428310483E+03  0.89256711532E+03  0.46999998093E+01 0. -1.
</event>
<event>
 5   0  0.5579109E-05  0.1856082E+04  0.7818609E-02  0.8677031E-01
        1   -1    0    0  501    0  0.00000000000E+00  0.00000000000E+00  0.55691312276E+03  0.55691312278E+03  0.50400001928E-02 0. -1.
       -1   -1    0    0    0  501  0.00000000000E+00  0.00000000000E+00 -0.15464896312E+04  0.15464896312E+04  0.50400001928E-02 0.  1.
    10030    2    1    2    0    0  0.00000000000E+00  0.00000000000E+00 -0.98957650841E+03  0.21034027540E+04  0.18560822933E+04 0.  0.
        3    1    3    3  502    0 -0.15234214771E+03  0.84837537096E+03 -0.10499114258E+03  0.86831563976E+03  0.10100000352E+00 0. -1.
       -3    1    3    3    0  502  0.15234214771E+03 -0.84837537096E+03 -0.88458536582E+03  0.12350871142E+04  0.10100000352E+00 0.  1.
</event>
<event>
 5   0  0.5579109E-05  0.1905860E+04  0.7818609E-02  0.8651945E-01
       -1   -1    0    0    0  501  0.00000000000E+00  0.00000000000E+00  0.49477782389E+03  0.49477782391E+03  0.50400001928E-02 0. -1.
        1   -1    0    0  501    0  0.00000000000E+00  0.00000000000E+00 -0.18353201572E+04  0.18353201572E+04  0.50400001928E-02 0.  1.
    10030    2    1    2    0    0  0.00000000000E+00  0.00000000000E+00 -0.13405423333E+04  0.23300979811E+04  0.19058601350E+04 0.  0.
        3    1    3    3  502    0 -0.39339865109E+02 -0.52491993167E+03  0.30089470662E+03  0.60632185704E+03  0.10100000352E+00 0. -1.
       -3    1    3    3    0  502  0.39339865109E+02  0.52491993167E+03 -0.16414370399E+04  0.17237761241E+04  0.10100000352E+00 0.  1.
</event>
<event>
 5   0  0.1141890E-04  0.1891927E+04  0.7818609E-02  0.8658885E-01
        2   -1    0    0  501    0  0.00000000000E+00  0.00000000000E+00  0.76988646051E+03  0.76988646052E+03  0.25500000920E-02 0. -1.
       -2   -1    0    0    0  501  0.00000000000E+00  0.00000000000E+00 -0.11623101392E+04  0.11623101392E+04  0.25500000920E-02 0.  1.
    10030    2    1    2    0    0  0.00000000000E+00  0.00000000000E+00 -0.39242367870E+03  0.19321965997E+04  0.18919268898E+04 0.  0.
        2    1    3    3  502    0 -0.39110053340E+03 -0.64669715363E+03  0.38481766988E+03  0.84809284562E+03  0.25500000920E-02 0.  1.
       -2    1    3    3    0  502  0.39110053340E+03  0.64669715363E+03 -0.77724134859E+03  0.10841037541E+04  0.25500000920E-02 0. -1.
</event>
<event>
 5   0  0.1141890E-04  0.1894021E+04  0.7818609E-02  0.8657838E-01
       -2   -1    0    0    0  501  0.00000000000E+00  0.00000000000E+00  0.77782022861E+03  0.77782022861E+03  0.25500000920E-02 0. -1.
        2   -1    0    0  501    0  0.00000000000E+00  0.00000000000E+00 -0.11530024304E+04  0.11530024304E+04  0.25500000920E-02 0.  1.
    10030    2    1    2    0    0  0.00000000000E+00  0.00000000000E+00 -0.37518220179E+03  0.19308226590E+04  0.18940207116E+04 0.  0.
        2    1    3    3  502    0 -0.49034195787E+03 -0.73361512267E+03 -0.53807695828E+03  0.10335149718E+04  0.25500000920E-02 0.  1.
       -2    1    3    3    0  502  0.49034195787E+03  0.73361512267E+03  0.16289475649E+03  0.89730768723E+03  0.25500000920E-02 0. -1.
</event>
<event>
 5   0  0.5614989E-05  0.1921175E+04  0.7818609E-02  0.8644387E-01
        1   -1    0    0  501    0  0.00000000000E+00  0.00000000000E+00  0.69385865893E+03  0.69385865895E+03  0.50400001928E-02 0.  1.
       -1   -1    0    0    0  501  0.00000000000E+00  0.00000000000E+00 -0.13298512084E+04  0.13298512084E+04  0.50400001928E-02 0. -1.
    10030    2    1    2    0    0  0.00000000000E+00  0.00000000000E+00 -0.63599254942E+03  0.20237098673E+04  0.19211754486E+04 0.  0.
        4    1    3    3  502    0 -0.55891963942E+03  0.67856950104E+03  0.89808438318E+02  0.88369389472E+03  0.12699999809E+01 0.  1.
       -4    1    3    3    0  502  0.55891963942E+03 -0.67856950104E+03 -0.72580098774E+03  0.11400159726E+04  0.12699999809E+01 0. -1.
</event>
<event>
 5   0  0.1118206E-04  0.1895542E+04  0.7818609E-02  0.8657078E-01
        2   -1    0    0  501    0  0.00000000000E+00  0.00000000000E+00  0.48812782957E+03  0.48812782957E+03  0.25500000920E-02 0. -1.
       -2   -1    0    0    0  501  0.00000000000E+00  0.00000000000E+00 -0.18402357907E+04  0.18402357907E+04  0.25500000920E-02 0.  1.
    10030    2    1    2    0    0  0.00000000000E+00  0.00000000000E+00 -0.13521079611E+04  0.23283636202E+04  0.18955424579E+04 0.  0.
        1    1    3    3  502    0  0.60250549470E+03  0.56434634056E+03 -0.12479505843E+04  0.14962888505E+04  0.50400001928E-02 0.  1.
       -1    1    3    3    0  502 -0.60250549470E+03 -0.56434634056E+03 -0.10415737677E+03  0.83207476972E+03  0.50400001928E-02 0. -1.
</event>
<event>
 5   0  0.1182630E-04  0.1903999E+04  0.7818609E-02  0.8652868E-01
        2   -1    0    0  501    0  0.00000000000E+00  0.00000000000E+00  0.72665774731E+03  0.72665774732E+03  0.25500000920E-02 0. -1.
       -2   -1    0    0    0  501  0.00000000000E+00  0.00000000000E+00 -0.12472214977E+04  0.12472214977E+04  0.25500000920E-02 0.  1.
    10030    2    1    2    0    0  0.00000000000E+00  0.00000000000E+00 -0.52056375034E+03  0.19738792450E+04  0.19039991217E+04 0.  0.
        5    1    3    3  502    0  0.68855532281E+03 -0.47543177584E+03  0.21040500669E+03  0.86280714119E+03  0.46999998093E+01 0. -1.
       -5    1    3    3    0  502 -0.68855532281E+03  0.47543177584E+03 -0.73096875703E+03  0.11110721038E+04  0.46999998093E+01 0.  1.
</event>
<event>
 5   0  0.1182630E-04  0.1896422E+04  0.7818609E-02  0.8656639E-01
       -2   -1    0    0    0  501  0.00000000000E+00  0.00000000000E+00  0.92864004184E+03  0.92864004185E+03  0.25500000920E-02 0. -1.
        2   -1    0    0  501    0  0.00000000000E+00  0.00000000000E+00 -0.96819456476E+03  0.96819456477E+03  0.25500000920E-02 0.  1.
    10030    2    1    2    0    0  0.00000000000E+00  0.00000000000E+00 -0.39554522920E+02  0.18968346066E+04  0.18964221483E+04 0.  0.
        5    1    3    3  502    0 -0.55318994592E+03 -0.14538084305E+03  0.73664606757E+03  0.93264367507E+03  0.46999998093E+01 0. -1.
       -5    1    3    3    0  502  0.55318994592E+03  0.14538084305E+03 -0.77620059049E+03  0.96419093154E+03  0.46999998093E+01 0.  1.
</event>
<event>
 5   0  0.1141890E-04  0.1905946E+04  0.7818609E-02  0.8651902E-01
        2   -1    0    0  501    0  0.00000000000E+00  0.00000000000E+00  0.19440647111E+04  0.19440647111E+04  0.25500000920E-02 0.  1.
       -2   -1    0    0    0  501  0.00000000000E+00  0.00000000000E+00 -0.46714355903E+03  0.46714355904E+03  0.25500000920E-02 0. -1.
    10030    2    1    2    0    0  0.00000000000E+00  0.00000000000E+00  0.14769211521E+04  0.24112082701E+04  0.19059457580E+04 0.  0.
        2    1    3    3  502    0 -0.28675964000E+03  0.88129466735E+03  0.45771731307E+03  0.10336423562E+04  0.25500000920E-02 0. -1.
       -2    1    3    3    0  502  0.28675964000E+03 -0.88129466735E+03  0.10192038390E+04  0.13775659139E+04  0.25500000920E-02 0.  1.
</event>
<event>
 5   0  0.4061125E-05  0.1932779E+04  0.7818609E-02  0.8638710E-01
       -3   -1    0    0    0  501  0.00000000000E+00  0.00000000000E+00  0.85757344729E+03  0.85757345323E+03  0.10100000352E+00 0. -1.
        3   -1    0    0  501    0  0.00000000000E+00  0.00000000000E+00 -0.10890135452E+04  0.10890135499E+04  0.10100000352E+00 0.  1.
    10030    2    1    2    0    0  0.00000000000E+00  0.00000000000E+00 -0.23144009789E+03  0.19465870031E+04  0.19327794602E+04 0.  0.
        4    1    3    3  502    0  0.11135840734E+03 -0.70709830405E+03 -0.76960296039E+03  0.10510371240E+04  0.12699999809E+01 0.  1.
       -4    1    3    3    0  502 -0.11135840734E+03  0.70709830405E+03  0.53816286250E+03  0.89554987910E+03  0.12699999809E+01 0. -1.
</event>
<event>
 5   0  0.1133638E-04  0.1885193E+04  0.7818609E-02  0.8662262E-01
        2   -1    0    0  501    0  0.00000000000E+00  0.00000000000E+00  0.69560787491E+03  0.69560787491E+03  0.25500000920E-02 0.  1.
       -2   -1    0    0    0  501  0.00000000000E+00  0.00000000000E+00 -0.12772835095E+04  0.12772835095E+04  0.25500000920E-02 0. -1.
    10030    2    1    2    0    0  0.00000000000E+00  0.00000000000E+00 -0.58167563459E+03  0.19728913844E+04  0.18851933245E+04 0.  0.
        3    1    3    3  502    0  0.79138767779E+03 -0.12547685150E+03  0.22869299189E+03  0.83327029922E+03  0.10100000352E+00 0.  1.
       -3    1    3    3    0  502 -0.79138767779E+03  0.12547685150E+03 -0.81036862649E+03  0.11396210852E+04  0.10100000352E+00 0. -1.
</event>
<event>
 5   0  0.5579109E-05  0.1854621E+04  0.7818609E-02  0.8677780E-01
       -1   -1    0    0    0  501  0.00000000000E+00  0.00000000000E+00  0.76859146490E+03  0.76859146492E+03  0.50400001928E-02 0.  1.
        1   -1    0    0  501    0  0.00000000000E+00  0.00000000000E+00 -0.11188057332E+04  0.11188057332E+04  0.50400001928E-02 0. -1.
    10030    2    1    2    0    0  0.00000000000E+00  0.00000000000E+00 -0.35021426827E+03  0.18873971981E+04  0.18546207563E+04 0.  0.
        3    1    3    3  502    0  0.61346504691E+02  0.56416117592E+03  0.57124563168E+03  0.80520979128E+03  0.10100000352E+00 0.  1.
       -3    1    3    3    0  502 -0.61346504691E+02 -0.56416117592E+03 -0.92145989995E+03  0.10821874068E+04  0.10100000352E+00 0. -1.
</event>
<event>
 5   0  0.1101678E-04  0.1898021E+04  0.7818609E-02  0.8655842E-01
        2   -1    0    0  501    0  0.00000000000E+00  0.00000000000E+00  0.72239389886E+03  0.72239389887E+03  0.25500000920E-02 0.  1.
       -2   -1    0    0    0  501  0.00000000000E+00  0.00000000000E+00 -0.12467173515E+04  0.12467173515E+04  0.25500000920E-02 0. -1.
    10030    2    1    2    0    0  0.00000000000E+00  0.00000000000E+00 -0.52432345267E+03  0.19691112504E+04  0.18980210835E+04 0.  0.
        4    1    3    3  502    0 -0.21154179664E+03 -0.91037659231E+03 -0.43289769142E+03  0.10300182016E+04  0.12699999809E+01 0. -1.
       -4    1    3    3    0  502  0.21154179664E+03  0.91037659231E+03 -0.91425761248E+02  0.93909304878E+03  0.12699999809E+01 0.  1.
</event>
<event>
 5   0  0.5824956E-05  0.1903545E+04  0.7818609E-02  0.8653094E-01
        1   -1    0    0  501    0  0.00000000000E+00  0.00000000000E+00  0.59850341898E+03  0.59850341900E+03  0.50400001928E-02 0.  1.
       -1   -1    0    0    0  501  0.00000000000E+00  0.00000000000E+00 -0.15135607576E+04  0.15135607576E+04  0.50400001928E-02 0. -1.
    10030    2    1    2    0    0  0.00000000000E+00  0.00000000000E+00 -0.91505733859E+03  0.21120641766E+04  0.19035454166E+04 0.  0.
        2    1    3    3  502    0 -0.61366497173E+03 -0.49764011375E+03  0.13130378017E+03  0.80091888668E+03  0.25500000920E-02 0.  1.
       -2    1    3    3    0  502  0.61366497173E+03  0.49764011375E+03 -0.10463611188E+04  0.13111452899E+04  0.25500000920E-02 0. -1.
</event>
<event>
 5   0  0.5841424E-05  0.1902834E+04  0.7818609E-02  0.8653447E-01
       -1   -1    0    0    0  501  0.00000000000E+00  0.00000000000E+00  0.96839626863E+03  0.96839626864E+03  0.50400001928E-02 0. -1.
        1   -1    0    0  501    0  0.00000000000E+00  0.00000000000E+00 -0.93473587345E+03  0.93473587346E+03  0.50400001928E-02 0.  1.
    10030    2    1    2    0    0  0.00000000000E+00  0.00000000000E+00  0.33660395186E+02  0.19031321421E+04  0.19028344458E+04 0.  0.
        1    1    3    3  502    0 -0.44305817313E+03  0.29884377903E+03 -0.77043117284E+03  0.93764190454E+03  0.50400001928E-02 0.  1.
       -1    1    3    3    0  502  0.44305817313E+03 -0.29884377903E+03  0.80409156802E+03  0.96549023757E+03  0.50400001928E-02 0. -1.
</event>
<event>
 5   0  0.1182630E-04  0.1932147E+04  0.7818609E-02  0.8639018E-01
        2   -1    0    0  501    0  0.00000000000E+00  0.00000000000E+00  0.11252796891E+04  0.11252796891E+04  0.25500000920E-02 0.  1.
       -2   -1    0    0    0  501  0.00000000000E+00  0.00000000000E+00 -0.82939183960E+03  0.82939183961E+03  0.25500000920E-02 0. -1.
    10030    2    1    2    0    0  0.00000000000E+00  0.00000000000E+00  0.29588784950E+03  0.19546715287E+04  0.19321467764E+04 0.  0.
        5    1    3    3  502    0  0.55540811026E+03  0.70661449498E+03 -0.21043648988E+03  0.92308603051E+03  0.46999998093E+01 0. -1.
       -5    1    3    3    0  502 -0.55540811026E+03 -0.70661449498E+03  0.50632433938E+03  0.10315854982E+04  0.46999998093E+01 0.  1.
</event>
<event>
 5   0  0.5628936E-05  0.1902693E+04  0.7818609E-02  0.8653517E-01
       -1   -1    0    0    0  501  0.00000000000E+00  0.00000000000E+00  0.16398173756E+04  0.16398173756E+04  0.50400001928E-02 0.  1.
        1   -1    0    0  501    0  0.00000000000E+00  0.00000000000E+00 -0.55192718367E+03  0.55192718369E+03  0.50400001928E-02 0. -1.
    10030    2    1    2    0    0  0.00000000000E+00  0.00000000000E+00  0.10878901920E+04  0.21917445593E+04  0.19026926035E+04 0.  0.
        5    1    3    3  502    0 -0.87935708251E+03 -0.48425609423E+02  0.95835329881E+03  0.13015671529E+04  0.46999998093E+01 0.  1.
       -5    1    3    3    0  502  0.87935708251E+03  0.48425609423E+02  0.12953689316E+03  0.89017740642E+03  0.46999998093E+01 0. -1.
</event>
<event>
 5   0  0.1133638E-04  0.1888555E+04  0.7818609E-02  0.8660574E-01
        2   -1    0    0  501    0  0.00000000000E+00  0.00000000000E+00  0.78859711986E+03  0.78859711986E+03  0.25500000920E-02 0. -1.
       -2   -1    0    0    0  501  0.00000000000E+00  0.00000000000E+00 -0.11306915236E+04  0.11306915236E+04  0.25500000920E-02 0.  1.
    10030    2    1    2    0    0  0.00000000000E+00  0.00000000000E+00 -0.34209440373E+03  0.19192886435E+04  0.18885550868E+04 0.  0.
        3    1    3    3  502    0 -0.25824517965E+03  0.42294266679E+02  0.75101076320E+03  0.79529651983E+03  0.10100000352E+00 0. -1.
       -3    1    3    3    0  502  0.25824517965E+03 -0.42294266679E+02 -0.10931051669E+04  0.11239921236E+04  0.10100000352E+00 0.  1.
</event>
<event>
 5   0  0.1118206E-04  0.1900576E+04  0.7818609E-02  0.8654570E-01
       -2   -1    0    0    0  501  0.00000000000E+00  0.00000000000E+00  0.98287153321E+03  0.98287153322E+03  0.25500000920E-02 0. -1.
        2   -1    0    0  501    0  0.00000000000E+00  0.00000000000E+00 -0.91878504750E+03  0.91878504751E+03  0.25500000920E-02 0.  1.
    10030    2    1    2    0    0  0.00000000000E+00  0.00000000000E+00  0.64086485710E+02  0.19016565807E+04  0.19005764056E+04 0.  0.
        1    1    3    3  502    0 -0.62352385358E+03  0.44913243115E+03 -0.52733238905E+03  0.93197713774E+03  0.50400001928E-02 0.  1.
       -1    1    3    3    0  502  0.62352385358E+03 -0.44913243115E+03  0.59141887476E+03  0.96967944298E+03  0.50400001928E-02 0. -1.
</event>
<event>
 5   0  0.5824956E-05  0.1914472E+04  0.7818609E-02  0.8647686E-01
       -1   -1    0    0    0  501  0.00000000000E+00  0.00000000000E+00  0.14867160492E+04  0.14867160492E+04  0.50400001928E-02 0.  1.
        1   -1    0    0  501    0  0.00000000000E+00  0.00000000000E+00 -0.61632559166E+03  0.61632559168E+03  0.50400001928E-02 0. -1.
    10030    2    1    2    0    0  0.00000000000E+00  0.00000000000E+00  0.87039045750E+03  0.21030416408E+04  0.19144724063E+04 0.  0.
        2    1    3    3  502    0 -0.22062804364E+03  0.37187212807E+03 -0.50293352613E+03  0.66325541460E+03  0.25500000920E-02 0. -1.
       -2    1    3    3    0  502  0.22062804364E+03 -0.37187212807E+03  0.13733239836E+04  0.14397862263E+04  0.25500000920E-02 0.  1.
</event>
<event>
 5   0  0.5824956E-05  0.1912490E+04  0.7818609E-02  0.8648664E-01
       -1   -1    0    0    0  501  0.00000000000E+00  0.00000000000E+00  0.83897622015E+03  0.83897622017E+03  0.50400001928E-02 0.  1.
        1   -1    0    0  501    0  0.00000000000E+00  0.00000000000E+00 -0.10899049356E+04  0.10899049356E+04  0.50400001928E-02 0. -1.
    10030    2    1    2    0    0  0.00000000000E+00  0.00000000000E+00 -0.25092871541E+03  0.19288811557E+04  0.19124898151E+04 0.  0.
        2    1    3    3  502    0  0.26391702173E+02  0.92684810513E+03  0.11033504858E+03  0.93376536393E+03  0.25500000920E-02 0. -1.
       -2    1    3    3    0  502 -0.26391702173E+02 -0.92684810513E+03 -0.36126376400E+03  0.99511579181E+03  0.25500000920E-02 0.  1.
</event>
<event>
 5   0  0.1133638E-04  0.1900076E+04  0.7818609E-02  0.8654818E-01
       -2   -1    0    0    0  501  0.00000000000E+00  0.00000000000E+00  0.55941408178E+03  0.55941408179E+03  0.25500000920E-02 0. -1.
        2   -1    0    0  501    0  0.00000000000E+00  0.00000000000E+00 -0.16134244705E+04  0.16134244705E+04  0.25500000920E-02 0.  1.
    10030    2    1    2    0    0  0.00000000000E+00  0.00000000000E+00 -0.10540103888E+04  0.21728385523E+04  0.19000761761E+04 0.  0.
        3    1    3    3  502    0  0.12157521921E+03 -0.93712005653E+03 -0.63903738862E+03  0.11407643615E+04  0.10100000352E+00 0.  1.
       -3    1    3    3    0  502 -0.12157521921E+03  0.93712005653E+03 -0.41497300014E+03  0.10320741908E+04  0.10100000352E+00 0. -1.
</event>
<event>
 5   0  0.1133638E-04  0.1881503E+04  0.7818609E-02  0.8664119E-01
       -2   -1    0    0    0  501  0.00000000000E+00  0.00000000000E+00  0.81934513116E+03  0.81934513116E+03  0.25500000920E-02 0.  1.
        2   -1    0    0  501    0  0.00000000000E+00  0.00000000000E+00 -0.10801473963E+04  0.10801473963E+04  0.25500000920E-02 0. -1.
    10030    2    1    2    0    0  0.00000000000E+00  0.00000000000E+00 -0.26080226511E+03  0.18994925274E+04  0.18815031332E+04 0.  0.
        3    1    3    3  502    0  0.81774774204E+03 -0.45324853118E+03 -0.23564709525E+03  0.96419664194E+03  0.10100000352E+00 0.  1.
       -3    1    3    3    0  502 -0.81774774204E+03  0.45324853118E+03 -0.25155169856E+02  0.93529588548E+03  0.10100000352E+00 0. -1.
</event>
<event>
 5   0  0.5614989E-05  0.1907442E+04  0.7818609E-02  0.8651161E-01
       -1   -1    0    0    0  501  0.00000000000E+00  0.00000000000E+00  0.37100882083E+03  0.37100882087E+03  0.50400001928E-02 0.  1.
        1   -1    0    0  501    0  0.00000000000E+00  0.00000000000E+00 -0.24516511566E+04  0.24516511566E+04  0.50400001928E-02 0. -1.
    10030    2    1    2    0    0  0.00000000000E+00  0.00000000000E+00 -0.20806423358E+04  0.28226599775E+04  0.19074424812E+04 0.  0.
        4    1    3    3  502    0  0.73838076379E+03 -0.51775166246E+03 -0.14995636225E+04  0.17498473097E+04  0.12699999809E+01 0. -1.
       -4    1    3    3    0  502 -0.73838076379E+03  0.51775166246E+03 -0.58107871328E+03  0.10728126678E+04  0.12699999809E+01 0.  1.
</event>
<event>
 5   0  0.5614989E-05  0.1916721E+04  0.7818609E-02  0.8646578E-01
        1   -1    0    0  501    0  0.00000000000E+00  0.00000000000E+00  0.15243417147E+04  0.15243417147E+04  0.50400001928E-02 0. -1.
       -1   -1    0    0    0  501  0.00000000000E+00  0.00000000000E+00 -0.60252579843E+03  0.60252579846E+03  0.50400001928E-02 0.  1.
    10030    2    1    2    0    0  0.00000000000E+00  0.00000000000E+00  0.92181591624E+03  0.21268675131E+04  0.19167213765E+04 0.  0.
        4    1    3    3  502    0 -0.33679736679E+03 -0.34796665766E+03  0.13785864638E+04  0.14611692278E+04  0.12699999809E+01 0. -1.
       -4    1    3    3    0  502  0.33679736679E+03  0.34796665766E+03 -0.45677054756E+03  0.66569828536E+03  0.12699999809E+01 0.  1.
</event>
<event>
 5   0  0.5841424E-05  0.1923208E+04  0.7818609E-02  0.8643390E-01
        1   -1    0    0  501    0  0.00000000000E+00  0.00000000000E+00  0.15400343677E+04  0.15400343677E+04  0.50400001928E-02 0.  1.
       -1   -1    0    0    0  501  0.00000000000E+00  0.00000000000E+00 -0.60042941792E+03  0.60042941795E+03  0.50400001928E-02 0. -1.
    10030    2    1    2    0    0  0.00000000000E+00  0.00000000000E+00  0.93960494981E+03  0.21404637857E+04  0.19232076737E+04 0.  0.
        1    1    3    3  502    0 -0.24754042038E+03  0.32835122376E+03 -0.49763996113E+03  0.64555117288E+03  0.50400001928E-02 0. -1.
       -1    1    3    3    0  502  0.24754042038E+03 -0.32835122376E+03  0.14372449109E+04  0.14949126128E+04  0.50400001928E-02 0.  1.
</event>
<event>
 5   0  0.5841424E-05  0.1900546E+04  0.7818609E-02  0.8654585E-01
        1   -1    0    0  501    0  0.00000000000E+00  0.00000000000E+00  0.19237593713E+04  0.19237593713E+04  0.50400001928E-02 0.  1.
       -1   -1    0    0    0  501  0.00000000000E+00  0.00000000000E+00 -0.46940320114E+03  0.46940320117E+03  0.50400001928E-02 0. -1.
    10030    2    1    2    0    0  0.00000000000E+00  0.00000000000E+00  0.14543561702E+04  0.23931625725E+04  0.19005460344E+04 0.  0.
        1    1    3    3  502    0  0.19484334917E+03 -0.14550510435E+03  0.18839159820E+04  0.18995460229E+04  0.50400001928E-02 0.  1.
       -1    1    3    3    0  502 -0.19484334917E+03  0.14550510435E+03 -0.42955981177E+03  0.49361654958E+03  0.50400001928E-02 0. -1.
</event>
<event>
 5   0  0.5824956E-05  0.1895903E+04  0.7818609E-02  0.8656899E-01
        1   -1    0    0  501    0  0.00000000000E+00  0.00000000000E+00  0.14591620737E+04  0.14591620737E+04  0.50400001928E-02 0.  1.
       -1   -1    0    0    0  501  0.00000000000E+00  0.00000000000E+00 -0.61584100079E+03  0.61584100081E+03  0.50400001928E-02 0. -1.
    10030    2    1    2    0    0  0.00000000000E+00  0.00000000000E+00  0.84332107290E+03  0.20750030745E+04  0.18959027737E+04 0.  0.
        2    1    3    3  502    0  0.13627046700E+03 -0.87503709067E+03  0.79176566205E+03  0.11879193634E+04  0.25500000920E-02 0.  1.
       -2    1    3    3    0  502 -0.13627046700E+03  0.87503709067E+03  0.51555410846E+02  0.88708371116E+03  0.25500000920E-02 0. -1.
</event>
<event>
 5   0  0.5628936E-05  0.1877560E+04  0.7818609E-02  0.8666108E-01
        1   -1    0    0  501    0  0.00000000000E+00  0.00000000000E+00  0.95957763965E+03  0.95957763967E+03  0.50400001928E-02 0.  1.
       -1   -1    0    0    0  501  0.00000000000E+00  0.00000000000E+00 -0.91843287717E+03  0.91843287718E+03  0.50400001928E-02 0. -1.
    10030    2    1    2    0    0  0.00000000000E+00  0.00000000000E+00  0.41144762482E+02  0.18780105168E+04  0.18775597487E+04 0.  0.
        5    1    3    3  502    0  0.27971378031E+03 -0.23988970260E+03 -0.84305757346E+03  0.92008425184E+03  0.46999998093E+01 0. -1.
       -5    1    3    3    0  502 -0.27971378031E+03  0.23988970260E+03  0.88420233595E+03  0.95792626501E+03  0.46999998093E+01 0.  1.
</event>
<event>
 5   0  0.5824956E-05  0.1894916E+04  0.7818609E-02  0.8657391E-01
        1   -1    0    0  501    0  0.00000000000E+00  0.00000000000E+00  0.11238239087E+04  0.11238239087E+04  0.50400001928E-02 0.  1.
       -1   -1    0    0    0  501  0.00000000000E+00  0.00000000000E+00 -0.79876947524E+03  0.79876947525E+03  0.50400001928E-02 0. -1.
    10030    2    1    2    0    0  0.00000000000E+00  0.00000000000E+00  0.32505443349E+03  0.19225933840E+04  0.18949155484E+04 0.  0.
        2    1    3    3  502    0 -0.49309714261E+03  0.21214657077E+03 -0.62959727863E+03  0.82737155668E+03  0.25500000920E-02 0. -1.
       -2    1    3    3    0  502  0.49309714261E+03 -0.21214657077E+03  0.95465171212E+03  0.10952218273E+04  0.25500000920E-02 0.  1.
</event>
<event>
 5   0  0.1118206E-04  0.1955217E+04  0.7818609E-02  0.8627849E-01
       -2   -1    0    0    0  501  0.00000000000E+00  0.00000000000E+00  0.38739339625E+03  0.38739339626E+03  0.25500000920E-02 0.  1.
        2   -1    0    0  501    0  0.00000000000E+00  0.00000000000E+00 -0.24670479199E+04  0.24670479199E+04  0.25500000920E-02 0. -1.
    10030    2    1    2    0    0  0.00000000000E+00  0.00000000000E+00 -0.20796545236E+04  0.28544413161E+04  0.19552166861E+04 0.  0.
        1    1    3    3  502    0  0.83506928881E+03  0.11958498890E+03 -0.17610832994E+04  0.19527047073E+04  0.50400001928E-02 0. -1.
       -1    1    3    3    0  502 -0.83506928881E+03 -0.11958498890E+03 -0.31857122423E+03  0.90173660878E+03  0.50400001928E-02 0.  1.
</event>
<event>
 5   0  0.1118206E-04  0.1903663E+04  0.7818609E-02  0.8653035E-01
       -2   -1    0    0    0  501  0.00000000000E+00  0.00000000000E+00  0.42939069211E+03  0.42939069211E+03  0.25500000920E-02 0. -1.
        2   -1    0    0  501    0  0.00000000000E+00  0.00000000000E+00 -0.21099283631E+04  0.21099283631E+04  0.25500000920E-02 0.  1.
    10030    2    1    2    0    0  0.00000000000E+00  0.00000000000E+00 -0.16805376710E+04  0.25393190552E+04  0.19036634158E+04 0.  0.
        1    1    3    3  502    0 -0.11882536019E+02 -0.66918652004E+03  0.62496608066E+02  0.67220355497E+03  0.50400001928E-02 0. -1.
       -1    1    3    3    0  502  0.11882536019E+02  0.66918652004E+03 -0.17430342790E+04  0.18671155002E+04  0.50400001928E-02 0.  1.
</event>
<event>
 5   0  0.1141890E-04  0.1866570E+04  0.7818609E-02  0.8671678E-01
       -2   -1    0    0    0  501  0.00000000000E+00  0.00000000000E+00  0.41927005219E+03  0.41927005219E+03  0.25500000920E-02 0.  1.
        2   -1    0    0  501    0  0.00000000000E+00  0.00000000000E+00 -0.20774697476E+04  0.20774697476E+04  0.25500000920E-02 0. -1.
    10030    2    1    2    0    0  0.00000000000E+00  0.00000000000E+00 -0.16581996954E+04  0.24967397998E+04  0.18665699553E+04 0.  0.
        2    1    3    3  502    0  0.74566749549E+03  0.24817148483E+03 -0.15024522084E+04  0.16955741618E+04  0.25500000920E-02 0. -1.
       -2    1    3    3    0  502 -0.74566749549E+03 -0.24817148483E+03 -0.15574748698E+03  0.80116563794E+03  0.25500000920E-02 0.  1.
</event>
<event>
 5   0  0.5614989E-05  0.1898840E+04  0.7818609E-02  0.8655434E-01
        1   -1    0    0  501    0  0.00000000000E+00  0.00000000000E+00  0.63228417990E+03  0.63228417992E+03  0.50400001928E-02 0. -1.
       -1   -1    0    0    0  501  0.00000000000E+00  0.00000000000E+00 -0.14256224789E+04  0.14256224789E+04  0.50400001928E-02 0.  1.
    10030    2    1    2    0    0  0.00000000000E+00  0.00000000000E+00 -0.79333829903E+03  0.20579066589E+04  0.18988402144E+04 0.  0.
        4    1    3    3  502    0 -0.46422924104E+03 -0.82605368011E+03 -0.33233794216E+03  0.10041531713E+04  0.12699999809E+01 0. -1.
       -4    1    3    3    0  502  0.46422924104E+03  0.82605368011E+03 -0.46100035687E+03  0.10537534876E+04  0.12699999809E+01 0.  1.
</event>
<event>
 5   0  0.5614989E-05  0.1880987E+04  0.7818609E-02  0.8664379E-01
        1   -1    0    0  501    0  0.00000000000E+00  0.00000000000E+00  0.11321648025E+04  0.11321648025E+04  0.50400001928E-02 0. -1.
       -1   -1    0    0    0  501  0.00000000000E+00  0.00000000000E+00 -0.78127162151E+03  0.78127162153E+03  0.50400001928E-02 0.  1.
    10030    2    1    2    0    0  0.00000000000E+00  0.00000000000E+00  0.35089318099E+03  0.19134364240E+04  0.18809872207E+04 0.  0.
        4    1    3    3  502    0 -0.82863417479E+03  0.25098192027E+03  0.54907021132E+03  0.10252347194E+04  0.12699999809E+01 0. -1.
       -4    1    3    3    0  502  0.82863417479E+03 -0.25098192027E+03 -0.19817703033E+03  0.88820170467E+03  0.12699999809E+01 0.  1.
</event>
<event>
 5   0  0.5841424E-05  0.1907165E+04  0.7818609E-02  0.8651298E-01
       -1   -1    0    0    0  501  0.00000000000E+00  0.00000000000E+00  0.96878197095E+03  0.96878197096E+03  0.50400001928E-02 0.  1.
        1   -1    0    0  501    0  0.00000000000E+00  0.00000000000E+00 -0.93862134132E+03  0.93862134134E+03  0.50400001928E-02 0. -1.
    10030    2    1    2    0    0  0.00000000000E+00  0.00000000000E+00  0.30160629627E+02  0.19074033123E+04  0.19071648414E+04 0.  0.
        1    1    3    3  502    0  0.39246738095E+03 -0.19690197109E+03  0.86166025734E+03  0.96708811927E+03  0.50400001928E-02 0.  1.
       -1    1    3    3    0  502 -0.39246738095E+03  0.19690197109E+03 -0.83149962771E+03  0.94031519303E+03  0.50400001928E-02 0. -1.
</event>
<event>
 5   0  0.5824956E-05  0.1900252E+04  0.7818609E-02  0.8654731E-01
        1   -1    0    0  501    0  0.00000000000E+00  0.00000000000E+00  0.15516702072E+04  0.15516702072E+04  0.50400001928E-02 0. -1.
       -1   -1    0    0    0  501  0.00000000000E+00  0.00000000000E+00 -0.58178575844E+03  0.58178575847E+03  0.50400001928E-02 0.  1.
    10030    2    1    2    0    0  0.00000000000E+00  0.00000000000E+00  0.96988444873E+03  0.21334559656E+04  0.19002522236E+04 0.  0.
        2    1    3    3  502    0 -0.77243268878E+03  0.31552812609E+02  0.11050792963E+04  0.13486467624E+04  0.25500000920E-02 0. -1.
       -2    1    3    3    0  502  0.77243268878E+03 -0.31552812609E+02 -0.13519484756E+03  0.78480920324E+03  0.25500000920E-02 0.  1.
</event>
<event>
 5   0  0.5824956E-05  0.1900998E+04  0.7818609E-02  0.8654360E-01
        1   -1    0    0  501    0  0.00000000000E+00  0.00000000000E+00  0.14895148272E+04  0.14895148272E+04  0.50400001928E-02 0. -1.
       -1   -1    0    0    0  501  0.00000000000E+00  0.00000000000E+00 -0.60653857990E+03  0.60653857992E+03  0.50400001928E-02 0.  1.
    10030    2    1    2    0    0  0.00000000000E+00  0.00000000000E+00  0.88297624725E+03  0.20960534071E+04  0.19009978517E+04 0.  0.
        2    1    3    3  502    0 -0.59938673260E+03  0.73768808780E+03  0.44127337997E+03  0.10479362414E+04  0.25500000920E-02 0.  1.
       -2    1    3    3    0  502  0.59938673260E+03 -0.73768808780E+03  0.44170286729E+03  0.10481171657E+04  0.25500000920E-02 0. -1.
</event>
<event>
 5   0  0.1133638E-04  0.1893157E+04  0.7818609E-02  0.8658270E-01
       -2   -1    0    0    0  501  0.00000000000E+00  0.00000000000E+00  0.93337196116E+03  0.93337196116E+03  0.25500000920E-02 0. -1.
        2   -1    0    0  501    0  0.00000000000E+00  0.00000000000E+00 -0.95997194335E+03  0.95997194335E+03  0.25500000920E-02 0.  1.
    10030    2    1    2    0    0  0.00000000000E+00  0.00000000000E+00 -0.26599982189E+02  0.18933439045E+04  0.18931570410E+04 0.  0.
        3    1    3    3  502    0  0.89250141353E+03 -0.21516402781E+03  0.21727981579E+03  0.94343248861E+03  0.10100000352E+00 0. -1.
       -3    1    3    3    0  502 -0.89250141353E+03  0.21516402781E+03 -0.24387979798E+03  0.94991141591E+03  0.10100000352E+00 0.  1.
</event>
<event>
 5   0  0.1118206E-04  0.1884737E+04  0.7818609E-02  0.8662491E-01
       -2   -1    0    0    0  501  0.00000000000E+00  0.00000000000E+00  0.83221398834E+03  0.83221398835E+03  0.25500000920E-02 0.  1.
        2   -1    0    0  501    0  0.00000000000E+00  0.00000000000E+00 -0.10671029011E+04  0.10671029011E+04  0.25500000920E-02 0. -1.
    10030    2    1    2    0    0  0.00000000000E+00  0.00000000000E+00 -0.23488891276E+03  0.18993168895E+04  0.18847365453E+04 0.  0.
        1    1    3    3  502    0  0.51617564152E+03 -0.62485635894E+03 -0.60197080457E+03  0.10095799185E+04  0.50400001928E-02 0. -1.
       -1    1    3    3    0  502 -0.51617564152E+03  0.62485635894E+03  0.36708189181E+03  0.88973697098E+03  0.50400001928E-02 0.  1.
</event>
<event>
 5   0  0.1133638E-04  0.1892097E+04  0.7818609E-02  0.8658800E-01
        2   -1    0    0  501    0  0.00000000000E+00  0.00000000000E+00  0.79661902674E+03  0.79661902674E+03  0.25500000920E-02 0. -1.
       -2   -1    0    0    0  501  0.00000000000E+00  0.00000000000E+00 -0.11235079962E+04  0.11235079962E+04  0.25500000920E-02 0.  1.
    10030    2    1    2    0    0  0.00000000000E+00  0.00000000000E+00 -0.32688896949E+03  0.19201270230E+04  0.18920970868E+04 0.  0.
        3    1    3    3  502    0 -0.78466849468E+03  0.52731467655E+03 -0.12767431106E+03  0.95397387519E+03  0.10100000352E+00 0. -1.
       -3    1    3    3    0  502  0.78466849468E+03 -0.52731467655E+03 -0.19921465844E+03  0.96615314779E+03  0.10100000352E+00 0.  1.
</event>
<event>
 5   0  0.5841424E-05  0.1888246E+04  0.7818609E-02  0.8660729E-01
        1   -1    0    0  501    0  0.00000000000E+00  0.00000000000E+00  0.53416528603E+03  0.53416528606E+03  0.50400001928E-02 0.  1.
       -1   -1    0    0    0  501  0.00000000000E+00  0.00000000000E+00 -0.16687124607E+04  0.16687124607E+04  0.50400001928E-02 0. -1.
    10030    2    1    2    0    0  0.00000000000E+00  0.00000000000E+00 -0.11345471747E+04  0.22028777468E+04  0.18882460315E+04 0.  0.
        1    1    3    3  502    0  0.19372614598E+03 -0.72672110809E+03 -0.12330840493E+04  0.14443509481E+04  0.50400001928E-02 0. -1.
       -1    1    3    3    0  502 -0.19372614598E+03  0.72672110809E+03  0.98536874661E+02  0.75852679865E+03  0.50400001928E-02 0.  1.
</event>
<event>
 5   0  0.1141890E-04  0.1896945E+04  0.7818609E-02  0.8656378E-01
        2   -1    0    0  501    0  0.00000000000E+00  0.00000000000E+00  0.67325517006E+03  0.67325517007E+03  0.25500000920E-02 0. -1.
       -2   -1    0    0    0  501  0.00000000000E+00  0.00000000000E+00 -0.13361952626E+04  0.13361952626E+04  0.25500000920E-02 0.  1.
    10030    2    1    2    0    0  0.00000000000E+00  0.00000000000E+00 -0.66294009253E+03  0.20094504327E+04  0.18969453010E+04 0.  0.
        2    1    3    3  502    0  0.37097319613E+03 -0.85452389915E+03 -0.52027723949E+03  0.10670148136E+04  0.25500000920E-02 0.  1.
       -2    1    3    3    0  502 -0.37097319613E+03  0.85452389915E+03 -0.14266285304E+03  0.94243561908E+03  0.25500000920E-02 0. -1.
</event>
<event>
 5   0  0.1141890E-04  0.1923990E+04  0.7818609E-02  0.8643006E-01
        2   -1    0    0  501    0  0.00000000000E+00  0.00000000000E+00  0.17229091089E+04  0.17229091089E+04  0.25500000920E-02 0. -1.
       -2   -1    0    0    0  501  0.00000000000E+00  0.00000000000E+00 -0.53713483104E+03  0.53713483105E+03  0.25500000920E-02 0.  1.
    10030    2    1    2    0    0  0.00000000000E+00  0.00000000000E+00  0.11857742778E+04  0.22600439399E+04  0.19239901175E+04 0.  0.
        2    1    3    3  502    0  0.91058176140E+03  0.97594656029E+02  0.24690763662E+03  0.94849736009E+03  0.25500000920E-02 0. -1.
       -2    1    3    3    0  502 -0.91058176140E+03 -0.97594656029E+02  0.93886664119E+03  0.13115465798E+04  0.25500000920E-02 0.  1.
</event>
<event>
 5   0  0.5841424E-05  0.1887156E+04  0.7818609E-02  0.8661276E-01
        1   -1    0    0  501    0  0.00000000000E+00  0.00000000000E+00  0.11687459452E+04  0.11687459453E+04  0.50400001928E-02 0. -1.
       -1   -1    0    0    0  501  0.00000000000E+00  0.00000000000E+00 -0.76179026126E+03  0.76179026128E+03  0.50400001928E-02 0.  1.
    10030    2    1    2    0    0  0.00000000000E+00  0.00000000000E+00  0.40695568398E+03  0.19305362065E+04  0.18871558272E+04 0.  0.
        1    1    3    3  502    0  0.11605128036E+02 -0.31420187437E+03  0.11135810603E+04  0.11571172260E+04  0.50400001928E-02 0. -1.
       -1    1    3    3    0  502 -0.11605128036E+02  0.31420187437E+03 -0.70662537635E+03  0.77341898049E+03  0.50400001928E-02 0.  1.
</event>
<event>
 5   0  0.5614989E-05  0.1885249E+04  0.7818609E-02  0.8662234E-01
        1   -1    0    0  501    0  0.00000000000E+00  0.00000000000E+00  0.16947532109E+04  0.16947532109E+04  0.50400001928E-02 0. -1.
       -1   -1    0    0    0  501  0.00000000000E+00  0.00000000000E+00 -0.52428903860E+03  0.52428903863E+03  0.50400001928E-02 0.  1.
    10030    2    1    2    0    0  0.00000000000E+00  0.00000000000E+00  0.11704641723E+04  0.22190422496E+04  0.18852485583E+04 0.  0.
        4    1    3    3  502    0 -0.33992243891E+03 -0.36082331306E+03  0.15289327851E+04  0.16072889603E+04  0.12699999809E+01 0. -1.
       -4    1    3    3    0  502  0.33992243891E+03  0.36082331306E+03 -0.35846861274E+03  0.61175328928E+03  0.12699999809E+01 0.  1.
</event>
<event>
 5   0  0.5628936E-05  0.1901153E+04  0.7818609E-02  0.8654283E-01
       -1   -1    0    0    0  501  0.00000000000E+00  0.00000000000E+00  0.11451993831E+04  0.11451993831E+04  0.50400001928E-02 0. -1.
        1   -1    0    0  501    0  0.00000000000E+00  0.00000000000E+00 -0.78902896401E+03  0.78902896403E+03  0.50400001928E-02 0.  1.
    10030    2    1    2    0    0  0.00000000000E+00  0.00000000000E+00  0.35617041906E+03  0.19342283471E+04  0.19011527901E+04 0.  0.
        5    1    3    3  502    0 -0.22582715503E+03  0.38964887566E+03 -0.67358614661E+03  0.81028670059E+03  0.46999998093E+01 0.  1.
       -5    1    3    3    0  502  0.22582715503E+03 -0.38964887566E+03  0.10297565657E+04  0.11239416465E+04  0.46999998093E+01 0. -1.
</event>
<event>
 5   0  0.1101678E-04  0.1885992E+04  0.7818609E-02  0.8661861E-01
        2   -1    0    0  501    0  0.00000000000E+00  0.00000000000E+00  0.82341674200E+03  0.82341674200E+03  0.25500000920E-02 0.  1.
       -2   -1    0    0    0  501  0.00000000000E+00  0.00000000000E+00 -0.10799404332E+04  0.10799404332E+04  0.25500000920E-02 0. -1.
    10030    2    1    2    0    0  0.00000000000E+00  0.00000000000E+00 -0.25652369122E+03  0.19033571752E+04  0.18859915515E+04 0.  0.
        4    1    3    3  502    0  0.39387714994E+03 -0.41196425086E+03 -0.88643523730E+03  0.10538608998E+04  0.12699999809E+01 0. -1.
       -4    1    3    3    0  502 -0.39387714994E+03  0.41196425086E+03  0.62991154608E+03  0.84949627546E+03  0.12699999809E+01 0.  1.
</event>
<event>
 5   0  0.5628936E-05  0.1912099E+04  0.7818609E-02  0.8648857E-01
       -1   -1    0    0    0  501  0.00000000000E+00  0.00000000000E+00  0.65461978791E+03  0.65461978793E+03  0.50400001928E-02 0. -1.
        1   -1    0    0  501    0  0.00000000000E+00  0.00000000000E+00 -0.13962770513E+04  0.13962770513E+04  0.50400001928E-02 0.  1.
    10030    2    1    2    0    0  0.00000000000E+00  0.00000000000E+00 -0.74165726339E+03  0.20508968392E+04  0.19120989380E+04 0.  0.
        5    1    3    3  502    0  0.33610590951E+03  0.56033690836E+03  0.37773101305E+03  0.75474991983E+03  0.46999998093E+01 0. -1.
       -5    1    3    3    0  502 -0.33610590951E+03 -0.56033690836E+03 -0.11193882764E+04  0.12961469194E+04  0.46999998093E+01 0.  1.
</event>
<event>
 5   0  0.1118206E-04  0.1896832E+04  0.7818609E-02  0.8656435E-01
       -2   -1    0    0    0  501  0.00000000000E+00  0.00000000000E+00  0.38510446667E+03  0.38510446668E+03  0.25500000920E-02 0.  1.
        2   -1    0    0  501    0  0.00000000000E+00  0.00000000000E+00 -0.23357104127E+04  0.23357104127E+04  0.25500000920E-02 0. -1.
    10030    2    1    2    0    0  0.00000000000E+00  0.00000000000E+00 -0.19506059461E+04  0.27208148794E+04  0.18968315822E+04 0.  0.
        1    1    3    3  502    0  0.83414472746E+03  0.22605363802E+03 -0.15356281602E+04  0.17621156375E+04  0.50400001928E-02 0. -1.
       -1    1    3    3    0  502 -0.83414472746E+03 -0.22605363802E+03 -0.41497778588E+03  0.95869924189E+03  0.50400001928E-02 0.  1.
</event>
<event>
 5   0  0.5628936E-05  0.1910554E+04  0.7818609E-02  0.8649621E-01
       -1   -1    0    0    0  501  0.00000000000E+00  0.00000000000E+00  0.70570471424E+03  0.70570471426E+03  0.50400001928E-02 0. -1.
        1   -1    0    0  501    0  0.00000000000E+00  0.00000000000E+00 -0.12931101714E+04  0.12931101714E+04  0.50400001928E-02 0.  1.
    10030    2    1    2    0    0  0.00000000000E+00  0.00000000000E+00 -0.58740545717E+03  0.19988148857E+04  0.19105537878E+04 0.  0.
        5    1    3    3  502    0  0.23729869541E+03 -0.45812577878E+03 -0.11347966215E+04  0.12465854813E+04  0.46999998093E+01 0.  1.
       -5    1    3    3    0  502 -0.23729869541E+03  0.45812577878E+03  0.54739116433E+03  0.75222940437E+03  0.46999998093E+01 0. -1.
</event>
<event>
 5   0  0.5579109E-05  0.1898555E+04  0.7818609E-02  0.8655576E-01
       -1   -1    0    0    0  501  0.00000000000E+00  0.00000000000E+00  0.49208703707E+03  0.49208703710E+03  0.50400001928E-02 0. -1.
        1   -1    0    0  501    0  0.00000000000E+00  0.00000000000E+00 -0.18312372579E+04  0.18312372580E+04  0.50400001928E-02 0.  1.
    10030    2    1    2    0    0  0.00000000000E+00  0.00000000000E+00 -0.13391502209E+04  0.23233242951E+04  0.18985553629E+04 0.  0.
        3    1    3    3  502    0 -0.40052360378E+03 -0.59195574938E+03 -0.14340872108E+04  0.16023223473E+04  0.10100000352E+00 0.  1.
       -3    1    3    3    0  502  0.40052360378E+03  0.59195574938E+03  0.94936989874E+02  0.72100194775E+03  0.10100000352E+00 0. -1.
</event>
<event>
 5   0  0.5579109E-05  0.1898531E+04  0.7818609E-02  0.8655588E-01
        1   -1    0    0  501    0  0.00000000000E+00  0.00000000000E+00  0.70043910804E+03  0.70043910806E+03  0.50400001928E-02 0.  1.
       -1   -1    0    0    0  501  0.00000000000E+00  0.00000000000E+00 -0.12864856558E+04  0.12864856558E+04  0.50400001928E-02 0. -1.
    10030    2    1    2    0    0  0.00000000000E+00  0.00000000000E+00 -0.58604654777E+03  0.19869247639E+04  0.18985308692E+04 0.  0.
        3    1    3    3  502    0  0.88668383875E+03 -0.27516659794E+03 -0.50017845572E+03  0.10545631248E+04  0.10100000352E+00 0.  1.
       -3    1    3    3    0  502 -0.88668383875E+03  0.27516659794E+03 -0.85868092053E+02  0.93236163904E+03  0.10100000352E+00 0. -1.
</event>
<event>
 5   0  0.4061125E-05  0.1996790E+04  0.7818609E-02  0.8608123E-01
       -3   -1    0    0    0  501  0.00000000000E+00  0.00000000000E+00  0.13493703969E+04  0.13493704007E+04  0.10100000352E+00 0. -1.
        3   -1    0    0  501    0  0.00000000000E+00  0.00000000000E+00 -0.73870973146E+03  0.73870973836E+03  0.10100000352E+00 0.  1.
    10030    2    1    2    0    0  0.00000000000E+00  0.00000000000E+00  0.61066066546E+03  0.20880801391E+04  0.19967904794E+04 0.  0.
        4    1    3    3  502    0 -0.61278734611E+03  0.66805507106E+03  0.74276755658E+03  0.11719689269E+04  0.12699999809E+01 0. -1.
       -4    1    3    3    0  502  0.61278734611E+03 -0.66805507106E+03 -0.13210689113E+03  0.91611121219E+03  0.12699999809E+01 0.  1.
</event>
<event>
 5   0  0.1101678E-04  0.1857816E+04  0.7818609E-02  0.8676144E-01
        2   -1    0    0  501    0  0.00000000000E+00  0.00000000000E+00  0.17272219235E+04  0.17272219235E+04  0.25500000920E-02 0. -1.
       -2   -1    0    0    0  501  0.00000000000E+00  0.00000000000E+00 -0.49957094466E+03  0.49957094467E+03  0.25500000920E-02 0.  1.
    10030    2    1    2    0    0  0.00000000000E+00  0.00000000000E+00  0.12276509788E+04  0.22267928681E+04  0.18578158014E+04 0.  0.
        4    1    3    3  502    0 -0.66464791764E+03 -0.31198932902E+03 -0.68196233987E+02  0.73739171074E+03  0.12699999809E+01 0. -1.
       -4    1    3    3    0  502  0.66464791764E+03  0.31198932902E+03  0.12958472128E+04  0.14894011574E+04  0.12699999809E+01 0.  1.
</event>
<event>
 5   0  0.1133638E-04  0.1898363E+04  0.7818609E-02  0.8655672E-01
       -2   -1    0    0    0  501  0.00000000000E+00  0.00000000000E+00  0.76906097050E+03  0.76906097050E+03  0.25500000920E-02 0. -1.
        2   -1    0    0  501    0  0.00000000000E+00  0.00000000000E+00 -0.11714875571E+04  0.11714875571E+04  0.25500000920E-02 0.  1.
    10030    2    1    2    0    0  0.00000000000E+00  0.00000000000E+00 -0.40242658661E+03  0.19405485276E+04  0.18983628290E+04 0.  0.
        3    1    3    3  502    0 -0.45185962427E+03 -0.50726384151E+03  0.47642949727E+03  0.82974622688E+03  0.10100000352E+00 0. -1.
       -3    1    3    3    0  502  0.45185962427E+03  0.50726384151E+03 -0.87885608388E+03  0.11108023007E+04  0.10100000352E+00 0.  1.
</event>
<event>
 5   0  0.1141890E-04  0.1895394E+04  0.7818609E-02  0.8657152E-01
       -2   -1    0    0    0  501  0.00000000000E+00  0.00000000000E+00  0.73212466941E+03  0.73212466942E+03  0.25500000920E-02 0.  1.
        2   -1    0    0  501    0  0.00000000000E+00  0.00000000000E+00 -0.12267444944E+04  0.12267444944E+04  0.25500000920E-02 0. -1.
    10030    2    1    2    0    0  0.00000000000E+00  0.00000000000E+00 -0.49461982497E+03  0.19588691638E+04  0.18953943204E+04 0.  0.
        2    1    3    3  502    0  0.17920382119E+03 -0.11780671788E+03 -0.12013369595E+04  0.12203290223E+04  0.25500000920E-02 0. -1.
       -2    1    3    3    0  502 -0.17920382119E+03  0.11780671788E+03  0.70671713457E+03  0.73854014150E+03  0.25500000920E-02 0.  1.
</event>
<event>
 5   0  0.1118206E-04  0.1886738E+04  0.7818609E-02  0.8661486E-01
       -2   -1    0    0    0  501  0.00000000000E+00  0.00000000000E+00  0.52558383733E+03  0.52558383734E+03  0.25500000920E-02 0.  1.
        2   -1    0    0  501    0  0.00000000000E+00  0.00000000000E+00 -0.16932501104E+04  0.16932501104E+04  0.25500000920E-02 0. -1.
    10030    2    1    2    0    0  0.00000000000E+00  0.00000000000E+00 -0.11676662731E+04  0.22188339477E+04  0.18867378096E+04 0.  0.
        1    1    3    3  502    0  0.26931623517E+03  0.90030744272E+03 -0.68123797224E+03  0.11606764841E+04  0.50400001928E-02 0. -1.
       -1    1    3    3    0  502 -0.26931623517E+03 -0.90030744272E+03 -0.48642830082E+03  0.10581574636E+04  0.50400001928E-02 0.  1.
</event>
<event>
 5   0  0.1182630E-04  0.1832868E+04  0.7818609E-02  0.8689013E-01
        2   -1    0    0  501    0  0.00000000000E+00  0.00000000000E+00  0.21403617453E+04  0.21403617453E+04  0.25500000920E-02 0.  1.
       -2   -1    0    0    0  501  0.00000000000E+00  0.00000000000E+00 -0.39238767819E+03  0.39238767820E+03  0.25500000920E-02 0. -1.
    10030    2    1    2    0    0  0.00000000000E+00  0.00000000000E+00  0.17479740671E+04  0.25327494235E+04  0.18328683267E+04 0.  0.
        5    1    3    3  502    0 -0.83121582185E+03 -0.43615629884E+02  0.34416430271E+03  0.90071817064E+03  0.46999998093E+01 0. -1.
       -5    1    3    3    0  502  0.83121582185E+03  0.43615629884E+02  0.14038097644E+04  0.16320312528E+04  0.46999998093E+01 0.  1.
</event>
<event>
 5   0  0.1133638E-04  0.1790235E+04  0.7818609E-02  0.8711509E-01
        2   -1    0    0  501    0  0.00000000000E+00  0.00000000000E+00  0.43788164327E+03  0.43788164328E+03  0.25500000920E-02 0.  1.
       -2   -1    0    0    0  501  0.00000000000E+00  0.00000000000E+00 -0.18297998941E+04  0.18297998941E+04  0.25500000920E-02 0. -1.
    10030    2    1    2    0    0  0.00000000000E+00  0.00000000000E+00 -0.13919182509E+04  0.22676815374E+04  0.17902354979E+04 0.  0.
        3    1    3    3  502    0  0.27265607825E+03  0.16735218001E+03  0.36299121394E+03  0.48384989486E+03  0.10100000352E+00 0.  1.
       -3    1    3    3    0  502 -0.27265607825E+03 -0.16735218001E+03 -0.17549094648E+04  0.17838316426E+04  0.10100000352E+00 0. -1.
</event>
<event>
 5   0  0.5579109E-05  0.1906981E+04  0.7818609E-02  0.8651389E-01
       -1   -1    0    0    0  501  0.00000000000E+00  0.00000000000E+00  0.81447832684E+03  0.81447832685E+03  0.50400001928E-02 0. -1.
        1   -1    0    0  501    0  0.00000000000E+00  0.00000000000E+00 -0.11162286515E+04  0.11162286515E+04  0.50400001928E-02 0.  1.
    10030    2    1    2    0    0  0.00000000000E+00  0.00000000000E+00 -0.30175032466E+03  0.19307069784E+04  0.19069809065E+04 0.  0.
        3    1    3    3  502    0  0.87489250990E+03  0.26661286435E+02 -0.53372849434E+03  0.10251896624E+04  0.10100000352E+00 0.  1.
       -3    1    3    3    0  502 -0.87489250990E+03 -0.26661286435E+02  0.23197816968E+03  0.90551731594E+03  0.10100000352E+00 0. -1.
</event>
<event>
 5   0  0.5579109E-05  0.1897144E+04  0.7818609E-02  0.8656280E-01
       -1   -1    0    0    0  501  0.00000000000E+00  0.00000000000E+00  0.57702026506E+03  0.57702026508E+03  0.50400001928E-02 0.  1.
        1   -1    0    0  501    0  0.00000000000E+00  0.00000000000E+00 -0.15593705631E+04  0.15593705631E+04  0.50400001928E-02 0. -1.
    10030    2    1    2    0    0  0.00000000000E+00  0.00000000000E+00 -0.98235029806E+03  0.21363908282E+04  0.18971435535E+04 0.  0.
        3    1    3    3  502    0 -0.45014295071E+03  0.83479086383E+03 -0.51015077649E+03  0.10769207433E+04  0.10100000352E+00 0.  1.
       -3    1    3    3    0  502  0.45014295071E+03 -0.83479086383E+03 -0.47219952157E+03  0.10594700849E+04  0.10100000352E+00 0. -1.
</event>
<event>
 5   0  0.5628936E-05  0.1908608E+04  0.7818609E-02  0.8650583E-01
       -1   -1    0    0    0  501  0.00000000000E+00  0.00000000000E+00  0.12780299269E+04  0.12780299269E+04  0.50400001928E-02 0. -1.
        1   -1    0    0  501    0  0.00000000000E+00  0.00000000000E+00 -0.71257803406E+03  0.71257803408E+03  0.50400001928E-02 0.  1.
    10030    2    1    2    0    0  0.00000000000E+00  0.00000000000E+00  0.56545189282E+03  0.19906079610E+04  0.19086079249E+04 0.  0.
        5    1    3    3  502    0 -0.66821138416E+03  0.40096660497E+03 -0.29175019932E+03  0.83211834557E+03  0.46999998093E+01 0.  1.
       -5    1    3    3    0  502  0.66821138416E+03 -0.40096660497E+03  0.85720209214E+03  0.11584896154E+04  0.46999998093E+01 0. -1.
</event>
<event>
 5   0  0.5579109E-05  0.1898583E+04  0.7818609E-02  0.8655562E-01
       -1   -1    0    0    0  501  0.00000000000E+00  0.00000000000E+00  0.32491068621E+03  0.32491068625E+03  0.50400001928E-02 0. -1.
        1   -1    0    0  501    0  0.00000000000E+00  0.00000000000E+00 -0.27735452630E+04  0.27735452630E+04  0.50400001928E-02 0.  1.
    10030    2    1    2    0    0  0.00000000000E+00  0.00000000000E+00 -0.24486345768E+04  0.30984559492E+04  0.18985831503E+04 0.  0.
        3    1    3    3  502    0 -0.63301952850E+03  0.38614319602E+03 -0.25698448950E+03  0.78476832845E+03  0.10100000352E+00 0. -1.
       -3    1    3    3    0  502  0.63301952850E+03 -0.38614319602E+03 -0.21916500873E+04  0.23136876208E+04  0.10100000352E+00 0.  1.
</event>
<event>
 5   0  0.1141890E-04  0.1903212E+04  0.7818609E-02  0.8653259E-01
       -2   -1    0    0    0  501  0.00000000000E+00  0.00000000000E+00  0.57937640114E+03  0.57937640115E+03  0.25500000920E-02 0.  1.
        2   -1    0    0  501    0  0.00000000000E+00  0.00000000000E+00 -0.15629798432E+04  0.15629798432E+04  0.25500000920E-02 0. -1.
    10030    2    1    2    0    0  0.00000000000E+00  0.00000000000E+00 -0.98360344209E+03  0.21423562444E+04  0.19032116400E+04 0.  0.
        2    1    3    3  502    0  0.77142456860E+03  0.52083653309E+03 -0.71463294295E+03  0.11734848965E+04  0.25500000920E-02 0. -1.
       -2    1    3    3    0  502 -0.77142456860E+03 -0.52083653309E+03 -0.26897049914E+03  0.96887134784E+03  0.25500000920E-02 0.  1.
</event>
<event>
 5   0  0.1133638E-04  0.1892028E+04  0.7818609E-02  0.8658835E-01
        2   -1    0    0  501    0  0.00000000000E+00  0.00000000000E+00  0.13001787638E+04  0.13001787638E+04  0.25500000920E-02 0. -1.
       -2   -1    0    0    0  501  0.00000000000E+00  0.00000000000E+00 -0.68832264121E+03  0.68832264121E+03  0.25500000920E-02 0.  1.
    10030    2    1    2    0    0  0.00000000000E+00  0.00000000000E+00  0.61185612256E+03  0.19885014050E+04  0.18920279921E+04 0.  0.
        3    1    3    3  502    0 -0.47554533685E+02 -0.77531197771E+03  0.87343546443E+03  0.11688710866E+04  0.10100000352E+00 0. -1.
       -3    1    3    3    0  502  0.47554533685E+02  0.77531197771E+03 -0.26157934187E+03  0.81963031834E+03  0.10100000352E+00 0.  1.
</event>
<event>
 5   0  0.5579109E-05  0.1903324E+04  0.7818609E-02  0.8653203E-01
       -1   -1    0    0    0  501  0.00000000000E+00  0.00000000000E+00  0.11455457828E+04  0.11455457828E+04  0.50400001928E-02 0. -1.
        1   -1    0    0  501    0  0.00000000000E+00  0.00000000000E+00 -0.79059339732E+03  0.79059339734E+03  0.50400001928E-02 0.  1.
    10030    2    1    2    0    0  0.00000000000E+00  0.00000000000E+00  0.35495238544E+03  0.19361391801E+04  0.19033243887E+04 0.  0.
        3    1    3    3  502    0  0.49036856500E+03  0.56618830927E+02  0.10051338833E+04  0.11198040700E+04  0.10100000352E+00 0. -1.
       -3    1    3    3    0  502 -0.49036856500E+03 -0.56618830927E+02 -0.65018149791E+03  0.81633511010E+03  0.10100000352E+00 0.  1.
</event>
<event>
 5   0  0.5824956E-05  0.1908411E+04  0.7818609E-02  0.8650681E-01
       -1   -1    0    0    0  501  0.00000000000E+00  0.00000000000E+00  0.14677651574E+04  0.14677651574E+04  0.50400001928E-02 0.  1.
        1   -1    0    0  501    0  0.00000000000E+00  0.00000000000E+00 -0.62033609281E+03  0.62033609283E+03  0.50400001928E-02 0. -1.
    10030    2    1    2    0    0  0.00000000000E+00  0.00000000000E+00  0.84742906459E+03  0.20881012502E+04  0.19084105459E+04 0.  0.
        2    1    3    3  502    0 -0.23994348171E+03  0.33549369841E+03 -0.51775600789E+03  0.66196690235E+03  0.25500000920E-02 0. -1.
       -2    1    3    3    0  502  0.23994348171E+03 -0.33549369841E+03  0.13651850725E+04  0.14261343479E+04  0.25500000920E-02 0.  1.
</event>
<event>
 5   0  0.1141890E-04  0.1897720E+04  0.7818609E-02  0.8655992E-01
       -2   -1    0    0    0  501  0.00000000000E+00  0.00000000000E+00  0.97761437637E+03  0.97761437637E+03  0.25500000920E-02 0. -1.
        2   -1    0    0  501    0  0.00000000000E+00  0.00000000000E+00 -0.92095097885E+03  0.92095097886E+03  0.25500000920E-02 0.  1.
    10030    2    1    2    0    0  0.00000000000E+00  0.00000000000E+00  0.56663397514E+02  0.18985653552E+04  0.18977195966E+04 0.  0.
        2    1    3    3  502    0  0.22008239506E+03  0.92117312655E+03 -0.29475772944E+02  0.94755739187E+03  0.25500000920E-02 0. -1.
       -2    1    3    3    0  502 -0.22008239506E+03 -0.92117312655E+03  0.86139170459E+02  0.95100796336E+03  0.25500000920E-02 0.  1.
</event>
<event>
 5   0  0.5614989E-05  0.1895793E+04  0.7818609E-02  0.8656953E-01
        1   -1    0    0  501    0  0.00000000000E+00  0.00000000000E+00  0.11918030686E+04  0.11918030686E+04  0.50400001928E-02 0. -1.
       -1   -1    0    0    0  501  0.00000000000E+00  0.00000000000E+00 -0.75390623353E+03  0.75390623355E+03  0.50400001928E-02 0.  1.
    10030    2    1    2    0    0  0.00000000000E+00  0.00000000000E+00  0.43789683507E+03  0.19457093022E+04  0.18957929872E+04 0.  0.
        4    1    3    3  502    0  0.49887227712E+02  0.13304256411E+03  0.11808102889E+04  0.11893290590E+04  0.12699999809E+01 0. -1.
       -4    1    3    3    0  502 -0.49887227712E+02 -0.13304256411E+03 -0.74291345386E+03  0.75638024312E+03  0.12699999809E+01 0.  1.
</event>
<event>
 5   0  0.1118206E-04  0.1882202E+04  0.7818609E-02  0.8663767E-01
       -2   -1    0    0    0  501  0.00000000000E+00  0.00000000000E+00  0.92043175412E+03  0.92043175412E+03  0.25500000920E-02 0. -1.
        2   -1    0    0  501    0  0.00000000000E+00  0.00000000000E+00 -0.96223401619E+03  0.96223401620E+03  0.25500000920E-02 0.  1.
    10030    2    1    2    0    0  0.00000000000E+00  0.00000000000E+00 -0.41802262079E+02  0.18826657703E+04  0.18822016294E+04 0.  0.
        1    1    3    3  502    0  0.42239162621E+03  0.71968472053E+03 -0.45610606863E+03  0.95099607187E+03  0.50400001928E-02 0.  1.
       -1    1    3    3    0  502 -0.42239162621E+03 -0.71968472053E+03  0.41430380655E+03  0.93166969844E+03  0.50400001928E-02 0. -1.
</event>
<event>
 5   0  0.5614989E-05  0.1914316E+04  0.7818609E-02  0.8647763E-01
       -1   -1    0    0    0  501  0.00000000000E+00  0.00000000000E+00  0.40330292167E+03  0.40330292170E+03  0.50400001928E-02 0. -1.
        1   -1    0    0  501    0  0.00000000000E+00  0.00000000000E+00 -0.22716201139E+04  0.22716201139E+04  0.50400001928E-02 0.  1.
    10030    2    1    2    0    0  0.00000000000E+00  0.00000000000E+00 -0.18683171922E+04  0.26749230356E+04  0.19143155737E+04 0.  0.
        4    1    3    3  502    0 -0.70664860481E+03  0.50231670867E+03 -0.36746562761E+03  0.94165117048E+03  0.12699999809E+01 0. -1.
       -4    1    3    3    0  502  0.70664860481E+03 -0.50231670867E+03 -0.15008515646E+04  0.17332718651E+04  0.12699999809E+01 0.  1.
</event>
<event>
 5   0  0.5579109E-05  0.1897730E+04  0.7818609E-02  0.8655987E-01
        1   -1    0    0  501    0  0.00000000000E+00  0.00000000000E+00  0.37506524902E+03  0.37506524906E+03  0.50400001928E-02 0. -1.
       -1   -1    0    0    0  501  0.00000000000E+00  0.00000000000E+00 -0.24005008136E+04  0.24005008136E+04  0.50400001928E-02 0.  1.
    10030    2    1    2    0    0  0.00000000000E+00  0.00000000000E+00 -0.20254355646E+04  0.27755660627E+04  0.18977296282E+04 0.  0.
        3    1    3    3  502    0  0.86332979487E+02  0.76363834152E+03 -0.18267116877E+04  0.19817851802E+04  0.10100000352E+00 0.  1.
       -3    1    3    3    0  502 -0.86332979487E+02 -0.76363834152E+03 -0.19872387682E+03  0.79378088249E+03  0.10100000352E+00 0. -1.
</event>
<event>
 5   0  0.5824956E-05  0.1903517E+04  0.7818609E-02  0.8653107E-01
       -1   -1    0    0    0  501  0.00000000000E+00  0.00000000000E+00  0.12167978939E+04  0.12167978939E+04  0.50400001928E-02 0.  1.
        1   -1    0    0  501    0  0.00000000000E+00  0.00000000000E+00 -0.74444959597E+03  0.74444959598E+03  0.50400001928E-02 0. -1.
    10030    2    1    2    0    0  0.00000000000E+00  0.00000000000E+00  0.47234829789E+03  0.19612474898E+04  0.19035174814E+04 0.  0.
        2    1    3    3  502    0 -0.54269232766E+03  0.49898364051E+03 -0.38403291189E+03  0.83125261709E+03  0.25500000920E-02 0. -1.
       -2    1    3    3    0  502  0.54269232766E+03 -0.49898364051E+03  0.85638120978E+03  0.11299948728E+04  0.25500000920E-02 0.  1.
</event>
<event>
 5   0  0.1118206E-04  0.1960719E+04  0.7818609E-02  0.8625209E-01
        2   -1    0    0  501    0  0.00000000000E+00  0.00000000000E+00  0.25117686239E+04  0.25117686239E+04  0.25500000920E-02 0.  1.
       -2   -1    0    0    0  501  0.00000000000E+00  0.00000000000E+00 -0.38264080507E+03  0.38264080508E+03  0.25500000920E-02 0. -1.
    10030    2    1    2    0    0  0.00000000000E+00  0.00000000000E+00  0.21291278188E+04  0.28944094289E+04  0.19607194276E+04 0.  0.
        1    1    3    3  502    0 -0.71082163334E+03  0.64380893946E+03  0.13647363654E+04  0.16680115983E+04  0.50400001928E-02 0.  1.
       -1    1    3    3    0  502  0.71082163334E+03 -0.64380893946E+03  0.76439145334E+03  0.12263978306E+04  0.50400001928E-02 0. -1.
</event>
<event>
 5   0  0.1182630E-04  0.1894137E+04  0.7818609E-02  0.8657780E-01
       -2   -1    0    0    0  501  0.00000000000E+00  0.00000000000E+00  0.50112608775E+03  0.50112608776E+03  0.25500000920E-02 0.  1.
        2   -1    0    0  501    0  0.00000000000E+00  0.00000000000E+00 -0.17898465589E+04  0.17898465589E+04  0.25500000920E-02 0. -1.
    10030    2    1    2    0    0  0.00000000000E+00  0.00000000000E+00 -0.12887204711E+04  0.22909726466E+04  0.18941370634E+04 0.  0.
        5    1    3    3  502    0  0.72288408279E+03  0.28481222283E+03 -0.12993252741E+04  0.15139179824E+04  0.46999998093E+01 0. -1.
       -5    1    3    3    0  502 -0.72288408279E+03 -0.28481222283E+03  0.10604802971E+02  0.77705466427E+03  0.46999998093E+01 0.  1.
</event>
<event>
 5   0  0.5628936E-05  0.1896704E+04  0.7818609E-02  0.8656499E-01
       -1   -1    0    0    0  501  0.00000000000E+00  0.00000000000E+00  0.50015585412E+03  0.50015585414E+03  0.50400001928E-02 0. -1.
        1   -1    0    0  501    0  0.00000000000E+00  0.00000000000E+00 -0.17981818900E+04  0.17981818900E+04  0.50400001928E-02 0.  1.
    10030    2    1    2    0    0  0.00000000000E+00  0.00000000000E+00 -0.12980260358E+04  0.22983377441E+04  0.18967036659E+04 0.  0.
        5    1    3    3  502    0  0.27322831402E+03  0.14166523003E+03 -0.17359678406E+04  0.17630454284E+04  0.46999998093E+01 0.  1.
       -5    1    3    3    0  502 -0.27322831402E+03 -0.14166523003E+03  0.43794180472E+03  0.53529231575E+03  0.46999998093E+01 0. -1.
</event>
<event>
 5   0  0.1101678E-04  0.1895809E+04  0.7818609E-02  0.8656945E-01
        2   -1    0    0  501    0  0.00000000000E+00  0.00000000000E+00  0.11326431624E+04  0.11326431624E+04  0.25500000920E-02 0.  1.
       -2   -1    0    0    0  501  0.00000000000E+00  0.00000000000E+00 -0.79329785972E+03  0.79329785972E+03  0.25500000920E-02 0. -1.
    10030    2    1    2    0    0  0.00000000000E+00  0.00000000000E+00  0.33934530265E+03  0.19259410221E+04  0.18958094804E+04 0.  0.
        4    1    3    3  502    0  0.76215888180E+03  0.49828346881E+03  0.43720052841E+03  0.10101081582E+04  0.12699999809E+01 0. -1.
       -4    1    3    3    0  502 -0.76215888180E+03 -0.49828346881E+03 -0.97855225763E+02  0.91583286385E+03  0.12699999809E+01 0.  1.
</event>
<event>
 5   0  0.5841424E-05  0.1769017E+04  0.7818609E-02  0.8722951E-01
        1   -1    0    0  501    0  0.00000000000E+00  0.00000000000E+00  0.17846484144E+04  0.17846484144E+04  0.50400001928E-02 0. -1.
       -1   -1    0    0    0  501  0.00000000000E+00  0.00000000000E+00 -0.43838075305E+03  0.43838075308E+03  0.50400001928E-02 0.  1.
    10030    2    1    2    0    0  0.00000000000E+00  0.00000000000E+00  0.13462676613E+04  0.22230291675E+04  0.17690172592E+04 0.  0.
        1    1    3    3  502    0  0.48698483845E+02 -0.17748231781E+03  0.17603210830E+04  0.17699157694E+04  0.50400001928E-02 0. -1.
       -1    1    3    3    0  502 -0.48698483845E+02  0.17748231781E+03 -0.41405342168E+03  0.45311339806E+03  0.50400001928E-02 0.  1.
</event>
<event>
 5   0  0.5628936E-05  0.1905770E+04  0.7818609E-02  0.8651990E-01
        1   -1    0    0  501    0  0.00000000000E+00  0.00000000000E+00  0.71661562385E+03  0.71661562387E+03  0.50400001928E-02 0.  1.
       -1   -1    0    0    0  501  0.00000000000E+00  0.00000000000E+00 -0.12670528975E+04  0.12670528975E+04  0.50400001928E-02 0. -1.
    10030    2    1    2    0    0  0.00000000000E+00  0.00000000000E+00 -0.55043727362E+03  0.19836685213E+04  0.19057700833E+04 0.  0.
        5    1    3    3  502    0 -0.25184643642E+03 -0.72543455433E+02 -0.12287866611E+04  0.12564346099E+04  0.46999998093E+01 0. -1.
       -5    1    3    3    0  502  0.25184643642E+03  0.72543455433E+02  0.67834938748E+03  0.72723391144E+03  0.46999998093E+01 0.  1.
</event>
<event>
 5   0  0.5824956E-05  0.1903873E+04  0.7818609E-02  0.8652931E-01
       -1   -1    0    0    0  501  0.00000000000E+00  0.00000000000E+00  0.72485493441E+03  0.72485493443E+03  0.50400001928E-02 0. -1.
        1   -1    0    0  501    0  0.00000000000E+00  0.00000000000E+00 -0.12501583429E+04  0.12501583430E+04  0.50400001928E-02 0.  1.
    10030    2    1    2    0    0  0.00000000000E+00  0.00000000000E+00 -0.52530340854E+03  0.19750132774E+04  0.19038733610E+04 0.  0.
        2    1    3    3  502    0 -0.69556212227E+03 -0.59889685919E+02  0.40866911435E+03  0.80895233818E+03  0.25500000920E-02 0. -1.
       -2    1    3    3    0  502  0.69556212227E+03  0.59889685919E+02 -0.93397252289E+03  0.11660609392E+04  0.25500000920E-02 0.  1.
</event>
<event>
 5   0  0.5824956E-05  0.1902682E+04  0.7818609E-02  0.8653522E-01
       -1   -1    0    0    0  501  0.00000000000E+00  0.00000000000E+00  0.98580341139E+03  0.98580341140E+03  0.50400001928E-02 0.  1.
        1   -1    0    0  501    0  0.00000000000E+00  0.00000000000E+00 -0.91808359962E+03  0.91808359963E+03  0.50400001928E-02 0. -1.
    10030    2    1    2    0    0  0.00000000000E+00  0.00000000000E+00  0.67719811771E+02  0.19038870110E+04  0.19026822588E+04 0.  0.
        2    1    3    3  502    0  0.51018631821E+03 -0.75205624028E+03  0.31541197692E+03  0.96195809837E+03  0.25500000920E-02 0. -1.
       -2    1    3    3    0  502 -0.51018631821E+03  0.75205624028E+03 -0.24769216515E+03  0.94192891266E+03  0.25500000920E-02 0.  1.
</event>
<event>
 5   0  0.4061125E-05  0.1879341E+04  0.7818609E-02  0.8665209E-01
        3   -1    0    0  501    0  0.00000000000E+00  0.00000000000E+00  0.10701250876E+04  0.10701250924E+04  0.10100000352E+00 0. -1.
       -3   -1    0    0    0  501  0.00000000000E+00  0.00000000000E+00 -0.82511886108E+03  0.82511886726E+03  0.10100000352E+00 0.  1.
    10030    2    1    2    0    0  0.00000000000E+00  0.00000000000E+00  0.24500622652E+03  0.18952439596E+04  0.18793407396E+04 0.  0.
        4    1    3    3  502    0  0.60360803455E+03 -0.37166313348E+03 -0.49956570699E+03  0.86720450452E+03  0.12699999809E+01 0.  1.
       -4    1    3    3    0  502 -0.60360803455E+03  0.37166313348E+03  0.74457193352E+03  0.10280394551E+04  0.12699999809E+01 0. -1.
</event>
<event>
 5   0  0.4061125E-05  0.1890695E+04  0.7818609E-02  0.8659502E-01
       -3   -1    0    0    0  501  0.00000000000E+00  0.00000000000E+00  0.77968613777E+03  0.77968614431E+03  0.10100000352E+00 0.  1.
        3   -1    0    0  501    0  0.00000000000E+00  0.00000000000E+00 -0.11462073800E+04  0.11462073844E+04  0.10100000352E+00 0. -1.
    10030    2    1    2    0    0  0.00000000000E+00  0.00000000000E+00 -0.36652124219E+03  0.19258935287E+04  0.18906951269E+04 0.  0.
        2    1    3    3  502    0  0.32387963706E+03  0.66669838901E+03 -0.78095276685E+03  0.10766949360E+04  0.25500000920E-02 0. -1.
       -2    1    3    3    0  502 -0.32387963706E+03 -0.66669838901E+03  0.41443152465E+03  0.84919859270E+03  0.25500000920E-02 0.  1.
</event>
<event>
 5   0  0.5824956E-05  0.1892099E+04  0.7818609E-02  0.8658799E-01
        1   -1    0    0  501    0  0.00000000000E+00  0.00000000000E+00  0.21628028543E+04  0.21628028543E+04  0.50400001928E-02 0.  1.
       -1   -1    0    0    0  501  0.00000000000E+00  0.00000000000E+00 -0.41381945998E+03  0.41381946001E+03  0.50400001928E-02 0. -1.
    10030    2    1    2    0    0  0.00000000000E+00  0.00000000000E+00  0.17489833943E+04  0.25766223143E+04  0.18920992672E+04 0.  0.
        2    1    3    3  502    0 -0.86832717808E+03  0.32415142970E+03  0.11326690036E+04  0.14635591239E+04  0.25500000920E-02 0.  1.
       -2    1    3    3    0  502  0.86832717808E+03 -0.32415142970E+03  0.61631439076E+03  0.11130631904E+04  0.25500000920E-02 0. -1.
</event>
<event>
 5   0  0.5824956E-05  0.1894524E+04  0.7818609E-02  0.8657587E-01
       -1   -1    0    0    0  501  0.00000000000E+00  0.00000000000E+00  0.17264183839E+04  0.17264183839E+04  0.50400001928E-02 0. -1.
        1   -1    0    0  501    0  0.00000000000E+00  0.00000000000E+00 -0.51974969735E+03  0.51974969738E+03  0.50400001928E-02 0.  1.
    10030    2    1    2    0    0  0.00000000000E+00  0.00000000000E+00  0.12066686865E+04  0.22461680812E+04  0.18945241435E+04 0.  0.
        2    1    3    3  502    0  0.42230363430E+03 -0.12974673493E+02 -0.40184870036E+03  0.58308754033E+03  0.25500000920E-02 0.  1.
       -2    1    3    3    0  502 -0.42230363430E+03  0.12974673493E+02  0.16085173869E+04  0.16630805409E+04  0.25500000920E-02 0. -1.
</event>
<event>
 5   0  0.5824956E-05  0.1910583E+04  0.7818609E-02  0.8649606E-01
        1   -1    0    0  501    0  0.00000000000E+00  0.00000000000E+00  0.63376599546E+03  0.63376599548E+03  0.50400001928E-02 0.  1.
       -1   -1    0    0    0  501  0.00000000000E+00  0.00000000000E+00 -0.14399353544E+04  0.14399353544E+04  0.50400001928E-02 0. -1.
    10030    2    1    2    0    0  0.00000000000E+00  0.00000000000E+00 -0.80616935892E+03  0.20737013499E+04  0.19105832233E+04 0.  0.
        2    1    3    3  502    0  0.67943942491E+03  0.55005986145E+03 -0.82117047887E+03  0.11993851503E+04  0.25500000920E-02 0.  1.
       -2    1    3    3    0  502 -0.67943942491E+03 -0.55005986145E+03  0.15001119942E+02  0.87431619961E+03  0.25500000920E-02 0. -1.
</event>
<event>
 5   0  0.1118206E-04  0.1914538E+04  0.7818609E-02  0.8647653E-01
       -2   -1    0    0    0  501  0.00000000000E+00  0.00000000000E+00  0.78218830009E+03  0.78218830010E+03  0.25500000920E-02 0.  1.
        2   -1    0    0  501    0  0.00000000000E+00  0.00000000000E+00 -0.11715393580E+04  0.11715393580E+04  0.25500000920E-02 0. -1.
    10030    2    1    2    0    0  0.00000000000E+00  0.00000000000E+00 -0.38935105787E+03  0.19537276581E+04  0.19145384602E+04 0.  0.
        1    1    3    3  502    0 -0.89534033780E+03 -0.10029841910E+03 -0.52482578159E+03  0.10426582347E+04  0.50400001928E-02 0.  1.
       -1    1    3    3    0  502  0.89534033780E+03  0.10029841910E+03  0.13547472372E+03  0.91106942335E+03  0.50400001928E-02 0. -1.
</event>
<event>
 5   0  0.5628936E-05  0.1903107E+04  0.7818609E-02  0.8653311E-01
        1   -1    0    0  501    0  0.00000000000E+00  0.00000000000E+00  0.26734685331E+04  0.26734685331E+04  0.50400001928E-02 0. -1.
       -1   -1    0    0    0  501  0.00000000000E+00  0.00000000000E+00 -0.33868150131E+03  0.33868150135E+03  0.50400001928E-02 0.  1.
    10030    2    1    2    0    0  0.00000000000E+00  0.00000000000E+00  0.23347870318E+04  0.30121500345E+04  0.19031072871E+04 0.  0.
        5    1    3    3  502    0 -0.30085793040E+03 -0.71679438907E+03  0.29886321983E+03  0.83285713340E+03  0.46999998093E+01 0.  1.
       -5    1    3    3    0  502  0.30085793040E+03  0.71679438907E+03  0.20359238120E+04  0.21792929011E+04  0.46999998093E+01 0. -1.
</event>
<event>
 5   0  0.5824956E-05  0.1910506E+04  0.7818609E-02  0.8649645E-01
       -1   -1    0    0    0  501  0.00000000000E+00  0.00000000000E+00  0.10420216598E+04  0.10420216599E+04  0.50400001928E-02 0.  1.
        1   -1    0    0  501    0  0.00000000000E+00  0.00000000000E+00 -0.87570939988E+03  0.87570939990E+03  0.50400001928E-02 0. -1.
    10030    2    1    2    0    0  0.00000000000E+00  0.00000000000E+00  0.16631225997E+03  0.19177310598E+04  0.19105058623E+04 0.  0.
        2    1    3    3  502    0 -0.76920927584E+03 -0.22259143499E+03 -0.43965744970E+03  0.91352533083E+03  0.25500000920E-02 0. -1.
       -2    1    3    3    0  502  0.76920927584E+03  0.22259143499E+03  0.60596970967E+03  0.10042057289E+04  0.25500000920E-02 0.  1.
</event>
<event>
 5   0  0.5841424E-05  0.1894540E+04  0.7818609E-02  0.8657579E-01
       -1   -1    0    0    0  501  0.00000000000E+00  0.00000000000E+00  0.92157418729E+03  0.92157418730E+03  0.50400001928E-02 0. -1.
        1   -1    0    0  501    0  0.00000000000E+00  0.00000000000E+00 -0.97368260101E+03  0.97368260102E+03  0.50400001928E-02 0.  1.
    10030    2    1    2    0    0  0.00000000000E+00  0.00000000000E+00 -0.52108413722E+02  0.18952567883E+04  0.18945403155E+04 0.  0.
        1    1    3    3  502    0 -0.80997242497E+03 -0.43527681896E+03  0.20162692896E+03  0.94136850215E+03  0.50400001928E-02 0. -1.
       -1    1    3    3    0  502  0.80997242497E+03  0.43527681896E+03 -0.25373534268E+03  0.95388828617E+03  0.50400001928E-02 0.  1.
</event>
<event>
 5   0  0.1182630E-04  0.1918712E+04  0.7818609E-02  0.8645598E-01
       -2   -1    0    0    0  501  0.00000000000E+00  0.00000000000E+00  0.67754855640E+03  0.67754855641E+03  0.25500000920E-02 0. -1.
        2   -1    0    0  501    0  0.00000000000E+00  0.00000000000E+00 -0.13583732846E+04  0.13583732846E+04  0.25500000920E-02 0.  1.
    10030    2    1    2    0    0  0.00000000000E+00  0.00000000000E+00 -0.68082472818E+03  0.20359218410E+04  0.19187119200E+04 0.  0.
        5    1    3    3  502    0 -0.33638022225E+03 -0.39645753664E+03 -0.11958963020E+04  0.13040399869E+04  0.46999998093E+01 0.  1.
       -5    1    3    3    0  502  0.33638022225E+03  0.39645753664E+03  0.51507157379E+03  0.73188185413E+03  0.46999998093E+01 0. -1.
</event>
<event>
 5   0  0.1182630E-04  0.1904019E+04  0.7818609E-02  0.8652858E-01
        2   -1    0    0  501    0  0.00000000000E+00  0.00000000000E+00  0.58749146594E+03  0.58749146594E+03  0.25500000920E-02 0. -1.
       -2   -1    0    0    0  501  0.00000000000E+00  0.00000000000E+00 -0.15426989762E+04  0.15426989762E+04  0.25500000920E-02 0.  1.
    10030    2    1    2    0    0  0.00000000000E+00  0.00000000000E+00 -0.95520751024E+03  0.21301904421E+04  0.19040194148E+04 0.  0.
        5    1    3    3  502    0  0.87805366603E+02  0.77696593618E+03  0.12996461303E+03  0.79265297516E+03  0.46999998093E+01 0. -1.
       -5    1    3    3    0  502 -0.87805366603E+02 -0.77696593618E+03 -0.10851721233E+04  0.13375374670E+04  0.46999998093E+01 0.  1.
</event>
<event>
 5   0  0.1101678E-04  0.1916323E+04  0.7818609E-02  0.8646774E-01
        2   -1    0    0  501    0  0.00000000000E+00  0.00000000000E+00  0.16639888691E+04  0.16639888691E+04  0.25500000920E-02 0. -1.
       -2   -1    0    0    0  501  0.00000000000E+00  0.00000000000E+00 -0.55173026022E+03  0.55173026023E+03  0.25500000920E-02 0.  1.
    10030    2    1    2    0    0  0.00000000000E+00  0.00000000000E+00  0.11122586089E+04  0.22157191294E+04  0.19163225321E+04 0.  0.
        4    1    3    3  502    0 -0.74220998496E+03  0.53273272333E+03  0.22223638531E+03  0.94025020082E+03  0.12699999809E+01 0.  1.
       -4    1    3    3    0  502  0.74220998496E+03 -0.53273272333E+03  0.89002222361E+03  0.12754689286E+04  0.12699999809E+01 0. -1.
</event>
<event>
 5   0  0.5628936E-05  0.1897052E+04  0.7818609E-02  0.8656325E-01
        1   -1    0    0  501    0  0.00000000000E+00  0.00000000000E+00  0.11023905445E+04  0.11023905445E+04  0.50400001928E-02 0. -1.
       -1   -1    0    0    0  501  0.00000000000E+00  0.00000000000E+00 -0.81613705241E+03  0.81613705243E+03  0.50400001928E-02 0.  1.
    10030    2    1    2    0    0  0.00000000000E+00  0.00000000000E+00  0.28625349204E+03  0.19185275969E+04  0.18970522076E+04 0.  0.
        5    1    3    3  502    0 -0.42065174391E+03 -0.12775029157E+03  0.99312433730E+03  0.10860875038E+04  0.46999998093E+01 0. -1.
       -5    1    3    3    0  502  0.42065174391E+03  0.12775029157E+03 -0.70687084526E+03  0.83244009306E+03  0.46999998093E+01 0.  1.
</event>
<event>
 5   0  0.1141890E-04  0.1897784E+04  0.7818609E-02  0.8655960E-01
       -2   -1    0    0    0  501  0.00000000000E+00  0.00000000000E+00  0.73903011014E+03  0.73903011014E+03  0.25500000920E-02 0.  1.
        2   -1    0    0  501    0  0.00000000000E+00  0.00000000000E+00 -0.12183481942E+04  0.12183481942E+04  0.25500000920E-02 0. -1.
    10030    2    1    2    0    0  0.00000000000E+00  0.00000000000E+00 -0.47931808409E+03  0.19573783044E+04  0.18977839710E+04 0.  0.
        2    1    3    3  502    0  0.82162796579E+02  0.48403296049E+03  0.59784792385E+03  0.77360246383E+03  0.25500000920E-02 0.  1.
       -2    1    3    3    0  502 -0.82162796579E+02 -0.48403296049E+03 -0.10771660079E+04  0.11837758405E+04  0.25500000920E-02 0. -1.
</event>
<event>
 5   0  0.5824956E-05  0.1898430E+04  0.7818609E-02  0.8655638E-01
       -1   -1    0    0    0  501  0.00000000000E+00  0.00000000000E+00  0.10301213801E+04  0.10301213801E+04  0.50400001928E-02 0.  1.
        1   -1    0    0  501    0  0.00000000000E+00  0.00000000000E+00 -0.87466297395E+03  0.87466297396E+03  0.50400001928E-02 0. -1.
    10030    2    1    2    0    0  0.00000000000E+00  0.00000000000E+00  0.15545840616E+03  0.19047843541E+04  0.18984299090E+04 0.  0.
        2    1    3    3  502    0  0.42402486732E+02  0.50759130780E+03  0.88138596968E+03  0.10179823840E+04  0.25500000920E-02 0.  1.
       -2    1    3    3    0  502 -0.42402486732E+02 -0.50759130780E+03 -0.72592756351E+03  0.88680197006E+03  0.25500000920E-02 0. -1.
</event>
<event>
 5   0  0.1141890E-04  0.1900893E+04  0.7818609E-02  0.8654412E-01
       -2   -1    0    0    0  501  0.00000000000E+00  0.00000000000E+00  0.48622411032E+03  0.48622411033E+03  0.25500000920E-02 0.  1.
        2   -1    0    0  501    0  0.00000000000E+00  0.00000000000E+00 -0.18578845036E+04  0.18578845036E+04  0.25500000920E-02 0. -1.
    10030    2    1    2    0    0  0.00000000000E+00  0.00000000000E+00 -0.13716603932E+04  0.23441086139E+04  0.19008926743E+04 0.  0.
        2    1    3    3  502    0 -0.37922707652E+03  0.43965653383E+03 -0.16137689902E+04  0.17150397655E+04  0.25500000920E-02 0. -1.
       -2    1    3    3    0  502  0.37922707652E+03 -0.43965653383E+03  0.24210859700E+03  0.62906884842E+03  0.25500000920E-02 0.  1.
</event>
<event>
 5   0  0.5628936E-05  0.1920721E+04  0.7818609E-02  0.8644610E-01
        1   -1    0    0  501    0  0.00000000000E+00  0.00000000000E+00  0.84866358564E+03  0.84866358565E+03  0.50400001928E-02 0. -1.
       -1   -1    0    0    0  501  0.00000000000E+00  0.00000000000E+00 -0.10867585379E+04  0.10867585379E+04  0.50400001928E-02 0.  1.
    10030    2    1    2    0    0  0.00000000000E+00  0.00000000000E+00 -0.23809495225E+03  0.19354221236E+04  0.19207211120E+04 0.  0.
        5    1    3    3  502    0 -0.35449125553E+03 -0.36214528557E+03  0.70295174512E+03  0.86658900528E+03  0.46999998093E+01 0. -1.
       -5    1    3    3    0  502  0.35449125553E+03  0.36214528557E+03 -0.94104669736E+03  0.10688331183E+04  0.46999998093E+01 0.  1.
</event>
<event>
 5   0  0.1101678E-04  0.1902208E+04  0.7818609E-02  0.8653758E-01
       -2   -1    0    0    0  501  0.00000000000E+00  0.00000000000E+00  0.66771430265E+03  0.66771430266E+03  0.25500000920E-02 0. -1.
        2   -1    0    0  501    0  0.00000000000E+00  0.00000000000E+00 -0.13547691905E+04  0.13547691905E+04  0.25500000920E-02 0.  1.
    10030    2    1    2    0    0  0.00000000000E+00  0.00000000000E+00 -0.68705488788E+03  0.20224834932E+04  0.19022079438E+04 0.  0.
        4    1    3    3  502    0  0.50538972414E+03  0.80427180027E+03 -0.29225761566E+03  0.99382494877E+03  0.12699999809E+01 0.  1.
       -4    1    3    3    0  502 -0.50538972414E+03 -0.80427180027E+03 -0.39479727222E+03  0.10286585444E+04  0.12699999809E+01 0. -1.
</event>
<event>
 5   0  0.5841424E-05  0.1896534E+04  0.7818609E-02  0.8656584E-01
        1   -1    0    0  501    0  0.00000000000E+00  0.00000000000E+00  0.16709513935E+04  0.16709513935E+04  0.50400001928E-02 0. -1.
       -1   -1    0    0    0  501  0.00000000000E+00  0.00000000000E+00 -0.53814250069E+03  0.53814250071E+03  0.50400001928E-02 0.  1.
    10030    2    1    2    0    0  0.00000000000E+00  0.00000000000E+00  0.11328088929E+04  0.22090938943E+04  0.18965336395E+04 0.  0.
        1    1    3    3  502    0 -0.88122571224E+03  0.16754439015E+03  0.20818144363E+03  0.92085253547E+03  0.50400001928E-02 0.  1.
       -1    1    3    3    0  502  0.88122571224E+03 -0.16754439015E+03  0.92462744923E+03  0.12882413588E+04  0.50400001928E-02 0. -1.
</event>
<event>
 5   0  0.5628936E-05  0.1880592E+04  0.7818609E-02  0.8664578E-01
       -1   -1    0    0    0  501  0.00000000000E+00  0.00000000000E+00  0.11159065494E+04  0.11159065494E+04  0.50400001928E-02 0.  1.
        1   -1    0    0  501    0  0.00000000000E+00  0.00000000000E+00 -0.79232127361E+03  0.79232127363E+03  0.50400001928E-02 0. -1.
    10030    2    1    2    0    0  0.00000000000E+00  0.00000000000E+00  0.32358527574E+03  0.19082278230E+04  0.18805919264E+04 0.  0.
        5    1    3    3  502    0 -0.84771434797E+03 -0.32557698483E+03 -0.85748143761E+02  0.91213750223E+03  0.46999998093E+01 0. -1.
       -5    1    3    3    0  502  0.84771434797E+03  0.32557698483E+03  0.40933341950E+03  0.99609032077E+03  0.46999998093E+01 0.  1.
</event>
<event>
 5   0  0.5841424E-05  0.1894387E+04  0.7818609E-02  0.8657655E-01
        1   -1    0    0  501    0  0.00000000000E+00  0.00000000000E+00  0.88835522462E+03  0.88835522463E+03  0.50400001928E-02 0. -1.
       -1   -1    0    0    0  501  0.00000000000E+00  0.00000000000E+00 -0.10099290549E+04  0.10099290549E+04  0.50400001928E-02 0.  1.
    10030    2    1    2    0    0  0.00000000000E+00  0.00000000000E+00 -0.12157383025E+03  0.18982842795E+04  0.18943872386E+04 0.  0.
        1    1    3    3  502    0  0.27942130615E+03  0.48617070661E+03 -0.82572975910E+03  0.99813218433E+03  0.50400001928E-02 0.  1.
       -1    1    3    3    0  502 -0.27942130615E+03 -0.48617070661E+03  0.70415592885E+03  0.90015209518E+03  0.50400001928E-02 0. -1.
</event>
<event>
 5   0  0.1141890E-04  0.1899726E+04  0.7818609E-02  0.8654993E-01
        2   -1    0    0  501    0  0.00000000000E+00  0.00000000000E+00  0.59259809141E+03  0.59259809142E+03  0.25500000920E-02 0. -1.
       -2   -1    0    0    0  501  0.00000000000E+00  0.00000000000E+00 -0.15225158216E+04  0.15225158216E+04  0.25500000920E-02 0.  1.
    10030    2    1    2    0    0  0.00000000000E+00  0.00000000000E+00 -0.92991773014E+03  0.21151139130E+04  0.18997262645E+04 0.  0.
        2    1    3    3  502    0 -0.93835936732E+03 -0.90767094365E+02 -0.59424026310E+03  0.11143960059E+04  0.25500000920E-02 0.  1.
       -2    1    3    3    0  502  0.93835936732E+03  0.90767094365E+02 -0.33567746704E+03  0.10007179071E+04  0.25500000920E-02 0. -1.
</event>
<event>
 5   0  0.1133638E-04  0.1896055E+04  0.7818609E-02  0.8656823E-01
       -2   -1    0    0    0  501  0.00000000000E+00  0.00000000000E+00  0.54474500625E+03  0.54474500626E+03  0.25500000920E-02 0.  1.
        2   -1    0    0  501    0  0.00000000000E+00  0.00000000000E+00 -0.16498652999E+04  0.16498652999E+04  0.25500000920E-02 0. -1.
    10030    2    1    2    0    0  0.00000000000E+00  0.00000000000E+00 -0.11051202937E+04  0.21946103062E+04  0.18960547282E+04 0.  0.
        3    1    3    3  502    0 -0.13424510133E+03  0.91829839205E+03 -0.32853172475E+03  0.98449316323E+03  0.10100000352E+00 0.  1.
       -3    1    3    3    0  502  0.13424510133E+03 -0.91829839205E+03 -0.77658856891E+03  0.12101171429E+04  0.10100000352E+00 0. -1.
</event>
<event>
 5   0  0.5628936E-05  0.1899288E+04  0.7818609E-02  0.8655211E-01
        1   -1    0    0  501    0  0.00000000000E+00  0.00000000000E+00  0.18633736195E+04  0.18633736195E+04  0.50400001928E-02 0. -1.
       -1   -1    0    0    0  501  0.00000000000E+00  0.00000000000E+00 -0.48397383388E+03  0.48397383391E+03  0.50400001928E-02 0.  1.
    10030    2    1    2    0    0  0.00000000000E+00  0.00000000000E+00  0.13793997856E+04  0.23473474534E+04  0.18992883663E+04 0.  0.
        5    1    3    3  502    0  0.45091336774E+03  0.52821092716E+02  0.17205465210E+04  0.17794424278E+04  0.46999998093E+01 0. -1.
       -5    1    3    3    0  502 -0.45091336774E+03 -0.52821092716E+02 -0.34114673537E+03  0.56790502560E+03  0.46999998093E+01 0.  1.
</event>
<event>
 5   0  0.1182630E-04  0.1895582E+04  0.7818609E-02  0.8657059E-01
       -2   -1    0    0    0  501  0.00000000000E+00  0.00000000000E+00  0.54543229403E+03  0.54543229404E+03  0.25500000920E-02 0.  1.
        2   -1    0    0  501    0  0.00000000000E+00  0.00000000000E+00 -0.16469639999E+04  0.16469639999E+04  0.25500000920E-02 0. -1.
    10030    2    1    2    0    0  0.00000000000E+00  0.00000000000E+00 -0.11015317058E+04  0.21923962939E+04  0.18955815495E+04 0.  0.
        5    1    3    3  502    0 -0.91203093061E+03 -0.51290690600E+02 -0.25850475455E+03  0.94935659868E+03  0.46999998093E+01 0. -1.
       -5    1    3    3    0  502  0.91203093061E+03  0.51290690600E+02 -0.84302695129E+03  0.12430396952E+04  0.46999998093E+01 0.  1.
</event>
<event>
 5   0  0.1182630E-04  0.1891123E+04  0.7818609E-02  0.8659288E-01
        2   -1    0    0  501    0  0.00000000000E+00  0.00000000000E+00  0.17594563018E+04  0.17594563018E+04  0.25500000920E-02 0. -1.
       -2   -1    0    0    0  501  0.00000000000E+00  0.00000000000E+00 -0.50816074670E+03  0.50816074671E+03  0.25500000920E-02 0.  1.
    10030    2    1    2    0    0  0.00000000000E+00  0.00000000000E+00  0.12512955551E+04  0.22676170486E+04  0.18911230823E+04 0.  0.
        5    1    3    3  502    0 -0.11688079535E+03  0.32705589104E+03  0.16801867440E+04  0.17157145045E+04  0.46999998093E+01 0. -1.
       -5    1    3    3    0  502  0.11688079535E+03 -0.32705589104E+03 -0.42889118890E+03  0.55190254403E+03  0.46999998093E+01 0.  1.
</event>
<event>
 5   0  0.1182630E-04  0.1903360E+04  0.7818609E-02  0.8653185E-01
        2   -1    0    0  501    0  0.00000000000E+00  0.00000000000E+00  0.23924487320E+04  0.23924487320E+04  0.25500000920E-02 0.  1.
       -2   -1    0    0    0  501  0.00000000000E+00  0.00000000000E+00 -0.37856413591E+03  0.37856413592E+03  0.25500000920E-02 0. -1.
    10030    2    1    2    0    0  0.00000000000E+00  0.00000000000E+00  0.20138845961E+04  0.27710128679E+04  0.19033604881E+04 0.  0.
        5    1    3    3  502    0 -0.73084698926E+03 -0.58970495838E+03  0.12314645393E+04  0.15486821046E+04  0.46999998093E+01 0. -1.
       -5    1    3    3    0  502  0.73084698926E+03  0.58970495838E+03  0.78242005679E+03  0.12223307633E+04  0.46999998093E+01 0.  1.
</event>
<event>
 5   0  0.5841424E-05  0.1904883E+04  0.7818609E-02  0.8652429E-01
       -1   -1    0    0    0  501  0.00000000000E+00  0.00000000000E+00  0.95275267934E+03  0.95275267935E+03  0.50400001928E-02 0. -1.
        1   -1    0    0  501    0  0.00000000000E+00  0.00000000000E+00 -0.95213084503E+03  0.95213084504E+03  0.50400001928E-02 0.  1.
    10030    2    1    2    0    0  0.00000000000E+00  0.00000000000E+00  0.62183431350E+00  0.19048835244E+04  0.19048834229E+04 0.  0.
        1    1    3    3  502    0  0.79906005804E+03 -0.47936911741E+03  0.19742380547E+03  0.95250610816E+03  0.50400001928E-02 0. -1.
       -1    1    3    3    0  502 -0.79906005804E+03  0.47936911741E+03 -0.19680197116E+03  0.95237741624E+03  0.50400001928E-02 0.  1.
</event>
<event>
 5   0  0.1101678E-04  0.1910800E+04  0.7818609E-02  0.8649499E-01
        2   -1    0    0  501    0  0.00000000000E+00  0.00000000000E+00  0.12760963058E+04  0.12760963058E+04  0.25500000920E-02 0.  1.
       -2   -1    0    0    0  501  0.00000000000E+00  0.00000000000E+00 -0.71529834067E+03  0.71529834068E+03  0.25500000920E-02 0. -1.
    10030    2    1    2    0    0  0.00000000000E+00  0.00000000000E+00  0.56079796514E+03  0.19913946465E+04  0.19108004292E+04 0.  0.
        4    1    3    3  502    0 -0.10216161388E+03 -0.52107414836E+03  0.11081488153E+04  0.12288005018E+04  0.12699999809E+01 0.  1.
       -4    1    3    3    0  502  0.10216161388E+03  0.52107414836E+03 -0.54735085018E+03  0.76259414470E+03  0.12699999809E+01 0. -1.
</event>
<event>
 5   0  0.5841424E-05  0.1824706E+04  0.7818609E-02  0.8693270E-01
       -1   -1    0    0    0  501  0.00000000000E+00  0.00000000000E+00  0.69928599920E+03  0.69928599922E+03  0.50400001928E-02 0.  1.
        1   -1    0    0  501    0  0.00000000000E+00  0.00000000000E+00 -0.11903400830E+04  0.11903400830E+04  0.50400001928E-02 0. -1.
    10030    2    1    2    0    0  0.00000000000E+00  0.00000000000E+00 -0.49105408375E+03  0.18896260822E+04  0.18247061729E+04 0.  0.
        1    1    3    3  502    0 -0.62795048715E+03  0.64653667422E+03 -0.98866820622E+02  0.90670068583E+03  0.50400001928E-02 0.  1.
       -1    1    3    3    0  502  0.62795048715E+03 -0.64653667422E+03 -0.39218726313E+03  0.98292539636E+03  0.50400001928E-02 0. -1.
</event>
<event>
 5   0  0.5579109E-05  0.1901073E+04  0.7818609E-02  0.8654322E-01
       -1   -1    0    0    0  501  0.00000000000E+00  0.00000000000E+00  0.35594583531E+03  0.35594583534E+03  0.50400001928E-02 0.  1.
        1   -1    0    0  501    0  0.00000000000E+00  0.00000000000E+00 -0.25383640122E+04  0.25383640122E+04  0.50400001928E-02 0. -1.
    10030    2    1    2    0    0  0.00000000000E+00  0.00000000000E+00 -0.21824181769E+04  0.28943098476E+04  0.19010734849E+04 0.  0.
        3    1    3    3  502    0  0.17776538616E+03  0.14906715268E+03  0.31218148054E+03  0.38894580023E+03  0.10100000352E+00 0.  1.
       -3    1    3    3    0  502 -0.17776538616E+03 -0.14906715268E+03 -0.24945996575E+04  0.25053640473E+04  0.10100000352E+00 0. -1.
</event>
<event>
 5   0  0.5824956E-05  0.1900739E+04  0.7818609E-02  0.8654489E-01
       -1   -1    0    0    0  501  0.00000000000E+00  0.00000000000E+00  0.55230443632E+03  0.55230443634E+03  0.50400001928E-02 0.  1.
        1   -1    0    0  501    0  0.00000000000E+00  0.00000000000E+00 -0.16353341051E+04  0.16353341051E+04  0.50400001928E-02 0. -1.
    10030    2    1    2    0    0  0.00000000000E+00  0.00000000000E+00 -0.10830296688E+04  0.21876385415E+04  0.19007390996E+04 0.  0.
        2    1    3    3  502    0 -0.36269702580E+03  0.97232105940E+01  0.46945341881E+03  0.59332131749E+03  0.25500000920E-02 0.  1.
       -2    1    3    3    0  502  0.36269702580E+03 -0.97232105940E+01 -0.15524830876E+04  0.15943172240E+04  0.25500000920E-02 0. -1.
</event>
<event>
 5   0  0.1101678E-04  0.1900151E+04  0.7818609E-02  0.8654781E-01
       -2   -1    0    0    0  501  0.00000000000E+00  0.00000000000E+00  0.66184618237E+03  0.66184618237E+03  0.25500000920E-02 0. -1.
        2   -1    0    0  501    0  0.00000000000E+00  0.00000000000E+00 -0.13638268015E+04  0.13638268015E+04  0.25500000920E-02 0.  1.
    10030    2    1    2    0    0  0.00000000000E+00  0.00000000000E+00 -0.70198061909E+03  0.20256729838E+04  0.19001511118E+04 0.  0.
        4    1    3    3  502    0  0.83028053356E+03  0.32760488213E+03 -0.69799407606E+03  0.11330878458E+04  0.12699999809E+01 0. -1.
       -4    1    3    3    0  502 -0.83028053356E+03 -0.32760488213E+03 -0.39865430333E+01  0.89258513803E+03  0.12699999809E+01 0.  1.
</event>
<event>
 5   0  0.5614989E-05  0.1897694E+04  0.7818609E-02  0.8656005E-01
       -1   -1    0    0    0  501  0.00000000000E+00  0.00000000000E+00  0.50248148208E+03  0.50248148211E+03  0.50400001928E-02 0.  1.
        1   -1    0    0  501    0  0.00000000000E+00  0.00000000000E+00 -0.17917298315E+04  0.17917298315E+04  0.50400001928E-02 0. -1.
    10030    2    1    2    0    0  0.00000000000E+00  0.00000000000E+00 -0.12892483494E+04  0.22942113136E+04  0.18976944551E+04 0.  0.
        4    1    3    3  502    0  0.33296065386E+03  0.23320447077E+02 -0.17184129985E+04  0.17505289163E+04  0.12699999809E+01 0. -1.
       -4    1    3    3    0  502 -0.33296065386E+03 -0.23320447077E+02  0.42916464910E+03  0.54368239736E+03  0.12699999809E+01 0.  1.
</event>
<event>
 5   0  0.5579109E-05  0.1898597E+04  0.7818609E-02  0.8655555E-01
        1   -1    0    0  501    0  0.00000000000E+00  0.00000000000E+00  0.20327366291E+04  0.20327366291E+04  0.50400001928E-02 0.  1.
       -1   -1    0    0    0  501  0.00000000000E+00  0.00000000000E+00 -0.44332733469E+03  0.44332733472E+03  0.50400001928E-02 0. -1.
    10030    2    1    2    0    0  0.00000000000E+00  0.00000000000E+00  0.15894092944E+04  0.24760639638E+04  0.18985970736E+04 0.  0.
        3    1    3    3  502    0 -0.82990659222E+02 -0.42202914065E+03 -0.30896123433E+03  0.52957822802E+03  0.10100000352E+00 0. -1.
       -3    1    3    3    0  502  0.82990659222E+02  0.42202914065E+03  0.18983705288E+04  0.19464857358E+04  0.10100000352E+00 0.  1.
</event>
<event>
 5   0  0.1118206E-04  0.1911875E+04  0.7818609E-02  0.8648968E-01
       -2   -1    0    0    0  501  0.00000000000E+00  0.00000000000E+00  0.11859148534E+04  0.11859148534E+04  0.25500000920E-02 0.  1.
        2   -1    0    0  501    0  0.00000000000E+00  0.00000000000E+00 -0.77055806110E+03  0.77055806111E+03  0.25500000920E-02 0. -1.
    10030    2    1    2    0    0  0.00000000000E+00  0.00000000000E+00  0.41535679228E+03  0.19564729145E+04  0.19118747345E+04 0.  0.
        1    1    3    3  502    0 -0.32035722853E+03 -0.54798880386E+03 -0.52376472185E+03  0.82295198335E+03  0.50400001928E-02 0. -1.
       -1    1    3    3    0  502  0.32035722853E+03  0.54798880386E+03  0.93912151412E+03  0.11335209311E+04  0.50400001928E-02 0.  1.
</event>
<event>
 5   0  0.1182630E-04  0.1894377E+04  0.7818609E-02  0.8657661E-01
        2   -1    0    0  501    0  0.00000000000E+00  0.00000000000E+00  0.19605091055E+04  0.19605091055E+04  0.25500000920E-02 0.  1.
       -2   -1    0    0    0  501  0.00000000000E+00  0.00000000000E+00 -0.45761870273E+03  0.45761870273E+03  0.25500000920E-02 0. -1.
    10030    2    1    2    0    0  0.00000000000E+00  0.00000000000E+00  0.15028904027E+04  0.24181278082E+04  0.18943765555E+04 0.  0.
        5    1    3    3  502    0  0.68652957448E+03  0.64751858839E+02  0.15802983724E+04  0.17242043660E+04  0.46999998093E+01 0.  1.
       -5    1    3    3    0  502 -0.68652957448E+03 -0.64751858839E+02 -0.77407969683E+02  0.69392344220E+03  0.46999998093E+01 0. -1.
</event>
<event>
 5   0  0.5614989E-05  0.1894063E+04  0.7818609E-02  0.8657817E-01
        1   -1    0    0  501    0  0.00000000000E+00  0.00000000000E+00  0.93555864045E+03  0.93555864046E+03  0.50400001928E-02 0. -1.
       -1   -1    0    0    0  501  0.00000000000E+00  0.00000000000E+00 -0.95864469000E+03  0.95864469001E+03  0.50400001928E-02 0.  1.
    10030    2    1    2    0    0  0.00000000000E+00  0.00000000000E+00 -0.23086049555E+02  0.18942033305E+04  0.18940626419E+04 0.  0.
        4    1    3    3  502    0 -0.39627389087E+03 -0.83445665848E+03 -0.22016292637E+03  0.94964426946E+03  0.12699999809E+01 0.  1.
       -4    1    3    3    0  502  0.39627389087E+03  0.83445665848E+03  0.19707687681E+03  0.94455906102E+03  0.12699999809E+01 0. -1.
</event>
<event>
 5   0  0.1101678E-04  0.1877025E+04  0.7818609E-02  0.8666378E-01
        2   -1    0    0  501    0  0.00000000000E+00  0.00000000000E+00  0.10495979265E+04  0.10495979265E+04  0.25500000920E-02 0. -1.
       -2   -1    0    0    0  501  0.00000000000E+00  0.00000000000E+00 -0.83918378933E+03  0.83918378933E+03  0.25500000920E-02 0.  1.
    10030    2    1    2    0    0  0.00000000000E+00  0.00000000000E+00  0.21041413718E+03  0.18887817158E+04  0.18770248429E+04 0.  0.
        4    1    3    3  502    0  0.14952505536E+03  0.92648272380E+03  0.96436244174E+02  0.94341377019E+03  0.12699999809E+01 0. -1.
       -4    1    3    3    0  502 -0.14952505536E+03 -0.92648272380E+03  0.11397789301E+03  0.94536794566E+03  0.12699999809E+01 0.  1.
</event>
<event>
 5   0  0.1141890E-04  0.1905481E+04  0.7818609E-02  0.8652133E-01
        2   -1    0    0  501    0  0.00000000000E+00  0.00000000000E+00  0.14674163890E+04  0.14674163890E+04  0.25500000920E-02 0.  1.
       -2   -1    0    0    0  501  0.00000000000E+00  0.00000000000E+00 -0.61857969913E+03  0.61857969913E+03  0.25500000920E-02 0. -1.
    10030    2    1    2    0    0  0.00000000000E+00  0.00000000000E+00  0.84883668990E+03  0.20859960882E+04  0.19054805047E+04 0.  0.
        2    1    3    3  502    0  0.29922497604E+02 -0.95227018219E+03  0.42401960029E+03  0.10428357863E+04  0.25500000920E-02 0.  1.
       -2    1    3    3    0  502 -0.29922497604E+02  0.95227018219E+03  0.42481708961E+03  0.10431603019E+04  0.25500000920E-02 0. -1.
</event>
<event>
 5   0  0.5841424E-05  0.1902079E+04  0.7818609E-02  0.8653822E-01
       -1   -1    0    0    0  501  0.00000000000E+00  0.00000000000E+00  0.76854153526E+03  0.76854153527E+03  0.50400001928E-02 0. -1.
        1   -1    0    0  501    0  0.00000000000E+00  0.00000000000E+00 -0.11768729024E+04  0.11768729025E+04  0.50400001928E-02 0.  1.
    10030    2    1    2    0    0  0.00000000000E+00  0.00000000000E+00 -0.40833136718E+03  0.19454144377E+04  0.19020785549E+04 0.  0.
        1    1    3    3  502    0 -0.22724838324E+03  0.40785983553E+03 -0.10515861904E+04  0.11505759379E+04  0.50400001928E-02 0.  1.
       -1    1    3    3    0  502  0.22724838324E+03 -0.40785983553E+03  0.64325482321E+03  0.79483849978E+03  0.50400001928E-02 0. -1.
</event>
<event>
 5   0  0.1141890E-04  0.2031911E+04  0.7818609E-02  0.8591845E-01
       -2   -1    0    0    0  501  0.00000000000E+00  0.00000000000E+00  0.54328781294E+03  0.54328781294E+03  0.25500000920E-02 0. -1.
        2   -1    0    0  501    0  0.00000000000E+00  0.00000000000E+00 -0.18998497528E+04  0.18998497528E+04  0.25500000920E-02 0.  1.
    10030    2    1    2    0    0  0.00000000000E+00  0.00000000000E+00 -0.13565619398E+04  0.24431375657E+04  0.20319106448E+04 0.  0.
        2    1    3    3  502    0 -0.86548283554E+03  0.20387580653E+03 -0.87349324002E+02  0.89345161453E+03  0.25500000920E-02 0. -1.
       -2    1    3    3    0  502  0.86548283554E+03 -0.20387580653E+03 -0.12692126158E+04  0.15496859512E+04  0.25500000920E-02 0.  1.
</event>
<event>
 5   0  0.5824956E-05  0.1887459E+04  0.7818609E-02  0.8661124E-01
        1   -1    0    0  501    0  0.00000000000E+00  0.00000000000E+00  0.66469494277E+03  0.66469494278E+03  0.50400001928E-02 0. -1.
       -1   -1    0    0    0  501  0.00000000000E+00  0.00000000000E+00 -0.13399012808E+04  0.13399012808E+04  0.50400001928E-02 0.  1.
    10030    2    1    2    0    0  0.00000000000E+00  0.00000000000E+00 -0.67520633807E+03  0.20045962236E+04  0.18874592501E+04 0.  0.
        2    1    3    3  502    0  0.56814098460E+03  0.61928448112E+03  0.11837617104E+03  0.84871100194E+03  0.25500000920E-02 0. -1.
       -2    1    3    3    0  502 -0.56814098460E+03 -0.61928448112E+03 -0.79358250912E+03  0.11558852217E+04  0.25500000920E-02 0.  1.
</event>
<event>
 5   0  0.5841424E-05  0.1886747E+04  0.7818609E-02  0.8661481E-01
       -1   -1    0    0    0  501  0.00000000000E+00  0.00000000000E+00  0.95791881849E+03  0.95791881851E+03  0.50400001928E-02 0.  1.
        1   -1    0    0  501    0  0.00000000000E+00  0.00000000000E+00 -0.92904938385E+03  0.92904938386E+03  0.50400001928E-02 0. -1.
    10030    2    1    2    0    0  0.00000000000E+00  0.00000000000E+00  0.28869434645E+02  0.18869682024E+04  0.18867473473E+04 0.  0.
        1    1    3    3  502    0 -0.72684992100E+03 -0.37057100987E+02  0.61472981153E+03  0.95266824110E+03  0.50400001928E-02 0.  1.
       -1    1    3    3    0  502  0.72684992100E+03  0.37057100987E+02 -0.58586037688E+03  0.93429996127E+03  0.50400001928E-02 0. -1.
</event>
<event>
 5   0  0.1118206E-04  0.1894828E+04  0.7818609E-02  0.8657435E-01
       -2   -1    0    0    0  501  0.00000000000E+00  0.00000000000E+00  0.87991474712E+03  0.87991474712E+03  0.25500000920E-02 0.  1.
        2   -1    0    0  501    0  0.00000000000E+00  0.00000000000E+00 -0.10200908368E+04  0.10200908368E+04  0.25500000920E-02 0. -1.
    10030    2    1    2    0    0  0.00000000000E+00  0.00000000000E+00 -0.14017608971E+03  0.19000055840E+04  0.18948276658E+04 0.  0.
        1    1    3    3  502    0 -0.30380642441E+03  0.67510074418E+03 -0.66291730779E+03  0.99373976236E+03  0.50400001928E-02 0. -1.
       -1    1    3    3    0  502  0.30380642441E+03 -0.67510074418E+03  0.52274121807E+03  0.90626582160E+03  0.50400001928E-02 0.  1.
</event>
<event>
 5   0  0.1141890E-04  0.1841463E+04  0.7818609E-02  0.8684555E-01
       -2   -1    0    0    0  501  0.00000000000E+00  0.00000000000E+00  0.50332687839E+03  0.50332687839E+03  0.25500000920E-02 0.  1.
        2   -1    0    0  501    0  0.00000000000E+00  0.00000000000E+00 -0.16842868822E+04  0.16842868822E+04  0.25500000920E-02 0. -1.
    10030    2    1    2    0    0  0.00000000000E+00  0.00000000000E+00 -0.11809600038E+04  0.21876137606E+04  0.18414633949E+04 0.  0.
        2    1    3    3  502    0  0.13385883760E+03 -0.91067739180E+03 -0.61692035900E+03  0.11080804256E+04  0.25500000920E-02 0. -1.
       -2    1    3    3    0  502 -0.13385883760E+03  0.91067739180E+03 -0.56403964480E+03  0.10795333349E+04  0.25500000920E-02 0.  1.
</event>
<event>
 5   0  0.5841424E-05  0.1893785E+04  0.7818609E-02  0.8657956E-01
        1   -1    0    0  501    0  0.00000000000E+00  0.00000000000E+00  0.11688558421E+04  0.11688558421E+04  0.50400001928E-02 0.  1.
       -1   -1    0    0    0  501  0.00000000000E+00  0.00000000000E+00 -0.76707947774E+03  0.76707947775E+03  0.50400001928E-02 0. -1.
    10030    2    1    2    0    0  0.00000000000E+00  0.00000000000E+00  0.40177636432E+03  0.19359353198E+04  0.18937849180E+04 0.  0.
        1    1    3    3  502    0 -0.24746311647E+03  0.48417868435E+03  0.99334415848E+03  0.11324308410E+04  0.50400001928E-02 0.  1.
       -1    1    3    3    0  502  0.24746311647E+03 -0.48417868435E+03 -0.59156779416E+03  0.80350447884E+03  0.50400001928E-02 0. -1.
</event>
<event>
 5   0  0.5824956E-05  0.1897340E+04  0.7818609E-02  0.8656181E-01
       -1   -1    0    0    0  501  0.00000000000E+00  0.00000000000E+00  0.60067201823E+03  0.60067201825E+03  0.50400001928E-02 0.  1.
        1   -1    0    0  501    0  0.00000000000E+00  0.00000000000E+00 -0.14982801705E+04  0.14982801705E+04  0.50400001928E-02 0. -1.
    10030    2    1    2    0    0  0.00000000000E+00  0.00000000000E+00 -0.89760815224E+03  0.20989521887E+04  0.18973402161E+04 0.  0.
        2    1    3    3  502    0  0.48912169659E+03 -0.78315109865E+03 -0.68967761286E+03  0.11524846581E+04  0.25500000920E-02 0. -1.
       -2    1    3    3    0  502 -0.48912169659E+03  0.78315109865E+03 -0.20793053938E+03  0.94646753066E+03  0.25500000920E-02 0.  1.
</event>
<event>
 5   0  0.1118206E-04  0.1872750E+04  0.7818609E-02  0.8668540E-01
       -2   -1    0    0    0  501  0.00000000000E+00  0.00000000000E+00  0.10497218916E+04  0.10497218916E+04  0.25500000920E-02 0.  1.
        2   -1    0    0  501    0  0.00000000000E+00  0.00000000000E+00 -0.83526737535E+03  0.83526737535E+03  0.25500000920E-02 0. -1.
    10030    2    1    2    0    0  0.00000000000E+00  0.00000000000E+00  0.21445451623E+03  0.18849892669E+04  0.18727503296E+04 0.  0.
        1    1    3    3  502    0  0.33731428455E+03  0.66591952720E+03 -0.46177124192E+03  0.87775988924E+03  0.50400001928E-02 0. -1.
       -1    1    3    3    0  502 -0.33731428455E+03 -0.66591952720E+03  0.67622575814E+03  0.10072293777E+04  0.50400001928E-02 0.  1.
</event>
<event>
 5   0  0.5824956E-05  0.1896604E+04  0.7818609E-02  0.8656548E-01
        1   -1    0    0  501    0  0.00000000000E+00  0.00000000000E+00  0.99275246898E+03  0.99275246900E+03  0.50400001928E-02 0.  1.
       -1   -1    0    0    0  501  0.00000000000E+00  0.00000000000E+00 -0.90584218092E+03  0.90584218093E+03  0.50400001928E-02 0. -1.
    10030    2    1    2    0    0  0.00000000000E+00  0.00000000000E+00  0.86910288063E+02  0.18985946499E+04  0.18966043991E+04 0.  0.
        2    1    3    3  502    0 -0.50229641461E+03  0.19066415923E+03  0.82569856486E+03  0.98510539018E+03  0.25500000920E-02 0.  1.
       -2    1    3    3    0  502  0.50229641461E+03 -0.19066415923E+03 -0.73878827679E+03  0.91348925975E+03  0.25500000920E-02 0. -1.
</event>
<event>
 5   0  0.5579109E-05  0.1893639E+04  0.7818609E-02  0.8658029E-01
       -1   -1    0    0    0  501  0.00000000000E+00  0.00000000000E+00  0.57468026299E+03  0.57468026301E+03  0.50400001928E-02 0.  1.
        1   -1    0    0  501    0  0.00000000000E+00  0.00000000000E+00 -0.15599403589E+04  0.15599403590E+04  0.50400001928E-02 0. -1.
    10030    2    1    2    0    0  0.00000000000E+00  0.00000000000E+00 -0.98526009596E+03  0.21346206220E+04  0.18936387573E+04 0.  0.
        3    1    3    3  502    0 -0.25707051018E+03 -0.55072583498E+02 -0.15179699495E+04  0.15405684063E+04  0.10100000352E+00 0. -1.
       -3    1    3    3    0  502  0.25707051018E+03  0.55072583498E+02  0.53270985355E+03  0.59405221566E+03  0.10100000352E+00 0.  1.
</event>
<event>
 5   0  0.1101678E-04  0.1909371E+04  0.7818609E-02  0.8650206E-01
       -2   -1    0    0    0  501  0.00000000000E+00  0.00000000000E+00  0.15299866493E+04  0.15299866493E+04  0.25500000920E-02 0. -1.
        2   -1    0    0  501    0  0.00000000000E+00  0.00000000000E+00 -0.59570722952E+03  0.59570722953E+03  0.25500000920E-02 0.  1.
    10030    2    1    2    0    0  0.00000000000E+00  0.00000000000E+00  0.93427941980E+03  0.21256938788E+04  0.19093706901E+04 0.  0.
        4    1    3    3  502    0  0.76351844864E+03  0.50386422530E+02 -0.16843727572E+03  0.78349980329E+03  0.12699999809E+01 0.  1.
       -4    1    3    3    0  502 -0.76351844864E+03 -0.50386422530E+02  0.11027166955E+04  0.13421940756E+04  0.12699999809E+01 0. -1.
</event>
<event>
 5   0  0.1101678E-04  0.1695268E+04  0.7818609E-02  0.8764068E-01
       -2   -1    0    0    0  501  0.00000000000E+00  0.00000000000E+00  0.53321003579E+03  0.53321003579E+03  0.25500000920E-02 0. -1.
        2   -1    0    0  501    0  0.00000000000E+00  0.00000000000E+00 -0.13474681076E+04  0.13474681076E+04  0.25500000920E-02 0.  1.
    10030    2    1    2    0    0  0.00000000000E+00  0.00000000000E+00 -0.81425807183E+03  0.18806781434E+04  0.16952681415E+04 0.  0.
        4    1    3    3  502    0  0.10553375623E+03 -0.18670835290E+03 -0.13168688954E+04  0.13342198782E+04  0.12699999809E+01 0.  1.
       -4    1    3    3    0  502 -0.10553375623E+03  0.18670835290E+03  0.50261082358E+03  0.54645826522E+03  0.12699999809E+01 0. -1.
</event>
<event>
 5   0  0.1101678E-04  0.1901075E+04  0.7818609E-02  0.8654321E-01
       -2   -1    0    0    0  501  0.00000000000E+00  0.00000000000E+00  0.60520164949E+03  0.60520164949E+03  0.25500000920E-02 0.  1.
        2   -1    0    0  501    0  0.00000000000E+00  0.00000000000E+00 -0.14929269185E+04  0.14929269185E+04  0.25500000920E-02 0. -1.
    10030    2    1    2    0    0  0.00000000000E+00  0.00000000000E+00 -0.88772526902E+03  0.20981285680E+04  0.19010753101E+04 0.  0.
        4    1    3    3  502    0 -0.48911553257E+03 -0.21142512173E+03  0.42486461732E+03  0.68150285564E+03  0.12699999809E+01 0.  1.
       -4    1    3    3    0  502  0.48911553257E+03  0.21142512173E+03 -0.13125898863E+04  0.14166257124E+04  0.12699999809E+01 0. -1.
</event>
<event>
 5   0  0.1133638E-04  0.1888503E+04  0.7818609E-02  0.8660601E-01
        2   -1    0    0  501    0  0.00000000000E+00  0.00000000000E+00  0.25501675463E+04  0.25501675463E+04  0.25500000920E-02 0. -1.
       -2   -1    0    0    0  501  0.00000000000E+00  0.00000000000E+00 -0.34962824025E+03  0.34962824026E+03  0.25500000920E-02 0.  1.
    10030    2    1    2    0    0  0.00000000000E+00  0.00000000000E+00  0.22005393061E+04  0.28997957866E+04  0.18885026784E+04 0.  0.
        3    1    3    3  502    0  0.46305914349E+03  0.51390147388E+03  0.20871698755E+04  0.21988170899E+04  0.10100000352E+00 0.  1.
       -3    1    3    3    0  502 -0.46305914349E+03 -0.51390147388E+03  0.11336943052E+03  0.70097869669E+03  0.10100000352E+00 0. -1.
</event>
<event>
 5   0  0.5841424E-05  0.1895036E+04  0.7818609E-02  0.8657331E-01
        1   -1    0    0  501    0  0.00000000000E+00  0.00000000000E+00  0.10575871276E+04  0.10575871276E+04  0.50400001928E-02 0. -1.
       -1   -1    0    0    0  501  0.00000000000E+00  0.00000000000E+00 -0.84890419182E+03  0.84890419184E+03  0.50400001928E-02 0.  1.
    10030    2    1    2    0    0  0.00000000000E+00  0.00000000000E+00  0.20868293575E+03  0.19064913194E+04  0.18950357736E+04 0.  0.
        1    1    3    3  502    0 -0.65926127260E+03 -0.32559719048E+03  0.70557538192E+03  0.10190562181E+04  0.50400001928E-02 0. -1.
       -1    1    3    3    0  502  0.65926127260E+03  0.32559719048E+03 -0.49689244618E+03  0.88743510134E+03  0.50400001928E-02 0.  1.
</event>
<event>
 5   0  0.1141890E-04  0.2029872E+04  0.7818609E-02  0.8592780E-01
       -2   -1    0    0    0  501  0.00000000000E+00  0.00000000000E+00  0.67269976706E+03  0.67269976706E+03  0.25500000920E-02 0.  1.
        2   -1    0    0  501    0  0.00000000000E+00  0.00000000000E+00 -0.15312854906E+04  0.15312854906E+04  0.25500000920E-02 0. -1.
    10030    2    1    2    0    0  0.00000000000E+00  0.00000000000E+00 -0.85858572355E+03  0.22039852577E+04  0.20298723042E+04 0.  0.
        2    1    3    3  502    0 -0.14706033781E+03 -0.65274050560E+03  0.39931697450E+03  0.77919891988E+03  0.25500000920E-02 0.  1.
       -2    1    3    3    0  502  0.14706033781E+03  0.65274050560E+03 -0.12579026981E+04  0.14247863378E+04  0.25500000920E-02 0. -1.
</event>
<event>
 5   0  0.1118206E-04  0.1897273E+04  0.7818609E-02  0.8656215E-01
       -2   -1    0    0    0  501  0.00000000000E+00  0.00000000000E+00  0.45392419658E+03  0.45392419658E+03  0.25500000920E-02 0.  1.
        2   -1    0    0  501    0  0.00000000000E+00  0.00000000000E+00 -0.19825152761E+04  0.19825152761E+04  0.25500000920E-02 0. -1.
    10030    2    1    2    0    0  0.00000000000E+00  0.00000000000E+00 -0.15285910795E+04  0.24364394727E+04  0.18972734689E+04 0.  0.
        1    1    3    3  502    0  0.92611877969E+03 -0.19101313136E+03 -0.86150073827E+03  0.12792050393E+04  0.50400001928E-02 0. -1.
       -1    1    3    3    0  502 -0.92611877969E+03  0.19101313136E+03 -0.66709034127E+03  0.11572344334E+04  0.50400001928E-02 0.  1.
</event>
<event>
 5   0  0.5824956E-05  0.1892935E+04  0.7818609E-02  0.8658381E-01
        1   -1    0    0  501    0  0.00000000000E+00  0.00000000000E+00  0.56538512597E+03  0.56538512599E+03  0.50400001928E-02 0.  1.
       -1   -1    0    0    0  501  0.00000000000E+00  0.00000000000E+00 -0.15844082855E+04  0.15844082855E+04  0.50400001928E-02 0. -1.
    10030    2    1    2    0    0  0.00000000000E+00  0.00000000000E+00 -0.10190231595E+04  0.21497934115E+04  0.18929351580E+04 0.  0.
        2    1    3    3  502    0  0.20831171412E+03 -0.31011016687E+03  0.47810976085E+03  0.60675450494E+03  0.25500000920E-02 0.  1.
       -2    1    3    3    0  502 -0.20831171412E+03  0.31011016687E+03 -0.14971329204E+04  0.15430389066E+04  0.25500000920E-02 0. -1.
</event>
<event>
 5   0  0.5824956E-05  0.1901558E+04  0.7818609E-02  0.8654081E-01
        1   -1    0    0  501    0  0.00000000000E+00  0.00000000000E+00  0.17354232997E+04  0.17354232997E+04  0.50400001928E-02 0.  1.
       -1   -1    0    0    0  501  0.00000000000E+00  0.00000000000E+00 -0.52089951519E+03  0.52089951521E+03  0.50400001928E-02 0. -1.
    10030    2    1    2    0    0  0.00000000000E+00  0.00000000000E+00  0.12145237845E+04  0.22563228149E+04  0.19015584719E+04 0.  0.
        2    1    3    3  502    0 -0.58999211641E+03  0.67271315504E+03  0.22580850712E+03  0.92283431248E+03  0.25500000920E-02 0. -1.
       -2    1    3    3    0  502  0.58999211641E+03 -0.67271315504E+03  0.98871527740E+03  0.13334885025E+04  0.25500000920E-02 0.  1.
</event>
<event>
 5   0  0.1101678E-04  0.1910048E+04  0.7818609E-02  0.8649871E-01
       -2   -1    0    0    0  501  0.00000000000E+00  0.00000000000E+00  0.67702453638E+03  0.67702453638E+03  0.25500000920E-02 0.  1.
        2   -1    0    0  501    0  0.00000000000E+00  0.00000000000E+00 -0.13471760775E+04  0.13471760775E+04  0.25500000920E-02 0. -1.
    10030    2    1    2    0    0  0.00000000000E+00  0.00000000000E+00 -0.67015154117E+03  0.20242006139E+04  0.19100484385E+04 0.  0.
        4    1    3    3  502    0  0.60817614883E+03 -0.34710705729E+03  0.35312498863E+03  0.78425787068E+03  0.12699999809E+01 0.  1.
       -4    1    3    3    0  502 -0.60817614883E+03  0.34710705729E+03 -0.10232765298E+04  0.12399427433E+04  0.12699999809E+01 0. -1.
</event>
<event>
 5   0  0.1101678E-04  0.1892751E+04  0.7818609E-02  0.8658473E-01
        2   -1    0    0  501    0  0.00000000000E+00  0.00000000000E+00  0.12377273966E+04  0.12377273966E+04  0.25500000920E-02 0. -1.
       -2   -1    0    0    0  501  0.00000000000E+00  0.00000000000E+00 -0.72360559841E+03  0.72360559841E+03  0.25500000920E-02 0.  1.
    10030    2    1    2    0    0  0.00000000000E+00  0.00000000000E+00  0.51412179824E+03  0.19613329951E+04  0.18927508801E+04 0.  0.
        4    1    3    3  502    0 -0.55389129333E+03 -0.73499375816E+03  0.28587210013E+02  0.92077697128E+03  0.12699999809E+01 0.  1.
       -4    1    3    3    0  502  0.55389129333E+03  0.73499375816E+03  0.48553458823E+03  0.10405560238E+04  0.12699999809E+01 0. -1.
</event>
<event>
 5   0  0.1101678E-04  0.1883118E+04  0.7818609E-02  0.8663306E-01
       -2   -1    0    0    0  501  0.00000000000E+00  0.00000000000E+00  0.42185677398E+03  0.42185677398E+03  0.25500000920E-02 0.  1.
        2   -1    0    0  501    0  0.00000000000E+00  0.00000000000E+00 -0.21015029908E+04  0.21015029908E+04  0.25500000920E-02 0. -1.
    10030    2    1    2    0    0  0.00000000000E+00  0.00000000000E+00 -0.16796462168E+04  0.25233597647E+04  0.18831179169E+04 0.  0.
        4    1    3    3  502    0 -0.73417957288E+03  0.45409619694E+03 -0.13435394545E+04  0.15969730367E+04  0.12699999809E+01 0. -1.
       -4    1    3    3    0  502  0.73417957288E+03 -0.45409619694E+03 -0.33610676229E+03  0.92638672803E+03  0.12699999809E+01 0.  1.
</event>
<event>
 5   0  0.5579109E-05  0.1868718E+04  0.7818609E-02  0.8670586E-01
       -1   -1    0    0    0  501  0.00000000000E+00  0.00000000000E+00  0.60028537913E+03  0.60028537915E+03  0.50400001928E-02 0. -1.
        1   -1    0    0  501    0  0.00000000000E+00  0.00000000000E+00 -0.14543527171E+04  0.14543527171E+04  0.50400001928E-02 0.  1.
    10030    2    1    2    0    0  0.00000000000E+00  0.00000000000E+00 -0.85406733793E+03  0.20546380962E+04  0.18687179265E+04 0.  0.
        3    1    3    3  502    0  0.71407516527E+03  0.57362530849E+03 -0.22406718068E+03  0.94295039522E+03  0.10100000352E+00 0. -1.
       -3    1    3    3    0  502 -0.71407516527E+03 -0.57362530849E+03 -0.63000015725E+03  0.11116877010E+04  0.10100000352E+00 0.  1.
</event>
<event>
 5   0  0.5628936E-05  0.1871056E+04  0.7818609E-02  0.8669399E-01
        1   -1    0    0  501    0  0.00000000000E+00  0.00000000000E+00  0.12475636472E+04  0.12475636472E+04  0.50400001928E-02 0.  1.
       -1   -1    0    0    0  501  0.00000000000E+00  0.00000000000E+00 -0.70153766372E+03  0.70153766374E+03  0.50400001928E-02 0. -1.
    10030    2    1    2    0    0  0.00000000000E+00  0.00000000000E+00  0.54602598350E+03  0.19491013110E+04  0.18710562647E+04 0.  0.
        5    1    3    3  502    0  0.48343502161E+03 -0.68028705938E+03 -0.16733779437E+03  0.85118971487E+03  0.46999998093E+01 0. -1.
       -5    1    3    3    0  502 -0.48343502161E+03  0.68028705938E+03  0.71336377787E+03  0.10979115961E+04  0.46999998093E+01 0.  1.
</event>
<event>
 5   0  0.1141890E-04  0.1881012E+04  0.7818609E-02  0.8664366E-01
       -2   -1    0    0    0  501  0.00000000000E+00  0.00000000000E+00  0.13353701034E+04  0.13353701034E+04  0.25500000920E-02 0. -1.
        2   -1    0    0  501    0  0.00000000000E+00  0.00000000000E+00 -0.66240198747E+03  0.66240198747E+03  0.25500000920E-02 0.  1.
    10030    2    1    2    0    0  0.00000000000E+00  0.00000000000E+00  0.67296811595E+03  0.19977720909E+04  0.18810122918E+04 0.  0.
        2    1    3    3  502    0  0.80189666824E+03 -0.46239737324E+03  0.51325527087E+03  0.10584330732E+04  0.25500000920E-02 0.  1.
       -2    1    3    3    0  502 -0.80189666824E+03  0.46239737324E+03  0.15971284508E+03  0.93933901772E+03  0.25500000920E-02 0. -1.
</event>
<event>
 5   0  0.5824956E-05  0.1816709E+04  0.7818609E-02  0.8697464E-01
       -1   -1    0    0    0  501  0.00000000000E+00  0.00000000000E+00  0.68386593674E+03  0.68386593676E+03  0.50400001928E-02 0.  1.
        1   -1    0    0  501    0  0.00000000000E+00  0.00000000000E+00 -0.12065340344E+04  0.12065340344E+04  0.50400001928E-02 0. -1.
    10030    2    1    2    0    0  0.00000000000E+00  0.00000000000E+00 -0.52266809768E+03  0.18903999712E+04  0.18167085927E+04 0.  0.
        2    1    3    3  502    0  0.59743400033E+03 -0.60517064635E+03 -0.59357956788E+03  0.10370610394E+04  0.25500000920E-02 0. -1.
       -2    1    3    3    0  502 -0.59743400033E+03  0.60517064635E+03  0.70911470193E+02  0.85333893183E+03  0.25500000920E-02 0.  1.
</event>
<event>
 5   0  0.5824956E-05  0.1899320E+04  0.7818609E-02  0.8655195E-01
       -1   -1    0    0    0  501  0.00000000000E+00  0.00000000000E+00  0.48054727387E+03  0.48054727390E+03  0.50400001928E-02 0. -1.
        1   -1    0    0  501    0  0.00000000000E+00  0.00000000000E+00 -0.18767236496E+04  0.18767236496E+04  0.50400001928E-02 0.  1.
    10030    2    1    2    0    0  0.00000000000E+00  0.00000000000E+00 -0.13961763757E+04  0.23572709235E+04  0.18993203349E+04 0.  0.
        2    1    3    3  502    0 -0.72620681501E+03  0.25867338426E+03 -0.97837532269E+01  0.77096302098E+03  0.25500000920E-02 0. -1.
       -2    1    3    3    0  502  0.72620681501E+03 -0.25867338426E+03 -0.13863926225E+04  0.15863079025E+04  0.25500000920E-02 0.  1.
</event>
<event>
 5   0  0.5841424E-05  0.1889681E+04  0.7818609E-02  0.8660010E-01
       -1   -1    0    0    0  501  0.00000000000E+00  0.00000000000E+00  0.98049752822E+03  0.98049752823E+03  0.50400001928E-02 0.  1.
        1   -1    0    0  501    0  0.00000000000E+00  0.00000000000E+00 -0.91047978389E+03  0.91047978390E+03  0.50400001928E-02 0. -1.
    10030    2    1    2    0    0  0.00000000000E+00  0.00000000000E+00  0.70017744334E+02  0.18909773121E+04  0.18896805842E+04 0.  0.
        1    1    3    3  502    0 -0.82614699605E+03 -0.45249657503E+03  0.10889156308E+03  0.94822433107E+03  0.50400001928E-02 0. -1.
       -1    1    3    3    0  502  0.82614699605E+03  0.45249657503E+03 -0.38873818749E+02  0.94275298106E+03  0.50400001928E-02 0.  1.
</event>
<event>
 5   0  0.1141890E-04  0.1904018E+04  0.7818609E-02  0.8652859E-01
       -2   -1    0    0    0  501  0.00000000000E+00  0.00000000000E+00  0.47610711672E+03  0.47610711673E+03  0.25500000920E-02 0.  1.
        2   -1    0    0  501    0  0.00000000000E+00  0.00000000000E+00 -0.19036077336E+04  0.19036077336E+04  0.25500000920E-02 0. -1.
    10030    2    1    2    0    0  0.00000000000E+00  0.00000000000E+00 -0.14275006169E+04  0.23797148504E+04  0.19040180561E+04 0.  0.
        2    1    3    3  502    0 -0.43465948249E+03 -0.63378361735E+03 -0.11489431489E+02  0.76859777933E+03  0.25500000920E-02 0.  1.
       -2    1    3    3    0  502  0.43465948249E+03  0.63378361735E+03 -0.14160111854E+04  0.16111170710E+04  0.25500000920E-02 0. -1.
</event>
<event>
 5   0  0.1101678E-04  0.1887209E+04  0.7818609E-02  0.8661250E-01
       -2   -1    0    0    0  501  0.00000000000E+00  0.00000000000E+00  0.79461160420E+03  0.79461160420E+03  0.25500000920E-02 0.  1.
        2   -1    0    0  501    0  0.00000000000E+00  0.00000000000E+00 -0.11205335769E+04  0.11205335769E+04  0.25500000920E-02 0. -1.
    10030    2    1    2    0    0  0.00000000000E+00  0.00000000000E+00 -0.32592197270E+03  0.19151451811E+04  0.18872085026E+04 0.  0.
        4    1    3    3  502    0  0.17690345842E+03 -0.29876186822E+03  0.72742912560E+03  0.80604480842E+03  0.12699999809E+01 0.  1.
       -4    1    3    3    0  502 -0.17690345842E+03  0.29876186822E+03 -0.10533510983E+04  0.11091003727E+04  0.12699999809E+01 0. -1.
</event>
<event>
 5   0  0.5579109E-05  0.1889129E+04  0.7818609E-02  0.8660286E-01
       -1   -1    0    0    0  501  0.00000000000E+00  0.00000000000E+00  0.47309578335E+03  0.47309578337E+03  0.50400001928E-02 0. -1.
        1   -1    0    0  501    0  0.00000000000E+00  0.00000000000E+00 -0.18858809409E+04  0.18858809409E+04  0.50400001928E-02 0.  1.
    10030    2    1    2    0    0  0.00000000000E+00  0.00000000000E+00 -0.14127851576E+04  0.23589767243E+04  0.18891292397E+04 0.  0.
        3    1    3    3  502    0  0.67099035353E+01 -0.28707094917E+02  0.47252114977E+03  0.47343992996E+03  0.10100000352E+00 0. -1.
       -3    1    3    3    0  502 -0.67099035353E+01  0.28707094917E+02 -0.18853063073E+04  0.18855367943E+04  0.10100000352E+00 0.  1.
</event>
<event>
 5   0  0.1118206E-04  0.1907793E+04  0.7818609E-02  0.8650987E-01
       -2   -1    0    0    0  501  0.00000000000E+00  0.00000000000E+00  0.11008338401E+04  0.11008338401E+04  0.25500000920E-02 0. -1.
        2   -1    0    0  501    0  0.00000000000E+00  0.00000000000E+00 -0.82657168726E+03  0.82657168726E+03  0.25500000920E-02 0.  1.
    10030    2    1    2    0    0  0.00000000000E+00  0.00000000000E+00  0.27426215285E+03  0.19274055274E+04  0.19077925302E+04 0.  0.
        1    1    3    3  502    0 -0.68560870162E+03  0.99814138685E+02 -0.52527395586E+03  0.86944515799E+03  0.50400001928E-02 0.  1.
       -1    1    3    3    0  502  0.68560870162E+03 -0.99814138685E+02  0.79953610871E+03  0.10579603694E+04  0.50400001928E-02 0. -1.
</event>
<event>
 5   0  0.5824956E-05  0.1840879E+04  0.7818609E-02  0.8684857E-01
        1   -1    0    0  501    0  0.00000000000E+00  0.00000000000E+00  0.12792967366E+04  0.12792967366E+04  0.50400001928E-02 0.  1.
       -1   -1    0    0    0  501  0.00000000000E+00  0.00000000000E+00 -0.66224610400E+03  0.66224610402E+03  0.50400001928E-02 0. -1.
    10030    2    1    2    0    0  0.00000000000E+00  0.00000000000E+00  0.61705063261E+03  0.19415428406E+04  0.18408794417E+04 0.  0.
        2    1    3    3  502    0  0.85948512911E+03  0.32449241488E+03  0.36818030295E+03  0.98973064516E+03  0.25500000920E-02 0.  1.
       -2    1    3    3    0  502 -0.85948512911E+03 -0.32449241488E+03  0.24887032965E+03  0.95181219548E+03  0.25500000920E-02 0. -1.
</event>
<event>
 5   0  0.5841424E-05  0.1898892E+04  0.7818609E-02  0.8655408E-01
       -1   -1    0    0    0  501  0.00000000000E+00  0.00000000000E+00  0.57921872840E+03  0.57921872843E+03  0.50400001928E-02 0.  1.
        1   -1    0    0  501    0  0.00000000000E+00  0.00000000000E+00 -0.15563164545E+04  0.15563164545E+04  0.50400001928E-02 0. -1.
    10030    2    1    2    0    0  0.00000000000E+00  0.00000000000E+00 -0.97709772608E+03  0.21355351829E+04  0.18988919272E+04 0.  0.
        1    1    3    3  502    0  0.55763561005E+03  0.58931951342E+03  0.66053515450E+02  0.81401353148E+03  0.50400001928E-02 0.  1.
       -1    1    3    3    0  502 -0.55763561005E+03 -0.58931951342E+03 -0.10431512415E+04  0.13215216514E+04  0.50400001928E-02 0. -1.
</event>
<event>
 5   0  0.5579109E-05  0.1901622E+04  0.7818609E-02  0.8654050E-01
        1   -1    0    0  501    0  0.00000000000E+00  0.00000000000E+00  0.23314459316E+04  0.23314459316E+04  0.50400001928E-02 0.  1.
       -1   -1    0    0    0  501  0.00000000000E+00  0.00000000000E+00 -0.38775993349E+03  0.38775993353E+03  0.50400001928E-02 0. -1.
    10030    2    1    2    0    0  0.00000000000E+00  0.00000000000E+00  0.19436859981E+04  0.27192058652E+04  0.19016217494E+04 0.  0.
        3    1    3    3  502    0 -0.36919649552E+03 -0.58296389902E+03  0.36473545059E+02  0.69100165669E+03  0.10100000352E+00 0. -1.
       -3    1    3    3    0  502  0.36919649552E+03  0.58296389902E+03  0.19072124531E+04  0.20282042085E+04  0.10100000352E+00 0.  1.
</event>
<event>
 5   0  0.5841424E-05  0.1900059E+04  0.7818609E-02  0.8654827E-01
       -1   -1    0    0    0  501  0.00000000000E+00  0.00000000000E+00  0.11698285233E+04  0.11698285233E+04  0.50400001928E-02 0.  1.
        1   -1    0    0  501    0  0.00000000000E+00  0.00000000000E+00 -0.77152862125E+03  0.77152862126E+03  0.50400001928E-02 0. -1.
    10030    2    1    2    0    0  0.00000000000E+00  0.00000000000E+00  0.39829990203E+03  0.19413571446E+04  0.19000591440E+04 0.  0.
        1    1    3    3  502    0 -0.58668630629E+03  0.74574122959E+03  0.24734926035E+03  0.98056741743E+03  0.50400001928E-02 0. -1.
       -1    1    3    3    0  502  0.58668630629E+03 -0.74574122959E+03  0.15095064168E+03  0.96078972713E+03  0.50400001928E-02 0.  1.
</event>
<event>
 5   0  0.5841424E-05  0.1893851E+04  0.7818609E-02  0.8657923E-01
       -1   -1    0    0    0  501  0.00000000000E+00  0.00000000000E+00  0.38758762780E+03  0.38758762783E+03  0.50400001928E-02 0.  1.
        1   -1    0    0  501    0  0.00000000000E+00  0.00000000000E+00 -0.23134577819E+04  0.23134577819E+04  0.50400001928E-02 0. -1.
    10030    2    1    2    0    0  0.00000000000E+00  0.00000000000E+00 -0.19258701541E+04  0.27010454097E+04  0.18938506950E+04 0.  0.
        1    1    3    3  502    0 -0.52576879677E+03  0.47002833210E+03 -0.18641746160E+04  0.19931147633E+04  0.50400001928E-02 0. -1.
       -1    1    3    3    0  502  0.52576879677E+03 -0.47002833210E+03 -0.61695538016E+02  0.70793064638E+03  0.50400001928E-02 0.  1.
</event>
<event>
 5   0  0.5824956E-05  0.1885459E+04  0.7818609E-02  0.8662128E-01
        1   -1    0    0  501    0  0.00000000000E+00  0.00000000000E+00  0.18659024342E+04  0.18659024342E+04  0.50400001928E-02 0.  1.
       -1   -1    0    0    0  501  0.00000000000E+00  0.00000000000E+00 -0.47630538419E+03  0.47630538422E+03  0.50400001928E-02 0. -1.
    10030    2    1    2    0    0  0.00000000000E+00  0.00000000000E+00  0.13895970500E+04  0.23422078184E+04  0.18854594939E+04 0.  0.
        2    1    3    3  502    0  0.84862714139E+03 -0.12183121762E+03  0.20773520848E+03  0.88213649032E+03  0.25500000920E-02 0.  1.
       -2    1    3    3    0  502 -0.84862714139E+03  0.12183121762E+03  0.11818618415E+04  0.14600713281E+04  0.25500000920E-02 0. -1.
</event>
<event>
 5   0  0.5841424E-05  0.1891361E+04  0.7818609E-02  0.8659169E-01
        1   -1    0    0  501    0  0.00000000000E+00  0.00000000000E+00  0.13414767207E+04  0.13414767207E+04  0.50400001928E-02 0.  1.
       -1   -1    0    0    0  501  0.00000000000E+00  0.00000000000E+00 -0.66666170071E+03  0.66666170073E+03  0.50400001928E-02 0. -1.
    10030    2    1    2    0    0  0.00000000000E+00  0.00000000000E+00  0.67481502000E+03  0.20081384214E+04  0.18913605179E+04 0.  0.
        1    1    3    3  502    0  0.54154773023E+03  0.73043338044E+03  0.61549882667E+02  0.91136998824E+03  0.50400001928E-02 0. -1.
       -1    1    3    3    0  502 -0.54154773023E+03 -0.73043338044E+03  0.61326513733E+03  0.10967684332E+04  0.50400001928E-02 0.  1.
</event>
<event>
 5   0  0.1141890E-04  0.1948532E+04  0.7818609E-02  0.8631069E-01
       -2   -1    0    0    0  501  0.00000000000E+00  0.00000000000E+00  0.46224293512E+03  0.46224293513E+03  0.25500000920E-02 0. -1.
        2   -1    0    0  501    0  0.00000000000E+00  0.00000000000E+00 -0.20534525878E+04  0.20534525878E+04  0.25500000920E-02 0.  1.
    10030    2    1    2    0    0  0.00000000000E+00  0.00000000000E+00 -0.15912096527E+04  0.25156955230E+04  0.19485317050E+04 0.  0.
        2    1    3    3  502    0 -0.12694098264E+03  0.21537377034E+03 -0.20113358629E+04  0.20268132196E+04  0.25500000920E-02 0.  1.
       -2    1    3    3    0  502  0.12694098264E+03 -0.21537377034E+03  0.42012621017E+03  0.48888230332E+03  0.25500000920E-02 0. -1.
</event>
<event>
 5   0  0.5824956E-05  0.1900140E+04  0.7818609E-02  0.8654787E-01
       -1   -1    0    0    0  501  0.00000000000E+00  0.00000000000E+00  0.10578096041E+04  0.10578096041E+04  0.50400001928E-02 0.  1.
        1   -1    0    0  501    0  0.00000000000E+00  0.00000000000E+00 -0.85330380879E+03  0.85330380880E+03  0.50400001928E-02 0. -1.
    10030    2    1    2    0    0  0.00000000000E+00  0.00000000000E+00  0.20450579534E+03  0.19111134129E+04  0.19001399572E+04 0.  0.
        2    1    3    3  502    0 -0.27748763871E+03 -0.73133963298E+03 -0.44009765372E+03  0.89752046952E+03  0.25500000920E-02 0. -1.
       -2    1    3    3    0  502  0.27748763871E+03  0.73133963298E+03  0.64460344906E+03  0.10135929434E+04  0.25500000920E-02 0.  1.
</event>
<event>
 5   0  0.5628936E-05  0.1889226E+04  0.7818609E-02  0.8660238E-01
       -1   -1    0    0    0  501  0.00000000000E+00  0.00000000000E+00  0.85698962992E+03  0.85698962993E+03  0.50400001928E-02 0. -1.
        1   -1    0    0  501    0  0.00000000000E+00  0.00000000000E+00 -0.10411960183E+04  0.10411960183E+04  0.50400001928E-02 0.  1.
    10030    2    1    2    0    0  0.00000000000E+00  0.00000000000E+00 -0.18420638841E+03  0.18981856483E+04  0.18892264983E+04 0.  0.
        5    1    3    3  502    0  0.72324971306E+03  0.55442236301E+03  0.15766731067E+03  0.92485424522E+03  0.46999998093E+01 0. -1.
       -5    1    3    3    0  502 -0.72324971306E+03 -0.55442236301E+03 -0.34187369908E+03  0.97333140305E+03  0.46999998093E+01 0.  1.
</event>
<event>
 5   0  0.1118206E-04  0.1902496E+04  0.7818609E-02  0.8653615E-01
       -2   -1    0    0    0  501  0.00000000000E+00  0.00000000000E+00  0.82750282064E+03  0.82750282064E+03  0.25500000920E-02 0.  1.
        2   -1    0    0  501    0  0.00000000000E+00  0.00000000000E+00 -0.10934982079E+04  0.10934982079E+04  0.25500000920E-02 0. -1.
    10030    2    1    2    0    0  0.00000000000E+00  0.00000000000E+00 -0.26599538721E+03  0.19210010285E+04  0.19024960987E+04 0.  0.
        1    1    3    3  502    0  0.91928889458E+03 -0.19626279772E+03  0.14234489934E+02  0.94011370493E+03  0.50400001928E-02 0.  1.
       -1    1    3    3    0  502 -0.91928889458E+03  0.19626279772E+03 -0.28022987715E+03  0.98088732357E+03  0.50400001928E-02 0. -1.
</event>
<event>
 5   0  0.1118206E-04  0.1893143E+04  0.7818609E-02  0.8658277E-01
       -2   -1    0    0    0  501  0.00000000000E+00  0.00000000000E+00  0.65188720309E+03  0.65188720309E+03  0.25500000920E-02 0.  1.
        2   -1    0    0  501    0  0.00000000000E+00  0.00000000000E+00 -0.13744677267E+04  0.13744677267E+04  0.25500000920E-02 0. -1.
    10030    2    1    2    0    0  0.00000000000E+00  0.00000000000E+00 -0.72258052357E+03  0.20263549298E+04  0.18931433354E+04 0.  0.
        1    1    3    3  502    0 -0.53157943044E+02  0.77015563942E+03 -0.94758518261E+03  0.12222451285E+04  0.50400001928E-02 0.  1.
       -1    1    3    3    0  502  0.53157943044E+02 -0.77015563942E+03  0.22500465904E+03  0.80410980124E+03  0.50400001928E-02 0. -1.
</event>
<event>
 5   0  0.1141890E-04  0.1908598E+04  0.7818609E-02  0.8650588E-01
        2   -1    0    0  501    0  0.00000000000E+00  0.00000000000E+00  0.61689752815E+03  0.61689752816E+03  0.25500000920E-02 0. -1.
       -2   -1    0    0    0  501  0.00000000000E+00  0.00000000000E+00 -0.14762369422E+04  0.14762369422E+04  0.25500000920E-02 0.  1.
    10030    2    1    2    0    0  0.00000000000E+00  0.00000000000E+00 -0.85933941405E+03  0.20931344704E+04  0.19085983555E+04 0.  0.
        2    1    3    3  502    0 -0.75724685032E+03  0.47389406382E+03 -0.79781772735E+03  0.11977109426E+04  0.25500000920E-02 0.  1.
       -2    1    3    3    0  502  0.75724685032E+03 -0.47389406382E+03 -0.61521686696E+02  0.89542352772E+03  0.25500000920E-02 0. -1.
</event>
<event>
 5   0  0.1182630E-04  0.1887889E+04  0.7818609E-02  0.8660908E-01
       -2   -1    0    0    0  501  0.00000000000E+00  0.00000000000E+00  0.39357439584E+03  0.39357439585E+03  0.25500000920E-02 0. -1.
        2   -1    0    0  501    0  0.00000000000E+00  0.00000000000E+00 -0.22639459510E+04  0.22639459510E+04  0.25500000920E-02 0.  1.
    10030    2    1    2    0    0  0.00000000000E+00  0.00000000000E+00 -0.18703715551E+04  0.26575203468E+04  0.18878889373E+04 0.  0.
        5    1    3    3  502    0 -0.19433882259E+02 -0.26087105010E+03  0.34151352087E+03  0.43021501077E+03  0.46999998093E+01 0. -1.
       -5    1    3    3    0  502  0.19433882259E+02  0.26087105010E+03 -0.22118850760E+04  0.22273053361E+04  0.46999998093E+01 0.  1.
</event>
<event>
 5   0  0.5614989E-05  0.1874491E+04  0.7818609E-02  0.8667659E-01
        1   -1    0    0  501    0  0.00000000000E+00  0.00000000000E+00  0.18866315350E+04  0.18866315350E+04  0.50400001928E-02 0.  1.
       -1   -1    0    0    0  501  0.00000000000E+00  0.00000000000E+00 -0.46560699156E+03  0.46560699158E+03  0.50400001928E-02 0. -1.
    10030    2    1    2    0    0  0.00000000000E+00  0.00000000000E+00  0.14210245435E+04  0.23522385266E+04  0.18744906863E+04 0.  0.
        4    1    3    3  502    0  0.17922252030E+03  0.84103326379E+03  0.24271475754E+03  0.89351537705E+03  0.12699999809E+01 0. -1.
       -4    1    3    3    0  502 -0.17922252030E+03 -0.84103326379E+03  0.11783097859E+04  0.14587231496E+04  0.12699999809E+01 0.  1.
</event>
<event>
 5   0  0.1118206E-04  0.1892663E+04  0.7818609E-02  0.8658517E-01
        2   -1    0    0  501    0  0.00000000000E+00  0.00000000000E+00  0.63119473278E+03  0.63119473278E+03  0.25500000920E-02 0. -1.
       -2   -1    0    0    0  501  0.00000000000E+00  0.00000000000E+00 -0.14188069038E+04  0.14188069038E+04  0.25500000920E-02 0.  1.
    10030    2    1    2    0    0  0.00000000000E+00  0.00000000000E+00 -0.78761217099E+03  0.20500016366E+04  0.18926631443E+04 0.  0.
        1    1    3    3  502    0  0.51143891292E+03  0.16967365160E+03 -0.12364125625E+04  0.13487308606E+04  0.50400001928E-02 0.  1.
       -1    1    3    3    0  502 -0.51143891292E+03 -0.16967365160E+03  0.44880039152E+03  0.70127077591E+03  0.50400001928E-02 0. -1.
</event>
<event>
 5   0  0.5841424E-05  0.1908432E+04  0.7818609E-02  0.8650671E-01
       -1   -1    0    0    0  501  0.00000000000E+00  0.00000000000E+00  0.80749674589E+03  0.80749674590E+03  0.50400001928E-02 0. -1.
        1   -1    0    0  501    0  0.00000000000E+00  0.00000000000E+00 -0.11275932898E+04  0.11275932898E+04  0.50400001928E-02 0.  1.
    10030    2    1    2    0    0  0.00000000000E+00  0.00000000000E+00 -0.32009654389E+03  0.19350900357E+04  0.19084317250E+04 0.  0.
        1    1    3    3  502    0  0.44369222738E+03  0.56087643908E+03 -0.80060267621E+03  0.10735035248E+04  0.50400001928E-02 0.  1.
       -1    1    3    3    0  502 -0.44369222738E+03 -0.56087643908E+03  0.48050613232E+03  0.86158651090E+03  0.50400001928E-02 0. -1.
</event>
<event>
 5   0  0.5824956E-05  0.1896013E+04  0.7818609E-02  0.8656844E-01
       -1   -1    0    0    0  501  0.00000000000E+00  0.00000000000E+00  0.94655249464E+03  0.94655249466E+03  0.50400001928E-02 0. -1.
        1   -1    0    0  501    0  0.00000000000E+00  0.00000000000E+00 -0.94946242880E+03  0.94946242881E+03  0.50400001928E-02 0.  1.
    10030    2    1    2    0    0  0.00000000000E+00  0.00000000000E+00 -0.29099341531E+01  0.18960149235E+04  0.18960126904E+04 0.  0.
        2    1    3    3  502    0 -0.61556671801E+03  0.47915428384E+03  0.53725228376E+03  0.94718067361E+03  0.25500000920E-02 0. -1.
       -2    1    3    3    0  502  0.61556671801E+03 -0.47915428384E+03 -0.54016221791E+03  0.94883424986E+03  0.25500000920E-02 0.  1.
</event>
<event>
 5   0  0.5579109E-05  0.1896528E+04  0.7818609E-02  0.8656586E-01
        1   -1    0    0  501    0  0.00000000000E+00  0.00000000000E+00  0.20102392146E+04  0.20102392146E+04  0.50400001928E-02 0. -1.
       -1   -1    0    0    0  501  0.00000000000E+00  0.00000000000E+00 -0.44731231439E+03  0.44731231442E+03  0.50400001928E-02 0.  1.
    10030    2    1    2    0    0  0.00000000000E+00  0.00000000000E+00  0.15629269002E+04  0.24575515290E+04  0.18965281496E+04 0.  0.
        3    1    3    3  502    0  0.67741015880E+03  0.65821565267E+03  0.89043823797E+03  0.12980803652E+04  0.10100000352E+00 0.  1.
       -3    1    3    3    0  502 -0.67741015880E+03 -0.65821565267E+03  0.67248866222E+03  0.11594711638E+04  0.10100000352E+00 0. -1.
</event>
<event>
 5   0  0.5628936E-05  0.1913960E+04  0.7818609E-02  0.8647938E-01
       -1   -1    0    0    0  501  0.00000000000E+00  0.00000000000E+00  0.76095008475E+03  0.76095008477E+03  0.50400001928E-02 0.  1.
        1   -1    0    0  501    0  0.00000000000E+00  0.00000000000E+00 -0.12035101988E+04  0.12035101989E+04  0.50400001928E-02 0. -1.
    10030    2    1    2    0    0  0.00000000000E+00  0.00000000000E+00 -0.44256011410E+03  0.19644602836E+04  0.19139604884E+04 0.  0.
        5    1    3    3  502    0  0.67159697803E+03 -0.61790480402E+03 -0.51687224709E+03  0.10488221286E+04  0.46999998093E+01 0. -1.
       -5    1    3    3    0  502 -0.67159697803E+03  0.61790480402E+03  0.74312132990E+02  0.91563815497E+03  0.46999998093E+01 0.  1.
</event>
<event>
 5   0  0.5824956E-05  0.1857164E+04  0.7818609E-02  0.8676477E-01
        1   -1    0    0  501    0  0.00000000000E+00  0.00000000000E+00  0.10467026579E+04  0.10467026579E+04  0.50400001928E-02 0. -1.
       -1   -1    0    0    0  501  0.00000000000E+00  0.00000000000E+00 -0.82379131574E+03  0.82379131575E+03  0.50400001928E-02 0.  1.
    10030    2    1    2    0    0  0.00000000000E+00  0.00000000000E+00  0.22291134215E+03  0.18704939737E+04  0.18571640313E+04 0.  0.
        2    1    3    3  502    0 -0.54672160446E+03  0.48519182788E+03 -0.46532296184E+03  0.86651086631E+03  0.25500000920E-02 0.  1.
       -2    1    3    3    0  502  0.54672160446E+03 -0.48519182788E+03  0.68823430399E+03  0.10039831073E+04  0.25500000920E-02 0. -1.
</event>
<event>
 5   0  0.1118206E-04  0.1884224E+04  0.7818609E-02  0.8662749E-01
        2   -1    0    0  501    0  0.00000000000E+00  0.00000000000E+00  0.13683555208E+04  0.13683555208E+04  0.25500000920E-02 0.  1.
       -2   -1    0    0    0  501  0.00000000000E+00  0.00000000000E+00 -0.64864336176E+03  0.64864336177E+03  0.25500000920E-02 0. -1.
    10030    2    1    2    0    0  0.00000000000E+00  0.00000000000E+00  0.71971215903E+03  0.20169988826E+04  0.18842236864E+04 0.  0.
        1    1    3    3  502    0 -0.86830702561E+02 -0.28476383369E+03  0.13166789825E+04  0.13499161289E+04  0.50400001928E-02 0.  1.
       -1    1    3    3    0  502  0.86830702561E+02  0.28476383369E+03 -0.59696682351E+03  0.66708275370E+03  0.50400001928E-02 0. -1.
</event>
<event>
 5   0  0.1133638E-04  0.1908353E+04  0.7818609E-02  0.8650710E-01
       -2   -1    0    0    0  501  0.00000000000E+00  0.00000000000E+00  0.10557676099E+04  0.10557676099E+04  0.25500000920E-02 0. -1.
        2   -1    0    0  501    0  0.00000000000E+00  0.00000000000E+00 -0.86236120859E+03  0.86236120860E+03  0.25500000920E-02 0.  1.
    10030    2    1    2    0    0  0.00000000000E+00  0.00000000000E+00  0.19340640133E+03  0.19181288185E+04  0.19083532504E+04 0.  0.
        3    1    3    3  502    0  0.44031782869E+03  0.28399430039E+03  0.89823434783E+03  0.10398834102E+04  0.10100000352E+00 0. -1.
       -3    1    3    3    0  502 -0.44031782869E+03 -0.28399430039E+03 -0.70482794651E+03  0.87824540835E+03  0.10100000352E+00 0.  1.
</event>
<event>
 5   0  0.5841424E-05  0.1896511E+04  0.7818609E-02  0.8656595E-01
        1   -1    0    0  501    0  0.00000000000E+00  0.00000000000E+00  0.10440446978E+04  0.10440446979E+04  0.50400001928E-02 0.  1.
       -1   -1    0    0    0  501  0.00000000000E+00  0.00000000000E+00 -0.86125466952E+03  0.86125466954E+03  0.50400001928E-02 0. -1.
    10030    2    1    2    0    0  0.00000000000E+00  0.00000000000E+00  0.18279002832E+03  0.19052993674E+04  0.18965108713E+04 0.  0.
        1    1    3    3  502    0  0.15998669094E+03  0.65107721087E+02 -0.84531706111E+03  0.86278368694E+03  0.50400001928E-02 0. -1.
       -1    1    3    3    0  502 -0.15998669094E+03 -0.65107721087E+02  0.10281070894E+04  0.10425156804E+04  0.50400001928E-02 0.  1.
</event>
<event>
 5   0  0.5824956E-05  0.1910553E+04  0.7818609E-02  0.8649621E-01
        1   -1    0    0  501    0  0.00000000000E+00  0.00000000000E+00  0.24057279124E+04  0.24057279124E+04  0.50400001928E-02 0.  1.
       -1   -1    0    0    0  501  0.00000000000E+00  0.00000000000E+00 -0.37932518942E+03  0.37932518946E+03  0.50400001928E-02 0. -1.
    10030    2    1    2    0    0  0.00000000000E+00  0.00000000000E+00  0.20264027230E+04  0.27850531019E+04  0.19105530049E+04 0.  0.
        2    1    3    3  502    0 -0.71775244608E+02  0.81992941307E+03  0.17200340934E+04  0.19068175610E+04  0.25500000920E-02 0.  1.
       -2    1    3    3    0  502  0.71775244608E+02 -0.81992941307E+03  0.30636862955E+03  0.87823554092E+03  0.25500000920E-02 0. -1.
</event>
<event>
 5   0  0.5841424E-05  0.1838005E+04  0.7818609E-02  0.8686346E-01
       -1   -1    0    0    0  501  0.00000000000E+00  0.00000000000E+00  0.12497529216E+04  0.12497529217E+04  0.50400001928E-02 0. -1.
        1   -1    0    0  501    0  0.00000000000E+00  0.00000000000E+00 -0.67578596763E+03  0.67578596765E+03  0.50400001928E-02 0.  1.
    10030    2    1    2    0    0  0.00000000000E+00  0.00000000000E+00  0.57396695402E+03  0.19255388893E+04  0.18380048830E+04 0.  0.
        1    1    3    3  502    0  0.17159137888E+02 -0.24011360827E+03 -0.64216936847E+03  0.68580644406E+03  0.50400001928E-02 0.  1.
       -1    1    3    3    0  502 -0.17159137888E+02  0.24011360827E+03  0.12161363225E+04  0.12397324452E+04  0.50400001928E-02 0. -1.
</event>
<event>
 5   0  0.5614989E-05  0.1898333E+04  0.7818609E-02  0.8655686E-01
        1   -1    0    0  501    0  0.00000000000E+00  0.00000000000E+00  0.81914517824E+03  0.81914517826E+03  0.50400001928E-02 0. -1.
       -1   -1    0    0    0  501  0.00000000000E+00  0.00000000000E+00 -0.10998263718E+04  0.10998263719E+04  0.50400001928E-02 0.  1.
    10030    2    1    2    0    0  0.00000000000E+00  0.00000000000E+00 -0.28068119360E+03  0.19189715501E+04  0.18983334474E+04 0.  0.
        4    1    3    3  502    0 -0.25367487780E+02  0.88329589735E+03  0.20992419164E+03  0.90825378108E+03  0.12699999809E+01 0. -1.
       -4    1    3    3    0  502  0.25367487780E+02 -0.88329589735E+03 -0.49060538524E+03  0.10107177690E+04  0.12699999809E+01 0.  1.
</event>
<event>
 5   0  0.5628936E-05  0.1873944E+04  0.7818609E-02  0.8667936E-01
       -1   -1    0    0    0  501  0.00000000000E+00  0.00000000000E+00  0.62608991756E+03  0.62608991758E+03  0.50400001928E-02 0. -1.
        1   -1    0    0  501    0  0.00000000000E+00  0.00000000000E+00 -0.14022216523E+04  0.14022216523E+04  0.50400001928E-02 0.  1.
    10030    2    1    2    0    0  0.00000000000E+00  0.00000000000E+00 -0.77613173473E+03  0.20283115699E+04  0.18739443308E+04 0.  0.
        5    1    3    3  502    0  0.18409046397E+03  0.47093862130E+02  0.60500273121E+03  0.63415891190E+03  0.46999998093E+01 0. -1.
       -5    1    3    3    0  502 -0.18409046397E+03 -0.47093862130E+02 -0.13811344659E+04  0.13941526580E+04  0.46999998093E+01 0.  1.
</event>
<event>
 5   0  0.1118206E-04  0.1843638E+04  0.7818609E-02  0.8683431E-01
        2   -1    0    0  501    0  0.00000000000E+00  0.00000000000E+00  0.77107478688E+03  0.77107478689E+03  0.25500000920E-02 0. -1.
       -2   -1    0    0    0  501  0.00000000000E+00  0.00000000000E+00 -0.11020339021E+04  0.11020339021E+04  0.25500000920E-02 0.  1.
    10030    2    1    2    0    0  0.00000000000E+00  0.00000000000E+00 -0.33095911518E+03  0.18731086890E+04  0.18436383118E+04 0.  0.
        1    1    3    3  502    0 -0.43012046219E+03  0.13207114787E+03 -0.98289239081E+03  0.10809828176E+04  0.50400001928E-02 0.  1.
       -1    1    3    3    0  502  0.43012046219E+03 -0.13207114787E+03  0.65193327563E+03  0.79212587131E+03  0.50400001928E-02 0. -1.
</event>
<event>
 5   0  0.5628936E-05  0.1904294E+04  0.7818609E-02  0.8652722E-01
        1   -1    0    0  501    0  0.00000000000E+00  0.00000000000E+00  0.20633060929E+04  0.20633060929E+04  0.50400001928E-02 0. -1.
       -1   -1    0    0    0  501  0.00000000000E+00  0.00000000000E+00 -0.43938390009E+03  0.43938390012E+03  0.50400001928E-02 0.  1.
    10030    2    1    2    0    0  0.00000000000E+00  0.00000000000E+00  0.16239221928E+04  0.25026899931E+04  0.19042935469E+04 0.  0.
        5    1    3    3  502    0  0.92236450437E+03 -0.14032962141E+03  0.10617097649E+04  0.14133995884E+04  0.46999998093E+01 0.  1.
       -5    1    3    3    0  502 -0.92236450437E+03  0.14032962141E+03  0.56221242797E+03  0.10892904047E+04  0.46999998093E+01 0. -1.
</event>
<event>
 5   0  0.1141890E-04  0.1890040E+04  0.7818609E-02  0.8659830E-01
        2   -1    0    0  501    0  0.00000000000E+00  0.00000000000E+00  0.84231139309E+03  0.84231139310E+03  0.25500000920E-02 0.  1.
       -2   -1    0    0    0  501  0.00000000000E+00  0.00000000000E+00 -0.10602526107E+04  0.10602526107E+04  0.25500000920E-02 0. -1.
    10030    2    1    2    0    0  0.00000000000E+00  0.00000000000E+00 -0.21794121765E+03  0.19025640038E+04  0.18900400563E+04 0.  0.
        2    1    3    3  502    0  0.75590907344E+03 -0.30970713195E+03 -0.58724609823E+03  0.10060690905E+04  0.25500000920E-02 0. -1.
       -2    1    3    3    0  502 -0.75590907344E+03  0.30970713195E+03  0.36930488058E+03  0.89649491338E+03  0.25500000920E-02 0.  1.
</event>
<event>
 5   0  0.5614989E-05  0.1891398E+04  0.7818609E-02  0.8659150E-01
       -1   -1    0    0    0  501  0.00000000000E+00  0.00000000000E+00  0.10217921764E+04  0.10217921765E+04  0.50400001928E-02 0.  1.
        1   -1    0    0  501    0  0.00000000000E+00  0.00000000000E+00 -0.87527245121E+03  0.87527245123E+03  0.50400001928E-02 0. -1.
    10030    2    1    2    0    0  0.00000000000E+00  0.00000000000E+00  0.14651972523E+03  0.18970646277E+04  0.18913979411E+04 0.  0.
        4    1    3    3  502    0 -0.61018678870E+03  0.11805843434E+03  0.78819218223E+03  0.10037500884E+04  0.12699999809E+01 0.  1.
       -4    1    3    3    0  502  0.61018678870E+03 -0.11805843434E+03 -0.64167245701E+03  0.89331453923E+03  0.12699999809E+01 0. -1.
</event>
<event>
 5   0  0.1133638E-04  0.1910007E+04  0.7818609E-02  0.8649891E-01
       -2   -1    0    0    0  501  0.00000000000E+00  0.00000000000E+00  0.71148689520E+03  0.71148689520E+03  0.25500000920E-02 0. -1.
        2   -1    0    0  501    0  0.00000000000E+00  0.00000000000E+00 -0.12818671675E+04  0.12818671675E+04  0.25500000920E-02 0.  1.
    10030    2    1    2    0    0  0.00000000000E+00  0.00000000000E+00 -0.57038027230E+03  0.19933540627E+04  0.19100070063E+04 0.  0.
        3    1    3    3  502    0  0.15882791767E+03 -0.44606087213E+03  0.58035883276E+03  0.74900800666E+03  0.10100000352E+00 0. -1.
       -3    1    3    3    0  502 -0.15882791767E+03  0.44606087213E+03 -0.11507391051E+04  0.12443460560E+04  0.10100000352E+00 0.  1.
</event>
<event>
 5   0  0.5841424E-05  0.1924533E+04  0.7818609E-02  0.8642740E-01
        1   -1    0    0  501    0  0.00000000000E+00  0.00000000000E+00  0.95074531903E+03  0.95074531904E+03  0.50400001928E-02 0. -1.
       -1   -1    0    0    0  501  0.00000000000E+00  0.00000000000E+00 -0.97392712912E+03  0.97392712913E+03  0.50400001928E-02 0.  1.
    10030    2    1    2    0    0  0.00000000000E+00  0.00000000000E+00 -0.23181810095E+02  0.19246724482E+04  0.19245328359E+04 0.  0.
        1    1    3    3  502    0 -0.53103179593E+03 -0.30731477279E+02  0.79035096561E+03  0.95267719656E+03  0.50400001928E-02 0. -1.
       -1    1    3    3    0  502  0.53103179593E+03  0.30731477279E+02 -0.81353277570E+03  0.97199525161E+03  0.50400001928E-02 0.  1.
</event>
<event>
 5   0  0.1133638E-04  0.1910715E+04  0.7818609E-02  0.8649541E-01
       -2   -1    0    0    0  501  0.00000000000E+00  0.00000000000E+00  0.14218777532E+04  0.14218777532E+04  0.25500000920E-02 0.  1.
        2   -1    0    0  501    0  0.00000000000E+00  0.00000000000E+00 -0.64190294475E+03  0.64190294475E+03  0.25500000920E-02 0. -1.
    10030    2    1    2    0    0  0.00000000000E+00  0.00000000000E+00  0.77997480841E+03  0.20637806979E+04  0.19107145437E+04 0.  0.
        3    1    3    3  502    0 -0.20881720048E+03 -0.89495885099E+03  0.10801567414E+03  0.92532338360E+03  0.10100000352E+00 0.  1.
       -3    1    3    3    0  502  0.20881720048E+03  0.89495885099E+03  0.67195913427E+03  0.11384573143E+04  0.10100000352E+00 0. -1.
</event>
<event>
 5   0  0.5628936E-05  0.1913417E+04  0.7818609E-02  0.8648206E-01
        1   -1    0    0  501    0  0.00000000000E+00  0.00000000000E+00  0.14065296282E+04  0.14065296282E+04  0.50400001928E-02 0.  1.
       -1   -1    0    0    0  501  0.00000000000E+00  0.00000000000E+00 -0.65074441124E+03  0.65074441126E+03  0.50400001928E-02 0. -1.
    10030    2    1    2    0    0  0.00000000000E+00  0.00000000000E+00  0.75578521694E+03  0.20572740394E+04  0.19134171472E+04 0.  0.
        5    1    3    3  502    0 -0.16477961022E+03  0.71036526311E+03 -0.28793849674E+03  0.78402920538E+03  0.46999998093E+01 0. -1.
       -5    1    3    3    0  502  0.16477961022E+03 -0.71036526311E+03  0.10437237137E+04  0.12732448341E+04  0.46999998093E+01 0.  1.
</event>
<event>
 5   0  0.5628936E-05  0.1676895E+04  0.7818609E-02  0.8774653E-01
       -1   -1    0    0    0  501  0.00000000000E+00  0.00000000000E+00  0.81131884171E+03  0.81131884173E+03  0.50400001928E-02 0.  1.
        1   -1    0    0  501    0  0.00000000000E+00  0.00000000000E+00 -0.86648321551E+03  0.86648321553E+03  0.50400001928E-02 0. -1.
    10030    2    1    2    0    0  0.00000000000E+00  0.00000000000E+00 -0.55164373800E+02  0.16778020573E+04  0.16768949386E+04 0.  0.
        5    1    3    3  502    0  0.23523811636E+03 -0.59113666386E+03  0.51878329942E+03  0.82093710387E+03  0.46999998093E+01 0.  1.
       -5    1    3    3    0  502 -0.23523811636E+03  0.59113666386E+03 -0.57394767322E+03  0.85686495339E+03  0.46999998093E+01 0. -1.
</event>
<event>
 5   0  0.5579109E-05  0.1903345E+04  0.7818609E-02  0.8653193E-01
        1   -1    0    0  501    0  0.00000000000E+00  0.00000000000E+00  0.90407581295E+03  0.90407581296E+03  0.50400001928E-02 0. -1.
       -1   -1    0    0    0  501  0.00000000000E+00  0.00000000000E+00 -0.10017754173E+04  0.10017754173E+04  0.50400001928E-02 0.  1.
    10030    2    1    2    0    0  0.00000000000E+00  0.00000000000E+00 -0.97699604344E+02  0.19058512303E+04  0.19033453967E+04 0.  0.
        3    1    3    3  502    0  0.40246517822E+03  0.49482113713E+03 -0.75607616476E+03  0.98918014262E+03  0.10100000352E+00 0.  1.
       -3    1    3    3    0  502 -0.40246517822E+03 -0.49482113713E+03  0.65837656042E+03  0.91667108765E+03  0.10100000352E+00 0. -1.
</event>
<event>
 5   0  0.1182630E-04  0.1913123E+04  0.7818609E-02  0.8648352E-01
       -2   -1    0    0    0  501  0.00000000000E+00  0.00000000000E+00  0.35690081374E+03  0.35690081375E+03  0.25500000920E-02 0.  1.
        2   -1    0    0  501    0  0.00000000000E+00  0.00000000000E+00 -0.25637640352E+04  0.25637640352E+04  0.25500000920E-02 0. -1.
    10030    2    1    2    0    0  0.00000000000E+00  0.00000000000E+00 -0.22068632214E+04  0.29206648489E+04  0.19131225475E+04 0.  0.
        5    1    3    3  502    0 -0.58160776709E+03  0.74530221266E+03 -0.13259475587E+04  0.16284661499E+04  0.46999998093E+01 0.  1.
       -5    1    3    3    0  502  0.58160776709E+03 -0.74530221266E+03 -0.88091566277E+03  0.12921986991E+04  0.46999998093E+01 0. -1.
</event>
<event>
 5   0  0.1118206E-04  0.1933530E+04  0.7818609E-02  0.8638344E-01
        2   -1    0    0  501    0  0.00000000000E+00  0.00000000000E+00  0.10936626117E+04  0.10936626117E+04  0.25500000920E-02 0. -1.
       -2   -1    0    0    0  501  0.00000000000E+00  0.00000000000E+00 -0.85459173759E+03  0.85459173759E+03  0.25500000920E-02 0.  1.
    10030    2    1    2    0    0  0.00000000000E+00  0.00000000000E+00  0.23907087414E+03  0.19482543493E+04  0.19335304825E+04 0.  0.
        1    1    3    3  502    0  0.25445491020E+03 -0.13085912848E+03  0.10500195517E+04  0.10883071588E+04  0.50400001928E-02 0. -1.
       -1    1    3    3    0  502 -0.25445491020E+03  0.13085912848E+03 -0.81094867758E+03  0.85994719055E+03  0.50400001928E-02 0.  1.
</event>
<event>
 5   0  0.1118206E-04  0.1992224E+04  0.7818609E-02  0.8610265E-01
        2   -1    0    0  501    0  0.00000000000E+00  0.00000000000E+00  0.45309562720E+03  0.45309562720E+03  0.25500000920E-02 0.  1.
       -2   -1    0    0    0  501  0.00000000000E+00  0.00000000000E+00 -0.21899104389E+04  0.21899104389E+04  0.25500000920E-02 0. -1.
    10030    2    1    2    0    0  0.00000000000E+00  0.00000000000E+00 -0.17368148117E+04  0.26430060661E+04  0.19922237262E+04 0.  0.
        1    1    3    3  502    0 -0.86952490040E+03  0.48436185617E+03 -0.81602723538E+03  0.12870821299E+04  0.50400001928E-02 0. -1.
       -1    1    3    3    0  502  0.86952490040E+03 -0.48436185617E+03 -0.92078757634E+03  0.13559239363E+04  0.50400001928E-02 0.  1.
</event>
<event>
 5   0  0.5824956E-05  0.1902323E+04  0.7818609E-02  0.8653701E-01
        1   -1    0    0  501    0  0.00000000000E+00  0.00000000000E+00  0.19301788610E+04  0.19301788610E+04  0.50400001928E-02 0. -1.
       -1   -1    0    0    0  501  0.00000000000E+00  0.00000000000E+00 -0.46871720776E+03  0.46871720779E+03  0.50400001928E-02 0.  1.
    10030    2    1    2    0    0  0.00000000000E+00  0.00000000000E+00  0.14614616532E+04  0.23988960688E+04  0.19023228393E+04 0.  0.
        2    1    3    3  502    0 -0.26095350117E+03  0.36247564109E+03  0.17897171718E+04  0.18446064282E+04  0.25500000920E-02 0. -1.
       -2    1    3    3    0  502  0.26095350117E+03 -0.36247564109E+03 -0.32825551854E+03  0.55428964055E+03  0.25500000920E-02 0.  1.
</event>
<event>
 5   0  0.4061125E-05  0.1909654E+04  0.7818609E-02  0.8650066E-01
       -4   -1    0    0    0  501  0.00000000000E+00  0.00000000000E+00  0.15809619341E+04  0.15809624442E+04  0.12699999809E+01 0.  1.
        4   -1    0    0  501    0  0.00000000000E+00  0.00000000000E+00 -0.57666959746E+03  0.57667099591E+03  0.12699999809E+01 0. -1.
    10030    2    1    2    0    0  0.00000000000E+00  0.00000000000E+00  0.10042923366E+04  0.21576334401E+04  0.19096541479E+04 0.  0.
        5    1    3    3  502    0 -0.36212816358E+03 -0.69376617273E+02  0.14972678811E+04  0.15420061996E+04  0.46999998093E+01 0.  1.
       -5    1    3    3    0  502  0.36212816358E+03  0.69376617273E+02 -0.49297554443E+03  0.61562724053E+03  0.46999998093E+01 0. -1.
</event>
<event>
 5   0  0.1141890E-04  0.1972985E+04  0.7818609E-02  0.8619356E-01
       -2   -1    0    0    0  501  0.00000000000E+00  0.00000000000E+00  0.93598182552E+03  0.93598182552E+03  0.25500000920E-02 0.  1.
        2   -1    0    0  501    0  0.00000000000E+00  0.00000000000E+00 -0.10397295062E+04  0.10397295062E+04  0.25500000920E-02 0. -1.
    10030    2    1    2    0    0  0.00000000000E+00  0.00000000000E+00 -0.10374768065E+03  0.19757113317E+04  0.19729854751E+04 0.  0.
        2    1    3    3  502    0  0.78195965022E+03 -0.60042532764E+03 -0.86511405016E+02  0.98967453834E+03  0.25500000920E-02 0.  1.
       -2    1    3    3    0  502 -0.78195965022E+03  0.60042532764E+03 -0.17236275636E+02  0.98603679335E+03  0.25500000920E-02 0. -1.
</event>
<event>
 5   0  0.5628936E-05  0.1869522E+04  0.7818609E-02  0.8670178E-01
       -1   -1    0    0    0  501  0.00000000000E+00  0.00000000000E+00  0.45347417158E+03  0.45347417160E+03  0.50400001928E-02 0.  1.
        1   -1    0    0  501    0  0.00000000000E+00  0.00000000000E+00 -0.19268524365E+04  0.19268524365E+04  0.50400001928E-02 0. -1.
    10030    2    1    2    0    0  0.00000000000E+00  0.00000000000E+00 -0.14733782649E+04  0.23803266081E+04  0.18695216634E+04 0.  0.
        5    1    3    3  502    0  0.10860385036E+03 -0.10861623745E+03  0.43728157738E+03  0.46349708874E+03  0.46999998093E+01 0.  1.
       -5    1    3    3    0  502 -0.10860385036E+03  0.10861623745E+03 -0.19106598423E+04  0.19168295194E+04  0.46999998093E+01 0. -1.
</event>
<event>
 5   0  0.5614989E-05  0.1964295E+04  0.7818609E-02  0.8623498E-01
        1   -1    0    0  501    0  0.00000000000E+00  0.00000000000E+00  0.10081863018E+04  0.10081863018E+04  0.50400001928E-02 0.  1.
       -1   -1    0    0    0  501  0.00000000000E+00  0.00000000000E+00 -0.95678122673E+03  0.95678122674E+03  0.50400001928E-02 0. -1.
    10030    2    1    2    0    0  0.00000000000E+00  0.00000000000E+00  0.51405075090E+02  0.19649675286E+04  0.19642950152E+04 0.  0.
        4    1    3    3  502    0  0.35286604454E+03 -0.90997453802E+03 -0.84080233928E+02  0.97961176181E+03  0.12699999809E+01 0.  1.
       -4    1    3    3    0  502 -0.35286604454E+03  0.90997453802E+03  0.13548530902E+03  0.98535576676E+03  0.12699999809E+01 0. -1.
</event>
<event>
 5   0  0.5579109E-05  0.1897020E+04  0.7818609E-02  0.8656341E-01
        1   -1    0    0  501    0  0.00000000000E+00  0.00000000000E+00  0.46468252698E+03  0.46468252700E+03  0.50400001928E-02 0.  1.
       -1   -1    0    0    0  501  0.00000000000E+00  0.00000000000E+00 -0.19360988190E+04  0.19360988190E+04  0.50400001928E-02 0. -1.
    10030    2    1    2    0    0  0.00000000000E+00  0.00000000000E+00 -0.14714162920E+04  0.24007813460E+04  0.18970200755E+04 0.  0.
        3    1    3    3  502    0  0.72846860632E+03  0.45227692964E+03 -0.22249463385E+03  0.88584694150E+03  0.10100000352E+00 0.  1.
       -3    1    3    3    0  502 -0.72846860632E+03 -0.45227692964E+03 -0.12489216581E+04  0.15149344045E+04  0.10100000352E+00 0. -1.
</event>
<event>
 5   0  0.5628936E-05  0.1891987E+04  0.7818609E-02  0.8658855E-01
       -1   -1    0    0    0  501  0.00000000000E+00  0.00000000000E+00  0.55777296156E+03  0.55777296159E+03  0.50400001928E-02 0.  1.
        1   -1    0    0  501    0  0.00000000000E+00  0.00000000000E+00 -0.16044220838E+04  0.16044220838E+04  0.50400001928E-02 0. -1.
    10030    2    1    2    0    0  0.00000000000E+00  0.00000000000E+00 -0.10466491222E+04  0.21621950454E+04  0.18919865299E+04 0.  0.
        5    1    3    3  502    0  0.13452155110E+03  0.13319567669E+03 -0.15825405799E+04  0.15938299511E+04  0.46999998093E+01 0. -1.
       -5    1    3    3    0  502 -0.13452155110E+03 -0.13319567669E+03  0.53589145767E+03  0.56836509429E+03  0.46999998093E+01 0.  1.
</event>
<event>
 5   0  0.1141890E-04  0.1889994E+04  0.7818609E-02  0.8659853E-01
       -2   -1    0    0    0  501  0.00000000000E+00  0.00000000000E+00  0.63579049859E+03  0.63579049859E+03  0.25500000920E-02 0.  1.
        2   -1    0    0  501    0  0.00000000000E+00  0.00000000000E+00 -0.14045807165E+04  0.14045807165E+04  0.25500000920E-02 0. -1.
    10030    2    1    2    0    0  0.00000000000E+00  0.00000000000E+00 -0.76879021788E+03  0.20403712151E+04  0.18899937291E+04 0.  0.
        2    1    3    3  502    0  0.69230708140E+03 -0.35692646373E+03 -0.96207186004E+03  0.12378480760E+04  0.25500000920E-02 0. -1.
       -2    1    3    3    0  502 -0.69230708140E+03  0.35692646373E+03  0.19328164216E+03  0.80252313903E+03  0.25500000920E-02 0.  1.
</event>
<event>
 5   0  0.1141890E-04  0.1896480E+04  0.7818609E-02  0.8656610E-01
        2   -1    0    0  501    0  0.00000000000E+00  0.00000000000E+00  0.17135259104E+04  0.17135259104E+04  0.25500000920E-02 0. -1.
       -2   -1    0    0    0  501  0.00000000000E+00  0.00000000000E+00 -0.52474225801E+03  0.52474225801E+03  0.25500000920E-02 0.  1.
    10030    2    1    2    0    0  0.00000000000E+00  0.00000000000E+00  0.11887836524E+04  0.22382681684E+04  0.18964803773E+04 0.  0.
        2    1    3    3  502    0  0.69303047873E+02 -0.87690802020E+03  0.10123119213E+04  0.13410988086E+04  0.25500000920E-02 0.  1.
       -2    1    3    3    0  502 -0.69303047873E+02  0.87690802020E+03  0.17647173107E+03  0.89716935983E+03  0.25500000920E-02 0. -1.
</event>
<event>
 5   0  0.5614989E-05  0.1864465E+04  0.7818609E-02  0.8672750E-01
       -1   -1    0    0    0  501  0.00000000000E+00  0.00000000000E+00  0.86084722775E+03  0.86084722777E+03  0.50400001928E-02 0. -1.
        1   -1    0    0  501    0  0.00000000000E+00  0.00000000000E+00 -0.10095368912E+04  0.10095368913E+04  0.50400001928E-02 0.  1.
    10030    2    1    2    0    0  0.00000000000E+00  0.00000000000E+00 -0.14868966349E+03  0.18703841190E+04  0.18644645710E+04 0.  0.
        4    1    3    3  502    0  0.17446110419E+03  0.46600983810E+03 -0.86517097261E+03  0.99806025410E+03  0.12699999809E+01 0.  1.
       -4    1    3    3    0  502 -0.17446110419E+03 -0.46600983810E+03  0.71648130912E+03  0.87232386492E+03  0.12699999809E+01 0. -1.
</event>
<event>
 5   0  0.5579109E-05  0.1922844E+04  0.7818609E-02  0.8643568E-01
       -1   -1    0    0    0  501  0.00000000000E+00  0.00000000000E+00  0.15955857414E+04  0.15955857414E+04  0.50400001928E-02 0.  1.
        1   -1    0    0  501    0  0.00000000000E+00  0.00000000000E+00 -0.57930582356E+03  0.57930582359E+03  0.50400001928E-02 0. -1.
    10030    2    1    2    0    0  0.00000000000E+00  0.00000000000E+00  0.10162799178E+04  0.21748915650E+04  0.19228438439E+04 0.  0.
        3    1    3    3  502    0  0.46330939015E+03 -0.56714448814E+03 -0.19642766978E+03  0.75821652651E+03  0.10100000352E+00 0.  1.
       -3    1    3    3    0  502 -0.46330939015E+03  0.56714448814E+03  0.12127075876E+04  0.14166750385E+04  0.10100000352E+00 0. -1.
</event>
<event>
 5   0  0.5841424E-05  0.1893362E+04  0.7818609E-02  0.8658168E-01
        1   -1    0    0  501    0  0.00000000000E+00  0.00000000000E+00  0.12159269843E+04  0.12159269843E+04  0.50400001928E-02 0. -1.
       -1   -1    0    0    0  501  0.00000000000E+00  0.00000000000E+00 -0.73705482287E+03  0.73705482289E+03  0.50400001928E-02 0.  1.
    10030    2    1    2    0    0  0.00000000000E+00  0.00000000000E+00  0.47887216138E+03  0.19529818071E+04  0.18933619285E+04 0.  0.
        1    1    3    3  502    0 -0.92871204490E+03  0.16244804555E+03  0.32762336349E+03  0.99811447148E+03  0.50400001928E-02 0. -1.
       -1    1    3    3    0  502  0.92871204490E+03 -0.16244804555E+03  0.15124879790E+03  0.95486733567E+03  0.50400001928E-02 0.  1.
</event>
<event>
 5   0  0.5628936E-05  0.1904151E+04  0.7818609E-02  0.8652793E-01
        1   -1    0    0  501    0  0.00000000000E+00  0.00000000000E+00  0.11479764935E+04  0.11479764935E+04  0.50400001928E-02 0. -1.
       -1   -1    0    0    0  501  0.00000000000E+00  0.00000000000E+00 -0.78960459565E+03  0.78960459566E+03  0.50400001928E-02 0.  1.
    10030    2    1    2    0    0  0.00000000000E+00  0.00000000000E+00  0.35837189786E+03  0.19375810892E+04  0.19041507451E+04 0.  0.
        5    1    3    3  502    0  0.42996051596E+03  0.75528847180E+03 -0.21635270374E+03  0.89563234831E+03  0.46999998093E+01 0.  1.
       -5    1    3    3    0  502 -0.42996051596E+03 -0.75528847180E+03  0.57472460160E+03  0.10419487409E+04  0.46999998093E+01 0. -1.
</event>
<event>
 5   0  0.1101678E-04  0.1921271E+04  0.7818609E-02  0.8644340E-01
       -2   -1    0    0    0  501  0.00000000000E+00  0.00000000000E+00  0.41415560457E+03  0.41415560458E+03  0.25500000920E-02 0.  1.
        2   -1    0    0  501    0  0.00000000000E+00  0.00000000000E+00 -0.22281988209E+04  0.22281988209E+04  0.25500000920E-02 0. -1.
    10030    2    1    2    0    0  0.00000000000E+00  0.00000000000E+00 -0.18140432163E+04  0.26423544254E+04  0.19212714850E+04 0.  0.
        4    1    3    3  502    0  0.55855770971E+03 -0.11246980305E+03 -0.19707223333E+04  0.20514346929E+04  0.12699999809E+01 0. -1.
       -4    1    3    3    0  502 -0.55855770971E+03  0.11246980305E+03  0.15667911697E+03  0.59091973251E+03  0.12699999809E+01 0.  1.
</event>
<event>
 5   0  0.1133638E-04  0.1894620E+04  0.7818609E-02  0.8657539E-01
       -2   -1    0    0    0  501  0.00000000000E+00  0.00000000000E+00  0.53913634352E+03  0.53913634353E+03  0.25500000920E-02 0.  1.
        2   -1    0    0  501    0  0.00000000000E+00  0.00000000000E+00 -0.16645078932E+04  0.16645078932E+04  0.25500000920E-02 0. -1.
    10030    2    1    2    0    0  0.00000000000E+00  0.00000000000E+00 -0.11253715497E+04  0.22036442368E+04  0.18946204890E+04 0.  0.
        3    1    3    3  502    0  0.31330912565E+03  0.74189727402E+03  0.17496011319E+02  0.80553106335E+03  0.10100000352E+00 0.  1.
       -3    1    3    3    0  502 -0.31330912565E+03 -0.74189727402E+03 -0.11428675610E+04  0.13981131734E+04  0.10100000352E+00 0. -1.
</event>
<event>
 5   0  0.1118206E-04  0.1839058E+04  0.7818609E-02  0.8685800E-01
       -2   -1    0    0    0  501  0.00000000000E+00  0.00000000000E+00  0.69938315946E+03  0.69938315947E+03  0.25500000920E-02 0. -1.
        2   -1    0    0  501    0  0.00000000000E+00  0.00000000000E+00 -0.12089706866E+04  0.12089706866E+04  0.25500000920E-02 0.  1.
    10030    2    1    2    0    0  0.00000000000E+00  0.00000000000E+00 -0.50958752712E+03  0.19083538461E+04  0.18390581704E+04 0.  0.
        1    1    3    3  502    0  0.46377680214E+03 -0.36707857599E+03  0.47579347288E+03  0.75908829000E+03  0.50400001928E-02 0. -1.
       -1    1    3    3    0  502 -0.46377680214E+03  0.36707857599E+03 -0.98538100000E+03  0.11492655561E+04  0.50400001928E-02 0.  1.
</event>
<event>
 5   0  0.1133638E-04  0.1894632E+04  0.7818609E-02  0.8657533E-01
        2   -1    0    0  501    0  0.00000000000E+00  0.00000000000E+00  0.16848095436E+04  0.16848095436E+04  0.25500000920E-02 0. -1.
       -2   -1    0    0    0  501  0.00000000000E+00  0.00000000000E+00 -0.53264656383E+03  0.53264656383E+03  0.25500000920E-02 0.  1.
    10030    2    1    2    0    0  0.00000000000E+00  0.00000000000E+00  0.11521629797E+04  0.22174561074E+04  0.18946324330E+04 0.  0.
        3    1    3    3  502    0 -0.16198802475E+03 -0.18719872336E+03 -0.49411998443E+03  0.55266450167E+03  0.10100000352E+00 0.  1.
       -3    1    3    3    0  502  0.16198802475E+03  0.18719872336E+03  0.16462829642E+04  0.16647916057E+04  0.10100000352E+00 0. -1.
</event>
<event>
 5   0  0.1182630E-04  0.1895099E+04  0.7818609E-02  0.8657300E-01
        2   -1    0    0  501    0  0.00000000000E+00  0.00000000000E+00  0.12436777429E+04  0.12436777429E+04  0.25500000920E-02 0.  1.
       -2   -1    0    0    0  501  0.00000000000E+00  0.00000000000E+00 -0.72193164130E+03  0.72193164131E+03  0.25500000920E-02 0. -1.
    10030    2    1    2    0    0  0.00000000000E+00  0.00000000000E+00  0.52174610164E+03  0.19656093843E+04  0.18950992736E+04 0.  0.
        5    1    3    3  502    0 -0.22020918205E+03 -0.41204604173E+03  0.11158950760E+04  0.12097594533E+04  0.46999998093E+01 0.  1.
       -5    1    3    3    0  502  0.22020918205E+03  0.41204604173E+03 -0.59414897433E+03  0.75584993091E+03  0.46999998093E+01 0. -1.
</event>
<event>
 5   0  0.4061125E-05  0.1896335E+04  0.7818609E-02  0.8656683E-01
        4   -1    0    0  501    0  0.00000000000E+00  0.00000000000E+00  0.10270993068E+04  0.10271000920E+04  0.12699999809E+01 0.  1.
       -4   -1    0    0    0  501  0.00000000000E+00  0.00000000000E+00 -0.87530028385E+03  0.87530120519E+03  0.12699999809E+01 0. -1.
    10030    2    1    2    0    0  0.00000000000E+00  0.00000000000E+00  0.15179902296E+03  0.19024012972E+04  0.18963353480E+04 0.  0.
        3    1    3    3  502    0  0.88188720865E+03 -0.21695114636E+03  0.34922115867E+03  0.97300990568E+03  0.10100000352E+00 0. -1.
       -3    1    3    3    0  502 -0.88188720865E+03  0.21695114636E+03 -0.19742213571E+03  0.92939139148E+03  0.10100000352E+00 0.  1.
</event>
<event>
 5   0  0.5579109E-05  0.1900102E+04  0.7818609E-02  0.8654805E-01
        1   -1    0    0  501    0  0.00000000000E+00  0.00000000000E+00  0.19553533957E+04  0.19553533957E+04  0.50400001928E-02 0.  1.
       -1   -1    0    0    0  501  0.00000000000E+00  0.00000000000E+00 -0.46160312933E+03  0.46160312936E+03  0.50400001928E-02 0. -1.
    10030    2    1    2    0    0  0.00000000000E+00  0.00000000000E+00  0.14937502663E+04  0.24169565250E+04  0.19001023619E+04 0.  0.
        3    1    3    3  502    0  0.30026281170E+02  0.79884237491E+03  0.13998861116E+04  0.16120582661E+04  0.10100000352E+00 0.  1.
       -3    1    3    3    0  502 -0.30026281170E+02 -0.79884237491E+03  0.93864154702E+02  0.80489825895E+03  0.10100000352E+00 0. -1.
</event>
<event>
 5   0  0.1118206E-04  0.1900870E+04  0.7818609E-02  0.8654424E-01
        2   -1    0    0  501    0  0.00000000000E+00  0.00000000000E+00  0.10807199293E+04  0.10807199293E+04  0.25500000920E-02 0.  1.
       -2   -1    0    0    0  501  0.00000000000E+00  0.00000000000E+00 -0.83585599852E+03  0.83585599853E+03  0.25500000920E-02 0. -1.
    10030    2    1    2    0    0  0.00000000000E+00  0.00000000000E+00  0.24486393074E+03  0.19165759278E+04  0.19008695227E+04 0.  0.
        1    1    3    3  502    0 -0.88321563415E+03  0.33156614800E+03  0.60648646600E+01  0.94342077013E+03  0.50400001928E-02 0. -1.
       -1    1    3    3    0  502  0.88321563415E+03 -0.33156614800E+03  0.23879906608E+03  0.97315515766E+03  0.50400001928E-02 0.  1.
</event>
<event>
 5   0  0.5579109E-05  0.1888356E+04  0.7818609E-02  0.8660674E-01
        1   -1    0    0  501    0  0.00000000000E+00  0.00000000000E+00  0.10308580496E+04  0.10308580496E+04  0.50400001928E-02 0. -1.
       -1   -1    0    0    0  501  0.00000000000E+00  0.00000000000E+00 -0.86478653037E+03  0.86478653038E+03  0.50400001928E-02 0.  1.
    10030    2    1    2    0    0  0.00000000000E+00  0.00000000000E+00  0.16607151926E+03  0.18956445800E+04  0.18883560640E+04 0.  0.
        3    1    3    3  502    0  0.87000909276E+01 -0.88716642501E+03  0.40728740250E+03  0.97622896683E+03  0.10100000352E+00 0. -1.
       -3    1    3    3    0  502 -0.87000909276E+01  0.88716642501E+03 -0.24121588325E+03  0.91941561319E+03  0.10100000352E+00 0.  1.
</event>
<event>
 5   0  0.5824956E-05  0.1899029E+04  0.7818609E-02  0.8655340E-01
        1   -1    0    0  501    0  0.00000000000E+00  0.00000000000E+00  0.10644772858E+04  0.10644772858E+04  0.50400001928E-02 0.  1.
       -1   -1    0    0    0  501  0.00000000000E+00  0.00000000000E+00 -0.84696729458E+03  0.84696729460E+03  0.50400001928E-02 0. -1.
    10030    2    1    2    0    0  0.00000000000E+00  0.00000000000E+00  0.21750999121E+03  0.19114445804E+04  0.18990286432E+04 0.  0.
        2    1    3    3  502    0  0.85191191409E+03  0.41909512236E+03  0.12236434169E+03  0.95727094549E+03  0.25500000920E-02 0.  1.
       -2    1    3    3    0  502 -0.85191191409E+03 -0.41909512236E+03  0.95145649521E+02  0.95417363492E+03  0.25500000920E-02 0. -1.
</event>
<event>
 5   0  0.5614989E-05  0.1952488E+04  0.7818609E-02  0.8629162E-01
       -1   -1    0    0    0  501  0.00000000000E+00  0.00000000000E+00  0.18157555122E+04  0.18157555122E+04  0.50400001928E-02 0.  1.
        1   -1    0    0  501    0  0.00000000000E+00  0.00000000000E+00 -0.52487923452E+03  0.52487923455E+03  0.50400001928E-02 0. -1.
    10030    2    1    2    0    0  0.00000000000E+00  0.00000000000E+00  0.12908762777E+04  0.23406347467E+04  0.19524880162E+04 0.  0.
        4    1    3    3  502    0  0.32429805608E+03  0.77041929809E+03  0.12500113093E+04  0.15037436651E+04  0.12699999809E+01 0.  1.
       -4    1    3    3    0  502 -0.32429805608E+03 -0.77041929809E+03  0.40864968410E+02  0.83689108168E+03  0.12699999809E+01 0. -1.
</event>
<event>
 5   0  0.1101678E-04  0.1892466E+04  0.7818609E-02  0.8658616E-01
        2   -1    0    0  501    0  0.00000000000E+00  0.00000000000E+00  0.30325179611E+04  0.30325179611E+04  0.25500000920E-02 0. -1.
       -2   -1    0    0    0  501  0.00000000000E+00  0.00000000000E+00 -0.29525189111E+03  0.29525189112E+03  0.25500000920E-02 0.  1.
    10030    2    1    2    0    0  0.00000000000E+00  0.00000000000E+00  0.27372660699E+04  0.33277698522E+04  0.18924657596E+04 0.  0.
        4    1    3    3  502    0 -0.27626035944E+03  0.90481355896E+03  0.13358446779E+04  0.16369147745E+04  0.12699999809E+01 0. -1.
       -4    1    3    3    0  502  0.27626035944E+03 -0.90481355896E+03  0.14014213920E+04  0.16908550776E+04  0.12699999809E+01 0.  1.
</event>
<event>
 5   0  0.4061125E-05  0.1893379E+04  0.7818609E-02  0.8658159E-01
        3   -1    0    0  501    0  0.00000000000E+00  0.00000000000E+00  0.15684579839E+04  0.15684579871E+04  0.10100000352E+00 0.  1.
       -3   -1    0    0    0  501  0.00000000000E+00  0.00000000000E+00 -0.57140268916E+03  0.57140269809E+03  0.10100000352E+00 0. -1.
    10030    2    1    2    0    0  0.00000000000E+00  0.00000000000E+00  0.99705529470E+03  0.21398606852E+04  0.18933791198E+04 0.  0.
        4    1    3    3  502    0  0.13132109621E+03  0.23462240166E+03 -0.52734200012E+03  0.59193251276E+03  0.12699999809E+01 0. -1.
       -4    1    3    3    0  502 -0.13132109621E+03 -0.23462240166E+03  0.15243972948E+04  0.15479281724E+04  0.12699999809E+01 0.  1.
</event>
<event>
 5   0  0.5628936E-05  0.1856552E+04  0.7818609E-02  0.8676791E-01
       -1   -1    0    0    0  501  0.00000000000E+00  0.00000000000E+00  0.92861924532E+03  0.92861924534E+03  0.50400001928E-02 0.  1.
        1   -1    0    0  501    0  0.00000000000E+00  0.00000000000E+00 -0.92793273396E+03  0.92793273397E+03  0.50400001928E-02 0. -1.
    10030    2    1    2    0    0  0.00000000000E+00  0.00000000000E+00  0.68651136568E+00  0.18565519793E+04  0.18565518524E+04 0.  0.
        5    1    3    3  502    0  0.40869207228E+03 -0.32567387818E+03  0.76753391044E+03  0.92855967958E+03  0.46999998093E+01 0. -1.
       -5    1    3    3    0  502 -0.40869207228E+03  0.32567387818E+03 -0.76684739907E+03  0.92799229972E+03  0.46999998093E+01 0.  1.
</event>
<event>
 5   0  0.5628936E-05  0.1878483E+04  0.7818609E-02  0.8665642E-01
        1   -1    0    0  501    0  0.00000000000E+00  0.00000000000E+00  0.12597592190E+04  0.12597592190E+04  0.50400001928E-02 0.  1.
       -1   -1    0    0    0  501  0.00000000000E+00  0.00000000000E+00 -0.70027230759E+03  0.70027230760E+03  0.50400001928E-02 0. -1.
    10030    2    1    2    0    0  0.00000000000E+00  0.00000000000E+00  0.55948691138E+03  0.19600315266E+04  0.18784828935E+04 0.  0.
        5    1    3    3  502    0 -0.14173965819E+03 -0.71353889214E+03 -0.34012099647E+03  0.80307674822E+03  0.46999998093E+01 0. -1.
       -5    1    3    3    0  502  0.14173965819E+03  0.71353889214E+03  0.89960790785E+03  0.11569547784E+04  0.46999998093E+01 0.  1.
</event>
<event>
 5   0  0.1182630E-04  0.1887232E+04  0.7818609E-02  0.8661238E-01
       -2   -1    0    0    0  501  0.00000000000E+00  0.00000000000E+00  0.10740283813E+04  0.10740283813E+04  0.25500000920E-02 0.  1.
        2   -1    0    0  501    0  0.00000000000E+00  0.00000000000E+00 -0.82903833653E+03  0.82903833653E+03  0.25500000920E-02 0. -1.
    10030    2    1    2    0    0  0.00000000000E+00  0.00000000000E+00  0.24499004476E+03  0.19030667178E+04  0.18872315201E+04 0.  0.
        5    1    3    3  502    0  0.35315621287E+03  0.74835956424E+03  0.57976130780E+03  0.10103992340E+04  0.46999998093E+01 0.  1.
       -5    1    3    3    0  502 -0.35315621287E+03 -0.74835956424E+03 -0.33477126304E+03  0.89266748380E+03  0.46999998093E+01 0. -1.
</event>
<event>
 5   0  0.1118206E-04  0.1896831E+04  0.7818609E-02  0.8656436E-01
        2   -1    0    0  501    0  0.00000000000E+00  0.00000000000E+00  0.21004759751E+04  0.21004759751E+04  0.25500000920E-02 0. -1.
       -2   -1    0    0    0  501  0.00000000000E+00  0.00000000000E+00 -0.42823232778E+03  0.42823232778E+03  0.25500000920E-02 0.  1.
    10030    2    1    2    0    0  0.00000000000E+00  0.00000000000E+00  0.16722436473E+04  0.25287083029E+04  0.18968307423E+04 0.  0.
        1    1    3    3  502    0 -0.24466372487E+03 -0.47451387602E+03  0.18811302103E+04  0.19554218535E+04  0.50400001928E-02 0. -1.
       -1    1    3    3    0  502  0.24466372487E+03  0.47451387602E+03 -0.20888656304E+03  0.57328644938E+03  0.50400001928E-02 0.  1.
</event>
<event>
 5   0  0.5824956E-05  0.1892721E+04  0.7818609E-02  0.8658488E-01
        1   -1    0    0  501    0  0.00000000000E+00  0.00000000000E+00  0.10386269760E+04  0.10386269760E+04  0.50400001928E-02 0. -1.
       -1   -1    0    0    0  501  0.00000000000E+00  0.00000000000E+00 -0.86229028940E+03  0.86229028941E+03  0.50400001928E-02 0.  1.
    10030    2    1    2    0    0  0.00000000000E+00  0.00000000000E+00  0.17633668656E+03  0.19009172654E+04  0.18927207461E+04 0.  0.
        2    1    3    3  502    0  0.42489028930E+03 -0.32924670184E+03  0.87042696407E+03  0.10230240703E+04  0.25500000920E-02 0. -1.
       -2    1    3    3    0  502 -0.42489028930E+03  0.32924670184E+03 -0.69409027752E+03  0.87789319508E+03  0.25500000920E-02 0.  1.
</event>
<event>
 5   0  0.4061125E-05  0.1895872E+04  0.7818609E-02  0.8656914E-01
       -4   -1    0    0    0  501  0.00000000000E+00  0.00000000000E+00  0.14338697739E+04  0.14338703363E+04  0.12699999809E+01 0. -1.
        4   -1    0    0  501    0  0.00000000000E+00  0.00000000000E+00 -0.62668204434E+03  0.62668333119E+03  0.12699999809E+01 0.  1.
    10030    2    1    2    0    0  0.00000000000E+00  0.00000000000E+00  0.80718772957E+03  0.20605536675E+04  0.18958716692E+04 0.  0.
        1    1    3    3  502    0  0.80491227414E+03 -0.40474196876E+03  0.83231723096E+02  0.90478027725E+03  0.50400001928E-02 0.  1.
       -1    1    3    3    0  502 -0.80491227414E+03  0.40474196876E+03  0.72395600648E+03  0.11557733903E+04  0.50400001928E-02 0. -1.
</event>
<event>
 5   0  0.1118206E-04  0.1802962E+04  0.7818609E-02  0.8704726E-01
        2   -1    0    0  501    0  0.00000000000E+00  0.00000000000E+00  0.11967982785E+04  0.11967982785E+04  0.25500000920E-02 0.  1.
       -2   -1    0    0    0  501  0.00000000000E+00  0.00000000000E+00 -0.67903516929E+03  0.67903516929E+03  0.25500000920E-02 0. -1.
    10030    2    1    2    0    0  0.00000000000E+00  0.00000000000E+00  0.51776310917E+03  0.18758334478E+04  0.18029621423E+04 0.  0.
        1    1    3    3  502    0 -0.47859624225E+02 -0.80737777883E+03  0.67311763056E+03  0.10522531853E+04  0.50400001928E-02 0.  1.
       -1    1    3    3    0  502  0.47859624225E+02  0.80737777883E+03 -0.15535452138E+03  0.82358026246E+03  0.50400001928E-02 0. -1.
</event>
<event>
 5   0  0.1118206E-04  0.1906902E+04  0.7818609E-02  0.8651429E-01
       -2   -1    0    0    0  501  0.00000000000E+00  0.00000000000E+00  0.11374672765E+04  0.11374672765E+04  0.25500000920E-02 0.  1.
        2   -1    0    0  501    0  0.00000000000E+00  0.00000000000E+00 -0.79920417332E+03  0.79920417332E+03  0.25500000920E-02 0. -1.
    10030    2    1    2    0    0  0.00000000000E+00  0.00000000000E+00  0.33826310314E+03  0.19366714498E+04  0.19069017745E+04 0.  0.
        1    1    3    3  502    0 -0.92523977921E+02 -0.94665706290E+03  0.10216035903E+03  0.95663839574E+03  0.50400001928E-02 0. -1.
       -1    1    3    3    0  502  0.92523977921E+02  0.94665706290E+03  0.23610274410E+03  0.98003305405E+03  0.50400001928E-02 0.  1.
</event>
<event>
 5   0  0.1133638E-04  0.1788655E+04  0.7818609E-02  0.8712356E-01
       -2   -1    0    0    0  501  0.00000000000E+00  0.00000000000E+00  0.80558683725E+03  0.80558683726E+03  0.25500000920E-02 0.  1.
        2   -1    0    0  501    0  0.00000000000E+00  0.00000000000E+00 -0.99284345877E+03  0.99284345878E+03  0.25500000920E-02 0. -1.
    10030    2    1    2    0    0  0.00000000000E+00  0.00000000000E+00 -0.18725662152E+03  0.17984302960E+04  0.17886549380E+04 0.  0.
        3    1    3    3  502    0 -0.89227857779E+03 -0.55256690662E+02 -0.11840541733E+03  0.90179499628E+03  0.10100000352E+00 0. -1.
       -3    1    3    3    0  502  0.89227857779E+03  0.55256690662E+02 -0.68851204190E+02  0.89663529976E+03  0.10100000352E+00 0.  1.
</event>
<event>
 5   0  0.5614989E-05  0.1892337E+04  0.7818609E-02  0.8658680E-01
       -1   -1    0    0    0  501  0.00000000000E+00  0.00000000000E+00  0.46228103461E+03  0.46228103464E+03  0.50400001928E-02 0.  1.
        1   -1    0    0  501    0  0.00000000000E+00  0.00000000000E+00 -0.19365598018E+04  0.19365598018E+04  0.50400001928E-02 0. -1.
    10030    2    1    2    0    0  0.00000000000E+00  0.00000000000E+00 -0.14742787672E+04  0.23988408365E+04  0.18923370406E+04 0.  0.
        4    1    3    3  502    0  0.81625685337E+03  0.11644094122E+03 -0.13254752178E+04  0.15609996506E+04  0.12699999809E+01 0. -1.
       -4    1    3    3    0  502 -0.81625685337E+03 -0.11644094122E+03 -0.14880354944E+03  0.83784118584E+03  0.12699999809E+01 0.  1.
</event>
<event>
 5   0  0.5614989E-05  0.1944726E+04  0.7818609E-02  0.8632908E-01
        1   -1    0    0  501    0  0.00000000000E+00  0.00000000000E+00  0.99257830614E+03  0.99257830616E+03  0.50400001928E-02 0.  1.
       -1   -1    0    0    0  501  0.00000000000E+00  0.00000000000E+00 -0.95255921699E+03  0.95255921700E+03  0.50400001928E-02 0. -1.
    10030    2    1    2    0    0  0.00000000000E+00  0.00000000000E+00  0.40019089155E+02  0.19451375232E+04  0.19447258050E+04 0.  0.
        4    1    3    3  502    0  0.89218951004E+03 -0.27783395622E+03  0.28894222431E+03  0.97810175899E+03  0.12699999809E+01 0.  1.
       -4    1    3    3    0  502 -0.89218951004E+03  0.27783395622E+03 -0.24892313516E+03  0.96703576417E+03  0.12699999809E+01 0. -1.
</event>
<event>
 5   0  0.5841424E-05  0.1903117E+04  0.7818609E-02  0.8653306E-01
        1   -1    0    0  501    0  0.00000000000E+00  0.00000000000E+00  0.13886751092E+04  0.13886751092E+04  0.50400001928E-02 0.  1.
       -1   -1    0    0    0  501  0.00000000000E+00  0.00000000000E+00 -0.65203432190E+03  0.65203432192E+03  0.50400001928E-02 0. -1.
    10030    2    1    2    0    0  0.00000000000E+00  0.00000000000E+00  0.73664078727E+03  0.20407094311E+04  0.19031172672E+04 0.  0.
        1    1    3    3  502    0  0.28137299582E+03  0.19794834604E+03  0.13196548029E+04  0.13637606495E+04  0.50400001928E-02 0.  1.
       -1    1    3    3    0  502 -0.28137299582E+03 -0.19794834604E+03 -0.58301401559E+03  0.67694878157E+03  0.50400001928E-02 0. -1.
</event>
<event>
 5   0  0.1182630E-04  0.1899987E+04  0.7818609E-02  0.8654863E-01
       -2   -1    0    0    0  501  0.00000000000E+00  0.00000000000E+00  0.83082110689E+03  0.83082110689E+03  0.25500000920E-02 0.  1.
        2   -1    0    0  501    0  0.00000000000E+00  0.00000000000E+00 -0.10862602685E+04  0.10862602685E+04  0.25500000920E-02 0. -1.
    10030    2    1    2    0    0  0.00000000000E+00  0.00000000000E+00 -0.25543916159E+03  0.19170813754E+04  0.18999873248E+04 0.  0.
        5    1    3    3  502    0  0.39679352564E+03 -0.65628843650E+03 -0.69339376098E+03  0.10339132515E+04  0.46999998093E+01 0. -1.
       -5    1    3    3    0  502 -0.39679352564E+03  0.65628843650E+03  0.43795459939E+03  0.88316812386E+03  0.46999998093E+01 0.  1.
</event>
<event>
 5   0  0.5579109E-05  0.1897742E+04  0.7818609E-02  0.8655981E-01
       -1   -1    0    0    0  501  0.00000000000E+00  0.00000000000E+00  0.85823842217E+03  0.85823842219E+03  0.50400001928E-02 0.  1.
        1   -1    0    0  501    0  0.00000000000E+00  0.00000000000E+00 -0.10490744005E+04  0.10490744006E+04  0.50400001928E-02 0. -1.
    10030    2    1    2    0    0  0.00000000000E+00  0.00000000000E+00 -0.19083597837E+03  0.19073128227E+04  0.18977417720E+04 0.  0.
        3    1    3    3  502    0 -0.49165111872E+03  0.43116998241E+03 -0.78643744945E+03  0.10227962888E+04  0.10100000352E+00 0. -1.
       -3    1    3    3    0  502  0.49165111872E+03 -0.43116998241E+03  0.59560147108E+03  0.88451653395E+03  0.10100000352E+00 0.  1.
</event>
<event>
 5   0  0.1182630E-04  0.1902235E+04  0.7818609E-02  0.8653745E-01
       -2   -1    0    0    0  501  0.00000000000E+00  0.00000000000E+00  0.39771863770E+03  0.39771863771E+03  0.25500000920E-02 0.  1.
        2   -1    0    0  501    0  0.00000000000E+00  0.00000000000E+00 -0.22745345474E+04  0.22745345474E+04  0.25500000920E-02 0. -1.
    10030    2    1    2    0    0  0.00000000000E+00  0.00000000000E+00 -0.18768159097E+04  0.26722531851E+04  0.19022352973E+04 0.  0.
        5    1    3    3  502    0 -0.64414420626E+03 -0.46075305515E+03 -0.19853550880E+03  0.81648856363E+03  0.46999998093E+01 0.  1.
       -5    1    3    3    0  502  0.64414420626E+03  0.46075305515E+03 -0.16782804009E+04  0.18557646215E+04  0.46999998093E+01 0. -1.
</event>
<event>
 5   0  0.1118206E-04  0.1905934E+04  0.7818609E-02  0.8651908E-01
       -2   -1    0    0    0  501  0.00000000000E+00  0.00000000000E+00  0.43232928310E+03  0.43232928311E+03  0.25500000920E-02 0.  1.
        2   -1    0    0  501    0  0.00000000000E+00  0.00000000000E+00 -0.21005890774E+04  0.21005890774E+04  0.25500000920E-02 0. -1.
    10030    2    1    2    0    0  0.00000000000E+00  0.00000000000E+00 -0.16682597943E+04  0.25329183605E+04  0.19059340701E+04 0.  0.
        1    1    3    3  502    0 -0.85999749425E+02  0.47027099861E+03 -0.19296958677E+04  0.19880334280E+04  0.50400001928E-02 0. -1.
       -1    1    3    3    0  502  0.85999749425E+02 -0.47027099861E+03  0.26143607349E+03  0.54488493242E+03  0.50400001928E-02 0.  1.
</event>
<event>
 5   0  0.1101678E-04  0.1896141E+04  0.7818609E-02  0.8656780E-01
        2   -1    0    0  501    0  0.00000000000E+00  0.00000000000E+00  0.12629413206E+04  0.12629413206E+04  0.25500000920E-02 0. -1.
       -2   -1    0    0    0  501  0.00000000000E+00  0.00000000000E+00 -0.71170163102E+03  0.71170163102E+03  0.25500000920E-02 0.  1.
    10030    2    1    2    0    0  0.00000000000E+00  0.00000000000E+00  0.55123968956E+03  0.19746429516E+04  0.18961407097E+04 0.  0.
        4    1    3    3  502    0 -0.46936829609E+03  0.57571895200E+03 -0.33790316681E+03  0.81605090044E+03  0.12699999809E+01 0.  1.
       -4    1    3    3    0  502  0.46936829609E+03 -0.57571895200E+03  0.88914285637E+03  0.11585920512E+04  0.12699999809E+01 0. -1.
</event>
<event>
 5   0  0.1182630E-04  0.1901193E+04  0.7818609E-02  0.8654263E-01
       -2   -1    0    0    0  501  0.00000000000E+00  0.00000000000E+00  0.55315555348E+03  0.55315555349E+03  0.25500000920E-02 0.  1.
        2   -1    0    0  501    0  0.00000000000E+00  0.00000000000E+00 -0.16335973765E+04  0.16335973765E+04  0.25500000920E-02 0. -1.
    10030    2    1    2    0    0  0.00000000000E+00  0.00000000000E+00 -0.10804418230E+04  0.21867529300E+04  0.19011927424E+04 0.  0.
        5    1    3    3  502    0 -0.51198625006E+03  0.44548138140E+03  0.22535639904E+03  0.71511619895E+03  0.46999998093E+01 0.  1.
       -5    1    3    3    0  502  0.51198625006E+03 -0.44548138140E+03 -0.13057982221E+04  0.14716367311E+04  0.46999998093E+01 0. -1.
</event>
<event>
 5   0  0.5614989E-05  0.1889328E+04  0.7818609E-02  0.8660187E-01
        1   -1    0    0  501    0  0.00000000000E+00  0.00000000000E+00  0.10210015903E+04  0.10210015903E+04  0.50400001928E-02 0.  1.
       -1   -1    0    0    0  501  0.00000000000E+00  0.00000000000E+00 -0.87403365366E+03  0.87403365367E+03  0.50400001928E-02 0. -1.
    10030    2    1    2    0    0  0.00000000000E+00  0.00000000000E+00  0.14696793660E+03  0.18950352440E+04  0.18893276586E+04 0.  0.
        4    1    3    3  502    0 -0.79258231360E+03 -0.46053156755E+03 -0.15548638281E+03  0.92976001026E+03  0.12699999809E+01 0. -1.
       -4    1    3    3    0  502  0.79258231360E+03  0.46053156755E+03  0.30245431941E+03  0.96527523369E+03  0.12699999809E+01 0.  1.
</event>
<event>
 5   0  0.1118206E-04  0.1919633E+04  0.7818609E-02  0.8645145E-01
       -2   -1    0    0    0  501  0.00000000000E+00  0.00000000000E+00  0.49831806137E+03  0.49831806138E+03  0.25500000920E-02 0.  1.
        2   -1    0    0  501    0  0.00000000000E+00  0.00000000000E+00 -0.18487141605E+04  0.18487141605E+04  0.25500000920E-02 0. -1.
    10030    2    1    2    0    0  0.00000000000E+00  0.00000000000E+00 -0.13503960992E+04  0.23470322219E+04  0.19196329404E+04 0.  0.
        1    1    3    3  502    0  0.60735730329E+03  0.69919440410E+03 -0.36712040595E+03  0.99625955507E+03  0.50400001928E-02 0.  1.
       -1    1    3    3    0  502 -0.60735730329E+03 -0.69919440410E+03 -0.98327569322E+03  0.13507726668E+04  0.50400001928E-02 0. -1.
</event>
<event>
 5   0  0.5841424E-05  0.1798768E+04  0.7818609E-02  0.8706955E-01
       -1   -1    0    0    0  501  0.00000000000E+00  0.00000000000E+00  0.83767639428E+03  0.83767639430E+03  0.50400001928E-02 0. -1.
        1   -1    0    0  501    0  0.00000000000E+00  0.00000000000E+00 -0.96563777939E+03  0.96563777941E+03  0.50400001928E-02 0.  1.
    10030    2    1    2    0    0  0.00000000000E+00  0.00000000000E+00 -0.12796138511E+03  0.18033141737E+04  0.17987684378E+04 0.  0.
        1    1    3    3  502    0 -0.32360726894E+03  0.83914601563E+03 -0.66053080926E+02  0.90180414147E+03  0.50400001928E-02 0.  1.
       -1    1    3    3    0  502  0.32360726894E+03 -0.83914601563E+03 -0.61908304184E+02  0.90151003223E+03  0.50400001928E-02 0. -1.
</event>
<event>
 5   0  0.5824956E-05  0.1878141E+04  0.7818609E-02  0.8665814E-01
       -1   -1    0    0    0  501  0.00000000000E+00  0.00000000000E+00  0.10334220280E+04  0.10334220280E+04  0.50400001928E-02 0.  1.
        1   -1    0    0  501    0  0.00000000000E+00  0.00000000000E+00 -0.85333324330E+03  0.85333324332E+03  0.50400001928E-02 0. -1.
    10030    2    1    2    0    0  0.00000000000E+00  0.00000000000E+00  0.18008878473E+03  0.18867552714E+04  0.18781409648E+04 0.  0.
        2    1    3    3  502    0 -0.46560976153E+03 -0.37860409741E+03 -0.63557030453E+03  0.87411848431E+03  0.25500000920E-02 0. -1.
       -2    1    3    3    0  502  0.46560976153E+03  0.37860409741E+03  0.81565908926E+03  0.10126367871E+04  0.25500000920E-02 0.  1.
</event>
<event>
 5   0  0.5824956E-05  0.1952859E+04  0.7818609E-02  0.8628984E-01
       -1   -1    0    0    0  501  0.00000000000E+00  0.00000000000E+00  0.70761916061E+03  0.70761916063E+03  0.50400001928E-02 0. -1.
        1   -1    0    0  501    0  0.00000000000E+00  0.00000000000E+00 -0.13473549160E+04  0.13473549160E+04  0.50400001928E-02 0.  1.
    10030    2    1    2    0    0  0.00000000000E+00  0.00000000000E+00 -0.63973575539E+03  0.20549740767E+04  0.19528585763E+04 0.  0.
        2    1    3    3  502    0 -0.72704640644E+03 -0.42946957435E+03 -0.83578376771E+03  0.11880972598E+04  0.25500000920E-02 0.  1.
       -2    1    3    3    0  502  0.72704640644E+03  0.42946957435E+03  0.19604801232E+03  0.86687681683E+03  0.25500000920E-02 0. -1.
</event>
<event>
 5   0  0.5841424E-05  0.1904087E+04  0.7818609E-02  0.8652825E-01
       -1   -1    0    0    0  501  0.00000000000E+00  0.00000000000E+00  0.57591042745E+03  0.57591042747E+03  0.50400001928E-02 0. -1.
        1   -1    0    0  501    0  0.00000000000E+00  0.00000000000E+00 -0.15738323120E+04  0.15738323120E+04  0.50400001928E-02 0.  1.
    10030    2    1    2    0    0  0.00000000000E+00  0.00000000000E+00 -0.99792188455E+03  0.21497427395E+04  0.19040865942E+04 0.  0.
        1    1    3    3  502    0  0.37494952853E+03 -0.85861200520E+03 -0.30807817179E+03  0.98626258388E+03  0.50400001928E-02 0.  1.
       -1    1    3    3    0  502 -0.37494952853E+03  0.85861200520E+03 -0.68984371276E+03  0.11634801556E+04  0.50400001928E-02 0. -1.
</event>
<event>
 5   0  0.5614989E-05  0.1880989E+04  0.7818609E-02  0.8664378E-01
       -1   -1    0    0    0  501  0.00000000000E+00  0.00000000000E+00  0.51685571571E+03  0.51685571574E+03  0.50400001928E-02 0.  1.
        1   -1    0    0  501    0  0.00000000000E+00  0.00000000000E+00 -0.17113666914E+04  0.17113666914E+04  0.50400001928E-02 0. -1.
    10030    2    1    2    0    0  0.00000000000E+00  0.00000000000E+00 -0.11945109757E+04  0.22282224071E+04  0.18809887359E+04 0.  0.
        4    1    3    3  502    0 -0.84582646023E+03 -0.26995116296E+03 -0.22977682661E+03  0.91711233453E+03  0.12699999809E+01 0.  1.
       -4    1    3    3    0  502  0.84582646023E+03  0.26995116296E+03 -0.96473414904E+03  0.13111100726E+04  0.12699999809E+01 0. -1.
</event>
<event>
 5   0  0.1101678E-04  0.1909270E+04  0.7818609E-02  0.8650256E-01
        2   -1    0    0  501    0  0.00000000000E+00  0.00000000000E+00  0.18891403177E+04  0.18891403177E+04  0.25500000920E-02 0.  1.
       -2   -1    0    0    0  501  0.00000000000E+00  0.00000000000E+00 -0.48240351079E+03  0.48240351080E+03  0.25500000920E-02 0. -1.
    10030    2    1    2    0    0  0.00000000000E+00  0.00000000000E+00  0.14067368069E+04  0.23715438285E+04  0.19092699355E+04 0.  0.
        4    1    3    3  502    0 -0.86260876584E+03  0.22161880891E+03  0.27647347195E+03  0.93254917992E+03  0.12699999809E+01 0. -1.
       -4    1    3    3    0  502  0.86260876584E+03 -0.22161880891E+03  0.11302633349E+04  0.14389946486E+04  0.12699999809E+01 0.  1.
</event>
<event>
 5   0  0.1101678E-04  0.2048699E+04  0.7818609E-02  0.8584185E-01
       -2   -1    0    0    0  501  0.00000000000E+00  0.00000000000E+00  0.54089429540E+03  0.54089429541E+03  0.25500000920E-02 0. -1.
        2   -1    0    0  501    0  0.00000000000E+00  0.00000000000E+00 -0.19399210299E+04  0.19399210299E+04  0.25500000920E-02 0.  1.
    10030    2    1    2    0    0  0.00000000000E+00  0.00000000000E+00 -0.13990267345E+04  0.24808153253E+04  0.20486993128E+04 0.  0.
        4    1    3    3  502    0  0.53394720293E+03  0.17466980826E+03 -0.17367312197E+04  0.18253345172E+04  0.12699999809E+01 0.  1.
       -4    1    3    3    0  502 -0.53394720293E+03 -0.17466980826E+03  0.33770448525E+03  0.65548080802E+03  0.12699999809E+01 0. -1.
</event>
<event>
 5   0  0.5628936E-05  0.1906923E+04  0.7818609E-02  0.8651418E-01
        1   -1    0    0  501    0  0.00000000000E+00  0.00000000000E+00  0.12487058795E+04  0.12487058795E+04  0.50400001928E-02 0.  1.
       -1   -1    0    0    0  501  0.00000000000E+00  0.00000000000E+00 -0.72802498360E+03  0.72802498361E+03  0.50400001928E-02 0. -1.
    10030    2    1    2    0    0  0.00000000000E+00  0.00000000000E+00  0.52068089591E+03  0.19767308631E+04  0.19069232575E+04 0.  0.
        5    1    3    3  502    0  0.38134790475E+03  0.62052970556E+03 -0.37747532219E+03  0.82036153543E+03  0.46999998093E+01 0. -1.
       -5    1    3    3    0  502 -0.38134790475E+03 -0.62052970556E+03  0.89815621810E+03  0.11563693277E+04  0.46999998093E+01 0.  1.
</event>
<event>
 5   0  0.1141890E-04  0.1902291E+04  0.7818609E-02  0.8653717E-01
        2   -1    0    0  501    0  0.00000000000E+00  0.00000000000E+00  0.19177733157E+04  0.19177733157E+04  0.25500000920E-02 0. -1.
       -2   -1    0    0    0  501  0.00000000000E+00  0.00000000000E+00 -0.47173364286E+03  0.47173364287E+03  0.25500000920E-02 0.  1.
    10030    2    1    2    0    0  0.00000000000E+00  0.00000000000E+00  0.14460396728E+04  0.23895069585E+04  0.19022914523E+04 0.  0.
        2    1    3    3  502    0 -0.75361870345E+03 -0.52029184098E+03  0.40023493484E+03  0.99941620612E+03  0.25500000920E-02 0.  1.
       -2    1    3    3    0  502  0.75361870345E+03  0.52029184098E+03  0.10458047380E+04  0.13900907524E+04  0.25500000920E-02 0. -1.
</event>
<event>
 5   0  0.4061125E-05  0.1910615E+04  0.7818609E-02  0.8649591E-01
        3   -1    0    0  501    0  0.00000000000E+00  0.00000000000E+00  0.63100664636E+03  0.63100665444E+03  0.10100000352E+00 0.  1.
       -3   -1    0    0    0  501  0.00000000000E+00  0.00000000000E+00 -0.14462797073E+04  0.14462797108E+04  0.10100000352E+00 0. -1.
    10030    2    1    2    0    0  0.00000000000E+00  0.00000000000E+00 -0.81527306093E+03  0.20772863653E+04  0.19106146863E+04 0.  0.
        4    1    3    3  502    0  0.73208289058E+03 -0.59152941468E+03 -0.58548531185E+03  0.11084435351E+04  0.12699999809E+01 0. -1.
       -4    1    3    3    0  502 -0.73208289058E+03  0.59152941468E+03 -0.22978774908E+03  0.96884283020E+03  0.12699999809E+01 0.  1.
</event>
<event>
 5   0  0.1118206E-04  0.1902483E+04  0.7818609E-02  0.8653621E-01
        2   -1    0    0  501    0  0.00000000000E+00  0.00000000000E+00  0.64113788375E+03  0.64113788376E+03  0.25500000920E-02 0.  1.
       -2   -1    0    0    0  501  0.00000000000E+00  0.00000000000E+00 -0.14113357023E+04  0.14113357023E+04  0.25500000920E-02 0. -1.
    10030    2    1    2    0    0  0.00000000000E+00  0.00000000000E+00 -0.77019781851E+03  0.20524735860E+04  0.19024834143E+04 0.  0.
        1    1    3    3  502    0 -0.28741766858E+03  0.35851386160E+03 -0.12836622678E+04  0.13634258040E+04  0.50400001928E-02 0. -1.
       -1    1    3    3    0  502  0.28741766858E+03 -0.35851386160E+03  0.51346444931E+03  0.68904778201E+03  0.50400001928E-02 0.  1.
</event>
<event>
 5   0  0.1101678E-04  0.1897648E+04  0.7818609E-02  0.8656028E-01
        2   -1    0    0  501    0  0.00000000000E+00  0.00000000000E+00  0.86594034398E+03  0.86594034398E+03  0.25500000920E-02 0. -1.
       -2   -1    0    0    0  501  0.00000000000E+00  0.00000000000E+00 -0.10396406182E+04  0.10396406182E+04  0.25500000920E-02 0.  1.
    10030    2    1    2    0    0  0.00000000000E+00  0.00000000000E+00 -0.17370027419E+03  0.19055809622E+04  0.18976477592E+04 0.  0.
        4    1    3    3  502    0 -0.38295854568E+03  0.13341618128E+03 -0.94822870315E+03  0.10313081070E+04  0.12699999809E+01 0.  1.
       -4    1    3    3    0  502  0.38295854568E+03 -0.13341618128E+03  0.77452842896E+03  0.87427285518E+03  0.12699999809E+01 0. -1.
</event>
<event>
 5   0  0.5628936E-05  0.1897522E+04  0.7818609E-02  0.8656091E-01
        1   -1    0    0  501    0  0.00000000000E+00  0.00000000000E+00  0.12356477947E+04  0.12356477947E+04  0.50400001928E-02 0. -1.
       -1   -1    0    0    0  501  0.00000000000E+00  0.00000000000E+00 -0.72848243288E+03  0.72848243289E+03  0.50400001928E-02 0.  1.
    10030    2    1    2    0    0  0.00000000000E+00  0.00000000000E+00  0.50716536180E+03  0.19641302276E+04  0.18975222915E+04 0.  0.
        5    1    3    3  502    0  0.28934783482E+03 -0.54989183480E+03  0.99570317445E+03  0.11736908030E+04  0.46999998093E+01 0. -1.
       -5    1    3    3    0  502 -0.28934783482E+03  0.54989183480E+03 -0.48853781265E+03  0.79043942455E+03  0.46999998093E+01 0.  1.
</event>
<event>
 5   0  0.1101678E-04  0.1907359E+04  0.7818609E-02  0.8651202E-01
        2   -1    0    0  501    0  0.00000000000E+00  0.00000000000E+00  0.20156673604E+04  0.20156673604E+04  0.25500000920E-02 0. -1.
       -2   -1    0    0    0  501  0.00000000000E+00  0.00000000000E+00 -0.45121762962E+03  0.45121762963E+03  0.25500000920E-02 0.  1.
    10030    2    1    2    0    0  0.00000000000E+00  0.00000000000E+00  0.15644497307E+04  0.24668849900E+04  0.19073590626E+04 0.  0.
        4    1    3    3  502    0  0.24703021897E+03  0.21815673539E+03 -0.37522449253E+03  0.49941097603E+03  0.12699999809E+01 0.  1.
       -4    1    3    3    0  502 -0.24703021897E+03 -0.21815673539E+03  0.19396742233E+04  0.19674740140E+04  0.12699999809E+01 0. -1.
</event>
<event>
 5   0  0.1182630E-04  0.1915373E+04  0.7818609E-02  0.8647242E-01
       -2   -1    0    0    0  501  0.00000000000E+00  0.00000000000E+00  0.70977729903E+03  0.70977729903E+03  0.25500000920E-02 0. -1.
        2   -1    0    0  501    0  0.00000000000E+00  0.00000000000E+00 -0.12921843789E+04  0.12921843789E+04  0.25500000920E-02 0.  1.
    10030    2    1    2    0    0  0.00000000000E+00  0.00000000000E+00 -0.58240707989E+03  0.20019616780E+04  0.19153726931E+04 0.  0.
        5    1    3    3  502    0  0.60816869871E+03  0.41890218844E+03  0.34610975527E+03  0.81557480482E+03  0.46999998093E+01 0. -1.
       -5    1    3    3    0  502 -0.60816869871E+03 -0.41890218844E+03 -0.92851683515E+03  0.11863868731E+04  0.46999998093E+01 0.  1.
</event>
<event>
 5   0  0.1118206E-04  0.1901579E+04  0.7818609E-02  0.8654071E-01
        2   -1    0    0  501    0  0.00000000000E+00  0.00000000000E+00  0.76699264903E+03  0.76699264903E+03  0.25500000920E-02 0.  1.
       -2   -1    0    0    0  501  0.00000000000E+00  0.00000000000E+00 -0.11786296221E+04  0.11786296221E+04  0.25500000920E-02 0. -1.
    10030    2    1    2    0    0  0.00000000000E+00  0.00000000000E+00 -0.41163697305E+03  0.19456222711E+04  0.19015785612E+04 0.  0.
        1    1    3    3  502    0 -0.45582309985E+03  0.17062522423E+03 -0.10415058306E+04  0.11496182239E+04  0.50400001928E-02 0. -1.
       -1    1    3    3    0  502  0.45582309985E+03 -0.17062522423E+03  0.62986885754E+03  0.79600404724E+03  0.50400001928E-02 0.  1.
</event>
<event>
 5   0  0.5614989E-05  0.1889666E+04  0.7818609E-02  0.8660017E-01
        1   -1    0    0  501    0  0.00000000000E+00  0.00000000000E+00  0.11349200103E+04  0.11349200103E+04  0.50400001928E-02 0.  1.
       -1   -1    0    0    0  501  0.00000000000E+00  0.00000000000E+00 -0.78658353242E+03  0.78658353243E+03  0.50400001928E-02 0. -1.
    10030    2    1    2    0    0  0.00000000000E+00  0.00000000000E+00  0.34833647785E+03  0.19215035427E+04  0.18896659924E+04 0.  0.
        4    1    3    3  502    0  0.70053603464E+03 -0.29738204061E+03 -0.39519501530E+03  0.85753572924E+03  0.12699999809E+01 0. -1.
       -4    1    3    3    0  502 -0.70053603464E+03  0.29738204061E+03  0.74353149315E+03  0.10639678135E+04  0.12699999809E+01 0.  1.
</event>
<event>
 5   0  0.1118206E-04  0.1895510E+04  0.7818609E-02  0.8657095E-01
       -2   -1    0    0    0  501  0.00000000000E+00  0.00000000000E+00  0.11190381296E+04  0.11190381296E+04  0.25500000920E-02 0. -1.
        2   -1    0    0  501    0  0.00000000000E+00  0.00000000000E+00 -0.80268903005E+03  0.80268903006E+03  0.25500000920E-02 0.  1.
    10030    2    1    2    0    0  0.00000000000E+00  0.00000000000E+00  0.31634909959E+03  0.19217271597E+04  0.18955100959E+04 0.  0.
        1    1    3    3  502    0  0.12117205861E+03 -0.46718922045E+03 -0.66876071732E+03  0.82473591685E+03  0.50400001928E-02 0.  1.
       -1    1    3    3    0  502 -0.12117205861E+03  0.46718922045E+03  0.98510981691E+03  0.10969912428E+04  0.50400001928E-02 0. -1.
</event>
<event>
 5   0  0.5824956E-05  0.1909598E+04  0.7818609E-02  0.8650093E-01
        1   -1    0    0  501    0  0.00000000000E+00  0.00000000000E+00  0.13452458881E+04  0.13452458881E+04  0.50400001928E-02 0.  1.
       -1   -1    0    0    0  501  0.00000000000E+00  0.00000000000E+00 -0.67767650421E+03  0.67767650423E+03  0.50400001928E-02 0. -1.
    10030    2    1    2    0    0  0.00000000000E+00  0.00000000000E+00  0.66756938391E+03  0.20229223924E+04  0.19095984194E+04 0.  0.
        2    1    3    3  502    0 -0.34913094573E+03 -0.20325401488E+03  0.12502473550E+04  0.13138961377E+04  0.25500000920E-02 0.  1.
       -2    1    3    3    0  502  0.34913094573E+03  0.20325401488E+03 -0.58267797111E+03  0.70902625470E+03  0.25500000920E-02 0. -1.
</event>
<event>
 5   0  0.1133638E-04  0.1922485E+04  0.7818609E-02  0.8643744E-01
       -2   -1    0    0    0  501  0.00000000000E+00  0.00000000000E+00  0.16598990546E+04  0.16598990547E+04  0.25500000920E-02 0.  1.
        2   -1    0    0  501    0  0.00000000000E+00  0.00000000000E+00 -0.55665268627E+03  0.55665268628E+03  0.25500000920E-02 0. -1.
    10030    2    1    2    0    0  0.00000000000E+00  0.00000000000E+00  0.11032463684E+04  0.22165517409E+04  0.19224851289E+04 0.  0.
        3    1    3    3  502    0 -0.66674056247E+03 -0.49021928399E+03  0.11154312844E+04  0.13889006028E+04  0.10100000352E+00 0.  1.
       -3    1    3    3    0  502  0.66674056247E+03  0.49021928399E+03 -0.12184916042E+02  0.82765113811E+03  0.10100000352E+00 0. -1.
</event>
<event>
 5   0  0.5614989E-05  0.1896685E+04  0.7818609E-02  0.8656508E-01
        1   -1    0    0  501    0  0.00000000000E+00  0.00000000000E+00  0.87614235613E+03  0.87614235614E+03  0.50400001928E-02 0. -1.
       -1   -1    0    0    0  501  0.00000000000E+00  0.00000000000E+00 -0.10264924515E+04  0.10264924515E+04  0.50400001928E-02 0.  1.
    10030    2    1    2    0    0  0.00000000000E+00  0.00000000000E+00 -0.15035009539E+03  0.19026348077E+04  0.18966850187E+04 0.  0.
        4    1    3    3  502    0  0.23627849490E+03  0.26669234190E+03  0.80644454953E+03  0.88165001943E+03  0.12699999809E+01 0. -1.
       -4    1    3    3    0  502 -0.23627849490E+03 -0.26669234190E+03 -0.95679464492E+03  0.10209847882E+04  0.12699999809E+01 0.  1.
</event>
<event>
 5   0  0.5841424E-05  0.1902911E+04  0.7818609E-02  0.8653409E-01
       -1   -1    0    0    0  501  0.00000000000E+00  0.00000000000E+00  0.10344123692E+04  0.10344123692E+04  0.50400001928E-02 0.  1.
        1   -1    0    0  501    0  0.00000000000E+00  0.00000000000E+00 -0.87515120190E+03  0.87515120191E+03  0.50400001928E-02 0. -1.
    10030    2    1    2    0    0  0.00000000000E+00  0.00000000000E+00  0.15926116726E+03  0.19095635711E+04  0.19029106423E+04 0.  0.
        1    1    3    3  502    0  0.89939582694E+03 -0.38609971783E+02 -0.22944566271E+03  0.92900424951E+03  0.50400001928E-02 0. -1.
       -1    1    3    3    0  502 -0.89939582694E+03  0.38609971783E+02  0.38870682997E+03  0.98055932158E+03  0.50400001928E-02 0.  1.
</event>
<event>
 5   0  0.1118206E-04  0.1860132E+04  0.7818609E-02  0.8674960E-01
       -2   -1    0    0    0  501  0.00000000000E+00  0.00000000000E+00  0.10074900825E+04  0.10074900825E+04  0.25500000920E-02 0. -1.
        2   -1    0    0  501    0  0.00000000000E+00  0.00000000000E+00 -0.85859139656E+03  0.85859139656E+03  0.25500000920E-02 0.  1.
    10030    2    1    2    0    0  0.00000000000E+00  0.00000000000E+00  0.14889868599E+03  0.18660814791E+04  0.18601315190E+04 0.  0.
        1    1    3    3  502    0 -0.12827617024E+03 -0.35214784263E+03 -0.77948397687E+03  0.86490354904E+03  0.50400001928E-02 0.  1.
       -1    1    3    3    0  502  0.12827617024E+03  0.35214784263E+03  0.92838266286E+03  0.10011779301E+04  0.50400001928E-02 0. -1.
</event>
<event>
 5   0  0.1101678E-04  0.1900976E+04  0.7818609E-02  0.8654371E-01
        2   -1    0    0  501    0  0.00000000000E+00  0.00000000000E+00  0.11497121719E+04  0.11497121719E+04  0.25500000920E-02 0. -1.
       -2   -1    0    0    0  501  0.00000000000E+00  0.00000000000E+00 -0.78578602001E+03  0.78578602001E+03  0.25500000920E-02 0.  1.
    10030    2    1    2    0    0  0.00000000000E+00  0.00000000000E+00  0.36392615191E+03  0.19354981919E+04  0.19009763299E+04 0.  0.
        4    1    3    3  502    0  0.24701026533E+03 -0.91777440890E+03  0.17166998455E+03  0.96581371563E+03  0.12699999809E+01 0.  1.
       -4    1    3    3    0  502 -0.24701026533E+03  0.91777440890E+03  0.19225616736E+03  0.96968447631E+03  0.12699999809E+01 0. -1.
</event>
<event>
 5   0  0.4061125E-05  0.1910504E+04  0.7818609E-02  0.8649645E-01
       -3   -1    0    0    0  501  0.00000000000E+00  0.00000000000E+00  0.50068338667E+03  0.50068339686E+03  0.10100000352E+00 0.  1.
        3   -1    0    0  501    0  0.00000000000E+00  0.00000000000E+00 -0.18225220275E+04  0.18225220303E+04  0.10100000352E+00 0. -1.
    10030    2    1    2    0    0  0.00000000000E+00  0.00000000000E+00 -0.13218386408E+04  0.23232054271E+04  0.19105041388E+04 0.  0.
        4    1    3    3  502    0  0.84832431161E+02 -0.70310182452E+03 -0.14404575023E+04  0.16051380457E+04  0.12699999809E+01 0. -1.
       -4    1    3    3    0  502 -0.84832431161E+02  0.70310182452E+03  0.11861886150E+03  0.71806738140E+03  0.12699999809E+01 0.  1.
</event>
<event>
 5   0  0.1118206E-04  0.1908938E+04  0.7818609E-02  0.8650420E-01
       -2   -1    0    0    0  501  0.00000000000E+00  0.00000000000E+00  0.44147193710E+03  0.44147193711E+03  0.25500000920E-02 0.  1.
        2   -1    0    0  501    0  0.00000000000E+00  0.00000000000E+00 -0.20635755314E+04  0.20635755315E+04  0.25500000920E-02 0. -1.
    10030    2    1    2    0    0  0.00000000000E+00  0.00000000000E+00 -0.16221035943E+04  0.25050474686E+04  0.19089375969E+04 0.  0.
        1    1    3    3  502    0  0.57404843621E+03  0.58646741675E+03 -0.17148180578E+03  0.83838037177E+03  0.50400001928E-02 0.  1.
       -1    1    3    3    0  502 -0.57404843621E+03 -0.58646741675E+03 -0.14506217886E+04  0.16666670968E+04  0.50400001928E-02 0. -1.
</event>
<event>
 5   0  0.1133638E-04  0.1892191E+04  0.7818609E-02  0.8658753E-01
       -2   -1    0    0    0  501  0.00000000000E+00  0.00000000000E+00  0.83290089386E+03  0.83290089386E+03  0.25500000920E-02 0. -1.
        2   -1    0    0  501    0  0.00000000000E+00  0.00000000000E+00 -0.10746736818E+04  0.10746736819E+04  0.25500000920E-02 0.  1.
    10030    2    1    2    0    0  0.00000000000E+00  0.00000000000E+00 -0.24177278799E+03  0.19075745757E+04  0.18921909737E+04 0.  0.
        3    1    3    3  502    0 -0.23725746211E+03 -0.73309467390E+03  0.43255565984E+03  0.88364207307E+03  0.10100000352E+00 0. -1.
       -3    1    3    3    0  502  0.23725746211E+03  0.73309467390E+03 -0.67432844783E+03  0.10239325026E+04  0.10100000352E+00 0.  1.
</event>
<event>
 5   0  0.5841424E-05  0.1904542E+04  0.7818609E-02  0.8652599E-01
        1   -1    0    0  501    0  0.00000000000E+00  0.00000000000E+00  0.26246278961E+04  0.26246278961E+04  0.50400001928E-02 0. -1.
       -1   -1    0    0    0  501  0.00000000000E+00  0.00000000000E+00 -0.34550441094E+03  0.34550441098E+03  0.50400001928E-02 0.  1.
    10030    2    1    2    0    0  0.00000000000E+00  0.00000000000E+00  0.22791234852E+04  0.29701323071E+04  0.19045424808E+04 0.  0.
        1    1    3    3  502    0 -0.12525759521E+02 -0.81673026114E+03  0.37617888124E+03  0.89928625300E+03  0.50400001928E-02 0.  1.
       -1    1    3    3    0  502  0.12525759521E+02  0.81673026114E+03  0.19029446039E+04  0.20708460541E+04  0.50400001928E-02 0. -1.
</event>
<event>
 5   0  0.5841424E-05  0.1904927E+04  0.7818609E-02  0.8652408E-01
       -1   -1    0    0    0  501  0.00000000000E+00  0.00000000000E+00  0.56889822162E+03  0.56889822164E+03  0.50400001928E-02 0. -1.
        1   -1    0    0  501    0  0.00000000000E+00  0.00000000000E+00 -0.15946379384E+04  0.15946379385E+04  0.50400001928E-02 0.  1.
    10030    2    1    2    0    0  0.00000000000E+00  0.00000000000E+00 -0.10257397168E+04  0.21635361601E+04  0.19049269669E+04 0.  0.
        1    1    3    3  502    0 -0.27722191674E+03  0.25818164972E+03 -0.15053930522E+04  0.15523266399E+04  0.50400001928E-02 0.  1.
       -1    1    3    3    0  502  0.27722191674E+03 -0.25818164972E+03  0.47965333538E+03  0.61120952017E+03  0.50400001928E-02 0. -1.
</event>
<event>
 5   0  0.5579109E-05  0.1903203E+04  0.7818609E-02  0.8653264E-01
       -1   -1    0    0    0  501  0.00000000000E+00  0.00000000000E+00  0.11699998902E+04  0.11699998903E+04  0.50400001928E-02 0. -1.
        1   -1    0    0  501    0  0.00000000000E+00  0.00000000000E+00 -0.77397048248E+03  0.77397048250E+03  0.50400001928E-02 0.  1.
    10030    2    1    2    0    0  0.00000000000E+00  0.00000000000E+00  0.39602940776E+03  0.19439703728E+04  0.19032029630E+04 0.  0.
        3    1    3    3  502    0  0.44432027544E+03  0.41774914934E+03 -0.54811911353E+03  0.81998136062E+03  0.10100000352E+00 0.  1.
       -3    1    3    3    0  502 -0.44432027544E+03 -0.41774914934E+03  0.94414852130E+03  0.11239890121E+04  0.10100000352E+00 0. -1.
</event>
<event>
 5   0  0.5628936E-05  0.1880981E+04  0.7818609E-02  0.8664382E-01
        1   -1    0    0  501    0  0.00000000000E+00  0.00000000000E+00  0.10017864961E+04  0.10017864961E+04  0.50400001928E-02 0.  1.
       -1   -1    0    0    0  501  0.00000000000E+00  0.00000000000E+00 -0.88294488324E+03  0.88294488326E+03  0.50400001928E-02 0. -1.
    10030    2    1    2    0    0  0.00000000000E+00  0.00000000000E+00  0.11884161289E+03  0.18847313794E+04  0.18809808727E+04 0.  0.
        5    1    3    3  502    0  0.84115872862E+03 -0.40903648026E+03 -0.38965209667E+02  0.93616196594E+03  0.46999998093E+01 0.  1.
       -5    1    3    3    0  502 -0.84115872862E+03  0.40903648026E+03  0.15780682256E+03  0.94856941346E+03  0.46999998093E+01 0. -1.
</event>
<event>
 5   0  0.5628936E-05  0.1904978E+04  0.7818609E-02  0.8652382E-01
        1   -1    0    0  501    0  0.00000000000E+00  0.00000000000E+00  0.17102319613E+04  0.17102319613E+04  0.50400001928E-02 0. -1.
       -1   -1    0    0    0  501  0.00000000000E+00  0.00000000000E+00 -0.53047502921E+03  0.53047502923E+03  0.50400001928E-02 0.  1.
    10030    2    1    2    0    0  0.00000000000E+00  0.00000000000E+00  0.11797569321E+04  0.22407069906E+04  0.19049780573E+04 0.  0.
        5    1    3    3  502    0 -0.43503480840E+03  0.79729960463E+03  0.92725844954E+03  0.12979877759E+04  0.46999998093E+01 0.  1.
       -5    1    3    3    0  502  0.43503480840E+03 -0.79729960463E+03  0.25249848258E+03  0.94271921470E+03  0.46999998093E+01 0. -1.
</event>
<event>
 5   0  0.1101678E-04  0.2093607E+04  0.7818609E-02  0.8564065E-01
        2   -1    0    0  501    0  0.00000000000E+00  0.00000000000E+00  0.18375372049E+04  0.18375372049E+04  0.25500000920E-02 0.  1.
       -2   -1    0    0    0  501  0.00000000000E+00  0.00000000000E+00 -0.59634007091E+03  0.59634007092E+03  0.25500000920E-02 0. -1.
    10030    2    1    2    0    0  0.00000000000E+00  0.00000000000E+00  0.12411971340E+04  0.24338772759E+04  0.20936065219E+04 0.  0.
        4    1    3    3  502    0  0.42100041225E+03  0.32506928884E+03 -0.42753810994E+03  0.68242350341E+03  0.12699999809E+01 0.  1.
       -4    1    3    3    0  502 -0.42100041225E+03 -0.32506928884E+03  0.16687352440E+04  0.17514537725E+04  0.12699999809E+01 0. -1.
</event>
<event>
 5   0  0.1118206E-04  0.1905613E+04  0.7818609E-02  0.8652067E-01
        2   -1    0    0  501    0  0.00000000000E+00  0.00000000000E+00  0.12793044071E+04  0.12793044071E+04  0.25500000920E-02 0.  1.
       -2   -1    0    0    0  501  0.00000000000E+00  0.00000000000E+00 -0.70963607907E+03  0.70963607907E+03  0.25500000920E-02 0. -1.
    10030    2    1    2    0    0  0.00000000000E+00  0.00000000000E+00  0.56966832799E+03  0.19889404861E+04  0.19056133536E+04 0.  0.
        1    1    3    3  502    0  0.36250315072E+03 -0.54653206299E+03  0.10062412592E+04  0.12010942102E+04  0.50400001928E-02 0.  1.
       -1    1    3    3    0  502 -0.36250315072E+03  0.54653206299E+03 -0.43657293120E+03  0.78784627589E+03  0.50400001928E-02 0. -1.
</event>
<event>
 5   0  0.5824956E-05  0.1894230E+04  0.7818609E-02  0.8657734E-01
        1   -1    0    0  501    0  0.00000000000E+00  0.00000000000E+00  0.33722791656E+03  0.33722791659E+03  0.50400001928E-02 0.  1.
       -1   -1    0    0    0  501  0.00000000000E+00  0.00000000000E+00 -0.26600024550E+04  0.26600024550E+04  0.50400001928E-02 0. -1.
    10030    2    1    2    0    0  0.00000000000E+00  0.00000000000E+00 -0.23227745385E+04  0.29972303716E+04  0.18942302775E+04 0.  0.
        2    1    3    3  502    0  0.24190996237E+03  0.64658395481E+03 -0.21873633092E+04  0.22937195746E+04  0.25500000920E-02 0. -1.
       -2    1    3    3    0  502 -0.24190996237E+03 -0.64658395481E+03 -0.13541122928E+03  0.70351079703E+03  0.25500000920E-02 0.  1.
</event>
<event>
 5   0  0.1182630E-04  0.1961680E+04  0.7818609E-02  0.8624749E-01
       -2   -1    0    0    0  501  0.00000000000E+00  0.00000000000E+00  0.14061118483E+04  0.14061118483E+04  0.25500000920E-02 0.  1.
        2   -1    0    0  501    0  0.00000000000E+00  0.00000000000E+00 -0.68418971060E+03  0.68418971061E+03  0.25500000920E-02 0. -1.
    10030    2    1    2    0    0  0.00000000000E+00  0.00000000000E+00  0.72192213766E+03  0.20903015589E+04  0.19616801559E+04 0.  0.
        5    1    3    3  502    0 -0.57958369101E+03 -0.71172726588E+03  0.72939494467E+03  0.11723958509E+04  0.46999998093E+01 0.  1.
       -5    1    3    3    0  502  0.57958369101E+03  0.71172726588E+03 -0.74728070096E+01  0.91790570797E+03  0.46999998093E+01 0. -1.
</event>
<event>
 5   0  0.5824956E-05  0.1887034E+04  0.7818609E-02  0.8661337E-01
        1   -1    0    0  501    0  0.00000000000E+00  0.00000000000E+00  0.11746680221E+04  0.11746680221E+04  0.50400001928E-02 0. -1.
       -1   -1    0    0    0  501  0.00000000000E+00  0.00000000000E+00 -0.75785218546E+03  0.75785218548E+03  0.50400001928E-02 0.  1.
    10030    2    1    2    0    0  0.00000000000E+00  0.00000000000E+00  0.41681583659E+03  0.19325202075E+04  0.18870344223E+04 0.  0.
        2    1    3    3  502    0 -0.70735597227E+03 -0.62157682781E+03  0.14769568591E+03  0.95316537916E+03  0.25500000920E-02 0. -1.
       -2    1    3    3    0  502  0.70735597227E+03  0.62157682781E+03  0.26912015068E+03  0.97935482839E+03  0.25500000920E-02 0.  1.
</event>
<event>
 5   0  0.1141890E-04  0.1900981E+04  0.7818609E-02  0.8654368E-01
       -2   -1    0    0    0  501  0.00000000000E+00  0.00000000000E+00  0.65139589152E+03  0.65139589153E+03  0.25500000920E-02 0. -1.
        2   -1    0    0  501    0  0.00000000000E+00  0.00000000000E+00 -0.13869174658E+04  0.13869174658E+04  0.25500000920E-02 0.  1.
    10030    2    1    2    0    0  0.00000000000E+00  0.00000000000E+00 -0.73552157425E+03  0.20383133573E+04  0.19009811562E+04 0.  0.
        2    1    3    3  502    0 -0.70022606020E+03 -0.50024380604E+03 -0.80049005598E+03  0.11753062284E+04  0.25500000920E-02 0.  1.
       -2    1    3    3    0  502  0.70022606020E+03  0.50024380604E+03  0.64968481732E+02  0.86300712887E+03  0.25500000920E-02 0. -1.
</event>
<event>
 5   0  0.1133638E-04  0.1898937E+04  0.7818609E-02  0.8655385E-01
       -2   -1    0    0    0  501  0.00000000000E+00  0.00000000000E+00  0.79436262926E+03  0.79436262926E+03  0.25500000920E-02 0.  1.
        2   -1    0    0  501    0  0.00000000000E+00  0.00000000000E+00 -0.11348605872E+04  0.11348605872E+04  0.25500000920E-02 0. -1.
    10030    2    1    2    0    0  0.00000000000E+00  0.00000000000E+00 -0.34049795794E+03  0.19292232165E+04  0.18989374291E+04 0.  0.
        3    1    3    3  502    0 -0.55168283044E+03 -0.15756164002E+03  0.59832902761E+03  0.82896154995E+03  0.10100000352E+00 0.  1.
       -3    1    3    3    0  502  0.55168283044E+03  0.15756164002E+03 -0.93882698555E+03  0.11002616665E+04  0.10100000352E+00 0. -1.
</event>
<event>
 5   0  0.1118206E-04  0.1894157E+04  0.7818609E-02  0.8657770E-01
       -2   -1    0    0    0  501  0.00000000000E+00  0.00000000000E+00  0.52586595821E+03  0.52586595821E+03  0.25500000920E-02 0.  1.
        2   -1    0    0  501    0  0.00000000000E+00  0.00000000000E+00 -0.17056775249E+04  0.17056775249E+04  0.25500000920E-02 0. -1.
    10030    2    1    2    0    0  0.00000000000E+00  0.00000000000E+00 -0.11798115667E+04  0.22315434831E+04  0.18941570643E+04 0.  0.
        1    1    3    3  502    0  0.14634080944E+03 -0.32942842043E+03 -0.16216984458E+04  0.16612779918E+04  0.50400001928E-02 0. -1.
       -1    1    3    3    0  502 -0.14634080944E+03  0.32942842043E+03  0.44188687911E+03  0.57026549138E+03  0.50400001928E-02 0.  1.
</event>
<event>
 5   0  0.1101678E-04  0.1950986E+04  0.7818609E-02  0.8629885E-01
        2   -1    0    0  501    0  0.00000000000E+00  0.00000000000E+00  0.88966541049E+03  0.88966541049E+03  0.25500000920E-02 0.  1.
       -2   -1    0    0    0  501  0.00000000000E+00  0.00000000000E+00 -0.10696010188E+04  0.10696010188E+04  0.25500000920E-02 0. -1.
    10030    2    1    2    0    0  0.00000000000E+00  0.00000000000E+00 -0.17993560830E+03  0.19592664293E+04  0.19509864474E+04 0.  0.
        4    1    3    3  502    0 -0.29201798576E+03 -0.34926357969E+03 -0.95637250482E+03  0.10592023098E+04  0.12699999809E+01 0. -1.
       -4    1    3    3    0  502  0.29201798576E+03  0.34926357969E+03  0.77643689652E+03  0.90006411954E+03  0.12699999809E+01 0.  1.
</event>
<event>
 5   0  0.5628936E-05  0.1889973E+04  0.7818609E-02  0.8659864E-01
       -1   -1    0    0    0  501  0.00000000000E+00  0.00000000000E+00  0.86413283357E+03  0.86413283358E+03  0.50400001928E-02 0.  1.
        1   -1    0    0  501    0  0.00000000000E+00  0.00000000000E+00 -0.10334048962E+04  0.10334048962E+04  0.50400001928E-02 0. -1.
    10030    2    1    2    0    0  0.00000000000E+00  0.00000000000E+00 -0.16927206262E+03  0.18975377298E+04  0.18899725937E+04 0.  0.
        5    1    3    3  502    0  0.39046150775E+03  0.17587026041E+03 -0.93037740644E+03  0.10242142090E+04  0.46999998093E+01 0. -1.
       -5    1    3    3    0  502 -0.39046150775E+03 -0.17587026041E+03  0.76110534382E+03  0.87332352077E+03  0.46999998093E+01 0.  1.
</event>
<event>
 5   0  0.5614989E-05  0.1922872E+04  0.7818609E-02  0.8643555E-01
        1   -1    0    0  501    0  0.00000000000E+00  0.00000000000E+00  0.16561475730E+04  0.16561475730E+04  0.50400001928E-02 0. -1.
       -1   -1    0    0    0  501  0.00000000000E+00  0.00000000000E+00 -0.55813804648E+03  0.55813804650E+03  0.50400001928E-02 0.  1.
    10030    2    1    2    0    0  0.00000000000E+00  0.00000000000E+00  0.10980095265E+04  0.22142856195E+04  0.19228717805E+04 0.  0.
        4    1    3    3  502    0 -0.22346194271E+03 -0.87886151132E+03  0.18118447217E+03  0.92474981577E+03  0.12699999809E+01 0.  1.
       -4    1    3    3    0  502  0.22346194271E+03  0.87886151132E+03  0.91682505434E+03  0.12895358037E+04  0.12699999809E+01 0. -1.
</event>
<event>
 5   0  0.4061125E-05  0.1896715E+04  0.7818609E-02  0.8656493E-01
       -3   -1    0    0    0  501  0.00000000000E+00  0.00000000000E+00  0.94361805517E+03  0.94361806057E+03  0.10100000352E+00 0.  1.
        3   -1    0    0  501    0  0.00000000000E+00  0.00000000000E+00 -0.95312087863E+03  0.95312088398E+03  0.10100000352E+00 0. -1.
    10030    2    1    2    0    0  0.00000000000E+00  0.00000000000E+00 -0.95028234634E+01  0.18967389446E+04  0.18967151394E+04 0.  0.
        1    1    3    3  502    0  0.83526359956E+02 -0.39488937805E+03 -0.86293920750E+03  0.95266906614E+03  0.50400001928E-02 0. -1.
       -1    1    3    3    0  502 -0.83526359956E+02  0.39488937805E+03  0.85343638404E+03  0.94406987841E+03  0.50400001928E-02 0.  1.
</event>
<event>
 5   0  0.1133638E-04  0.1906814E+04  0.7818609E-02  0.8651472E-01
        2   -1    0    0  501    0  0.00000000000E+00  0.00000000000E+00  0.59967479919E+03  0.59967479920E+03  0.25500000920E-02 0.  1.
       -2   -1    0    0    0  501  0.00000000000E+00  0.00000000000E+00 -0.15157959714E+04  0.15157959714E+04  0.25500000920E-02 0. -1.
    10030    2    1    2    0    0  0.00000000000E+00  0.00000000000E+00 -0.91612117221E+03  0.21154707706E+04  0.19068137243E+04 0.  0.
        3    1    3    3  502    0  0.40163067191E+02  0.19449797846E+03  0.57647174230E+03  0.60972306457E+03  0.10100000352E+00 0.  1.
       -3    1    3    3    0  502 -0.40163067191E+02 -0.19449797846E+03 -0.14925929145E+04  0.15057477060E+04  0.10100000352E+00 0. -1.
</event>
<event>
 5   0  0.1141890E-04  0.1922214E+04  0.7818609E-02  0.8643878E-01
       -2   -1    0    0    0  501  0.00000000000E+00  0.00000000000E+00  0.50421616047E+03  0.50421616048E+03  0.25500000920E-02 0.  1.
        2   -1    0    0  501    0  0.00000000000E+00  0.00000000000E+00 -0.18320043772E+04  0.18320043772E+04  0.25500000920E-02 0. -1.
    10030    2    1    2    0    0  0.00000000000E+00  0.00000000000E+00 -0.13277882167E+04  0.23362205377E+04  0.19222135293E+04 0.  0.
        2    1    3    3  502    0 -0.65084666849E+03  0.70670016025E+03 -0.69604340345E+03  0.11863822832E+04  0.25500000920E-02 0. -1.
       -2    1    3    3    0  502  0.65084666849E+03 -0.70670016025E+03 -0.63174481329E+03  0.11498382545E+04  0.25500000920E-02 0.  1.
</event>
<event>
 5   0  0.1182630E-04  0.1880615E+04  0.7818609E-02  0.8664566E-01
        2   -1    0    0  501    0  0.00000000000E+00  0.00000000000E+00  0.15266092866E+04  0.15266092866E+04  0.25500000920E-02 0. -1.
       -2   -1    0    0    0  501  0.00000000000E+00  0.00000000000E+00 -0.57917785500E+03  0.57917785500E+03  0.25500000920E-02 0.  1.
    10030    2    1    2    0    0  0.00000000000E+00  0.00000000000E+00  0.94743143159E+03  0.21057871416E+04  0.18806151037E+04 0.  0.
        5    1    3    3  502    0 -0.62339373516E+03  0.13544087644E+03  0.12472173363E+04  0.14009058334E+04  0.46999998093E+01 0. -1.
       -5    1    3    3    0  502  0.62339373516E+03 -0.13544087644E+03 -0.29978590469E+03  0.70488130823E+03  0.46999998093E+01 0.  1.
</event>
<event>
 5   0  0.5614989E-05  0.1815292E+04  0.7818609E-02  0.8698209E-01
        1   -1    0    0  501    0  0.00000000000E+00  0.00000000000E+00  0.75465539176E+03  0.75465539178E+03  0.50400001928E-02 0.  1.
       -1   -1    0    0    0  501  0.00000000000E+00  0.00000000000E+00 -0.10916526991E+04  0.10916526991E+04  0.50400001928E-02 0. -1.
    10030    2    1    2    0    0  0.00000000000E+00  0.00000000000E+00 -0.33699730732E+03  0.18463080909E+04  0.18152923680E+04 0.  0.
        4    1    3    3  502    0  0.60979693496E+03  0.66533394170E+03 -0.26657455858E+03  0.94105534589E+03  0.12699999809E+01 0.  1.
       -4    1    3    3    0  502 -0.60979693496E+03 -0.66533394170E+03 -0.70422748745E+02  0.90525274498E+03  0.12699999809E+01 0. -1.
</event>
<event>
 5   0  0.5579109E-05  0.1903231E+04  0.7818609E-02  0.8653250E-01
        1   -1    0    0  501    0  0.00000000000E+00  0.00000000000E+00  0.10157169341E+04  0.10157169341E+04  0.50400001928E-02 0. -1.
       -1   -1    0    0    0  501  0.00000000000E+00  0.00000000000E+00 -0.89155965506E+03  0.89155965507E+03  0.50400001928E-02 0.  1.
    10030    2    1    2    0    0  0.00000000000E+00  0.00000000000E+00  0.12415727906E+03  0.19072765892E+04  0.19032311887E+04 0.  0.
        3    1    3    3  502    0  0.14298364692E+03 -0.85369840630E+02  0.10010012326E+04  0.10147589915E+04  0.10100000352E+00 0. -1.
       -3    1    3    3    0  502 -0.14298364692E+03  0.85369840630E+02 -0.87684395359E+03  0.89251759765E+03  0.10100000352E+00 0.  1.
</event>
<event>
 5   0  0.1141890E-04  0.1894038E+04  0.7818609E-02  0.8657830E-01
       -2   -1    0    0    0  501  0.00000000000E+00  0.00000000000E+00  0.95932107079E+03  0.95932107079E+03  0.25500000920E-02 0.  1.
        2   -1    0    0  501    0  0.00000000000E+00  0.00000000000E+00 -0.93487447575E+03  0.93487447575E+03  0.25500000920E-02 0. -1.
    10030    2    1    2    0    0  0.00000000000E+00  0.00000000000E+00  0.24446595040E+02  0.18941955465E+04  0.18940377854E+04 0.  0.
        2    1    3    3  502    0  0.75367061791E+03 -0.38904535182E+03  0.43352919868E+03  0.95253517110E+03  0.25500000920E-02 0.  1.
       -2    1    3    3    0  502 -0.75367061791E+03  0.38904535182E+03 -0.40908260364E+03  0.94166037544E+03  0.25500000920E-02 0. -1.
</event>
<event>
 5   0  0.5614989E-05  0.1880784E+04  0.7818609E-02  0.8664481E-01
       -1   -1    0    0    0  501  0.00000000000E+00  0.00000000000E+00  0.47848681529E+03  0.47848681532E+03  0.50400001928E-02 0. -1.
        1   -1    0    0  501    0  0.00000000000E+00  0.00000000000E+00 -0.18481955384E+04  0.18481955384E+04  0.50400001928E-02 0.  1.
    10030    2    1    2    0    0  0.00000000000E+00  0.00000000000E+00 -0.13697087231E+04  0.23266823537E+04  0.18807840889E+04 0.  0.
        4    1    3    3  502    0  0.53202800685E+03  0.77217197783E+02  0.26963948084E+03  0.60143441723E+03  0.12699999809E+01 0. -1.
       -4    1    3    3    0  502 -0.53202800685E+03 -0.77217197783E+02 -0.16393482039E+04  0.17252479365E+04  0.12699999809E+01 0.  1.
</event>
<event>
 5   0  0.1101678E-04  0.1904060E+04  0.7818609E-02  0.8652838E-01
        2   -1    0    0  501    0  0.00000000000E+00  0.00000000000E+00  0.21206746453E+04  0.21206746453E+04  0.25500000920E-02 0.  1.
       -2   -1    0    0    0  501  0.00000000000E+00  0.00000000000E+00 -0.42739283118E+03  0.42739283119E+03  0.25500000920E-02 0. -1.
    10030    2    1    2    0    0  0.00000000000E+00  0.00000000000E+00  0.16932818141E+04  0.25480674765E+04  0.19040600208E+04 0.  0.
        4    1    3    3  502    0  0.45491673276E+03 -0.42358799145E+03 -0.11835411901E+03  0.63276008932E+03  0.12699999809E+01 0. -1.
       -4    1    3    3    0  502 -0.45491673276E+03  0.42358799145E+03  0.18116359331E+04  0.19153073872E+04  0.12699999809E+01 0.  1.
</event>
<event>
 5   0  0.5628936E-05  0.1900217E+04  0.7818609E-02  0.8654748E-01
        1   -1    0    0  501    0  0.00000000000E+00  0.00000000000E+00  0.14334593329E+04  0.14334593329E+04  0.50400001928E-02 0. -1.
       -1   -1    0    0    0  501  0.00000000000E+00  0.00000000000E+00 -0.62973966411E+03  0.62973966413E+03  0.50400001928E-02 0.  1.
    10030    2    1    2    0    0  0.00000000000E+00  0.00000000000E+00  0.80371966876E+03  0.20631989970E+04  0.19002170390E+04 0.  0.
        5    1    3    3  502    0 -0.94504783528E+02 -0.69877024884E+03 -0.28952353777E+03  0.76227093851E+03  0.46999998093E+01 0.  1.
       -5    1    3    3    0  502  0.94504783528E+02  0.69877024884E+03  0.10932432065E+04  0.13009280585E+04  0.46999998093E+01 0. -1.
</event>
<event>
 5   0  0.1133638E-04  0.1897276E+04  0.7818609E-02  0.8656213E-01
        2   -1    0    0  501    0  0.00000000000E+00  0.00000000000E+00  0.19863495909E+04  0.19863495909E+04  0.25500000920E-02 0.  1.
       -2   -1    0    0    0  501  0.00000000000E+00  0.00000000000E+00 -0.45304936035E+03  0.45304936035E+03  0.25500000920E-02 0. -1.
    10030    2    1    2    0    0  0.00000000000E+00  0.00000000000E+00  0.15333002305E+04  0.24393989512E+04  0.18972763758E+04 0.  0.
        3    1    3    3  502    0  0.25216000589E+03  0.27034805146E+03  0.18899178094E+04  0.19257367614E+04  0.10100000352E+00 0.  1.
       -3    1    3    3    0  502 -0.25216000589E+03 -0.27034805146E+03 -0.35661757891E+03  0.51366218985E+03  0.10100000352E+00 0. -1.
</event>
<event>
 5   0  0.1118206E-04  0.1897916E+04  0.7818609E-02  0.8655894E-01
       -2   -1    0    0    0  501  0.00000000000E+00  0.00000000000E+00  0.14490549681E+04  0.14490549681E+04  0.25500000920E-02 0. -1.
        2   -1    0    0  501    0  0.00000000000E+00  0.00000000000E+00 -0.62145441125E+03  0.62145441126E+03  0.25500000920E-02 0.  1.
    10030    2    1    2    0    0  0.00000000000E+00  0.00000000000E+00  0.82760055683E+03  0.20705093793E+04  0.18979163333E+04 0.  0.
        1    1    3    3  502    0 -0.85277656443E+03 -0.37852603149E+03  0.60279339726E+03  0.11107968784E+04  0.50400001928E-02 0.  1.
       -1    1    3    3    0  502  0.85277656443E+03  0.37852603149E+03  0.22480715957E+03  0.95971250089E+03  0.50400001928E-02 0. -1.
</event>
<event>
 5   0  0.5579109E-05  0.1901882E+04  0.7818609E-02  0.8653920E-01
       -1   -1    0    0    0  501  0.00000000000E+00  0.00000000000E+00  0.97029717479E+03  0.97029717480E+03  0.50400001928E-02 0. -1.
        1   -1    0    0  501    0  0.00000000000E+00  0.00000000000E+00 -0.93197078757E+03  0.93197078758E+03  0.50400001928E-02 0.  1.
    10030    2    1    2    0    0  0.00000000000E+00  0.00000000000E+00  0.38326387220E+02  0.19022679624E+04  0.19018818283E+04 0.  0.
        3    1    3    3  502    0 -0.51206332434E+03 -0.73100123357E+03 -0.30910606142E+03  0.94452009985E+03  0.10100000352E+00 0.  1.
       -3    1    3    3    0  502  0.51206332434E+03  0.73100123357E+03  0.34743244864E+03  0.95774786253E+03  0.10100000352E+00 0. -1.
</event>
<event>
 5   0  0.5614989E-05  0.1917150E+04  0.7818609E-02  0.8646366E-01
       -1   -1    0    0    0  501  0.00000000000E+00  0.00000000000E+00  0.12721380309E+04  0.12721380309E+04  0.50400001928E-02 0.  1.
        1   -1    0    0  501    0  0.00000000000E+00  0.00000000000E+00 -0.72230086157E+03  0.72230086159E+03  0.50400001928E-02 0. -1.
    10030    2    1    2    0    0  0.00000000000E+00  0.00000000000E+00  0.54983716936E+03  0.19944388925E+04  0.19171503810E+04 0.  0.
        4    1    3    3  502    0 -0.63331500537E+02  0.94771410294E+03  0.40932414040E+03  0.10342730610E+04  0.12699999809E+01 0.  1.
       -4    1    3    3    0  502  0.63331500537E+02 -0.94771410294E+03  0.14051302896E+03  0.96016583155E+03  0.12699999809E+01 0. -1.
</event>
<event>
 5   0  0.5614989E-05  0.1899513E+04  0.7818609E-02  0.8655099E-01
        1   -1    0    0  501    0  0.00000000000E+00  0.00000000000E+00  0.12637870390E+04  0.12637870390E+04  0.50400001928E-02 0. -1.
       -1   -1    0    0    0  501  0.00000000000E+00  0.00000000000E+00 -0.71375709949E+03  0.71375709951E+03  0.50400001928E-02 0.  1.
    10030    2    1    2    0    0  0.00000000000E+00  0.00000000000E+00  0.55002993953E+03  0.19775441385E+04  0.18995125389E+04 0.  0.
        4    1    3    3  502    0  0.66921562166E+03 -0.67298028616E+03  0.31231040429E+03  0.99914534246E+03  0.12699999809E+01 0.  1.
       -4    1    3    3    0  502 -0.66921562166E+03  0.67298028616E+03  0.23771953523E+03  0.97839879608E+03  0.12699999809E+01 0. -1.
</event>
<event>
 5   0  0.5614989E-05  0.1894618E+04  0.7818609E-02  0.8657540E-01
       -1   -1    0    0    0  501  0.00000000000E+00  0.00000000000E+00  0.13699135055E+04  0.13699135055E+04  0.50400001928E-02 0. -1.
        1   -1    0    0  501    0  0.00000000000E+00  0.00000000000E+00 -0.65507389760E+03  0.65507389762E+03  0.50400001928E-02 0.  1.
    10030    2    1    2    0    0  0.00000000000E+00  0.00000000000E+00  0.71483960792E+03  0.20249874031E+04  0.18946182512E+04 0.  0.
        4    1    3    3  502    0  0.47171578488E+03 -0.78991540854E+03  0.11625956393E+03  0.92736186759E+03  0.12699999809E+01 0.  1.
       -4    1    3    3    0  502 -0.47171578488E+03  0.78991540854E+03  0.59858004399E+03  0.10976255356E+04  0.12699999809E+01 0. -1.
</event>
<event>
 5   0  0.5579109E-05  0.1912500E+04  0.7818609E-02  0.8648659E-01
        1   -1    0    0  501    0  0.00000000000E+00  0.00000000000E+00  0.25765998813E+04  0.25765998813E+04  0.50400001928E-02 0. -1.
       -1   -1    0    0    0  501  0.00000000000E+00  0.00000000000E+00 -0.35489180156E+03  0.35489180160E+03  0.50400001928E-02 0.  1.
    10030    2    1    2    0    0  0.00000000000E+00  0.00000000000E+00  0.22217080798E+04  0.29314916829E+04  0.19125001165E+04 0.  0.
        3    1    3    3  502    0  0.13957606010E+03  0.30224835142E+03  0.24849003909E+04  0.25071030105E+04  0.10100000352E+00 0. -1.
       -3    1    3    3    0  502 -0.13957606010E+03 -0.30224835142E+03 -0.26319231109E+03  0.42438867245E+03  0.10100000352E+00 0.  1.
</event>
<event>
 5   0  0.1182630E-04  0.1888813E+04  0.7818609E-02  0.8660445E-01
        2   -1    0    0  501    0  0.00000000000E+00  0.00000000000E+00  0.89051721457E+03  0.89051721458E+03  0.25500000920E-02 0.  1.
       -2   -1    0    0    0  501  0.00000000000E+00  0.00000000000E+00 -0.10015566797E+04  0.10015566797E+04  0.25500000920E-02 0. -1.
    10030    2    1    2    0    0  0.00000000000E+00  0.00000000000E+00 -0.11103946508E+03  0.18920738942E+04  0.18888128172E+04 0.  0.
        5    1    3    3  502    0  0.20661266619E+03 -0.93925956614E+02  0.86278023856E+03  0.89214500458E+03  0.46999998093E+01 0.  1.
       -5    1    3    3    0  502 -0.20661266619E+03  0.93925956614E+02 -0.97381970364E+03  0.99992888965E+03  0.46999998093E+01 0. -1.
</event>
<event>
 5   0  0.1141890E-04  0.1915583E+04  0.7818609E-02  0.8647138E-01
        2   -1    0    0  501    0  0.00000000000E+00  0.00000000000E+00  0.11881751825E+04  0.11881751825E+04  0.25500000920E-02 0.  1.
       -2   -1    0    0    0  501  0.00000000000E+00  0.00000000000E+00 -0.77207855287E+03  0.77207855287E+03  0.25500000920E-02 0. -1.
    10030    2    1    2    0    0  0.00000000000E+00  0.00000000000E+00  0.41609662959E+03  0.19602537353E+04  0.19155830188E+04 0.  0.
        2    1    3    3  502    0  0.92800143698E+03  0.99132608425E+02  0.42836082190E+03  0.10268918808E+04  0.25500000920E-02 0.  1.
       -2    1    3    3    0  502 -0.92800143698E+03 -0.99132608425E+02 -0.12264192319E+02  0.93336185454E+03  0.25500000920E-02 0. -1.
</event>
<event>
 5   0  0.5824956E-05  0.1906828E+04  0.7818609E-02  0.8651465E-01
       -1   -1    0    0    0  501  0.00000000000E+00  0.00000000000E+00  0.27026230043E+03  0.27026230048E+03  0.50400001928E-02 0.  1.
        1   -1    0    0  501    0  0.00000000000E+00  0.00000000000E+00 -0.33633929169E+04  0.33633929169E+04  0.50400001928E-02 0. -1.
    10030    2    1    2    0    0  0.00000000000E+00  0.00000000000E+00 -0.30931306165E+04  0.36336552174E+04  0.19068280542E+04 0.  0.
        2    1    3    3  502    0 -0.43966911367E+03  0.51524687109E+03 -0.28251802383E+04  0.29052420978E+04  0.25500000920E-02 0. -1.
       -2    1    3    3    0  502  0.43966911367E+03 -0.51524687109E+03 -0.26795037818E+03  0.72841311964E+03  0.25500000920E-02 0.  1.
</event>
<event>
 5   0  0.5841424E-05  0.1900999E+04  0.7818609E-02  0.8654359E-01
        1   -1    0    0  501    0  0.00000000000E+00  0.00000000000E+00  0.10603480767E+04  0.10603480767E+04  0.50400001928E-02 0. -1.
       -1   -1    0    0    0  501  0.00000000000E+00  0.00000000000E+00 -0.85203069070E+03  0.85203069071E+03  0.50400001928E-02 0.  1.
    10030    2    1    2    0    0  0.00000000000E+00  0.00000000000E+00  0.20831738602E+03  0.19123787674E+04  0.19009987945E+04 0.  0.
        1    1    3    3  502    0 -0.44696230727E+03 -0.46962233590E+03 -0.59507681337E+03  0.88002094085E+03  0.50400001928E-02 0.  1.
       -1    1    3    3    0  502  0.44696230727E+03  0.46962233590E+03  0.80339419939E+03  0.10323578266E+04  0.50400001928E-02 0. -1.
</event>
<event>
 5   0  0.5579109E-05  0.1896989E+04  0.7818609E-02  0.8656356E-01
        1   -1    0    0  501    0  0.00000000000E+00  0.00000000000E+00  0.18676039974E+04  0.18676039974E+04  0.50400001928E-02 0.  1.
       -1   -1    0    0    0  501  0.00000000000E+00  0.00000000000E+00 -0.48170918583E+03  0.48170918585E+03  0.50400001928E-02 0. -1.
    10030    2    1    2    0    0  0.00000000000E+00  0.00000000000E+00  0.13858948115E+04  0.23493131832E+04  0.18969891945E+04 0.  0.
        3    1    3    3  502    0 -0.46914921547E+03  0.79627717372E+03  0.95706892990E+03  0.13304658096E+04  0.10100000352E+00 0.  1.
       -3    1    3    3    0  502  0.46914921547E+03 -0.79627717372E+03  0.42882588163E+03  0.10188473736E+04  0.10100000352E+00 0. -1.
</event>
<event>
 5   0  0.5841424E-05  0.1904111E+04  0.7818609E-02  0.8652813E-01
        1   -1    0    0  501    0  0.00000000000E+00  0.00000000000E+00  0.91393941731E+03  0.91393941732E+03  0.50400001928E-02 0.  1.
       -1   -1    0    0    0  501  0.00000000000E+00  0.00000000000E+00 -0.99176147333E+03  0.99176147334E+03  0.50400001928E-02 0. -1.
    10030    2    1    2    0    0  0.00000000000E+00  0.00000000000E+00 -0.77822056024E+02  0.19057008907E+04  0.19041112395E+04 0.  0.
        1    1    3    3  502    0  0.19350871038E+02 -0.61446426331E+02 -0.98957759378E+03  0.99167229146E+03  0.50400001928E-02 0. -1.
       -1    1    3    3    0  502 -0.19350871038E+02  0.61446426331E+02  0.91175553775E+03  0.91402859921E+03  0.50400001928E-02 0.  1.
</event>
<event>
 5   0  0.5614989E-05  0.1892472E+04  0.7818609E-02  0.8658613E-01
       -1   -1    0    0    0  501  0.00000000000E+00  0.00000000000E+00  0.49897531204E+03  0.49897531207E+03  0.50400001928E-02 0.  1.
        1   -1    0    0  501    0  0.00000000000E+00  0.00000000000E+00 -0.17944024467E+04  0.17944024467E+04  0.50400001928E-02 0. -1.
    10030    2    1    2    0    0  0.00000000000E+00  0.00000000000E+00 -0.12954271346E+04  0.22933777588E+04  0.18924719504E+04 0.  0.
        4    1    3    3  502    0 -0.23007295889E+03  0.17182366793E+03 -0.17403250668E+04  0.17638565390E+04  0.12699999809E+01 0. -1.
       -4    1    3    3    0  502  0.23007295889E+03 -0.17182366793E+03  0.44489793212E+03  0.52952121976E+03  0.12699999809E+01 0.  1.
</event>
<event>
 5   0  0.5614989E-05  0.1886475E+04  0.7818609E-02  0.8661618E-01
        1   -1    0    0  501    0  0.00000000000E+00  0.00000000000E+00  0.84251806551E+03  0.84251806552E+03  0.50400001928E-02 0.  1.
       -1   -1    0    0    0  501  0.00000000000E+00  0.00000000000E+00 -0.10559971704E+04  0.10559971704E+04  0.50400001928E-02 0. -1.
    10030    2    1    2    0    0  0.00000000000E+00  0.00000000000E+00 -0.21347910486E+03  0.18985152359E+04  0.18864746944E+04 0.  0.
        4    1    3    3  502    0 -0.47787666654E+03  0.81214861503E+03 -0.64716615212E+02  0.94453233640E+03  0.12699999809E+01 0.  1.
       -4    1    3    3    0  502  0.47787666654E+03 -0.81214861503E+03 -0.14876248965E+03  0.95398289950E+03  0.12699999809E+01 0. -1.
</event>
<event>
 5   0  0.5579109E-05  0.1884684E+04  0.7818609E-02  0.8662518E-01
        1   -1    0    0  501    0  0.00000000000E+00  0.00000000000E+00  0.14375930710E+04  0.14375930710E+04  0.50400001928E-02 0.  1.
       -1   -1    0    0    0  501  0.00000000000E+00  0.00000000000E+00 -0.61770496577E+03  0.61770496579E+03  0.50400001928E-02 0. -1.
    10030    2    1    2    0    0  0.00000000000E+00  0.00000000000E+00  0.81988810519E+03  0.20552980368E+04  0.18846839297E+04 0.  0.
        3    1    3    3  502    0 -0.81771678968E+03  0.44482789521E+03  0.25013160918E+03  0.96389752391E+03  0.10100000352E+00 0.  1.
       -3    1    3    3    0  502  0.81771678968E+03 -0.44482789521E+03  0.56975649601E+03  0.10914005128E+04  0.10100000352E+00 0. -1.
</event>
<event>
 5   0  0.1141890E-04  0.1901586E+04  0.7818609E-02  0.8654067E-01
        2   -1    0    0  501    0  0.00000000000E+00  0.00000000000E+00  0.68208922582E+03  0.68208922582E+03  0.25500000920E-02 0. -1.
       -2   -1    0    0    0  501  0.00000000000E+00  0.00000000000E+00 -0.13253500780E+04  0.13253500780E+04  0.25500000920E-02 0.  1.
    10030    2    1    2    0    0  0.00000000000E+00  0.00000000000E+00 -0.64326085218E+03  0.20074393038E+04  0.19015856632E+04 0.  0.
        2    1    3    3  502    0  0.92373465633E+03  0.20083028208E+03 -0.21403278133E+03  0.96924122333E+03  0.25500000920E-02 0.  1.
       -2    1    3    3    0  502 -0.92373465633E+03 -0.20083028208E+03 -0.42922807085E+03  0.10381980805E+04  0.25500000920E-02 0. -1.
</event>
<event>
 5   0  0.4061125E-05  0.1886688E+04  0.7818609E-02  0.8661511E-01
        3   -1    0    0  501    0  0.00000000000E+00  0.00000000000E+00  0.42169335648E+03  0.42169336858E+03  0.10100000352E+00 0. -1.
       -3   -1    0    0    0  501  0.00000000000E+00  0.00000000000E+00 -0.21102953176E+04  0.21102953200E+04  0.10100000352E+00 0.  1.
    10030    2    1    2    0    0  0.00000000000E+00  0.00000000000E+00 -0.16886019611E+04  0.25319886886E+04  0.18866876096E+04 0.  0.
        1    1    3    3  502    0 -0.23081967923E+03 -0.59823169232E+03 -0.17728632014E+04  0.18852593490E+04  0.50400001928E-02 0.  1.
       -1    1    3    3    0  502  0.23081967923E+03  0.59823169232E+03  0.84261240324E+02  0.64672933958E+03  0.50400001928E-02 0. -1.
</event>
<event>
 5   0  0.1118206E-04  0.1899903E+04  0.7818609E-02  0.8654905E-01
        2   -1    0    0  501    0  0.00000000000E+00  0.00000000000E+00  0.81834167049E+03  0.81834167050E+03  0.25500000920E-02 0. -1.
       -2   -1    0    0    0  501  0.00000000000E+00  0.00000000000E+00 -0.11027275500E+04  0.11027275500E+04  0.25500000920E-02 0.  1.
    10030    2    1    2    0    0  0.00000000000E+00  0.00000000000E+00 -0.28438587954E+03  0.19210692205E+04  0.18999030558E+04 0.  0.
        1    1    3    3  502    0  0.69133396326E+03  0.26041853129E+03 -0.74604580475E+03  0.10499260941E+04  0.50400001928E-02 0.  1.
       -1    1    3    3    0  502 -0.69133396326E+03 -0.26041853129E+03  0.46165992521E+03  0.87114312646E+03  0.50400001928E-02 0. -1.
</event>
<event>
 5   0  0.5579109E-05  0.1893700E+04  0.7818609E-02  0.8657999E-01
       -1   -1    0    0    0  501  0.00000000000E+00  0.00000000000E+00  0.60463062153E+03  0.60463062156E+03  0.50400001928E-02 0.  1.
        1   -1    0    0  501    0  0.00000000000E+00  0.00000000000E+00 -0.14827641056E+04  0.14827641056E+04  0.50400001928E-02 0. -1.
    10030    2    1    2    0    0  0.00000000000E+00  0.00000000000E+00 -0.87813348404E+03  0.20873947271E+04  0.18936996412E+04 0.  0.
        3    1    3    3  502    0  0.59727691612E+03 -0.70294034072E+03 -0.67460430678E+03  0.11427842395E+04  0.10100000352E+00 0.  1.
       -3    1    3    3    0  502 -0.59727691612E+03  0.70294034072E+03 -0.20352917726E+03  0.94461048763E+03  0.10100000352E+00 0. -1.
</event>
<event>
 5   0  0.1118206E-04  0.1899627E+04  0.7818609E-02  0.8655042E-01
        2   -1    0    0  501    0  0.00000000000E+00  0.00000000000E+00  0.10906083919E+04  0.10906083919E+04  0.25500000920E-02 0.  1.
       -2   -1    0    0    0  501  0.00000000000E+00  0.00000000000E+00 -0.82719454833E+03  0.82719454833E+03  0.25500000920E-02 0. -1.
    10030    2    1    2    0    0  0.00000000000E+00  0.00000000000E+00  0.26341384354E+03  0.19178029402E+04  0.18996266119E+04 0.  0.
        1    1    3    3  502    0 -0.30383699617E+02  0.67996111876E+03  0.80052217341E+03  0.10507645038E+04  0.50400001928E-02 0.  1.
       -1    1    3    3    0  502  0.30383699617E+02 -0.67996111876E+03 -0.53710832987E+03  0.86703843644E+03  0.50400001928E-02 0. -1.
</event>
<event>
 5   0  0.5841424E-05  0.1856107E+04  0.7818609E-02  0.8677018E-01
        1   -1    0    0  501    0  0.00000000000E+00  0.00000000000E+00  0.87279578909E+03  0.87279578910E+03  0.50400001928E-02 0.  1.
       -1   -1    0    0    0  501  0.00000000000E+00  0.00000000000E+00 -0.98680988907E+03  0.98680988908E+03  0.50400001928E-02 0. -1.
    10030    2    1    2    0    0  0.00000000000E+00  0.00000000000E+00 -0.11401409998E+03  0.18596056782E+04  0.18561072338E+04 0.  0.
        1    1    3    3  502    0  0.63704041507E+03  0.59687982744E+02  0.61649535178E+03  0.88850979989E+03  0.50400001928E-02 0.  1.
       -1    1    3    3    0  502 -0.63704041507E+03 -0.59687982744E+02 -0.73050945176E+03  0.97109587830E+03  0.50400001928E-02 0. -1.
</event>
<event>
 5   0  0.1182630E-04  0.1937854E+04  0.7818609E-02  0.8636240E-01
       -2   -1    0    0    0  501  0.00000000000E+00  0.00000000000E+00  0.70924359714E+03  0.70924359715E+03  0.25500000920E-02 0.  1.
        2   -1    0    0  501    0  0.00000000000E+00  0.00000000000E+00 -0.13236910749E+04  0.13236910749E+04  0.25500000920E-02 0. -1.
    10030    2    1    2    0    0  0.00000000000E+00  0.00000000000E+00 -0.61444747777E+03  0.20329346721E+04  0.19378538846E+04 0.  0.
        5    1    3    3  502    0 -0.87836747323E+03  0.31823039870E+03 -0.57672795330E+03  0.10979240533E+04  0.46999998093E+01 0. -1.
       -5    1    3    3    0  502  0.87836747323E+03 -0.31823039870E+03 -0.37719524466E+02  0.93501061877E+03  0.46999998093E+01 0.  1.
</event>
<event>
 5   0  0.5824956E-05  0.1896097E+04  0.7818609E-02  0.8656801E-01
        1   -1    0    0  501    0  0.00000000000E+00  0.00000000000E+00  0.75892578556E+03  0.75892578557E+03  0.50400001928E-02 0. -1.
       -1   -1    0    0    0  501  0.00000000000E+00  0.00000000000E+00 -0.11843005098E+04  0.11843005098E+04  0.50400001928E-02 0.  1.
    10030    2    1    2    0    0  0.00000000000E+00  0.00000000000E+00 -0.42537472426E+03  0.19432262954E+04  0.18960972494E+04 0.  0.
        2    1    3    3  502    0  0.26905960311E+03  0.57648860134E+02  0.71710018359E+03  0.76808146340E+03  0.25500000920E-02 0. -1.
       -2    1    3    3    0  502 -0.26905960311E+03 -0.57648860134E+02 -0.11424749079E+04  0.11751448320E+04  0.25500000920E-02 0.  1.
</event>
<event>
 5   0  0.1133638E-04  0.1911232E+04  0.7818609E-02  0.8649286E-01
        2   -1    0    0  501    0  0.00000000000E+00  0.00000000000E+00  0.80890258587E+03  0.80890258587E+03  0.25500000920E-02 0.  1.
       -2   -1    0    0    0  501  0.00000000000E+00  0.00000000000E+00 -0.11289392855E+04  0.11289392855E+04  0.25500000920E-02 0. -1.
    10030    2    1    2    0    0  0.00000000000E+00  0.00000000000E+00 -0.32003669960E+03  0.19378418713E+04  0.19112319664E+04 0.  0.
        3    1    3    3  502    0 -0.28548065040E+03  0.16443881140E+03 -0.10695374748E+04  0.11191290116E+04  0.10100000352E+00 0. -1.
       -3    1    3    3    0  502  0.28548065040E+03 -0.16443881140E+03  0.74950077520E+03  0.81871285972E+03  0.10100000352E+00 0.  1.
</event>
<event>
 5   0  0.1141890E-04  0.1899375E+04  0.7818609E-02  0.8655168E-01
        2   -1    0    0  501    0  0.00000000000E+00  0.00000000000E+00  0.13706604950E+04  0.13706604950E+04  0.25500000920E-02 0. -1.
       -2   -1    0    0    0  501  0.00000000000E+00  0.00000000000E+00 -0.65800861918E+03  0.65800861918E+03  0.25500000920E-02 0.  1.
    10030    2    1    2    0    0  0.00000000000E+00  0.00000000000E+00  0.71265187579E+03  0.20286691141E+04  0.18993750758E+04 0.  0.
        2    1    3    3  502    0 -0.76659717786E+03  0.17315218580E+03  0.92577305463E+03  0.12143758320E+04  0.25500000920E-02 0. -1.
       -2    1    3    3    0  502  0.76659717786E+03 -0.17315218580E+03 -0.21312117885E+03  0.81429328219E+03  0.25500000920E-02 0.  1.
</event>
<event>
 5   0  0.5824956E-05  0.1908011E+04  0.7818609E-02  0.8650879E-01
       -1   -1    0    0    0  501  0.00000000000E+00  0.00000000000E+00  0.90818891952E+03  0.90818891953E+03  0.50400001928E-02 0.  1.
        1   -1    0    0  501    0  0.00000000000E+00  0.00000000000E+00 -0.10021332261E+04  0.10021332261E+04  0.50400001928E-02 0. -1.
    10030    2    1    2    0    0  0.00000000000E+00  0.00000000000E+00 -0.93944306586E+02  0.19103221457E+04  0.19080107881E+04 0.  0.
        2    1    3    3  502    0 -0.28371440766E+03  0.80967824752E+03 -0.46467481476E+03  0.97570252285E+03  0.25500000920E-02 0.  1.
       -2    1    3    3    0  502  0.28371440766E+03 -0.80967824752E+03  0.37073050818E+03  0.93461962280E+03  0.25500000920E-02 0. -1.
</event>
<event>
 5   0  0.1182630E-04  0.1815650E+04  0.7818609E-02  0.8698021E-01
       -2   -1    0    0    0  501  0.00000000000E+00  0.00000000000E+00  0.60675243938E+03  0.60675243939E+03  0.25500000920E-02 0. -1.
        2   -1    0    0  501    0  0.00000000000E+00  0.00000000000E+00 -0.13582908721E+04  0.13582908721E+04  0.25500000920E-02 0.  1.
    10030    2    1    2    0    0  0.00000000000E+00  0.00000000000E+00 -0.75153843274E+03  0.19650433115E+04  0.18156500765E+04 0.  0.
        5    1    3    3  502    0  0.75698801788E+03 -0.48633762776E+03 -0.24513535008E+03  0.93256022714E+03  0.46999998093E+01 0. -1.
       -5    1    3    3    0  502 -0.75698801788E+03  0.48633762776E+03 -0.50640308266E+03  0.10324830844E+04  0.46999998093E+01 0.  1.
</event>
<event>
 5   0  0.1182630E-04  0.1917892E+04  0.7818609E-02  0.8646001E-01
       -2   -1    0    0    0  501  0.00000000000E+00  0.00000000000E+00  0.10884918869E+04  0.10884918869E+04  0.25500000920E-02 0. -1.
        2   -1    0    0  501    0  0.00000000000E+00  0.00000000000E+00 -0.84481799879E+03  0.84481799879E+03  0.25500000920E-02 0.  1.
    10030    2    1    2    0    0  0.00000000000E+00  0.00000000000E+00  0.24367388810E+03  0.19333098857E+04  0.19178921112E+04 0.  0.
        5    1    3    3  502    0 -0.23243630401E+03 -0.65567225188E+03 -0.54348608365E+03  0.88279779702E+03  0.46999998093E+01 0.  1.
       -5    1    3    3    0  502  0.23243630401E+03  0.65567225188E+03  0.78715997175E+03  0.10505120887E+04  0.46999998093E+01 0. -1.
</event>
<event>
 5   0  0.1133638E-04  0.1897249E+04  0.7818609E-02  0.8656227E-01
        2   -1    0    0  501    0  0.00000000000E+00  0.00000000000E+00  0.72280160544E+03  0.72280160545E+03  0.25500000920E-02 0. -1.
       -2   -1    0    0    0  501  0.00000000000E+00  0.00000000000E+00 -0.12450008436E+04  0.12450008436E+04  0.25500000920E-02 0.  1.
    10030    2    1    2    0    0  0.00000000000E+00  0.00000000000E+00 -0.52219923817E+03  0.19678024491E+04  0.18972491756E+04 0.  0.
        3    1    3    3  502    0 -0.69462620118E+03 -0.23653497403E+03 -0.88465032215E+03  0.11493739844E+04  0.10100000352E+00 0.  1.
       -3    1    3    3    0  502  0.69462620118E+03  0.23653497403E+03  0.36245108398E+03  0.81842846467E+03  0.10100000352E+00 0. -1.
</event>
<event>
 5   0  0.1118206E-04  0.1923693E+04  0.7818609E-02  0.8643152E-01
       -2   -1    0    0    0  501  0.00000000000E+00  0.00000000000E+00  0.66593744308E+03  0.66593744309E+03  0.25500000920E-02 0. -1.
        2   -1    0    0  501    0  0.00000000000E+00  0.00000000000E+00 -0.13892433499E+04  0.13892433499E+04  0.25500000920E-02 0.  1.
    10030    2    1    2    0    0  0.00000000000E+00  0.00000000000E+00 -0.72330590682E+03  0.20551807930E+04  0.19236934935E+04 0.  0.
        1    1    3    3  502    0  0.84420785528E+03  0.11107260735E+03  0.11627780089E+03  0.85938614954E+03  0.50400001928E-02 0. -1.
       -1    1    3    3    0  502 -0.84420785528E+03 -0.11107260735E+03 -0.83958370770E+03  0.11957946434E+04  0.50400001928E-02 0.  1.
</event>
<event>
 5   0  0.5628936E-05  0.1904289E+04  0.7818609E-02  0.8652725E-01
        1   -1    0    0  501    0  0.00000000000E+00  0.00000000000E+00  0.50833291742E+03  0.50833291744E+03  0.50400001928E-02 0.  1.
       -1   -1    0    0    0  501  0.00000000000E+00  0.00000000000E+00 -0.17834351081E+04  0.17834351081E+04  0.50400001928E-02 0. -1.
    10030    2    1    2    0    0  0.00000000000E+00  0.00000000000E+00 -0.12751021907E+04  0.22917680256E+04  0.19042886037E+04 0.  0.
        5    1    3    3  502    0  0.74493726624E+03 -0.59275436789E+03 -0.61787101177E+03  0.11349343366E+04  0.46999998093E+01 0.  1.
       -5    1    3    3    0  502 -0.74493726624E+03  0.59275436789E+03 -0.65723117892E+03  0.11568336889E+04  0.46999998093E+01 0. -1.
</event>
<event>
 5   0  0.5841424E-05  0.1895066E+04  0.7818609E-02  0.8657316E-01
        1   -1    0    0  501    0  0.00000000000E+00  0.00000000000E+00  0.12520992578E+04  0.12520992578E+04  0.50400001928E-02 0. -1.
       -1   -1    0    0    0  501  0.00000000000E+00  0.00000000000E+00 -0.71705054852E+03  0.71705054854E+03  0.50400001928E-02 0.  1.
    10030    2    1    2    0    0  0.00000000000E+00  0.00000000000E+00  0.53504870929E+03  0.19691498064E+04  0.18950656555E+04 0.  0.
        1    1    3    3  502    0  0.49078240159E+03  0.73780536729E+03  0.61619289543E+03  0.10793135828E+04  0.50400001928E-02 0.  1.
       -1    1    3    3    0  502 -0.49078240159E+03 -0.73780536729E+03 -0.81144186137E+02  0.88983622352E+03  0.50400001928E-02 0. -1.
</event>
<event>
 5   0  0.1141890E-04  0.1881001E+04  0.7818609E-02  0.8664372E-01
        2   -1    0    0  501    0  0.00000000000E+00  0.00000000000E+00  0.68441963264E+03  0.68441963264E+03  0.25500000920E-02 0.  1.
       -2   -1    0    0    0  501  0.00000000000E+00  0.00000000000E+00 -0.12923956609E+04  0.12923956609E+04  0.25500000920E-02 0. -1.
    10030    2    1    2    0    0  0.00000000000E+00  0.00000000000E+00 -0.60797602829E+03  0.19768152936E+04  0.18810007586E+04 0.  0.
        2    1    3    3  502    0  0.52460446131E+02 -0.66788350323E+03  0.38972703162E+03  0.77505330880E+03  0.25500000920E-02 0.  1.
       -2    1    3    3    0  502 -0.52460446131E+02  0.66788350323E+03 -0.99770305992E+03  0.12017619848E+04  0.25500000920E-02 0. -1.
</event>
<event>
 5   0  0.5824956E-05  0.1893899E+04  0.7818609E-02  0.8657899E-01
        1   -1    0    0  501    0  0.00000000000E+00  0.00000000000E+00  0.22975335409E+04  0.22975335409E+04  0.50400001928E-02 0.  1.
       -1   -1    0    0    0  501  0.00000000000E+00  0.00000000000E+00 -0.39029384832E+03  0.39029384836E+03  0.50400001928E-02 0. -1.
    10030    2    1    2    0    0  0.00000000000E+00  0.00000000000E+00  0.19072396926E+04  0.26878273892E+04  0.18938988435E+04 0.  0.
        2    1    3    3  502    0 -0.42283273034E+03  0.73914105117E+03  0.36572666327E+03  0.92675401461E+03  0.25500000920E-02 0. -1.
       -2    1    3    3    0  502  0.42283273034E+03 -0.73914105117E+03  0.15415130293E+04  0.17610733746E+04  0.25500000920E-02 0.  1.
</event>
<event>
 5   0  0.1118206E-04  0.1896513E+04  0.7818609E-02  0.8656594E-01
       -2   -1    0    0    0  501  0.00000000000E+00  0.00000000000E+00  0.23144134663E+04  0.23144134663E+04  0.25500000920E-02 0. -1.
        2   -1    0    0  501    0  0.00000000000E+00  0.00000000000E+00 -0.38851747287E+03  0.38851747288E+03  0.25500000920E-02 0.  1.
    10030    2    1    2    0    0  0.00000000000E+00  0.00000000000E+00  0.19258959934E+04  0.27029309392E+04  0.18965126639E+04 0.  0.
        1    1    3    3  502    0 -0.52152573271E+03 -0.62543875255E+02 -0.16223722361E+03  0.54974698086E+03  0.50400001928E-02 0.  1.
       -1    1    3    3    0  502  0.52152573271E+03  0.62543875255E+02  0.20881332170E+04  0.21531839583E+04  0.50400001928E-02 0. -1.
</event>
<event>
 5   0  0.1182630E-04  0.1889449E+04  0.7818609E-02  0.8660126E-01
        2   -1    0    0  501    0  0.00000000000E+00  0.00000000000E+00  0.11266847462E+04  0.11266847462E+04  0.25500000920E-02 0.  1.
       -2   -1    0    0    0  501  0.00000000000E+00  0.00000000000E+00 -0.79215118377E+03  0.79215118378E+03  0.25500000920E-02 0. -1.
    10030    2    1    2    0    0  0.00000000000E+00  0.00000000000E+00  0.33453356238E+03  0.19188359299E+04  0.18894492906E+04 0.  0.
        5    1    3    3  502    0  0.76385898768E+03  0.34196412886E+03 -0.27779873170E+03  0.88182438378E+03  0.46999998093E+01 0. -1.
       -5    1    3    3    0  502 -0.76385898768E+03 -0.34196412886E+03  0.61233229408E+03  0.10370115462E+04  0.46999998093E+01 0.  1.
</event>
<event>
 5   0  0.5628936E-05  0.1905755E+04  0.7818609E-02  0.8651997E-01
        1   -1    0    0  501    0  0.00000000000E+00  0.00000000000E+00  0.11358790994E+04  0.11358790994E+04  0.50400001928E-02 0.  1.
       -1   -1    0    0    0  501  0.00000000000E+00  0.00000000000E+00 -0.79935921313E+03  0.79935921314E+03  0.50400001928E-02 0. -1.
    10030    2    1    2    0    0  0.00000000000E+00  0.00000000000E+00  0.33651988631E+03  0.19352383126E+04  0.19057548879E+04 0.  0.
        5    1    3    3  502    0 -0.46926894692E+03  0.75411656532E+03 -0.18211159332E+03  0.90669281515E+03  0.46999998093E+01 0. -1.
       -5    1    3    3    0  502  0.46926894692E+03 -0.75411656532E+03  0.51863147963E+03  0.10285454974E+04  0.46999998093E+01 0.  1.
</event>
<event>
 5   0  0.5628936E-05  0.1905584E+04  0.7818609E-02  0.8652082E-01
        1   -1    0    0  501    0  0.00000000000E+00  0.00000000000E+00  0.16382201053E+04  0.16382201053E+04  0.50400001928E-02 0.  1.
       -1   -1    0    0    0  501  0.00000000000E+00  0.00000000000E+00 -0.55414566206E+03  0.55414566209E+03  0.50400001928E-02 0. -1.
    10030    2    1    2    0    0  0.00000000000E+00  0.00000000000E+00  0.10840744432E+04  0.21923657674E+04  0.19055839681E+04 0.  0.
        5    1    3    3  502    0  0.74599687772E+03 -0.32578330560E+03 -0.27596753814E+02  0.81451198555E+03  0.46999998093E+01 0. -1.
       -5    1    3    3    0  502 -0.74599687772E+03  0.32578330560E+03  0.11116711970E+04  0.13778537818E+04  0.46999998093E+01 0.  1.
</event>
<event>
 5   0  0.1118206E-04  0.1898082E+04  0.7818609E-02  0.8655812E-01
       -2   -1    0    0    0  501  0.00000000000E+00  0.00000000000E+00  0.42696349072E+03  0.42696349073E+03  0.25500000920E-02 0.  1.
        2   -1    0    0  501    0  0.00000000000E+00  0.00000000000E+00 -0.21094976852E+04  0.21094976852E+04  0.25500000920E-02 0. -1.
    10030    2    1    2    0    0  0.00000000000E+00  0.00000000000E+00 -0.16825341945E+04  0.25364611759E+04  0.18980816582E+04 0.  0.
        1    1    3    3  502    0  0.70878325488E+03 -0.42395833260E+03 -0.14660120643E+04  0.16826484312E+04  0.50400001928E-02 0. -1.
       -1    1    3    3    0  502 -0.70878325488E+03  0.42395833260E+03 -0.21652213012E+03  0.85381274472E+03  0.50400001928E-02 0.  1.
</event>
<event>
 5   0  0.1101678E-04  0.1901664E+04  0.7818609E-02  0.8654028E-01
       -2   -1    0    0    0  501  0.00000000000E+00  0.00000000000E+00  0.37072615367E+03  0.37072615368E+03  0.25500000920E-02 0. -1.
        2   -1    0    0  501    0  0.00000000000E+00  0.00000000000E+00 -0.24386777648E+04  0.24386777648E+04  0.25500000920E-02 0.  1.
    10030    2    1    2    0    0  0.00000000000E+00  0.00000000000E+00 -0.20679516111E+04  0.28094039185E+04  0.19016641426E+04 0.  0.
        4    1    3    3  502    0  0.95065177135E+03  0.12550434379E+02 -0.10539996801E+04  0.14194411726E+04  0.12699999809E+01 0.  1.
       -4    1    3    3    0  502 -0.95065177135E+03 -0.12550434379E+02 -0.10139519310E+04  0.13899627459E+04  0.12699999809E+01 0. -1.
</event>
<event>
 5   0  0.5824956E-05  0.1871378E+04  0.7818609E-02  0.8669236E-01
       -1   -1    0    0    0  501  0.00000000000E+00  0.00000000000E+00  0.76651106445E+03  0.76651106447E+03  0.50400001928E-02 0.  1.
        1   -1    0    0  501    0  0.00000000000E+00  0.00000000000E+00 -0.11422063508E+04  0.11422063508E+04  0.50400001928E-02 0. -1.
    10030    2    1    2    0    0  0.00000000000E+00  0.00000000000E+00 -0.37569528636E+03  0.19087174153E+04  0.18713778943E+04 0.  0.
        2    1    3    3  502    0  0.41133264210E+03 -0.66018667414E+03 -0.71829459053E+03  0.10587672577E+04  0.25500000920E-02 0. -1.
       -2    1    3    3    0  502 -0.41133264210E+03  0.66018667414E+03  0.34259930417E+03  0.84995015760E+03  0.25500000920E-02 0.  1.
</event>
<event>
 5   0  0.5614989E-05  0.1889163E+04  0.7818609E-02  0.8660270E-01
       -1   -1    0    0    0  501  0.00000000000E+00  0.00000000000E+00  0.61639486838E+03  0.61639486840E+03  0.50400001928E-02 0.  1.
        1   -1    0    0  501    0  0.00000000000E+00  0.00000000000E+00 -0.14475035514E+04  0.14475035514E+04  0.50400001928E-02 0. -1.
    10030    2    1    2    0    0  0.00000000000E+00  0.00000000000E+00 -0.83110868306E+03  0.20638984198E+04  0.18891625246E+04 0.  0.
        4    1    3    3  502    0  0.37395191250E+03 -0.85940414711E+03 -0.28713808146E+03  0.98023742616E+03  0.12699999809E+01 0.  1.
       -4    1    3    3    0  502 -0.37395191250E+03  0.85940414711E+03 -0.54397060161E+03  0.10836609937E+04  0.12699999809E+01 0. -1.
</event>
<event>
 5   0  0.1133638E-04  0.1907885E+04  0.7818609E-02  0.8650941E-01
       -2   -1    0    0    0  501  0.00000000000E+00  0.00000000000E+00  0.51885882142E+03  0.51885882142E+03  0.25500000920E-02 0. -1.
        2   -1    0    0  501    0  0.00000000000E+00  0.00000000000E+00 -0.17538611308E+04  0.17538611308E+04  0.25500000920E-02 0.  1.
    10030    2    1    2    0    0  0.00000000000E+00  0.00000000000E+00 -0.12350023094E+04  0.22727199522E+04  0.19078850272E+04 0.  0.
        3    1    3    3  502    0  0.29293580078E+03  0.90256838712E+03 -0.73400532859E+03  0.11996686665E+04  0.10100000352E+00 0. -1.
       -3    1    3    3    0  502 -0.29293580078E+03 -0.90256838712E+03 -0.50099698079E+03  0.10730512857E+04  0.10100000352E+00 0.  1.
</event>
<event>
 5   0  0.5841424E-05  0.1879076E+04  0.7818609E-02  0.8665342E-01
       -1   -1    0    0    0  501  0.00000000000E+00  0.00000000000E+00  0.14960566321E+04  0.14960566321E+04  0.50400001928E-02 0.  1.
        1   -1    0    0  501    0  0.00000000000E+00  0.00000000000E+00 -0.59003879025E+03  0.59003879027E+03  0.50400001928E-02 0. -1.
    10030    2    1    2    0    0  0.00000000000E+00  0.00000000000E+00  0.90601784189E+03  0.20860954224E+04  0.18790757786E+04 0.  0.
        1    1    3    3  502    0 -0.36245952965E+03  0.45876511588E+03  0.12694859894E+04  0.13976541130E+04  0.50400001928E-02 0.  1.
       -1    1    3    3    0  502  0.36245952965E+03 -0.45876511588E+03 -0.36346814756E+03  0.68844130941E+03  0.50400001928E-02 0. -1.
</event>
<event>
 5   0  0.1182630E-04  0.1901894E+04  0.7818609E-02  0.8653914E-01
       -2   -1    0    0    0  501  0.00000000000E+00  0.00000000000E+00  0.13234197259E+04  0.13234197259E+04  0.25500000920E-02 0. -1.
        2   -1    0    0  501    0  0.00000000000E+00  0.00000000000E+00 -0.68330566879E+03  0.68330566880E+03  0.25500000920E-02 0.  1.
    10030    2    1    2    0    0  0.00000000000E+00  0.00000000000E+00  0.64011405711E+03  0.20067253947E+04  0.19018940043E+04 0.  0.
        5    1    3    3  502    0  0.40468757348E+03  0.81586306770E+02  0.12239254498E+04  0.12916826059E+04  0.46999998093E+01 0. -1.
       -5    1    3    3    0  502 -0.40468757348E+03 -0.81586306770E+02 -0.58381139272E+03  0.71504278883E+03  0.46999998093E+01 0.  1.
</event>
<event>
 5   0  0.5824956E-05  0.1887653E+04  0.7818609E-02  0.8661027E-01
        1   -1    0    0  501    0  0.00000000000E+00  0.00000000000E+00  0.14354797413E+04  0.14354797413E+04  0.50400001928E-02 0. -1.
       -1   -1    0    0    0  501  0.00000000000E+00  0.00000000000E+00 -0.62056475516E+03  0.62056475518E+03  0.50400001928E-02 0.  1.
    10030    2    1    2    0    0  0.00000000000E+00  0.00000000000E+00  0.81491498611E+03  0.20560444965E+04  0.18876526526E+04 0.  0.
        2    1    3    3  502    0  0.87207999103E+03 -0.18779982271E+03  0.71713341964E+02  0.89494976819E+03  0.25500000920E-02 0.  1.
       -2    1    3    3    0  502 -0.87207999103E+03  0.18779982271E+03  0.74320164415E+03  0.11610947283E+04  0.25500000920E-02 0. -1.
</event>
<event>
 5   0  0.1118206E-04  0.1951598E+04  0.7818609E-02  0.8629591E-01
        2   -1    0    0  501    0  0.00000000000E+00  0.00000000000E+00  0.18929421876E+04  0.18929421876E+04  0.25500000920E-02 0.  1.
       -2   -1    0    0    0  501  0.00000000000E+00  0.00000000000E+00 -0.50301775111E+03  0.50301775112E+03  0.25500000920E-02 0. -1.
    10030    2    1    2    0    0  0.00000000000E+00  0.00000000000E+00  0.13899244365E+04  0.23959599387E+04  0.19515978297E+04 0.  0.
        1    1    3    3  502    0 -0.48222372053E+03 -0.77988432720E+03  0.11047689323E+04  0.14357136463E+04  0.50400001928E-02 0.  1.
       -1    1    3    3    0  502  0.48222372053E+03  0.77988432720E+03  0.28515550417E+03  0.96024629238E+03  0.50400001928E-02 0. -1.
</event>
<event>
 5   0  0.1141890E-04  0.1924553E+04  0.7818609E-02  0.8642731E-01
       -2   -1    0    0    0  501  0.00000000000E+00  0.00000000000E+00  0.13537213070E+04  0.13537213070E+04  0.25500000920E-02 0. -1.
        2   -1    0    0  501    0  0.00000000000E+00  0.00000000000E+00 -0.68402246977E+03  0.68402246977E+03  0.25500000920E-02 0.  1.
    10030    2    1    2    0    0  0.00000000000E+00  0.00000000000E+00  0.66969883724E+03  0.20377437768E+04  0.19245527187E+04 0.  0.
        2    1    3    3  502    0 -0.78051223707E+03 -0.24223453831E+03  0.87276337616E+03  0.11956558178E+04  0.25500000920E-02 0. -1.
       -2    1    3    3    0  502  0.78051223707E+03  0.24223453831E+03 -0.20306453892E+03  0.84208795903E+03  0.25500000920E-02 0.  1.
</event>
<event>
 5   0  0.5614989E-05  0.1889261E+04  0.7818609E-02  0.8660221E-01
        1   -1    0    0  501    0  0.00000000000E+00  0.00000000000E+00  0.13738773302E+04  0.13738773302E+04  0.50400001928E-02 0.  1.
       -1   -1    0    0    0  501  0.00000000000E+00  0.00000000000E+00 -0.64949489389E+03  0.64949489391E+03  0.50400001928E-02 0. -1.
    10030    2    1    2    0    0  0.00000000000E+00  0.00000000000E+00  0.72438243634E+03  0.20233722241E+04  0.18892605017E+04 0.  0.
        4    1    3    3  502    0  0.94006132815E+03  0.89922430608E+02  0.38669209358E+03  0.10204576093E+04  0.12699999809E+01 0.  1.
       -4    1    3    3    0  502 -0.94006132815E+03 -0.89922430608E+02  0.33769034275E+03  0.10029146149E+04  0.12699999809E+01 0. -1.
</event>
<event>
 5   0  0.1101678E-04  0.1902597E+04  0.7818609E-02  0.8653565E-01
       -2   -1    0    0    0  501  0.00000000000E+00  0.00000000000E+00  0.16379065439E+04  0.16379065439E+04  0.25500000920E-02 0.  1.
        2   -1    0    0  501    0  0.00000000000E+00  0.00000000000E+00 -0.55251547345E+03  0.55251547345E+03  0.25500000920E-02 0. -1.
    10030    2    1    2    0    0  0.00000000000E+00  0.00000000000E+00  0.10853910705E+04  0.21904220174E+04  0.19025968670E+04 0.  0.
        4    1    3    3  502    0 -0.37482879321E+03  0.25060123731E+03 -0.42168251296E+03  0.61734541303E+03  0.12699999809E+01 0. -1.
       -4    1    3    3    0  502  0.37482879321E+03 -0.25060123731E+03  0.15070735834E+04  0.15730766043E+04  0.12699999809E+01 0.  1.
</event>
<event>
 5   0  0.1182630E-04  0.1889431E+04  0.7818609E-02  0.8660135E-01
       -2   -1    0    0    0  501  0.00000000000E+00  0.00000000000E+00  0.71821391790E+03  0.71821391790E+03  0.25500000920E-02 0.  1.
        2   -1    0    0  501    0  0.00000000000E+00  0.00000000000E+00 -0.12426484241E+04  0.12426484241E+04  0.25500000920E-02 0. -1.
    10030    2    1    2    0    0  0.00000000000E+00  0.00000000000E+00 -0.52443450624E+03  0.19608623420E+04  0.18894310183E+04 0.  0.
        5    1    3    3  502    0 -0.13503001677E+03  0.78413620186E+03 -0.79074738674E+03  0.11217870601E+04  0.46999998093E+01 0. -1.
       -5    1    3    3    0  502  0.13503001677E+03 -0.78413620186E+03  0.26631288050E+03  0.83907528197E+03  0.46999998093E+01 0.  1.
</event>
<event>
 5   0  0.5841424E-05  0.1904356E+04  0.7818609E-02  0.8652691E-01
       -1   -1    0    0    0  501  0.00000000000E+00  0.00000000000E+00  0.54400127392E+03  0.54400127394E+03  0.50400001928E-02 0. -1.
        1   -1    0    0  501    0  0.00000000000E+00  0.00000000000E+00 -0.16666198709E+04  0.16666198709E+04  0.50400001928E-02 0.  1.
    10030    2    1    2    0    0  0.00000000000E+00  0.00000000000E+00 -0.11226185969E+04  0.22106211448E+04  0.19043564088E+04 0.  0.
        1    1    3    3  502    0 -0.71900500089E+02  0.64314951715E+03 -0.13720862348E+04  0.15170470062E+04  0.50400001928E-02 0.  1.
       -1    1    3    3    0  502  0.71900500089E+02 -0.64314951715E+03  0.24946763787E+03  0.69357413857E+03  0.50400001928E-02 0. -1.
</event>
<event>
 5   0  0.1101678E-04  0.1930656E+04  0.7818609E-02  0.8639745E-01
       -2   -1    0    0    0  501  0.00000000000E+00  0.00000000000E+00  0.58778578000E+03  0.58778578000E+03  0.25500000920E-02 0. -1.
        2   -1    0    0  501    0  0.00000000000E+00  0.00000000000E+00 -0.15853709105E+04  0.15853709105E+04  0.25500000920E-02 0.  1.
    10030    2    1    2    0    0  0.00000000000E+00  0.00000000000E+00 -0.99758513055E+03  0.21731566905E+04  0.19306563415E+04 0.  0.
        4    1    3    3  502    0  0.77222346716E+03  0.90075667721E+02 -0.11428651167E+04  0.13822391244E+04  0.12699999809E+01 0.  1.
       -4    1    3    3    0  502 -0.77222346716E+03 -0.90075667721E+02  0.14527998616E+03  0.79091756614E+03  0.12699999809E+01 0. -1.
</event>
<event>
 5   0  0.5579109E-05  0.1897068E+04  0.7818609E-02  0.8656317E-01
        1   -1    0    0  501    0  0.00000000000E+00  0.00000000000E+00  0.66755931309E+03  0.66755931311E+03  0.50400001928E-02 0. -1.
       -1   -1    0    0    0  501  0.00000000000E+00  0.00000000000E+00 -0.13477703566E+04  0.13477703566E+04  0.50400001928E-02 0.  1.
    10030    2    1    2    0    0  0.00000000000E+00  0.00000000000E+00 -0.68021104348E+03  0.20153296697E+04  0.18970678991E+04 0.  0.
        3    1    3    3  502    0 -0.66052660426E+03 -0.27757511524E+03  0.32023322184E+03  0.78478829381E+03  0.10100000352E+00 0. -1.
       -3    1    3    3    0  502  0.66052660426E+03  0.27757511524E+03 -0.10004442653E+04  0.12305413759E+04  0.10100000352E+00 0.  1.
</event>
<event>
 5   0  0.5824956E-05  0.1887874E+04  0.7818609E-02  0.8660916E-01
        1   -1    0    0  501    0  0.00000000000E+00  0.00000000000E+00  0.10032210438E+04  0.10032210439E+04  0.50400001928E-02 0.  1.
       -1   -1    0    0    0  501  0.00000000000E+00  0.00000000000E+00 -0.88815598096E+03  0.88815598098E+03  0.50400001928E-02 0. -1.
    10030    2    1    2    0    0  0.00000000000E+00  0.00000000000E+00  0.11506506288E+03  0.18913770248E+04  0.18878736932E+04 0.  0.
        2    1    3    3  502    0 -0.26644399021E+03 -0.89425039603E+03  0.20041766660E+03  0.95438116694E+03  0.25500000920E-02 0.  1.
       -2    1    3    3    0  502  0.26644399021E+03  0.89425039603E+03 -0.85352603726E+02  0.93699585788E+03  0.25500000920E-02 0. -1.
</event>
<event>
 5   0  0.5824956E-05  0.1893136E+04  0.7818609E-02  0.8658280E-01
       -1   -1    0    0    0  501  0.00000000000E+00  0.00000000000E+00  0.12676378202E+04  0.12676378202E+04  0.50400001928E-02 0.  1.
        1   -1    0    0  501    0  0.00000000000E+00  0.00000000000E+00 -0.70681964986E+03  0.70681964988E+03  0.50400001928E-02 0. -1.
    10030    2    1    2    0    0  0.00000000000E+00  0.00000000000E+00  0.56081817037E+03  0.19744574701E+04  0.18931363609E+04 0.  0.
        2    1    3    3  502    0  0.83513691392E+03 -0.13930729471E+03 -0.16101032164E+03  0.86184947122E+03  0.25500000920E-02 0. -1.
       -2    1    3    3    0  502 -0.83513691392E+03  0.13930729471E+03  0.72182849201E+03  0.11126079989E+04  0.25500000920E-02 0.  1.
</event>
<event>
 5   0  0.5841424E-05  0.1846777E+04  0.7818609E-02  0.8681812E-01
        1   -1    0    0  501    0  0.00000000000E+00  0.00000000000E+00  0.11028521721E+04  0.11028521721E+04  0.50400001928E-02 0. -1.
       -1   -1    0    0    0  501  0.00000000000E+00  0.00000000000E+00 -0.77312829743E+03  0.77312829744E+03  0.50400001928E-02 0.  1.
    10030    2    1    2    0    0  0.00000000000E+00  0.00000000000E+00  0.32972387470E+03  0.18759804696E+04  0.18467768920E+04 0.  0.
        1    1    3    3  502    0  0.48407228013E+03 -0.76568969796E+03 -0.16964484067E+02  0.90603227299E+03  0.50400001928E-02 0.  1.
       -1    1    3    3    0  502 -0.48407228013E+03  0.76568969796E+03  0.34668835877E+03  0.96994819660E+03  0.50400001928E-02 0. -1.
</event>
<event>
 5   0  0.5628936E-05  0.1662817E+04  0.7818609E-02  0.8782860E-01
       -1   -1    0    0    0  501  0.00000000000E+00  0.00000000000E+00  0.50161063754E+03  0.50161063756E+03  0.50400001928E-02 0. -1.
        1   -1    0    0  501    0  0.00000000000E+00  0.00000000000E+00 -0.13780409699E+04  0.13780409699E+04  0.50400001928E-02 0.  1.
    10030    2    1    2    0    0  0.00000000000E+00  0.00000000000E+00 -0.87643033232E+03  0.18796516074E+04  0.16628168985E+04 0.  0.
        5    1    3    3  502    0 -0.78709867277E+03  0.26560719406E+03 -0.47648920461E+03  0.95767194504E+03  0.46999998093E+01 0.  1.
       -5    1    3    3    0  502  0.78709867277E+03 -0.26560719406E+03 -0.39994112771E+03  0.92197966238E+03  0.46999998093E+01 0. -1.
</event>
<event>
 5   0  0.5824956E-05  0.1908123E+04  0.7818609E-02  0.8650823E-01
        1   -1    0    0  501    0  0.00000000000E+00  0.00000000000E+00  0.75719485394E+03  0.75719485396E+03  0.50400001928E-02 0.  1.
       -1   -1    0    0    0  501  0.00000000000E+00  0.00000000000E+00 -0.12021128913E+04  0.12021128913E+04  0.50400001928E-02 0. -1.
    10030    2    1    2    0    0  0.00000000000E+00  0.00000000000E+00 -0.44491803736E+03  0.19593077453E+04  0.19081233662E+04 0.  0.
        2    1    3    3  502    0  0.17457362780E+03 -0.74471333388E+03  0.36306487928E+03  0.84669357370E+03  0.25500000920E-02 0.  1.
       -2    1    3    3    0  502 -0.17457362780E+03  0.74471333388E+03 -0.80798291665E+03  0.11126141716E+04  0.25500000920E-02 0. -1.
</event>
<event>
 5   0  0.1101678E-04  0.1898110E+04  0.7818609E-02  0.8655798E-01
       -2   -1    0    0    0  501  0.00000000000E+00  0.00000000000E+00  0.48332709362E+03  0.48332709362E+03  0.25500000920E-02 0.  1.
        2   -1    0    0  501    0  0.00000000000E+00  0.00000000000E+00 -0.18635530665E+04  0.18635530665E+04  0.25500000920E-02 0. -1.
    10030    2    1    2    0    0  0.00000000000E+00  0.00000000000E+00 -0.13802259728E+04  0.23468801601E+04  0.18981103102E+04 0.  0.
        4    1    3    3  502    0 -0.53043669085E+03 -0.20376212321E+03 -0.16299801952E+04  0.17261862980E+04  0.12699999809E+01 0. -1.
       -4    1    3    3    0  502  0.53043669085E+03  0.20376212321E+03  0.24975422239E+03  0.62069386203E+03  0.12699999809E+01 0.  1.
</event>
<event>
 5   0  0.1101678E-04  0.2048767E+04  0.7818609E-02  0.8584154E-01
       -2   -1    0    0    0  501  0.00000000000E+00  0.00000000000E+00  0.13235981438E+04  0.13235981438E+04  0.25500000920E-02 0. -1.
        2   -1    0    0  501    0  0.00000000000E+00  0.00000000000E+00 -0.79281008861E+03  0.79281008861E+03  0.25500000920E-02 0.  1.
    10030    2    1    2    0    0  0.00000000000E+00  0.00000000000E+00  0.53078805518E+03  0.21164082324E+04  0.20487673969E+04 0.  0.
        4    1    3    3  502    0 -0.29795932042E+03  0.95378123174E+03  0.32376452307E+02  0.99976409328E+03  0.12699999809E+01 0.  1.
       -4    1    3    3    0  502  0.29795932042E+03 -0.95378123174E+03  0.49841160287E+03  0.11166441391E+04  0.12699999809E+01 0. -1.
</event>
<event>
 5   0  0.1118206E-04  0.1908033E+04  0.7818609E-02  0.8650868E-01
        2   -1    0    0  501    0  0.00000000000E+00  0.00000000000E+00  0.16217608750E+04  0.16217608750E+04  0.25500000920E-02 0.  1.
       -2   -1    0    0    0  501  0.00000000000E+00  0.00000000000E+00 -0.56120960568E+03  0.56120960568E+03  0.25500000920E-02 0. -1.
    10030    2    1    2    0    0  0.00000000000E+00  0.00000000000E+00  0.10605512694E+04  0.21829704807E+04  0.19080333133E+04 0.  0.
        1    1    3    3  502    0  0.26499578943E+03 -0.15616247644E+03  0.15634749010E+04  0.15934438344E+04  0.50400001928E-02 0.  1.
       -1    1    3    3    0  502 -0.26499578943E+03  0.15616247644E+03 -0.50292363160E+03  0.58952664631E+03  0.50400001928E-02 0. -1.
</event>
<event>
 5   0  0.5614989E-05  0.1897685E+04  0.7818609E-02  0.8656010E-01
        1   -1    0    0  501    0  0.00000000000E+00  0.00000000000E+00  0.17120436217E+04  0.17120436217E+04  0.50400001928E-02 0.  1.
       -1   -1    0    0    0  501  0.00000000000E+00  0.00000000000E+00 -0.52586397612E+03  0.52586397615E+03  0.50400001928E-02 0. -1.
    10030    2    1    2    0    0  0.00000000000E+00  0.00000000000E+00  0.11861796456E+04  0.22379075979E+04  0.18976849752E+04 0.  0.
        4    1    3    3  502    0 -0.72308130754E+03  0.53842693420E+03  0.94202670968E+03  0.13039041665E+04  0.12699999809E+01 0. -1.
       -4    1    3    3    0  502  0.72308130754E+03 -0.53842693420E+03  0.24415293592E+03  0.93400343137E+03  0.12699999809E+01 0.  1.
</event>
<event>
 5   0  0.5614989E-05  0.1897160E+04  0.7818609E-02  0.8656271E-01
        1   -1    0    0  501    0  0.00000000000E+00  0.00000000000E+00  0.13818267919E+04  0.13818267919E+04  0.50400001928E-02 0. -1.
       -1   -1    0    0    0  501  0.00000000000E+00  0.00000000000E+00 -0.65117000076E+03  0.65117000078E+03  0.50400001928E-02 0.  1.
    10030    2    1    2    0    0  0.00000000000E+00  0.00000000000E+00  0.73065679112E+03  0.20329967927E+04  0.18971601442E+04 0.  0.
        4    1    3    3  502    0 -0.23684489888E+03 -0.70047647718E+03  0.10020425402E+04  0.12453327533E+04  0.12699999809E+01 0. -1.
       -4    1    3    3    0  502  0.23684489888E+03  0.70047647718E+03 -0.27138574908E+03  0.78766403936E+03  0.12699999809E+01 0.  1.
</event>
<event>
 5   0  0.1182630E-04  0.1906387E+04  0.7818609E-02  0.8651684E-01
       -2   -1    0    0    0  501  0.00000000000E+00  0.00000000000E+00  0.74089006987E+03  0.74089006987E+03  0.25500000920E-02 0. -1.
        2   -1    0    0  501    0  0.00000000000E+00  0.00000000000E+00 -0.12263329948E+04  0.12263329948E+04  0.25500000920E-02 0.  1.
    10030    2    1    2    0    0  0.00000000000E+00  0.00000000000E+00 -0.48544292497E+03  0.19672230647E+04  0.19063870942E+04 0.  0.
        5    1    3    3  502    0 -0.50811201867E+03  0.34519767852E+03 -0.99482621361E+03  0.11692050915E+04  0.46999998093E+01 0.  1.
       -5    1    3    3    0  502  0.50811201867E+03 -0.34519767852E+03  0.50938328864E+03  0.79801797318E+03  0.46999998093E+01 0. -1.
</event>
<event>
 5   0  0.5628936E-05  0.1904518E+04  0.7818609E-02  0.8652611E-01
        1   -1    0    0  501    0  0.00000000000E+00  0.00000000000E+00  0.20347575337E+04  0.20347575337E+04  0.50400001928E-02 0.  1.
       -1   -1    0    0    0  501  0.00000000000E+00  0.00000000000E+00 -0.44565354113E+03  0.44565354116E+03  0.50400001928E-02 0. -1.
    10030    2    1    2    0    0  0.00000000000E+00  0.00000000000E+00  0.15891039926E+04  0.24804110749E+04  0.19045176820E+04 0.  0.
        5    1    3    3  502    0  0.24729053544E+03 -0.24364922600E+03 -0.36028579080E+03  0.50034537601E+03  0.46999998093E+01 0. -1.
       -5    1    3    3    0  502 -0.24729053544E+03  0.24364922600E+03  0.19493897834E+04  0.19800656989E+04  0.46999998093E+01 0.  1.
</event>
<event>
 5   0  0.4061125E-05  0.1890438E+04  0.7818609E-02  0.8659631E-01
        3   -1    0    0  501    0  0.00000000000E+00  0.00000000000E+00  0.71424797924E+03  0.71424798638E+03  0.10100000352E+00 0.  1.
       -3   -1    0    0    0  501  0.00000000000E+00  0.00000000000E+00 -0.12508803395E+04  0.12508803435E+04  0.10100000352E+00 0. -1.
    10030    2    1    2    0    0  0.00000000000E+00  0.00000000000E+00 -0.53663236023E+03  0.19651283299E+04  0.18904377967E+04 0.  0.
        1    1    3    3  502    0 -0.31252782259E+03 -0.80719324881E+03  0.12642956438E+03  0.87476797815E+03  0.50400001928E-02 0. -1.
       -1    1    3    3    0  502  0.31252782259E+03  0.80719324881E+03 -0.66306192461E+03  0.10903603518E+04  0.50400001928E-02 0.  1.
</event>
<event>
 5   0  0.1141890E-04  0.1791613E+04  0.7818609E-02  0.8710772E-01
        2   -1    0    0  501    0  0.00000000000E+00  0.00000000000E+00  0.14362894189E+04  0.14362894189E+04  0.25500000920E-02 0. -1.
       -2   -1    0    0    0  501  0.00000000000E+00  0.00000000000E+00 -0.55871029836E+03  0.55871029837E+03  0.25500000920E-02 0.  1.
    10030    2    1    2    0    0  0.00000000000E+00  0.00000000000E+00  0.87757912058E+03  0.19949997173E+04  0.17916134514E+04 0.  0.
        2    1    3    3  502    0 -0.83493170522E+03  0.31076458664E+03  0.54315275978E+03  0.10434081182E+04  0.25500000920E-02 0.  1.
       -2    1    3    3    0  502  0.83493170522E+03 -0.31076458664E+03  0.33442636080E+03  0.95159159910E+03  0.25500000920E-02 0. -1.
</event>
<event>
 5   0  0.5579109E-05  0.1916679E+04  0.7818609E-02  0.8646598E-01
        1   -1    0    0  501    0  0.00000000000E+00  0.00000000000E+00  0.21136529702E+04  0.21136529702E+04  0.50400001928E-02 0.  1.
       -1   -1    0    0    0  501  0.00000000000E+00  0.00000000000E+00 -0.43451529260E+03  0.43451529263E+03  0.50400001928E-02 0. -1.
    10030    2    1    2    0    0  0.00000000000E+00  0.00000000000E+00  0.16791376776E+04  0.25481682628E+04  0.19166789390E+04 0.  0.
        3    1    3    3  502    0 -0.15859563673E+03 -0.88997330727E+03  0.41661857891E+03  0.99537737272E+03  0.10100000352E+00 0. -1.
       -3    1    3    3    0  502  0.15859563673E+03  0.88997330727E+03  0.12625190987E+04  0.15527908901E+04  0.10100000352E+00 0.  1.
</event>
<event>
 5   0  0.1133638E-04  0.1888091E+04  0.7818609E-02  0.8660807E-01
        2   -1    0    0  501    0  0.00000000000E+00  0.00000000000E+00  0.19306402676E+04  0.19306402676E+04  0.25500000920E-02 0.  1.
       -2   -1    0    0    0  501  0.00000000000E+00  0.00000000000E+00 -0.46161967185E+03  0.46161967186E+03  0.25500000920E-02 0. -1.
    10030    2    1    2    0    0  0.00000000000E+00  0.00000000000E+00  0.14690205957E+04  0.23922599394E+04  0.18880905983E+04 0.  0.
        3    1    3    3  502    0 -0.64617024815E+03  0.89506189925E+02  0.15991329555E+04  0.17270708055E+04  0.10100000352E+00 0.  1.
       -3    1    3    3    0  502  0.64617024815E+03 -0.89506189925E+02 -0.13011235973E+03  0.66518913399E+03  0.10100000352E+00 0. -1.
</event>
<event>
 5   0  0.1101678E-04  0.1888117E+04  0.7818609E-02  0.8660794E-01
       -2   -1    0    0    0  501  0.00000000000E+00  0.00000000000E+00  0.11305626740E+04  0.11305626740E+04  0.25500000920E-02 0.  1.
        2   -1    0    0  501    0  0.00000000000E+00  0.00000000000E+00 -0.78832137523E+03  0.78832137524E+03  0.25500000920E-02 0. -1.
    10030    2    1    2    0    0  0.00000000000E+00  0.00000000000E+00  0.34224129873E+03  0.19188840492E+04  0.18881172865E+04 0.  0.
        4    1    3    3  502    0  0.31002838423E+03 -0.10084282746E+03  0.10715363083E+04  0.11200350655E+04  0.12699999809E+01 0.  1.
       -4    1    3    3    0  502 -0.31002838423E+03  0.10084282746E+03 -0.72929500961E+03  0.79884898374E+03  0.12699999809E+01 0. -1.
</event>
<event>
 5   0  0.1101678E-04  0.1890578E+04  0.7818609E-02  0.8659561E-01
        2   -1    0    0  501    0  0.00000000000E+00  0.00000000000E+00  0.15053974833E+04  0.15053974833E+04  0.25500000920E-02 0. -1.
       -2   -1    0    0    0  501  0.00000000000E+00  0.00000000000E+00 -0.59357803225E+03  0.59357803226E+03  0.25500000920E-02 0.  1.
    10030    2    1    2    0    0  0.00000000000E+00  0.00000000000E+00  0.91181945102E+03  0.20989755155E+04  0.18905775582E+04 0.  0.
        4    1    3    3  502    0  0.75535580534E+03  0.30032124230E+03  0.99160453796E+03  0.12821998338E+04  0.12699999809E+01 0. -1.
       -4    1    3    3    0  502 -0.75535580534E+03 -0.30032124230E+03 -0.79785086940E+02  0.81677568171E+03  0.12699999809E+01 0.  1.
</event>
<event>
 5   0  0.5824956E-05  0.1893902E+04  0.7818609E-02  0.8657898E-01
        1   -1    0    0  501    0  0.00000000000E+00  0.00000000000E+00  0.73649992537E+03  0.73649992539E+03  0.50400001928E-02 0. -1.
       -1   -1    0    0    0  501  0.00000000000E+00  0.00000000000E+00 -0.12175376252E+04  0.12175376252E+04  0.50400001928E-02 0.  1.
    10030    2    1    2    0    0  0.00000000000E+00  0.00000000000E+00 -0.48103769981E+03  0.19540375506E+04  0.18939021834E+04 0.  0.
        2    1    3    3  502    0 -0.89964258897E+03  0.28240213265E+03 -0.15052180658E+03  0.95486363774E+03  0.25500000920E-02 0. -1.
       -2    1    3    3    0  502  0.89964258897E+03 -0.28240213265E+03 -0.33051589322E+03  0.99917391284E+03  0.25500000920E-02 0.  1.
</event>
<event>
 5   0  0.1118206E-04  0.1897206E+04  0.7818609E-02  0.8656249E-01
       -2   -1    0    0    0  501  0.00000000000E+00  0.00000000000E+00  0.10837148812E+04  0.10837148812E+04  0.25500000920E-02 0. -1.
        2   -1    0    0  501    0  0.00000000000E+00  0.00000000000E+00 -0.83033583173E+03  0.83033583173E+03  0.25500000920E-02 0.  1.
    10030    2    1    2    0    0  0.00000000000E+00  0.00000000000E+00  0.25337904946E+03  0.19140507129E+04  0.18972056264E+04 0.  0.
        1    1    3    3  502    0 -0.11541158667E+03  0.86061525839E+03 -0.25862936551E+03  0.90601744246E+03  0.50400001928E-02 0.  1.
       -1    1    3    3    0  502  0.11541158667E+03 -0.86061525839E+03  0.51200841498E+03  0.10080332705E+04  0.50400001928E-02 0. -1.
</event>
<event>
 5   0  0.5841424E-05  0.1898922E+04  0.7818609E-02  0.8655393E-01
        1   -1    0    0  501    0  0.00000000000E+00  0.00000000000E+00  0.58773051416E+03  0.58773051419E+03  0.50400001928E-02 0. -1.
       -1   -1    0    0    0  501  0.00000000000E+00  0.00000000000E+00 -0.15338256248E+04  0.15338256248E+04  0.50400001928E-02 0.  1.
    10030    2    1    2    0    0  0.00000000000E+00  0.00000000000E+00 -0.94609511067E+03  0.21215561390E+04  0.18989219290E+04 0.  0.
        1    1    3    3  502    0  0.18241370690E+03  0.20293874457E+03  0.54297815282E+03  0.60768755868E+03  0.50400001928E-02 0. -1.
       -1    1    3    3    0  502 -0.18241370690E+03 -0.20293874457E+03 -0.14890732635E+04  0.15138685803E+04  0.50400001928E-02 0.  1.
</event>
<event>
 5   0  0.4061125E-05  0.1889171E+04  0.7818609E-02  0.8660265E-01
        3   -1    0    0  501    0  0.00000000000E+00  0.00000000000E+00  0.81420589730E+03  0.81420590356E+03  0.10100000352E+00 0. -1.
       -3   -1    0    0    0  501  0.00000000000E+00  0.00000000000E+00 -0.10958429468E+04  0.10958429515E+04  0.10100000352E+00 0.  1.
    10030    2    1    2    0    0  0.00000000000E+00  0.00000000000E+00 -0.28163704955E+03  0.19100488551E+04  0.18891710354E+04 0.  0.
        2    1    3    3  502    0  0.32070737474E+03  0.51007536718E+03 -0.87632739699E+03  0.10634753439E+04  0.25500000920E-02 0.  1.
       -2    1    3    3    0  502 -0.32070737474E+03 -0.51007536718E+03  0.59469034744E+03  0.84657351114E+03  0.25500000920E-02 0. -1.
</event>
<event>
 5   0  0.1118206E-04  0.1900303E+04  0.7818609E-02  0.8654705E-01
       -2   -1    0    0    0  501  0.00000000000E+00  0.00000000000E+00  0.13890316838E+04  0.13890316838E+04  0.25500000920E-02 0.  1.
        2   -1    0    0  501    0  0.00000000000E+00  0.00000000000E+00 -0.64994070700E+03  0.64994070700E+03  0.25500000920E-02 0. -1.
    10030    2    1    2    0    0  0.00000000000E+00  0.00000000000E+00  0.73909097679E+03  0.20389723908E+04  0.19003033806E+04 0.  0.
        1    1    3    3  502    0  0.29320129690E+03 -0.89538912524E+03  0.23769844829E+03  0.97169400454E+03  0.50400001928E-02 0.  1.
       -1    1    3    3    0  502 -0.29320129690E+03  0.89538912524E+03  0.50139252850E+03  0.10672783863E+04  0.50400001928E-02 0. -1.
</event>
<event>
 5   0  0.5628936E-05  0.1932416E+04  0.7818609E-02  0.8638887E-01
       -1   -1    0    0    0  501  0.00000000000E+00  0.00000000000E+00  0.52691589437E+03  0.52691589439E+03  0.50400001928E-02 0. -1.
        1   -1    0    0  501    0  0.00000000000E+00  0.00000000000E+00 -0.17717395516E+04  0.17717395516E+04  0.50400001928E-02 0.  1.
    10030    2    1    2    0    0  0.00000000000E+00  0.00000000000E+00 -0.12448236573E+04  0.22986554460E+04  0.19324158253E+04 0.  0.
        5    1    3    3  502    0  0.90271055753E+03  0.10780020569E+03 -0.23325664447E+03  0.93858296767E+03  0.46999998093E+01 0. -1.
       -5    1    3    3    0  502 -0.90271055753E+03 -0.10780020569E+03 -0.10115670128E+04  0.13600724784E+04  0.46999998093E+01 0.  1.
</event>
<event>
 5   0  0.5628936E-05  0.1903092E+04  0.7818609E-02  0.8653319E-01
        1   -1    0    0  501    0  0.00000000000E+00  0.00000000000E+00  0.15087868254E+04  0.15087868254E+04  0.50400001928E-02 0. -1.
       -1   -1    0    0    0  501  0.00000000000E+00  0.00000000000E+00 -0.60011099780E+03  0.60011099782E+03  0.50400001928E-02 0.  1.
    10030    2    1    2    0    0  0.00000000000E+00  0.00000000000E+00  0.90867582764E+03  0.21088978233E+04  0.19030917658E+04 0.  0.
        5    1    3    3  502    0  0.87789147797E+03 -0.14209858906E+03  0.82936209445E+03  0.12160382518E+04  0.46999998093E+01 0. -1.
       -5    1    3    3    0  502 -0.87789147797E+03  0.14209858906E+03  0.79313733187E+02  0.89285957148E+03  0.46999998093E+01 0.  1.
</event>
<event>
 5   0  0.5614989E-05  0.1893815E+04  0.7818609E-02  0.8657941E-01
       -1   -1    0    0    0  501  0.00000000000E+00  0.00000000000E+00  0.12280390021E+04  0.12280390021E+04  0.50400001928E-02 0.  1.
        1   -1    0    0  501    0  0.00000000000E+00  0.00000000000E+00 -0.73013442015E+03  0.73013442017E+03  0.50400001928E-02 0. -1.
    10030    2    1    2    0    0  0.00000000000E+00  0.00000000000E+00  0.49790458195E+03  0.19581734223E+04  0.18938147161E+04 0.  0.
        4    1    3    3  502    0 -0.94196937417E+03  0.85758026026E+02  0.20304538610E+03  0.96741396652E+03  0.12699999809E+01 0. -1.
       -4    1    3    3    0  502  0.94196937417E+03 -0.85758026026E+02  0.29485919585E+03  0.99075945576E+03  0.12699999809E+01 0.  1.
</event>
<event>
 5   0  0.1182630E-04  0.1899184E+04  0.7818609E-02  0.8655263E-01
        2   -1    0    0  501    0  0.00000000000E+00  0.00000000000E+00  0.18587277468E+04  0.18587277468E+04  0.25500000920E-02 0. -1.
       -2   -1    0    0    0  501  0.00000000000E+00  0.00000000000E+00 -0.48512998720E+03  0.48512998721E+03  0.25500000920E-02 0.  1.
    10030    2    1    2    0    0  0.00000000000E+00  0.00000000000E+00  0.13735977596E+04  0.23438577341E+04  0.18991835804E+04 0.  0.
        5    1    3    3  502    0  0.66771645328E+03 -0.55427340210E+03  0.11626044661E+04  0.14507706576E+04  0.46999998093E+01 0.  1.
       -5    1    3    3    0  502 -0.66771645328E+03  0.55427340210E+03  0.21099329353E+03  0.89308707648E+03  0.46999998093E+01 0. -1.
</event>
<event>
 5   0  0.1118206E-04  0.1900866E+04  0.7818609E-02  0.8654425E-01
        2   -1    0    0  501    0  0.00000000000E+00  0.00000000000E+00  0.79054020777E+03  0.79054020777E+03  0.25500000920E-02 0. -1.
       -2   -1    0    0    0  501  0.00000000000E+00  0.00000000000E+00 -0.11426654169E+04  0.11426654169E+04  0.25500000920E-02 0.  1.
    10030    2    1    2    0    0  0.00000000000E+00  0.00000000000E+00 -0.35212520909E+03  0.19332056246E+04  0.19008660721E+04 0.  0.
        1    1    3    3  502    0 -0.72870515463E+03  0.54698902224E+03 -0.45106030972E+03  0.10166924785E+04  0.50400001928E-02 0.  1.
       -1    1    3    3    0  502  0.72870515463E+03 -0.54698902224E+03  0.98935100633E+02  0.91651314611E+03  0.50400001928E-02 0. -1.
</event>
<event>
 5   0  0.5824956E-05  0.1902311E+04  0.7818609E-02  0.8653707E-01
        1   -1    0    0  501    0  0.00000000000E+00  0.00000000000E+00  0.14142018778E+04  0.14142018779E+04  0.50400001928E-02 0.  1.
       -1   -1    0    0    0  501  0.00000000000E+00  0.00000000000E+00 -0.63972255224E+03  0.63972255226E+03  0.50400001928E-02 0. -1.
    10030    2    1    2    0    0  0.00000000000E+00  0.00000000000E+00  0.77447932560E+03  0.20539244301E+04  0.19023110521E+04 0.  0.
        2    1    3    3  502    0 -0.73237059511E+03 -0.60274124219E+03  0.31064077196E+03  0.99807884600E+03  0.25500000920E-02 0.  1.
       -2    1    3    3    0  502  0.73237059511E+03  0.60274124219E+03  0.46383855364E+03  0.10558455841E+04  0.25500000920E-02 0. -1.
</event>
<event>
 5   0  0.5628936E-05  0.1920370E+04  0.7818609E-02  0.8644783E-01
        1   -1    0    0  501    0  0.00000000000E+00  0.00000000000E+00  0.14529291552E+04  0.14529291552E+04  0.50400001928E-02 0.  1.
       -1   -1    0    0    0  501  0.00000000000E+00  0.00000000000E+00 -0.63454950435E+03  0.63454950437E+03  0.50400001928E-02 0. -1.
    10030    2    1    2    0    0  0.00000000000E+00  0.00000000000E+00  0.81837965081E+03  0.20874786595E+04  0.19203702511E+04 0.  0.
        5    1    3    3  502    0 -0.53323917682E+02  0.29885792225E+03  0.13993762243E+04  0.14319341483E+04  0.46999998093E+01 0.  1.
       -5    1    3    3    0  502  0.53323917682E+02 -0.29885792225E+03 -0.58099657347E+03  0.65554451128E+03  0.46999998093E+01 0. -1.
</event>
<event>
 5   0  0.1133638E-04  0.1900225E+04  0.7818609E-02  0.8654744E-01
       -2   -1    0    0    0  501  0.00000000000E+00  0.00000000000E+00  0.11148571902E+04  0.11148571902E+04  0.25500000920E-02 0. -1.
        2   -1    0    0  501    0  0.00000000000E+00  0.00000000000E+00 -0.80971273472E+03  0.80971273473E+03  0.25500000920E-02 0.  1.
    10030    2    1    2    0    0  0.00000000000E+00  0.00000000000E+00  0.30514445551E+03  0.19245699250E+04  0.19002253175E+04 0.  0.
        3    1    3    3  502    0  0.68258081030E+03 -0.33753570187E+03 -0.42292139988E+03  0.87103928345E+03  0.10100000352E+00 0.  1.
       -3    1    3    3    0  502 -0.68258081030E+03  0.33753570187E+03  0.72806585538E+03  0.10535306415E+04  0.10100000352E+00 0. -1.
</event>
<event>
 5   0  0.1118206E-04  0.1906885E+04  0.7818609E-02  0.8651437E-01
        2   -1    0    0  501    0  0.00000000000E+00  0.00000000000E+00  0.65992606847E+03  0.65992606848E+03  0.25500000920E-02 0. -1.
       -2   -1    0    0    0  501  0.00000000000E+00  0.00000000000E+00 -0.13775069038E+04  0.13775069038E+04  0.25500000920E-02 0.  1.
    10030    2    1    2    0    0  0.00000000000E+00  0.00000000000E+00 -0.71758083536E+03  0.20374329723E+04  0.19068851201E+04 0.  0.
        1    1    3    3  502    0  0.75721754011E+03 -0.57181071683E+03 -0.25909194769E+03  0.98360283464E+03  0.50400001928E-02 0. -1.
       -1    1    3    3    0  502 -0.75721754011E+03  0.57181071683E+03 -0.45848888766E+03  0.10538301377E+04  0.50400001928E-02 0.  1.
</event>
<event>
 5   0  0.4061125E-05  0.1925525E+04  0.7818609E-02  0.8642254E-01
       -3   -1    0    0    0  501  0.00000000000E+00  0.00000000000E+00  0.16286312663E+04  0.16286312694E+04  0.10100000352E+00 0. -1.
        3   -1    0    0  501    0  0.00000000000E+00  0.00000000000E+00 -0.56913526108E+03  0.56913527004E+03  0.10100000352E+00 0.  1.
    10030    2    1    2    0    0  0.00000000000E+00  0.00000000000E+00  0.10594960052E+04  0.21977665395E+04  0.19255248575E+04 0.  0.
        5    1    3    3  502    0  0.82678932110E+03  0.20917669800E+03  0.19874348376E+02  0.85308414134E+03  0.46999998093E+01 0.  1.
       -5    1    3    3    0  502 -0.82678932110E+03 -0.20917669800E+03  0.10396216568E+04  0.13446823981E+04  0.46999998093E+01 0. -1.
</event>
<event>
 5   0  0.5824956E-05  0.1916088E+04  0.7818609E-02  0.8646890E-01
        1   -1    0    0  501    0  0.00000000000E+00  0.00000000000E+00  0.13835227517E+04  0.13835227517E+04  0.50400001928E-02 0.  1.
       -1   -1    0    0    0  501  0.00000000000E+00  0.00000000000E+00 -0.66341392916E+03  0.66341392918E+03  0.50400001928E-02 0. -1.
    10030    2    1    2    0    0  0.00000000000E+00  0.00000000000E+00  0.72010882257E+03  0.20469366809E+04  0.19160879571E+04 0.  0.
        2    1    3    3  502    0 -0.28345010178E+03  0.27664112012E+03  0.12919642037E+04  0.13513126112E+04  0.25500000920E-02 0.  1.
       -2    1    3    3    0  502  0.28345010178E+03 -0.27664112012E+03 -0.57185538109E+03  0.69562406976E+03  0.25500000920E-02 0. -1.
</event>
<event>
 5   0  0.5628936E-05  0.1894566E+04  0.7818609E-02  0.8657566E-01
       -1   -1    0    0    0  501  0.00000000000E+00  0.00000000000E+00  0.10105954666E+04  0.10105954666E+04  0.50400001928E-02 0.  1.
        1   -1    0    0  501    0  0.00000000000E+00  0.00000000000E+00 -0.88793732873E+03  0.88793732874E+03  0.50400001928E-02 0. -1.
    10030    2    1    2    0    0  0.00000000000E+00  0.00000000000E+00  0.12265813786E+03  0.18985327953E+04  0.18945663768E+04 0.  0.
        5    1    3    3  502    0 -0.11452846424E+03 -0.23742327894E+03  0.97308927492E+03  0.10081723114E+04  0.46999998093E+01 0.  1.
       -5    1    3    3    0  502  0.11452846424E+03  0.23742327894E+03 -0.85043113706E+03  0.89036048395E+03  0.46999998093E+01 0. -1.
</event>
<event>
 5   0  0.5824956E-05  0.1908742E+04  0.7818609E-02  0.8650517E-01
        1   -1    0    0  501    0  0.00000000000E+00  0.00000000000E+00  0.84490027964E+03  0.84490027966E+03  0.50400001928E-02 0.  1.
       -1   -1    0    0    0  501  0.00000000000E+00  0.00000000000E+00 -0.10780255439E+04  0.10780255439E+04  0.50400001928E-02 0. -1.
    10030    2    1    2    0    0  0.00000000000E+00  0.00000000000E+00 -0.23312526425E+03  0.19229258236E+04  0.19087420816E+04 0.  0.
        2    1    3    3  502    0 -0.13193146729E+03  0.92831229171E+03  0.62676462467E+02  0.93973292054E+03  0.25500000920E-02 0. -1.
       -2    1    3    3    0  502  0.13193146729E+03 -0.92831229171E+03 -0.29580172671E+03  0.98319290301E+03  0.25500000920E-02 0.  1.
</event>
<event>
 5   0  0.5628936E-05  0.1900254E+04  0.7818609E-02  0.8654730E-01
        1   -1    0    0  501    0  0.00000000000E+00  0.00000000000E+00  0.16360572526E+04  0.16360572526E+04  0.50400001928E-02 0.  1.
       -1   -1    0    0    0  501  0.00000000000E+00  0.00000000000E+00 -0.55177828863E+03  0.55177828865E+03  0.50400001928E-02 0. -1.
    10030    2    1    2    0    0  0.00000000000E+00  0.00000000000E+00  0.10842789639E+04  0.21878355412E+04  0.19002535314E+04 0.  0.
        5    1    3    3  502    0 -0.55475907639E+03  0.59235359181E+03 -0.26671237618E+02  0.81201838371E+03  0.46999998093E+01 0. -1.
       -5    1    3    3    0  502  0.55475907639E+03 -0.59235359181E+03  0.11109502015E+04  0.13758171575E+04  0.46999998093E+01 0.  1.
</event>
<event>
 5   0  0.5824956E-05  0.1936715E+04  0.7818609E-02  0.8636794E-01
       -1   -1    0    0    0  501  0.00000000000E+00  0.00000000000E+00  0.79445913738E+03  0.79445913740E+03  0.50400001928E-02 0. -1.
        1   -1    0    0  501    0  0.00000000000E+00  0.00000000000E+00 -0.11803202772E+04  0.11803202773E+04  0.50400001928E-02 0.  1.
    10030    2    1    2    0    0  0.00000000000E+00  0.00000000000E+00 -0.38586113986E+03  0.19747794147E+04  0.19367149809E+04 0.  0.
        2    1    3    3  502    0 -0.30785551119E+03  0.19685756757E+03  0.72146004055E+03  0.80872276325E+03  0.25500000920E-02 0. -1.
       -2    1    3    3    0  502  0.30785551119E+03 -0.19685756757E+03 -0.11073211804E+04  0.11660566514E+04  0.25500000920E-02 0.  1.
</event>
<event>
 5   0  0.1133638E-04  0.1881004E+04  0.7818609E-02  0.8664370E-01
        2   -1    0    0  501    0  0.00000000000E+00  0.00000000000E+00  0.11340963961E+04  0.11340963961E+04  0.25500000920E-02 0.  1.
       -2   -1    0    0    0  501  0.00000000000E+00  0.00000000000E+00 -0.77995499865E+03  0.77995499866E+03  0.25500000920E-02 0. -1.
    10030    2    1    2    0    0  0.00000000000E+00  0.00000000000E+00  0.35414139748E+03  0.19140513948E+04  0.18810041501E+04 0.  0.
        3    1    3    3  502    0  0.75524944591E+03 -0.38195837486E+03  0.59446033182E+03  0.10342519142E+04  0.10100000352E+00 0.  1.
       -3    1    3    3    0  502 -0.75524944591E+03  0.38195837486E+03 -0.24031893434E+03  0.87979948061E+03  0.10100000352E+00 0. -1.
</event>
<event>
 5   0  0.1141890E-04  0.1898751E+04  0.7818609E-02  0.8655478E-01
        2   -1    0    0  501    0  0.00000000000E+00  0.00000000000E+00  0.20065055837E+04  0.20065055837E+04  0.25500000920E-02 0.  1.
       -2   -1    0    0    0  501  0.00000000000E+00  0.00000000000E+00 -0.44919567977E+03  0.44919567977E+03  0.25500000920E-02 0. -1.
    10030    2    1    2    0    0  0.00000000000E+00  0.00000000000E+00  0.15573099039E+04  0.24557012635E+04  0.18987507890E+04 0.  0.
        2    1    3    3  502    0 -0.56896556291E+02 -0.65217620116E+03  0.16678969118E+04  0.17917731787E+04  0.25500000920E-02 0.  1.
       -2    1    3    3    0  502  0.56896556291E+02  0.65217620116E+03 -0.11058700785E+03  0.66392808480E+03  0.25500000920E-02 0. -1.
</event>
<event>
 5   0  0.1118206E-04  0.1898374E+04  0.7818609E-02  0.8655666E-01
       -2   -1    0    0    0  501  0.00000000000E+00  0.00000000000E+00  0.76660164243E+03  0.76660164243E+03  0.25500000920E-02 0.  1.
        2   -1    0    0  501    0  0.00000000000E+00  0.00000000000E+00 -0.11752596732E+04  0.11752596732E+04  0.25500000920E-02 0. -1.
    10030    2    1    2    0    0  0.00000000000E+00  0.00000000000E+00 -0.40865803079E+03  0.19418613157E+04  0.18983740367E+04 0.  0.
        1    1    3    3  502    0  0.44384651555E+03 -0.60138785910E+03 -0.80278585990E+03  0.10968738411E+04  0.50400001928E-02 0. -1.
       -1    1    3    3    0  502 -0.44384651555E+03  0.60138785910E+03  0.39412782911E+03  0.84498747455E+03  0.50400001928E-02 0.  1.
</event>
<event>
 5   0  0.5824956E-05  0.2067731E+04  0.7818609E-02  0.8575593E-01
        1   -1    0    0  501    0  0.00000000000E+00  0.00000000000E+00  0.13625559796E+04  0.13625559796E+04  0.50400001928E-02 0. -1.
       -1   -1    0    0    0  501  0.00000000000E+00  0.00000000000E+00 -0.78446520124E+03  0.78446520126E+03  0.50400001928E-02 0.  1.
    10030    2    1    2    0    0  0.00000000000E+00  0.00000000000E+00  0.57809077838E+03  0.21470211809E+04  0.20677308827E+04 0.  0.
        2    1    3    3  502    0  0.10215589975E+04 -0.10526811747E+03  0.16525293016E+03  0.10401791638E+04  0.25500000920E-02 0. -1.
       -2    1    3    3    0  502 -0.10215589975E+04  0.10526811747E+03  0.41283784822E+03  0.11068420171E+04  0.25500000920E-02 0.  1.
</event>
<event>
 5   0  0.1101678E-04  0.1897345E+04  0.7818609E-02  0.8656179E-01
        2   -1    0    0  501    0  0.00000000000E+00  0.00000000000E+00  0.11229154798E+04  0.11229154798E+04  0.25500000920E-02 0. -1.
       -2   -1    0    0    0  501  0.00000000000E+00  0.00000000000E+00 -0.80146667093E+03  0.80146667093E+03  0.25500000920E-02 0.  1.
    10030    2    1    2    0    0  0.00000000000E+00  0.00000000000E+00  0.32144880885E+03  0.19243821507E+04  0.18973448093E+04 0.  0.
        4    1    3    3  502    0 -0.54196266622E+03  0.59624440062E+03 -0.34715752121E+03  0.87735447470E+03  0.12699999809E+01 0.  1.
       -4    1    3    3    0  502  0.54196266622E+03 -0.59624440062E+03  0.66860633006E+03  0.10470276760E+04  0.12699999809E+01 0. -1.
</event>
<event>
 5   0  0.5841424E-05  0.1898377E+04  0.7818609E-02  0.8655665E-01
       -1   -1    0    0    0  501  0.00000000000E+00  0.00000000000E+00  0.13346170816E+04  0.13346170816E+04  0.50400001928E-02 0.  1.
        1   -1    0    0  501    0  0.00000000000E+00  0.00000000000E+00 -0.67506902689E+03  0.67506902691E+03  0.50400001928E-02 0. -1.
    10030    2    1    2    0    0  0.00000000000E+00  0.00000000000E+00  0.65954805470E+03  0.20096861085E+04  0.18983768378E+04 0.  0.
        1    1    3    3  502    0  0.10939842510E+03 -0.43444118402E+02  0.13268606481E+04  0.13320715395E+04  0.50400001928E-02 0.  1.
       -1    1    3    3    0  502 -0.10939842510E+03  0.43444118402E+02 -0.66731259339E+03  0.67761456903E+03  0.50400001928E-02 0. -1.
</event>
<event>
 5   0  0.5614989E-05  0.1890871E+04  0.7818609E-02  0.8659414E-01
        1   -1    0    0  501    0  0.00000000000E+00  0.00000000000E+00  0.94394857720E+03  0.94394857722E+03  0.50400001928E-02 0.  1.
       -1   -1    0    0    0  501  0.00000000000E+00  0.00000000000E+00 -0.94692501880E+03  0.94692501881E+03  0.50400001928E-02 0. -1.
    10030    2    1    2    0    0  0.00000000000E+00  0.00000000000E+00 -0.29764415950E+01  0.18908735960E+04  0.18908712534E+04 0.  0.
        4    1    3    3  502    0 -0.23593516780E+03 -0.62436380086E+03  0.66810304486E+03  0.94438278822E+03  0.12699999809E+01 0.  1.
       -4    1    3    3    0  502  0.23593516780E+03  0.62436380086E+03 -0.67107948646E+03  0.94649080781E+03  0.12699999809E+01 0. -1.
</event>
<event>
 5   0  0.1133638E-04  0.1723096E+04  0.7818609E-02  0.8748300E-01
        2   -1    0    0  501    0  0.00000000000E+00  0.00000000000E+00  0.10878052735E+04  0.10878052735E+04  0.25500000920E-02 0. -1.
       -2   -1    0    0    0  501  0.00000000000E+00  0.00000000000E+00 -0.68235121036E+03  0.68235121036E+03  0.25500000920E-02 0.  1.
    10030    2    1    2    0    0  0.00000000000E+00  0.00000000000E+00  0.40545406314E+03  0.17701564839E+04  0.17230963351E+04 0.  0.
        3    1    3    3  502    0 -0.59333782692E+03  0.23258385104E+03 -0.39286573507E+03  0.74865781277E+03  0.10100000352E+00 0.  1.
       -3    1    3    3    0  502  0.59333782692E+03 -0.23258385104E+03  0.79831979822E+03  0.10214986711E+04  0.10100000352E+00 0. -1.
</event>
<event>
 5   0  0.5628936E-05  0.1904172E+04  0.7818609E-02  0.8652783E-01
       -1   -1    0    0    0  501  0.00000000000E+00  0.00000000000E+00  0.63593728927E+03  0.63593728929E+03  0.50400001928E-02 0. -1.
        1   -1    0    0  501    0  0.00000000000E+00  0.00000000000E+00 -0.14254038261E+04  0.14254038261E+04  0.50400001928E-02 0.  1.
    10030    2    1    2    0    0  0.00000000000E+00  0.00000000000E+00 -0.78946653685E+03  0.20613411154E+04  0.19041716785E+04 0.  0.
        5    1    3    3  502    0  0.62392438164E+03 -0.67036731978E+03 -0.67655009628E+03  0.11386026964E+04  0.46999998093E+01 0.  1.
       -5    1    3    3    0  502 -0.62392438164E+03  0.67036731978E+03 -0.11291644057E+03  0.92273841905E+03  0.46999998093E+01 0. -1.
</event>
<event>
 5   0  0.1133638E-04  0.1845891E+04  0.7818609E-02  0.8682269E-01
        2   -1    0    0  501    0  0.00000000000E+00  0.00000000000E+00  0.20195171236E+04  0.20195171236E+04  0.25500000920E-02 0.  1.
       -2   -1    0    0    0  501  0.00000000000E+00  0.00000000000E+00 -0.42179819370E+03  0.42179819371E+03  0.25500000920E-02 0. -1.
    10030    2    1    2    0    0  0.00000000000E+00  0.00000000000E+00  0.15977189299E+04  0.24413153173E+04  0.18458913022E+04 0.  0.
        3    1    3    3  502    0  0.82286405208E+03  0.27908398512E+03  0.12104213567E+04  0.14900043590E+04  0.10100000352E+00 0.  1.
       -3    1    3    3    0  502 -0.82286405208E+03 -0.27908398512E+03  0.38729757321E+03  0.95131095829E+03  0.10100000352E+00 0. -1.
</event>
<event>
 5   0  0.5614989E-05  0.1910697E+04  0.7818609E-02  0.8649550E-01
        1   -1    0    0  501    0  0.00000000000E+00  0.00000000000E+00  0.94757532368E+03  0.94757532369E+03  0.50400001928E-02 0. -1.
       -1   -1    0    0    0  501  0.00000000000E+00  0.00000000000E+00 -0.96318587227E+03  0.96318587228E+03  0.50400001928E-02 0.  1.
    10030    2    1    2    0    0  0.00000000000E+00  0.00000000000E+00 -0.15610548587E+02  0.19107611960E+04  0.19106974273E+04 0.  0.
        4    1    3    3  502    0  0.60350555773E+03  0.65019387985E+03  0.34677462352E+03  0.95248374895E+03  0.12699999809E+01 0. -1.
       -4    1    3    3    0  502 -0.60350555773E+03 -0.65019387985E+03 -0.36238517211E+03  0.95827744702E+03  0.12699999809E+01 0.  1.
</event>
<event>
 5   0  0.4061125E-05  0.1939066E+04  0.7818609E-02  0.8635652E-01
       -3   -1    0    0    0  501  0.00000000000E+00  0.00000000000E+00  0.11746734230E+04  0.11746734273E+04  0.10100000352E+00 0. -1.
        3   -1    0    0  501    0  0.00000000000E+00  0.00000000000E+00 -0.80021727932E+03  0.80021728570E+03  0.10100000352E+00 0.  1.
    10030    2    1    2    0    0  0.00000000000E+00  0.00000000000E+00  0.37445614366E+03  0.19748907130E+04  0.19390657351E+04 0.  0.
        2    1    3    3  502    0 -0.39305518744E+03  0.60237758749E+03  0.84934896917E+03  0.11129891328E+04  0.25500000920E-02 0. -1.
       -2    1    3    3    0  502  0.39305518744E+03 -0.60237758749E+03 -0.47489282551E+03  0.86190158023E+03  0.25500000920E-02 0.  1.
</event>
<event>
 5   0  0.1182630E-04  0.1880728E+04  0.7818609E-02  0.8664509E-01
       -2   -1    0    0    0  501  0.00000000000E+00  0.00000000000E+00  0.45257548999E+03  0.45257549000E+03  0.25500000920E-02 0.  1.
        2   -1    0    0  501    0  0.00000000000E+00  0.00000000000E+00 -0.19538939569E+04  0.19538939569E+04  0.25500000920E-02 0. -1.
    10030    2    1    2    0    0  0.00000000000E+00  0.00000000000E+00 -0.15013184669E+04  0.24064694469E+04  0.18807280664E+04 0.  0.
        5    1    3    3  502    0 -0.70751302821E+03 -0.55516562787E+03 -0.11021929845E+04  0.14225452628E+04  0.46999998093E+01 0. -1.
       -5    1    3    3    0  502  0.70751302821E+03  0.55516562787E+03 -0.39912548238E+03  0.98392418414E+03  0.46999998093E+01 0.  1.
</event>
<event>
 5   0  0.5841424E-05  0.1904432E+04  0.7818609E-02  0.8652653E-01
       -1   -1    0    0    0  501  0.00000000000E+00  0.00000000000E+00  0.89548518087E+03  0.89548518088E+03  0.50400001928E-02 0.  1.
        1   -1    0    0  501    0  0.00000000000E+00  0.00000000000E+00 -0.10125408789E+04  0.10125408789E+04  0.50400001928E-02 0. -1.
    10030    2    1    2    0    0  0.00000000000E+00  0.00000000000E+00 -0.11705569800E+03  0.19080260598E+04  0.19044320435E+04 0.  0.
        1    1    3    3  502    0  0.22984940626E+03  0.26031174724E+02  0.86690736675E+03  0.89723840430E+03  0.50400001928E-02 0.  1.
       -1    1    3    3    0  502 -0.22984940626E+03 -0.26031174724E+02 -0.98396306474E+03  0.10107876555E+04  0.50400001928E-02 0. -1.
</event>
<event>
 5   0  0.1182630E-04  0.1897916E+04  0.7818609E-02  0.8655895E-01
       -2   -1    0    0    0  501  0.00000000000E+00  0.00000000000E+00  0.32211911831E+03  0.32211911832E+03  0.25500000920E-02 0. -1.
        2   -1    0    0  501    0  0.00000000000E+00  0.00000000000E+00 -0.27956145685E+04  0.27956145685E+04  0.25500000920E-02 0.  1.
    10030    2    1    2    0    0  0.00000000000E+00  0.00000000000E+00 -0.24734954502E+04  0.31177336869E+04  0.18979155935E+04 0.  0.
        5    1    3    3  502    0 -0.67197822308E+03  0.63514132174E+02 -0.14103117592E+03  0.68956555879E+03  0.46999998093E+01 0. -1.
       -5    1    3    3    0  502  0.67197822308E+03 -0.63514132174E+02 -0.23324642743E+04  0.24281681281E+04  0.46999998093E+01 0.  1.
</event>
<event>
 5   0  0.5824956E-05  0.1907168E+04  0.7818609E-02  0.8651297E-01
       -1   -1    0    0    0  501  0.00000000000E+00  0.00000000000E+00  0.51506057795E+03  0.51506057797E+03  0.50400001928E-02 0. -1.
        1   -1    0    0  501    0  0.00000000000E+00  0.00000000000E+00 -0.17654671566E+04  0.17654671566E+04  0.50400001928E-02 0.  1.
    10030    2    1    2    0    0  0.00000000000E+00  0.00000000000E+00 -0.12504065787E+04  0.22805277346E+04  0.19071680934E+04 0.  0.
        2    1    3    3  502    0 -0.37511154639E+03 -0.24657111771E+02 -0.16731245723E+04  0.17148359921E+04  0.25500000920E-02 0.  1.
       -2    1    3    3    0  502  0.37511154639E+03  0.24657111771E+02  0.42271799362E+03  0.56569174250E+03  0.25500000920E-02 0. -1.
</event>
<event>
 5   0  0.5579109E-05  0.1896141E+04  0.7818609E-02  0.8656780E-01
        1   -1    0    0  501    0  0.00000000000E+00  0.00000000000E+00  0.69726364283E+03  0.69726364285E+03  0.50400001928E-02 0. -1.
       -1   -1    0    0    0  501  0.00000000000E+00  0.00000000000E+00 -0.12890930456E+04  0.12890930457E+04  0.50400001928E-02 0.  1.
    10030    2    1    2    0    0  0.00000000000E+00  0.00000000000E+00 -0.59182940281E+03  0.19863566885E+04  0.18961410422E+04 0.  0.
        3    1    3    3  502    0  0.44442835534E+03  0.42935675050E+03 -0.10491330932E+04  0.12175976510E+04  0.10100000352E+00 0.  1.
       -3    1    3    3    0  502 -0.44442835534E+03 -0.42935675050E+03  0.45730369043E+03  0.76875903748E+03  0.10100000352E+00 0. -1.
</event>
<event>
 5   0  0.5628936E-05  0.1889181E+04  0.7818609E-02  0.8660261E-01
       -1   -1    0    0    0  501  0.00000000000E+00  0.00000000000E+00  0.18028449304E+04  0.18028449304E+04  0.50400001928E-02 0.  1.
        1   -1    0    0  501    0  0.00000000000E+00  0.00000000000E+00 -0.49491278975E+03  0.49491278977E+03  0.50400001928E-02 0. -1.
    10030    2    1    2    0    0  0.00000000000E+00  0.00000000000E+00  0.13079321406E+04  0.22977577202E+04  0.18891807897E+04 0.  0.
        5    1    3    3  502    0  0.41020333305E+03  0.56611252802E+03  0.14265417797E+04  0.15886452430E+04  0.46999998093E+01 0.  1.
       -5    1    3    3    0  502 -0.41020333305E+03 -0.56611252802E+03 -0.11860963905E+03  0.70911247719E+03  0.46999998093E+01 0. -1.
</event>
<event>
 5   0  0.1141890E-04  0.1907049E+04  0.7818609E-02  0.8651355E-01
        2   -1    0    0  501    0  0.00000000000E+00  0.00000000000E+00  0.61984592319E+03  0.61984592320E+03  0.25500000920E-02 0. -1.
       -2   -1    0    0    0  501  0.00000000000E+00  0.00000000000E+00 -0.14668309109E+04  0.14668309109E+04  0.25500000920E-02 0.  1.
    10030    2    1    2    0    0  0.00000000000E+00  0.00000000000E+00 -0.84698498767E+03  0.20866768341E+04  0.19070491972E+04 0.  0.
        2    1    3    3  502    0 -0.56382054218E+03 -0.51305569760E+03  0.20325037659E+03  0.78894262670E+03  0.25500000920E-02 0. -1.
       -2    1    3    3    0  502  0.56382054218E+03  0.51305569760E+03 -0.10502353643E+04  0.12977342074E+04  0.25500000920E-02 0.  1.
</event>
<event>
 5   0  0.1118206E-04  0.1895683E+04  0.7818609E-02  0.8657008E-01
        2   -1    0    0  501    0  0.00000000000E+00  0.00000000000E+00  0.77368832157E+03  0.77368832157E+03  0.25500000920E-02 0.  1.
       -2   -1    0    0    0  501  0.00000000000E+00  0.00000000000E+00 -0.11611960126E+04  0.11611960126E+04  0.25500000920E-02 0. -1.
    10030    2    1    2    0    0  0.00000000000E+00  0.00000000000E+00 -0.38750769105E+03  0.19348843342E+04  0.18956833006E+04 0.  0.
        1    1    3    3  502    0  0.13585968724E+03  0.15241611144E+03 -0.11384833471E+04  0.11566472484E+04  0.50400001928E-02 0. -1.
       -1    1    3    3    0  502 -0.13585968724E+03 -0.15241611144E+03  0.75097565605E+03  0.77823708576E+03  0.50400001928E-02 0.  1.
</event>
<event>
 5   0  0.5841424E-05  0.1898244E+04  0.7818609E-02  0.8655731E-01
       -1   -1    0    0    0  501  0.00000000000E+00  0.00000000000E+00  0.49779839573E+03  0.49779839576E+03  0.50400001928E-02 0. -1.
        1   -1    0    0  501    0  0.00000000000E+00  0.00000000000E+00 -0.18096324454E+04  0.18096324454E+04  0.50400001928E-02 0.  1.
    10030    2    1    2    0    0  0.00000000000E+00  0.00000000000E+00 -0.13118340497E+04  0.23074308412E+04  0.18982435336E+04 0.  0.
        1    1    3    3  502    0 -0.53495122095E+03 -0.25553091316E+03 -0.15568792331E+04  0.16659357139E+04  0.50400001928E-02 0.  1.
       -1    1    3    3    0  502  0.53495122095E+03  0.25553091316E+03  0.24504518342E+03  0.64149512727E+03  0.50400001928E-02 0. -1.
</event>
<event>
 5   0  0.5579109E-05  0.1902672E+04  0.7818609E-02  0.8653527E-01
        1   -1    0    0  501    0  0.00000000000E+00  0.00000000000E+00  0.78976212900E+03  0.78976212902E+03  0.50400001928E-02 0. -1.
       -1   -1    0    0    0  501  0.00000000000E+00  0.00000000000E+00 -0.11459659303E+04  0.11459659303E+04  0.50400001928E-02 0.  1.
    10030    2    1    2    0    0  0.00000000000E+00  0.00000000000E+00 -0.35620380127E+03  0.19357280593E+04  0.19026723237E+04 0.  0.
        3    1    3    3  502    0  0.77524969590E+03  0.15715998898E+03  0.35959614559E+03  0.86891930078E+03  0.10100000352E+00 0. -1.
       -3    1    3    3    0  502 -0.77524969590E+03 -0.15715998898E+03 -0.71579994686E+03  0.10668087585E+04  0.10100000352E+00 0.  1.
</event>
<event>
 5   0  0.5579109E-05  0.1794183E+04  0.7818609E-02  0.8709399E-01
       -1   -1    0    0    0  501  0.00000000000E+00  0.00000000000E+00  0.85892609542E+03  0.85892609544E+03  0.50400001928E-02 0. -1.
        1   -1    0    0  501    0  0.00000000000E+00  0.00000000000E+00 -0.93695246147E+03  0.93695246148E+03  0.50400001928E-02 0.  1.
    10030    2    1    2    0    0  0.00000000000E+00  0.00000000000E+00 -0.78026366048E+02  0.17958785569E+04  0.17941827324E+04 0.  0.
        3    1    3    3  502    0  0.55557185763E+03  0.40204978695E+03  0.53986621182E+03  0.87278843773E+03  0.10100000352E+00 0. -1.
       -3    1    3    3    0  502 -0.55557185763E+03 -0.40204978695E+03 -0.61789257786E+03  0.92309011919E+03  0.10100000352E+00 0.  1.
</event>
<event>
 5   0  0.5614989E-05  0.1902136E+04  0.7818609E-02  0.8653794E-01
        1   -1    0    0  501    0  0.00000000000E+00  0.00000000000E+00  0.17461071151E+04  0.17461071151E+04  0.50400001928E-02 0.  1.
       -1   -1    0    0    0  501  0.00000000000E+00  0.00000000000E+00 -0.51802669395E+03  0.51802669397E+03  0.50400001928E-02 0. -1.
    10030    2    1    2    0    0  0.00000000000E+00  0.00000000000E+00  0.12280804212E+04  0.22641338091E+04  0.19021357430E+04 0.  0.
        4    1    3    3  502    0 -0.65312049288E+03 -0.66725060256E+03  0.82941335734E+03  0.12488866542E+04  0.12699999809E+01 0.  1.
       -4    1    3    3    0  502  0.65312049288E+03  0.66725060256E+03  0.39866706384E+03  0.10152471549E+04  0.12699999809E+01 0. -1.
</event>
<event>
 5   0  0.1118206E-04  0.1793613E+04  0.7818609E-02  0.8709703E-01
       -2   -1    0    0    0  501  0.00000000000E+00  0.00000000000E+00  0.49125938338E+03  0.49125938339E+03  0.25500000920E-02 0. -1.
        2   -1    0    0  501    0  0.00000000000E+00  0.00000000000E+00 -0.16371428282E+04  0.16371428282E+04  0.25500000920E-02 0.  1.
    10030    2    1    2    0    0  0.00000000000E+00  0.00000000000E+00 -0.11458834448E+04  0.21284022116E+04  0.17936128638E+04 0.  0.
        1    1    3    3  502    0  0.72670532140E+03 -0.52390346095E+03 -0.62167150078E+03  0.10904361125E+04  0.50400001928E-02 0. -1.
       -1    1    3    3    0  502 -0.72670532140E+03  0.52390346095E+03 -0.52421194401E+03  0.10379660991E+04  0.50400001928E-02 0.  1.
</event>
<event>
 5   0  0.1133638E-04  0.1903970E+04  0.7818609E-02  0.8652883E-01
        2   -1    0    0  501    0  0.00000000000E+00  0.00000000000E+00  0.19946540707E+04  0.19946540707E+04  0.25500000920E-02 0.  1.
       -2   -1    0    0    0  501  0.00000000000E+00  0.00000000000E+00 -0.45435195866E+03  0.45435195867E+03  0.25500000920E-02 0. -1.
    10030    2    1    2    0    0  0.00000000000E+00  0.00000000000E+00  0.15403021120E+04  0.24490060293E+04  0.19039695206E+04 0.  0.
        3    1    3    3  502    0  0.83200693784E+03  0.11229795490E+03  0.19286585016E+03  0.86141953870E+03  0.10100000352E+00 0.  1.
       -3    1    3    3    0  502 -0.83200693784E+03 -0.11229795490E+03  0.13474362618E+04  0.15875864906E+04  0.10100000352E+00 0. -1.
</event>
<event>
 5   0  0.5579109E-05  0.1895095E+04  0.7818609E-02  0.8657302E-01
        1   -1    0    0  501    0  0.00000000000E+00  0.00000000000E+00  0.99896858919E+03  0.99896858920E+03  0.50400001928E-02 0. -1.
       -1   -1    0    0    0  501  0.00000000000E+00  0.00000000000E+00 -0.89877346356E+03  0.89877346357E+03  0.50400001928E-02 0.  1.
    10030    2    1    2    0    0  0.00000000000E+00  0.00000000000E+00  0.10019512563E+03  0.18977420528E+04  0.18950952049E+04 0.  0.
        3    1    3    3  502    0 -0.89320353525E+03 -0.23708350538E+03  0.25973489354E+03  0.95993925279E+03  0.10100000352E+00 0.  1.
       -3    1    3    3    0  502  0.89320353525E+03  0.23708350538E+03 -0.15953976791E+03  0.93780279999E+03  0.10100000352E+00 0. -1.
</event>
<event>
 5   0  0.1101678E-04  0.1709950E+04  0.7818609E-02  0.8755710E-01
        2   -1    0    0  501    0  0.00000000000E+00  0.00000000000E+00  0.99503468183E+03  0.99503468184E+03  0.25500000920E-02 0.  1.
       -2   -1    0    0    0  501  0.00000000000E+00  0.00000000000E+00 -0.73462957002E+03  0.73462957002E+03  0.25500000920E-02 0. -1.
    10030    2    1    2    0    0  0.00000000000E+00  0.00000000000E+00  0.26040511182E+03  0.17296642519E+04  0.17099495905E+04 0.  0.
        4    1    3    3  502    0 -0.69354365769E+02  0.43470728498E+03 -0.61118695570E+03  0.75321415240E+03  0.12699999809E+01 0. -1.
       -4    1    3    3    0  502  0.69354365769E+02 -0.43470728498E+03  0.87159206752E+03  0.97645009946E+03  0.12699999809E+01 0.  1.
</event>
<event>
 5   0  0.5579109E-05  0.1906185E+04  0.7818609E-02  0.8651784E-01
       -1   -1    0    0    0  501  0.00000000000E+00  0.00000000000E+00  0.52648487109E+03  0.52648487111E+03  0.50400001928E-02 0.  1.
        1   -1    0    0  501    0  0.00000000000E+00  0.00000000000E+00 -0.17253781136E+04  0.17253781136E+04  0.50400001928E-02 0. -1.
    10030    2    1    2    0    0  0.00000000000E+00  0.00000000000E+00 -0.11988932425E+04  0.22518629847E+04  0.19061851681E+04 0.  0.
        3    1    3    3  502    0  0.91796113123E+03  0.51064999771E+01 -0.29662849670E+03  0.96471093600E+03  0.10100000352E+00 0.  1.
       -3    1    3    3    0  502 -0.91796113123E+03 -0.51064999771E+01 -0.90226474581E+03  0.12871520487E+04  0.10100000352E+00 0. -1.
</event>
<event>
 5   0  0.5579109E-05  0.1899977E+04  0.7818609E-02  0.8654868E-01
       -1   -1    0    0    0  501  0.00000000000E+00  0.00000000000E+00  0.53806271549E+03  0.53806271551E+03  0.50400001928E-02 0.  1.
        1   -1    0    0  501    0  0.00000000000E+00  0.00000000000E+00 -0.16772732856E+04  0.16772732856E+04  0.50400001928E-02 0. -1.
    10030    2    1    2    0    0  0.00000000000E+00  0.00000000000E+00 -0.11392105701E+04  0.22153360011E+04  0.18999770722E+04 0.  0.
        3    1    3    3  502    0 -0.12874185783E+03  0.51049910737E+03  0.35240022406E+03  0.63353747537E+03  0.10100000352E+00 0.  1.
       -3    1    3    3    0  502  0.12874185783E+03 -0.51049910737E+03 -0.14916107941E+04  0.15817985257E+04  0.10100000352E+00 0. -1.
</event>
<event>
 5   0  0.1133638E-04  0.1909046E+04  0.7818609E-02  0.8650367E-01
        2   -1    0    0  501    0  0.00000000000E+00  0.00000000000E+00  0.90088474011E+03  0.90088474012E+03  0.25500000920E-02 0. -1.
       -2   -1    0    0    0  501  0.00000000000E+00  0.00000000000E+00 -0.10113545743E+04  0.10113545743E+04  0.25500000920E-02 0.  1.
    10030    2    1    2    0    0  0.00000000000E+00  0.00000000000E+00 -0.11046983414E+03  0.19122393144E+04  0.19090457331E+04 0.  0.
        3    1    3    3  502    0  0.11148842894E+02  0.92838992149E+03  0.16667970953E+03  0.94329967602E+03  0.10100000352E+00 0. -1.
       -3    1    3    3    0  502 -0.11148842894E+02 -0.92838992149E+03 -0.27714954367E+03  0.96893963835E+03  0.10100000352E+00 0.  1.
</event>
<event>
 5   0  0.5614989E-05  0.1898855E+04  0.7818609E-02  0.8655427E-01
        1   -1    0    0  501    0  0.00000000000E+00  0.00000000000E+00  0.14696368130E+04  0.14696368130E+04  0.50400001928E-02 0.  1.
       -1   -1    0    0    0  501  0.00000000000E+00  0.00000000000E+00 -0.61335712580E+03  0.61335712582E+03  0.50400001928E-02 0. -1.
    10030    2    1    2    0    0  0.00000000000E+00  0.00000000000E+00  0.85627968723E+03  0.20829939389E+04  0.18988546144E+04 0.  0.
        4    1    3    3  502    0 -0.60193634563E+03 -0.23890827845E+03  0.11897321448E+04  0.13545732609E+04  0.12699999809E+01 0.  1.
       -4    1    3    3    0  502  0.60193634563E+03  0.23890827845E+03 -0.33345245762E+03  0.72842067797E+03  0.12699999809E+01 0. -1.
</event>
<event>
 5   0  0.5579109E-05  0.1903292E+04  0.7818609E-02  0.8653219E-01
       -1   -1    0    0    0  501  0.00000000000E+00  0.00000000000E+00  0.11440245089E+04  0.11440245089E+04  0.50400001928E-02 0.  1.
        1   -1    0    0  501    0  0.00000000000E+00  0.00000000000E+00 -0.79161816531E+03  0.79161816533E+03  0.50400001928E-02 0. -1.
    10030    2    1    2    0    0  0.00000000000E+00  0.00000000000E+00  0.35240634354E+03  0.19356426742E+04  0.19032924975E+04 0.  0.
        3    1    3    3  502    0  0.11440356281E+03  0.46055692549E+03  0.10151052852E+04  0.11205532593E+04  0.10100000352E+00 0.  1.
       -3    1    3    3    0  502 -0.11440356281E+03 -0.46055692549E+03 -0.66269894163E+03  0.81508941487E+03  0.10100000352E+00 0. -1.
</event>
<event>
 5   0  0.1141890E-04  0.1903085E+04  0.7818609E-02  0.8653322E-01
       -2   -1    0    0    0  501  0.00000000000E+00  0.00000000000E+00  0.12537942414E+04  0.12537942414E+04  0.25500000920E-02 0.  1.
        2   -1    0    0  501    0  0.00000000000E+00  0.00000000000E+00 -0.72215426902E+03  0.72215426903E+03  0.25500000920E-02 0. -1.
    10030    2    1    2    0    0  0.00000000000E+00  0.00000000000E+00  0.53163997240E+03  0.19759485105E+04  0.19030847211E+04 0.  0.
        2    1    3    3  502    0 -0.31334790556E+03 -0.77356367219E+02 -0.66358449001E+03  0.73791279489E+03  0.25500000920E-02 0. -1.
       -2    1    3    3    0  502  0.31334790556E+03  0.77356367219E+02  0.11952244624E+04  0.12380357156E+04  0.25500000920E-02 0.  1.
</event>
<event>
 5   0  0.5841424E-05  0.1891838E+04  0.7818609E-02  0.8658930E-01
        1   -1    0    0  501    0  0.00000000000E+00  0.00000000000E+00  0.15792948945E+04  0.15792948945E+04  0.50400001928E-02 0. -1.
       -1   -1    0    0    0  501  0.00000000000E+00  0.00000000000E+00 -0.56655853983E+03  0.56655853986E+03  0.50400001928E-02 0.  1.
    10030    2    1    2    0    0  0.00000000000E+00  0.00000000000E+00  0.10127363546E+04  0.21458534343E+04  0.18918382694E+04 0.  0.
        1    1    3    3  502    0  0.73857287788E+03  0.18564233516E+03 -0.13004671569E+03  0.77257046335E+03  0.50400001928E-02 0.  1.
       -1    1    3    3    0  502 -0.73857287788E+03 -0.18564233516E+03  0.11427830703E+04  0.13732829710E+04  0.50400001928E-02 0. -1.
</event>
<event>
 5   0  0.1118206E-04  0.1904459E+04  0.7818609E-02  0.8652640E-01
       -2   -1    0    0    0  501  0.00000000000E+00  0.00000000000E+00  0.10314631158E+04  0.10314631158E+04  0.25500000920E-02 0. -1.
        2   -1    0    0  501    0  0.00000000000E+00  0.00000000000E+00 -0.87908208462E+03  0.87908208462E+03  0.25500000920E-02 0.  1.
    10030    2    1    2    0    0  0.00000000000E+00  0.00000000000E+00  0.15238103117E+03  0.19105452004E+04  0.19044587116E+04 0.  0.
        1    1    3    3  502    0  0.36205110257E+03  0.76221657740E+03 -0.36645157504E+03  0.91996840631E+03  0.50400001928E-02 0.  1.
       -1    1    3    3    0  502 -0.36205110257E+03 -0.76221657740E+03  0.51883260620E+03  0.99057679411E+03  0.50400001928E-02 0. -1.
</event>
<event>
 5   0  0.5824956E-05  0.1919776E+04  0.7818609E-02  0.8645075E-01
        1   -1    0    0  501    0  0.00000000000E+00  0.00000000000E+00  0.14040648611E+04  0.14040648611E+04  0.50400001928E-02 0. -1.
       -1   -1    0    0    0  501  0.00000000000E+00  0.00000000000E+00 -0.65622646672E+03  0.65622646674E+03  0.50400001928E-02 0.  1.
    10030    2    1    2    0    0  0.00000000000E+00  0.00000000000E+00  0.74783839439E+03  0.20602913279E+04  0.19197755315E+04 0.  0.
        2    1    3    3  502    0 -0.63820900943E+02  0.76153417946E+03  0.99727497411E+03  0.12564094826E+04  0.25500000920E-02 0. -1.
       -2    1    3    3    0  502  0.63820900943E+02 -0.76153417946E+03 -0.24943657972E+03  0.80388184529E+03  0.25500000920E-02 0.  1.
</event>
<event>
 5   0  0.5614989E-05  0.1902414E+04  0.7818609E-02  0.8653656E-01
       -1   -1    0    0    0  501  0.00000000000E+00  0.00000000000E+00  0.88736659287E+03  0.88736659289E+03  0.50400001928E-02 0. -1.
        1   -1    0    0  501    0  0.00000000000E+00  0.00000000000E+00 -0.10196404044E+04  0.10196404044E+04  0.50400001928E-02 0.  1.
    10030    2    1    2    0    0  0.00000000000E+00  0.00000000000E+00 -0.13227381152E+03  0.19070069973E+04  0.19024140786E+04 0.  0.
        4    1    3    3  502    0  0.28325357116E+03  0.85077132328E+03  0.25203889946E+03  0.93143418975E+03  0.12699999809E+01 0. -1.
       -4    1    3    3    0  502 -0.28325357116E+03 -0.85077132328E+03 -0.38431271098E+03  0.97557280754E+03  0.12699999809E+01 0.  1.
</event>
<event>
 5   0  0.1133638E-04  0.1886494E+04  0.7818609E-02  0.8661609E-01
       -2   -1    0    0    0  501  0.00000000000E+00  0.00000000000E+00  0.45286371157E+03  0.45286371158E+03  0.25500000920E-02 0. -1.
        2   -1    0    0  501    0  0.00000000000E+00  0.00000000000E+00 -0.19646414473E+04  0.19646414473E+04  0.25500000920E-02 0.  1.
    10030    2    1    2    0    0  0.00000000000E+00  0.00000000000E+00 -0.15117777357E+04  0.24175051589E+04  0.18864939096E+04 0.  0.
        3    1    3    3  502    0  0.58775447952E+03  0.73394613391E+03 -0.66014116018E+03  0.11488771115E+04  0.10100000352E+00 0. -1.
       -3    1    3    3    0  502 -0.58775447952E+03 -0.73394613391E+03 -0.85163657556E+03  0.12686280474E+04  0.10100000352E+00 0.  1.
</event>
<event>
 5   0  0.5579109E-05  0.1881298E+04  0.7818609E-02  0.8664222E-01
       -1   -1    0    0    0  501  0.00000000000E+00  0.00000000000E+00  0.10702884251E+04  0.10702884251E+04  0.50400001928E-02 0.  1.
        1   -1    0    0  501    0  0.00000000000E+00  0.00000000000E+00 -0.82671203077E+03  0.82671203079E+03  0.50400001928E-02 0. -1.
    10030    2    1    2    0    0  0.00000000000E+00  0.00000000000E+00  0.24357639431E+03  0.18970004559E+04  0.18812977621E+04 0.  0.
        3    1    3    3  502    0 -0.69614070234E+03 -0.62206372453E+03  0.23783638852E+03  0.96340090966E+03  0.10100000352E+00 0.  1.
       -3    1    3    3    0  502  0.69614070234E+03  0.62206372453E+03  0.57400057903E+01  0.93359954622E+03  0.10100000352E+00 0. -1.
</event>
<event>
 5   0  0.1141890E-04  0.1896321E+04  0.7818609E-02  0.8656690E-01
       -2   -1    0    0    0  501  0.00000000000E+00  0.00000000000E+00  0.32524850518E+03  0.32524850519E+03  0.25500000920E-02 0.  1.
        2   -1    0    0  501    0  0.00000000000E+00  0.00000000000E+00 -0.27640645957E+04  0.27640645957E+04  0.25500000920E-02 0. -1.
    10030    2    1    2    0    0  0.00000000000E+00  0.00000000000E+00 -0.24388160905E+04  0.30893131009E+04  0.18963205193E+04 0.  0.
        2    1    3    3  502    0 -0.13133813539E+03 -0.35085772830E+03 -0.26383770990E+04  0.26648423158E+04  0.25500000920E-02 0. -1.
       -2    1    3    3    0  502  0.13133813539E+03  0.35085772830E+03  0.19956100848E+03  0.42447078513E+03  0.25500000920E-02 0.  1.
</event>
<event>
 5   0  0.1133638E-04  0.1896301E+04  0.7818609E-02  0.8656700E-01
        2   -1    0    0  501    0  0.00000000000E+00  0.00000000000E+00  0.88145452512E+03  0.88145452512E+03  0.25500000920E-02 0. -1.
       -2   -1    0    0    0  501  0.00000000000E+00  0.00000000000E+00 -0.10198925639E+04  0.10198925639E+04  0.25500000920E-02 0.  1.
    10030    2    1    2    0    0  0.00000000000E+00  0.00000000000E+00 -0.13843803882E+03  0.19013470891E+04  0.18963005201E+04 0.  0.
        3    1    3    3  502    0 -0.15181395895E+03  0.65547042610E+03  0.60061570542E+03  0.90190254097E+03  0.10100000352E+00 0. -1.
       -3    1    3    3    0  502  0.15181395895E+03 -0.65547042610E+03 -0.73905374423E+03  0.99944454808E+03  0.10100000352E+00 0.  1.
</event>
<event>
 5   0  0.1141890E-04  0.1902817E+04  0.7818609E-02  0.8653455E-01
       -2   -1    0    0    0  501  0.00000000000E+00  0.00000000000E+00  0.85646514217E+03  0.85646514217E+03  0.25500000920E-02 0. -1.
        2   -1    0    0  501    0  0.00000000000E+00  0.00000000000E+00 -0.10568768220E+04  0.10568768220E+04  0.25500000920E-02 0.  1.
    10030    2    1    2    0    0  0.00000000000E+00  0.00000000000E+00 -0.20041167980E+03  0.19133419642E+04  0.19028170249E+04 0.  0.
        2    1    3    3  502    0  0.32650200743E+03 -0.36827991979E+03  0.71851181063E+03  0.87091496841E+03  0.25500000920E-02 0. -1.
       -2    1    3    3    0  502 -0.32650200743E+03  0.36827991979E+03 -0.91892349043E+03  0.10424269957E+04  0.25500000920E-02 0.  1.
</event>
<event>
 5   0  0.1141890E-04  0.1893543E+04  0.7818609E-02  0.8658077E-01
       -2   -1    0    0    0  501  0.00000000000E+00  0.00000000000E+00  0.65719189610E+03  0.65719189611E+03  0.25500000920E-02 0. -1.
        2   -1    0    0  501    0  0.00000000000E+00  0.00000000000E+00 -0.13639483621E+04  0.13639483621E+04  0.25500000920E-02 0.  1.
    10030    2    1    2    0    0  0.00000000000E+00  0.00000000000E+00 -0.70675646601E+03  0.20211402582E+04  0.18935425111E+04 0.  0.
        2    1    3    3  502    0  0.60029704601E+03  0.70448494220E+03 -0.14064894479E+03  0.93618251581E+03  0.25500000920E-02 0. -1.
       -2    1    3    3    0  502 -0.60029704601E+03 -0.70448494220E+03 -0.56610752122E+03  0.10849577424E+04  0.25500000920E-02 0.  1.
</event>
<event>
 5   0  0.5628936E-05  0.1900495E+04  0.7818609E-02  0.8654610E-01
       -1   -1    0    0    0  501  0.00000000000E+00  0.00000000000E+00  0.10685747040E+04  0.10685747040E+04  0.50400001928E-02 0.  1.
        1   -1    0    0  501    0  0.00000000000E+00  0.00000000000E+00 -0.84502316919E+03  0.84502316920E+03  0.50400001928E-02 0. -1.
    10030    2    1    2    0    0  0.00000000000E+00  0.00000000000E+00  0.22355153480E+03  0.19135978732E+04  0.19004950754E+04 0.  0.
        5    1    3    3  502    0  0.33760372855E+03 -0.86875976647E+03 -0.74509178632E+02  0.93503663942E+03  0.46999998093E+01 0.  1.
       -5    1    3    3    0  502 -0.33760372855E+03  0.86875976647E+03  0.29806071344E+03  0.97856123378E+03  0.46999998093E+01 0. -1.
</event>
<event>
 5   0  0.5841424E-05  0.1923200E+04  0.7818609E-02  0.8643394E-01
       -1   -1    0    0    0  501  0.00000000000E+00  0.00000000000E+00  0.10878725053E+04  0.10878725053E+04  0.50400001928E-02 0.  1.
        1   -1    0    0  501    0  0.00000000000E+00  0.00000000000E+00 -0.84998424429E+03  0.84998424431E+03  0.50400001928E-02 0. -1.
    10030    2    1    2    0    0  0.00000000000E+00  0.00000000000E+00  0.23788826099E+03  0.19378567496E+04  0.19231999265E+04 0.  0.
        1    1    3    3  502    0 -0.24703108354E+03  0.34442950753E+03  0.98866671840E+03  0.10756941582E+04  0.50400001928E-02 0.  1.
       -1    1    3    3    0  502  0.24703108354E+03 -0.34442950753E+03 -0.75077845740E+03  0.86216259141E+03  0.50400001928E-02 0. -1.
</event>
<event>
 5   0  0.1141890E-04  0.1767791E+04  0.7818609E-02  0.8723618E-01
        2   -1    0    0  501    0  0.00000000000E+00  0.00000000000E+00  0.95654181078E+03  0.95654181078E+03  0.25500000920E-02 0. -1.
       -2   -1    0    0    0  501  0.00000000000E+00  0.00000000000E+00 -0.81676676341E+03  0.81676676342E+03  0.25500000920E-02 0.  1.
    10030    2    1    2    0    0  0.00000000000E+00  0.00000000000E+00  0.13977504736E+03  0.17733085742E+04  0.17677913439E+04 0.  0.
        2    1    3    3  502    0  0.91647184407E+02  0.73830726763E+03 -0.40885949463E+03  0.84891867349E+03  0.25500000920E-02 0.  1.
       -2    1    3    3    0  502 -0.91647184407E+02 -0.73830726763E+03  0.54863454199E+03  0.92438990070E+03  0.25500000920E-02 0. -1.
</event>
<event>
 5   0  0.1141890E-04  0.1885577E+04  0.7818609E-02  0.8662069E-01
        2   -1    0    0  501    0  0.00000000000E+00  0.00000000000E+00  0.19059640795E+04  0.19059640795E+04  0.25500000920E-02 0.  1.
       -2   -1    0    0    0  501  0.00000000000E+00  0.00000000000E+00 -0.46635197450E+03  0.46635197450E+03  0.25500000920E-02 0. -1.
    10030    2    1    2    0    0  0.00000000000E+00  0.00000000000E+00  0.14396121050E+04  0.23723160540E+04  0.18855769534E+04 0.  0.
        2    1    3    3  502    0  0.48550167482E+03  0.73857603911E+03  0.11325897478E+04  0.14366509592E+04  0.25500000920E-02 0.  1.
       -2    1    3    3    0  502 -0.48550167482E+03 -0.73857603911E+03  0.30702235724E+03  0.93566509482E+03  0.25500000920E-02 0. -1.
</event>
<event>
 5   0  0.1133638E-04  0.1887613E+04  0.7818609E-02  0.8661047E-01
        2   -1    0    0  501    0  0.00000000000E+00  0.00000000000E+00  0.65462181160E+03  0.65462181161E+03  0.25500000920E-02 0.  1.
       -2   -1    0    0    0  501  0.00000000000E+00  0.00000000000E+00 -0.13607405316E+04  0.13607405316E+04  0.25500000920E-02 0. -1.
    10030    2    1    2    0    0  0.00000000000E+00  0.00000000000E+00 -0.70611871999E+03  0.20153623432E+04  0.18876127060E+04 0.  0.
        3    1    3    3  502    0 -0.67907108443E+03  0.33122825995E+03 -0.95695436077E+03  0.12192667291E+04  0.10100000352E+00 0. -1.
       -3    1    3    3    0  502  0.67907108443E+03 -0.33122825995E+03  0.25083564078E+03  0.79609561410E+03  0.10100000352E+00 0.  1.
</event>
<event>
 5   0  0.5824956E-05  0.1905629E+04  0.7818609E-02  0.8652059E-01
        1   -1    0    0  501    0  0.00000000000E+00  0.00000000000E+00  0.10676151015E+04  0.10676151015E+04  0.50400001928E-02 0. -1.
       -1   -1    0    0    0  501  0.00000000000E+00  0.00000000000E+00 -0.85035857621E+03  0.85035857623E+03  0.50400001928E-02 0.  1.
    10030    2    1    2    0    0  0.00000000000E+00  0.00000000000E+00  0.21725652531E+03  0.19179736778E+04  0.19056291955E+04 0.  0.
        2    1    3    3  502    0  0.27756884329E+03 -0.63115596869E+03 -0.55324352806E+03  0.88401398231E+03  0.25500000920E-02 0.  1.
       -2    1    3    3    0  502 -0.27756884329E+03  0.63115596869E+03  0.77050005337E+03  0.10339596955E+04  0.25500000920E-02 0. -1.
</event>
<event>
 5   0  0.5841424E-05  0.1884547E+04  0.7818609E-02  0.8662587E-01
        1   -1    0    0  501    0  0.00000000000E+00  0.00000000000E+00  0.16579872773E+04  0.16579872773E+04  0.50400001928E-02 0. -1.
       -1   -1    0    0    0  501  0.00000000000E+00  0.00000000000E+00 -0.53551622439E+03  0.53551622441E+03  0.50400001928E-02 0.  1.
    10030    2    1    2    0    0  0.00000000000E+00  0.00000000000E+00  0.11224710529E+04  0.21935035017E+04  0.18845467220E+04 0.  0.
        1    1    3    3  502    0 -0.56969726743E+03  0.10723212443E+03 -0.30339837391E+03  0.65429678155E+03  0.50400001928E-02 0.  1.
       -1    1    3    3    0  502  0.56969726743E+03 -0.10723212443E+03  0.14258694268E+04  0.15392067201E+04  0.50400001928E-02 0. -1.
</event>
<event>
 5   0  0.1141890E-04  0.1911407E+04  0.7818609E-02  0.8649199E-01
       -2   -1    0    0    0  501  0.00000000000E+00  0.00000000000E+00  0.12158715998E+04  0.12158715998E+04  0.25500000920E-02 0. -1.
        2   -1    0    0  501    0  0.00000000000E+00  0.00000000000E+00 -0.75120565186E+03  0.75120565187E+03  0.25500000920E-02 0.  1.
    10030    2    1    2    0    0  0.00000000000E+00  0.00000000000E+00  0.46466594789E+03  0.19670772516E+04  0.19114074581E+04 0.  0.
        2    1    3    3  502    0  0.18378464376E+03 -0.22080253643E+03 -0.70571833373E+03  0.76195073459E+03  0.25500000920E-02 0.  1.
       -2    1    3    3    0  502 -0.18378464376E+03  0.22080253643E+03  0.11703842816E+04  0.12051265170E+04  0.25500000920E-02 0. -1.
</event>
<event>
 5   0  0.1182630E-04  0.1903517E+04  0.7818609E-02  0.8653108E-01
       -2   -1    0    0    0  501  0.00000000000E+00  0.00000000000E+00  0.37328001458E+03  0.37328001459E+03  0.25500000920E-02 0.  1.
        2   -1    0    0  501    0  0.00000000000E+00  0.00000000000E+00 -0.24267153515E+04  0.24267153515E+04  0.25500000920E-02 0. -1.
    10030    2    1    2    0    0  0.00000000000E+00  0.00000000000E+00 -0.20534353369E+04  0.27999953661E+04  0.19035171045E+04 0.  0.
        5    1    3    3  502    0  0.70110342216E+03 -0.43912307779E+03 -0.17189240393E+04  0.19076417455E+04  0.46999998093E+01 0. -1.
       -5    1    3    3    0  502 -0.70110342216E+03  0.43912307779E+03 -0.33451129756E+03  0.89235362060E+03  0.46999998093E+01 0.  1.
</event>
<event>
 5   0  0.5824956E-05  0.1932517E+04  0.7818609E-02  0.8638838E-01
       -1   -1    0    0    0  501  0.00000000000E+00  0.00000000000E+00  0.55894213230E+03  0.55894213232E+03  0.50400001928E-02 0. -1.
        1   -1    0    0  501    0  0.00000000000E+00  0.00000000000E+00 -0.16703966167E+04  0.16703966167E+04  0.50400001928E-02 0.  1.
    10030    2    1    2    0    0  0.00000000000E+00  0.00000000000E+00 -0.11114544844E+04  0.22293387490E+04  0.19325165425E+04 0.  0.
        2    1    3    3  502    0  0.85509954102E+02  0.70971871210E+03 -0.13056894850E+04  0.14885689886E+04  0.25500000920E-02 0.  1.
       -2    1    3    3    0  502 -0.85509954102E+02 -0.70971871210E+03  0.19423500058E+03  0.74076976046E+03  0.25500000920E-02 0. -1.
</event>
<event>
 5   0  0.5628936E-05  0.1911594E+04  0.7818609E-02  0.8649107E-01
       -1   -1    0    0    0  501  0.00000000000E+00  0.00000000000E+00  0.40290587690E+03  0.40290587693E+03  0.50400001928E-02 0. -1.
        1   -1    0    0  501    0  0.00000000000E+00  0.00000000000E+00 -0.22673971288E+04  0.22673971288E+04  0.50400001928E-02 0.  1.
    10030    2    1    2    0    0  0.00000000000E+00  0.00000000000E+00 -0.18644912519E+04  0.26703030057E+04  0.19115937105E+04 0.  0.
        5    1    3    3  502    0  0.47326562379E+03  0.65297060522E+02 -0.20886226382E+04  0.21425710424E+04  0.46999998093E+01 0.  1.
       -5    1    3    3    0  502 -0.47326562379E+03 -0.65297060522E+02  0.22413138635E+03  0.52773196333E+03  0.46999998093E+01 0. -1.
</event>
<event>
 5   0  0.1101678E-04  0.1887747E+04  0.7818609E-02  0.8660979E-01
       -2   -1    0    0    0  501  0.00000000000E+00  0.00000000000E+00  0.44052436795E+03  0.44052436796E+03  0.25500000920E-02 0. -1.
        2   -1    0    0  501    0  0.00000000000E+00  0.00000000000E+00 -0.20223571608E+04  0.20223571608E+04  0.25500000920E-02 0.  1.
    10030    2    1    2    0    0  0.00000000000E+00  0.00000000000E+00 -0.15818327928E+04  0.24628815287E+04  0.18877474514E+04 0.  0.
        4    1    3    3  502    0 -0.63272112511E+03 -0.66109544743E+03 -0.48911002543E+03  0.10375998471E+04  0.12699999809E+01 0.  1.
       -4    1    3    3    0  502  0.63272112511E+03  0.66109544743E+03 -0.10927227674E+04  0.14252816816E+04  0.12699999809E+01 0. -1.
</event>
<event>
 5   0  0.5579109E-05  0.1889612E+04  0.7818609E-02  0.8660044E-01
       -1   -1    0    0    0  501  0.00000000000E+00  0.00000000000E+00  0.60223902431E+03  0.60223902433E+03  0.50400001928E-02 0. -1.
        1   -1    0    0  501    0  0.00000000000E+00  0.00000000000E+00 -0.14822332137E+04  0.14822332137E+04  0.50400001928E-02 0.  1.
    10030    2    1    2    0    0  0.00000000000E+00  0.00000000000E+00 -0.87999418943E+03  0.20844722381E+04  0.18896123248E+04 0.  0.
        3    1    3    3  502    0  0.57159080542E+03  0.15212808618E+02 -0.12696965203E+04  0.13925073580E+04  0.10100000352E+00 0.  1.
       -3    1    3    3    0  502 -0.57159080542E+03 -0.15212808618E+02  0.38970233082E+03  0.69196488006E+03  0.10100000352E+00 0. -1.
</event>
<event>
 5   0  0.5824956E-05  0.1921405E+04  0.7818609E-02  0.8644275E-01
       -1   -1    0    0    0  501  0.00000000000E+00  0.00000000000E+00  0.51643595313E+03  0.51643595315E+03  0.50400001928E-02 0.  1.
        1   -1    0    0  501    0  0.00000000000E+00  0.00000000000E+00 -0.17871507617E+04  0.17871507617E+04  0.50400001928E-02 0. -1.
    10030    2    1    2    0    0  0.00000000000E+00  0.00000000000E+00 -0.12707148086E+04  0.23035867149E+04  0.19214045977E+04 0.  0.
        2    1    3    3  502    0 -0.95985103361E+03  0.39594383062E+02 -0.64518443661E+03  0.11572141890E+04  0.25500000920E-02 0. -1.
       -2    1    3    3    0  502  0.95985103361E+03 -0.39594383062E+02 -0.62553037197E+03  0.11463725259E+04  0.25500000920E-02 0.  1.
</event>
<event>
 5   0  0.1141890E-04  0.1892185E+04  0.7818609E-02  0.8658756E-01
        2   -1    0    0  501    0  0.00000000000E+00  0.00000000000E+00  0.18876097012E+04  0.18876097012E+04  0.25500000920E-02 0. -1.
       -2   -1    0    0    0  501  0.00000000000E+00  0.00000000000E+00 -0.47419295574E+03  0.47419295574E+03  0.25500000920E-02 0.  1.
    10030    2    1    2    0    0  0.00000000000E+00  0.00000000000E+00  0.14134167455E+04  0.23618026570E+04  0.18921852166E+04 0.  0.
        2    1    3    3  502    0 -0.13467310775E+03 -0.51205048621E+03 -0.27195265786E+03  0.59522331482E+03  0.25500000920E-02 0.  1.
       -2    1    3    3    0  502  0.13467310775E+03  0.51205048621E+03  0.16853694033E+04  0.17665793421E+04  0.25500000920E-02 0. -1.
</event>
<event>
 5   0  0.1133638E-04  0.1896955E+04  0.7818609E-02  0.8656373E-01
        2   -1    0    0  501    0  0.00000000000E+00  0.00000000000E+00  0.14807365167E+04  0.14807365167E+04  0.25500000920E-02 0.  1.
       -2   -1    0    0    0  501  0.00000000000E+00  0.00000000000E+00 -0.60754213931E+03  0.60754213932E+03  0.25500000920E-02 0. -1.
    10030    2    1    2    0    0  0.00000000000E+00  0.00000000000E+00  0.87319437734E+03  0.20882786560E+04  0.18969552774E+04 0.  0.
        3    1    3    3  502    0 -0.39153135960E+03  0.74194564530E+03  0.92375605244E+03  0.12478402946E+04  0.10100000352E+00 0.  1.
       -3    1    3    3    0  502  0.39153135960E+03 -0.74194564530E+03 -0.50561675096E+02  0.84043836141E+03  0.10100000352E+00 0. -1.
</event>
<event>
 5   0  0.5614989E-05  0.1894092E+04  0.7818609E-02  0.8657803E-01
       -1   -1    0    0    0  501  0.00000000000E+00  0.00000000000E+00  0.17375606780E+04  0.17375606780E+04  0.50400001928E-02 0. -1.
        1   -1    0    0  501    0  0.00000000000E+00  0.00000000000E+00 -0.51618121361E+03  0.51618121364E+03  0.50400001928E-02 0.  1.
    10030    2    1    2    0    0  0.00000000000E+00  0.00000000000E+00  0.12213794643E+04  0.22537418916E+04  0.18940920564E+04 0.  0.
        4    1    3    3  502    0  0.26776621525E+03  0.83875183883E+03  0.10257705216E+04  0.13518173579E+04  0.12699999809E+01 0. -1.
       -4    1    3    3    0  502 -0.26776621525E+03 -0.83875183883E+03  0.19560894274E+03  0.90192453373E+03  0.12699999809E+01 0.  1.
</event>
<event>
 5   0  0.1133638E-04  0.1861681E+04  0.7818609E-02  0.8674169E-01
        2   -1    0    0  501    0  0.00000000000E+00  0.00000000000E+00  0.13961626078E+04  0.13961626078E+04  0.25500000920E-02 0.  1.
       -2   -1    0    0    0  501  0.00000000000E+00  0.00000000000E+00 -0.62060401164E+03  0.62060401165E+03  0.25500000920E-02 0. -1.
    10030    2    1    2    0    0  0.00000000000E+00  0.00000000000E+00  0.77555859619E+03  0.20167666195E+04  0.18616810848E+04 0.  0.
        3    1    3    3  502    0 -0.10861689652E+02 -0.30837109318E+03 -0.56358949918E+03  0.64252925318E+03  0.10100000352E+00 0. -1.
       -3    1    3    3    0  502  0.10861689652E+02  0.30837109318E+03  0.13391480954E+04  0.13742373663E+04  0.10100000352E+00 0.  1.
</event>
<event>
 5   0  0.5579109E-05  0.1886717E+04  0.7818609E-02  0.8661497E-01
       -1   -1    0    0    0  501  0.00000000000E+00  0.00000000000E+00  0.98544543585E+03  0.98544543586E+03  0.50400001928E-02 0. -1.
        1   -1    0    0  501    0  0.00000000000E+00  0.00000000000E+00 -0.90306890682E+03  0.90306890683E+03  0.50400001928E-02 0.  1.
    10030    2    1    2    0    0  0.00000000000E+00  0.00000000000E+00  0.82376529031E+02  0.18885143427E+04  0.18867168654E+04 0.  0.
        3    1    3    3  502    0 -0.15177169572E+03 -0.32270021070E+03  0.91537880224E+03  0.98238914662E+03  0.10100000352E+00 0. -1.
       -3    1    3    3    0  502  0.15177169572E+03  0.32270021070E+03 -0.83300227320E+03  0.90612519608E+03  0.10100000352E+00 0.  1.
</event>
<event>
 5   0  0.1141890E-04  0.1913548E+04  0.7818609E-02  0.8648142E-01
        2   -1    0    0  501    0  0.00000000000E+00  0.00000000000E+00  0.10321883161E+04  0.10321883161E+04  0.25500000920E-02 0.  1.
       -2   -1    0    0    0  501  0.00000000000E+00  0.00000000000E+00 -0.88687010233E+03  0.88687010233E+03  0.25500000920E-02 0. -1.
    10030    2    1    2    0    0  0.00000000000E+00  0.00000000000E+00  0.14531821375E+03  0.19190584184E+04  0.19135484917E+04 0.  0.
        2    1    3    3  502    0  0.34904096641E+03  0.86370067428E+03 -0.14616290270E+03  0.94295919589E+03  0.25500000920E-02 0. -1.
       -2    1    3    3    0  502 -0.34904096641E+03 -0.86370067428E+03  0.29148111645E+03  0.97609922253E+03  0.25500000920E-02 0.  1.
</event>
<event>
 5   0  0.1133638E-04  0.1679015E+04  0.7818609E-02  0.8773424E-01
       -2   -1    0    0    0  501  0.00000000000E+00  0.00000000000E+00  0.40692993412E+03  0.40692993412E+03  0.25500000920E-02 0.  1.
        2   -1    0    0  501    0  0.00000000000E+00  0.00000000000E+00 -0.17319261868E+04  0.17319261868E+04  0.25500000920E-02 0. -1.
    10030    2    1    2    0    0  0.00000000000E+00  0.00000000000E+00 -0.13249962527E+04  0.21388561209E+04  0.16790147219E+04 0.  0.
        3    1    3    3  502    0  0.19163975452E+03 -0.28895662321E+02  0.37804225826E+03  0.42482551012E+03  0.10100000352E+00 0.  1.
       -3    1    3    3    0  502 -0.19163975452E+03  0.28895662321E+02 -0.17030385109E+04  0.17140306108E+04  0.10100000352E+00 0. -1.
</event>
<event>
 5   0  0.1118206E-04  0.1883144E+04  0.7818609E-02  0.8663292E-01
       -2   -1    0    0    0  501  0.00000000000E+00  0.00000000000E+00  0.12506343245E+04  0.12506343245E+04  0.25500000920E-02 0.  1.
        2   -1    0    0  501    0  0.00000000000E+00  0.00000000000E+00 -0.70888681330E+03  0.70888681331E+03  0.25500000920E-02 0. -1.
    10030    2    1    2    0    0  0.00000000000E+00  0.00000000000E+00  0.54174751124E+03  0.19595211379E+04  0.18831443715E+04 0.  0.
        1    1    3    3  502    0  0.80653277150E+03 -0.12755896694E+03  0.75870774785E+03  0.11146317097E+04  0.50400001928E-02 0.  1.
       -1    1    3    3    0  502 -0.80653277150E+03  0.12755896694E+03 -0.21696023661E+03  0.84488942817E+03  0.50400001928E-02 0. -1.
</event>
<event>
 5   0  0.5841424E-05  0.1879913E+04  0.7818609E-02  0.8664920E-01
       -1   -1    0    0    0  501  0.00000000000E+00  0.00000000000E+00  0.87275459196E+03  0.87275459198E+03  0.50400001928E-02 0.  1.
        1   -1    0    0  501    0  0.00000000000E+00  0.00000000000E+00 -0.10123325418E+04  0.10123325418E+04  0.50400001928E-02 0. -1.
    10030    2    1    2    0    0  0.00000000000E+00  0.00000000000E+00 -0.13957794979E+03  0.18850871337E+04  0.18799126303E+04 0.  0.
        1    1    3    3  502    0  0.33795260155E+03 -0.87640234297E+03 -0.10488311782E+03  0.94514205074E+03  0.50400001928E-02 0.  1.
       -1    1    3    3    0  502 -0.33795260155E+03  0.87640234297E+03 -0.34694831969E+02  0.93994508300E+03  0.50400001928E-02 0. -1.
</event>
<event>
 5   0  0.1133638E-04  0.1881470E+04  0.7818609E-02  0.8664135E-01
        2   -1    0    0  501    0  0.00000000000E+00  0.00000000000E+00  0.15926475156E+04  0.15926475156E+04  0.25500000920E-02 0. -1.
       -2   -1    0    0    0  501  0.00000000000E+00  0.00000000000E+00 -0.55566741813E+03  0.55566741813E+03  0.25500000920E-02 0.  1.
    10030    2    1    2    0    0  0.00000000000E+00  0.00000000000E+00  0.10369800975E+04  0.21483149337E+04  0.18814699923E+04 0.  0.
        3    1    3    3  502    0  0.85072267658E+03  0.39004734037E+03  0.62751113228E+03  0.11267813592E+04  0.10100000352E+00 0.  1.
       -3    1    3    3    0  502 -0.85072267658E+03 -0.39004734037E+03  0.40946896520E+03  0.10215335745E+04  0.10100000352E+00 0. -1.
</event>
<event>
 5   0  0.5614989E-05  0.1891201E+04  0.7818609E-02  0.8659248E-01
       -1   -1    0    0    0  501  0.00000000000E+00  0.00000000000E+00  0.88376045946E+03  0.88376045947E+03  0.50400001928E-02 0.  1.
        1   -1    0    0  501    0  0.00000000000E+00  0.00000000000E+00 -0.10117682309E+04  0.10117682309E+04  0.50400001928E-02 0. -1.
    10030    2    1    2    0    0  0.00000000000E+00  0.00000000000E+00 -0.12800777142E+03  0.18955286904E+04  0.18912014770E+04 0.  0.
        4    1    3    3  502    0  0.88446081450E+03 -0.27353822550E+03 -0.25696724981E+03  0.96079543795E+03  0.12699999809E+01 0. -1.
       -4    1    3    3    0  502 -0.88446081450E+03  0.27353822550E+03  0.12895947839E+03  0.93473325241E+03  0.12699999809E+01 0.  1.
</event>
<event>
 5   0  0.1182630E-04  0.1902443E+04  0.7818609E-02  0.8653642E-01
        2   -1    0    0  501    0  0.00000000000E+00  0.00000000000E+00  0.72264573613E+03  0.72264573613E+03  0.25500000920E-02 0. -1.
       -2   -1    0    0    0  501  0.00000000000E+00  0.00000000000E+00 -0.12520960813E+04  0.12520960813E+04  0.25500000920E-02 0.  1.
    10030    2    1    2    0    0  0.00000000000E+00  0.00000000000E+00 -0.52945034522E+03  0.19747418175E+04  0.19024425294E+04 0.  0.
        5    1    3    3  502    0 -0.72955128020E+03  0.25406023977E+03  0.31135093811E+03  0.83291846691E+03  0.46999998093E+01 0. -1.
       -5    1    3    3    0  502  0.72955128020E+03 -0.25406023977E+03 -0.84080128332E+03  0.11418233506E+04  0.46999998093E+01 0.  1.
</event>
<event>
 5   0  0.5614989E-05  0.1945602E+04  0.7818609E-02  0.8632484E-01
       -1   -1    0    0    0  501  0.00000000000E+00  0.00000000000E+00  0.59813566531E+03  0.59813566533E+03  0.50400001928E-02 0.  1.
        1   -1    0    0  501    0  0.00000000000E+00  0.00000000000E+00 -0.15821532206E+04  0.15821532206E+04  0.50400001928E-02 0. -1.
    10030    2    1    2    0    0  0.00000000000E+00  0.00000000000E+00 -0.98401755526E+03  0.21802888859E+04  0.19456024972E+04 0.  0.
        4    1    3    3  502    0 -0.17733752356E+02 -0.20675307433E+03  0.57304359374E+03  0.60946032926E+03  0.12699999809E+01 0.  1.
       -4    1    3    3    0  502  0.17733752356E+02  0.20675307433E+03 -0.15570611490E+04  0.15708285566E+04  0.12699999809E+01 0. -1.
</event>
<event>
 5   0  0.5628936E-05  0.1904759E+04  0.7818609E-02  0.8652491E-01
        1   -1    0    0  501    0  0.00000000000E+00  0.00000000000E+00  0.23546864025E+04  0.23546864025E+04  0.50400001928E-02 0. -1.
       -1   -1    0    0    0  501  0.00000000000E+00  0.00000000000E+00 -0.38520049830E+03  0.38520049833E+03  0.50400001928E-02 0.  1.
    10030    2    1    2    0    0  0.00000000000E+00  0.00000000000E+00  0.19694859042E+04  0.27398869009E+04  0.19047586468E+04 0.  0.
        5    1    3    3  502    0  0.84290594424E+03 -0.38176931755E+03  0.13088431818E+04  0.16029132251E+04  0.46999998093E+01 0. -1.
       -5    1    3    3    0  502 -0.84290594424E+03  0.38176931755E+03  0.66064272241E+03  0.11369736757E+04  0.46999998093E+01 0.  1.
</event>
<event>
 5   0  0.1118206E-04  0.1905318E+04  0.7818609E-02  0.8652214E-01
        2   -1    0    0  501    0  0.00000000000E+00  0.00000000000E+00  0.86433417411E+03  0.86433417411E+03  0.25500000920E-02 0. -1.
       -2   -1    0    0    0  501  0.00000000000E+00  0.00000000000E+00 -0.10500093333E+04  0.10500093333E+04  0.25500000920E-02 0.  1.
    10030    2    1    2    0    0  0.00000000000E+00  0.00000000000E+00 -0.18567515918E+03  0.19143435074E+04  0.19053177687E+04 0.  0.
        1    1    3    3  502    0 -0.59441755556E+03 -0.74225551286E+03 -0.15041062288E+03  0.96275585287E+03  0.50400001928E-02 0. -1.
       -1    1    3    3    0  502  0.59441755556E+03  0.74225551286E+03 -0.35264536299E+02  0.95158765454E+03  0.50400001928E-02 0.  1.
</event>
<event>
 5   0  0.1101678E-04  0.1898112E+04  0.7818609E-02  0.8655797E-01
       -2   -1    0    0    0  501  0.00000000000E+00  0.00000000000E+00  0.60749539415E+03  0.60749539416E+03  0.25500000920E-02 0.  1.
        2   -1    0    0  501    0  0.00000000000E+00  0.00000000000E+00 -0.14826564946E+04  0.14826564946E+04  0.25500000920E-02 0. -1.
    10030    2    1    2    0    0  0.00000000000E+00  0.00000000000E+00 -0.87516110048E+03  0.20901518888E+04  0.18981116844E+04 0.  0.
        4    1    3    3  502    0  0.60712350384E+02  0.94533601847E+03 -0.50140309336E+03  0.10717988861E+04  0.12699999809E+01 0. -1.
       -4    1    3    3    0  502 -0.60712350384E+02 -0.94533601847E+03 -0.37375800711E+03  0.10183530027E+04  0.12699999809E+01 0.  1.
</event>
<event>
 5   0  0.1133638E-04  0.1909462E+04  0.7818609E-02  0.8650161E-01
       -2   -1    0    0    0  501  0.00000000000E+00  0.00000000000E+00  0.35165585402E+03  0.35165585403E+03  0.25500000920E-02 0. -1.
        2   -1    0    0  501    0  0.00000000000E+00  0.00000000000E+00 -0.25920546126E+04  0.25920546126E+04  0.25500000920E-02 0.  1.
    10030    2    1    2    0    0  0.00000000000E+00  0.00000000000E+00 -0.22403987586E+04  0.29437104667E+04  0.19094618912E+04 0.  0.
        3    1    3    3  502    0  0.53129242388E+03  0.79318369202E+03 -0.11048478772E+04  0.14601715142E+04  0.10100000352E+00 0.  1.
       -3    1    3    3    0  502 -0.53129242388E+03 -0.79318369202E+03 -0.11355508814E+04  0.14835389525E+04  0.10100000352E+00 0. -1.
</event>
<event>
 5   0  0.5614989E-05  0.1901060E+04  0.7818609E-02  0.8654329E-01
       -1   -1    0    0    0  501  0.00000000000E+00  0.00000000000E+00  0.21300074013E+04  0.21300074013E+04  0.50400001928E-02 0.  1.
        1   -1    0    0  501    0  0.00000000000E+00  0.00000000000E+00 -0.42418013309E+03  0.42418013312E+03  0.50400001928E-02 0. -1.
    10030    2    1    2    0    0  0.00000000000E+00  0.00000000000E+00  0.17058272682E+04  0.25541875344E+04  0.19010595183E+04 0.  0.
        4    1    3    3  502    0 -0.52023713866E+03 -0.14700447679E+03 -0.19751334704E+03  0.57556071078E+03  0.12699999809E+01 0. -1.
       -4    1    3    3    0  502  0.52023713866E+03  0.14700447679E+03  0.19033406152E+04  0.19786268236E+04  0.12699999809E+01 0.  1.
</event>
<event>
 5   0  0.5824956E-05  0.1893294E+04  0.7818609E-02  0.8658202E-01
        1   -1    0    0  501    0  0.00000000000E+00  0.00000000000E+00  0.80479667814E+03  0.80479667816E+03  0.50400001928E-02 0. -1.
       -1   -1    0    0    0  501  0.00000000000E+00  0.00000000000E+00 -0.11134991410E+04  0.11134991410E+04  0.50400001928E-02 0.  1.
    10030    2    1    2    0    0  0.00000000000E+00  0.00000000000E+00 -0.30870246286E+03  0.19182958192E+04  0.18932938597E+04 0.  0.
        2    1    3    3  502    0 -0.72762353024E+03 -0.55922405358E+03 -0.38973975980E+03  0.99702789541E+03  0.25500000920E-02 0.  1.
       -2    1    3    3    0  502  0.72762353024E+03  0.55922405358E+03  0.81037296934E+02  0.92126792376E+03  0.25500000920E-02 0. -1.
</event>
<event>
 5   0  0.1182630E-04  0.1891595E+04  0.7818609E-02  0.8659051E-01
       -2   -1    0    0    0  501  0.00000000000E+00  0.00000000000E+00  0.55218834767E+03  0.55218834768E+03  0.25500000920E-02 0. -1.
        2   -1    0    0  501    0  0.00000000000E+00  0.00000000000E+00 -0.16199782815E+04  0.16199782815E+04  0.25500000920E-02 0.  1.
    10030    2    1    2    0    0  0.00000000000E+00  0.00000000000E+00 -0.10677899338E+04  0.21721666291E+04  0.18915952321E+04 0.  0.
        5    1    3    3  502    0 -0.12694738633E+03 -0.75105953516E+03  0.10988959094E+03  0.76961280943E+03  0.46999998093E+01 0.  1.
       -5    1    3    3    0  502  0.12694738633E+03  0.75105953516E+03 -0.11776795247E+04  0.14025538197E+04  0.46999998093E+01 0. -1.
</event>
<event>
 5   0  0.5841424E-05  0.1924709E+04  0.7818609E-02  0.8642654E-01
        1   -1    0    0  501    0  0.00000000000E+00  0.00000000000E+00  0.11027575902E+04  0.11027575902E+04  0.50400001928E-02 0. -1.
       -1   -1    0    0    0  501  0.00000000000E+00  0.00000000000E+00 -0.83982712659E+03  0.83982712660E+03  0.50400001928E-02 0.  1.
    10030    2    1    2    0    0  0.00000000000E+00  0.00000000000E+00  0.26293046362E+03  0.19425847168E+04  0.19247085372E+04 0.  0.
        1    1    3    3  502    0  0.38273573424E+03  0.14817087812E+03 -0.74707002028E+03  0.85238187840E+03  0.50400001928E-02 0.  1.
       -1    1    3    3    0  502 -0.38273573424E+03 -0.14817087812E+03  0.10100004839E+04  0.10902028384E+04  0.50400001928E-02 0. -1.
</event>
<event>
 5   0  0.1133638E-04  0.1906451E+04  0.7818609E-02  0.8651652E-01
       -2   -1    0    0    0  501  0.00000000000E+00  0.00000000000E+00  0.46247707073E+03  0.46247707074E+03  0.25500000920E-02 0. -1.
        2   -1    0    0  501    0  0.00000000000E+00  0.00000000000E+00 -0.19647222542E+04  0.19647222542E+04  0.25500000920E-02 0.  1.
    10030    2    1    2    0    0  0.00000000000E+00  0.00000000000E+00 -0.15022451835E+04  0.24271993250E+04  0.19064511459E+04 0.  0.
        3    1    3    3  502    0 -0.38933669354E+03  0.62426789152E+03  0.20521680225E+02  0.73601264315E+03  0.10100000352E+00 0.  1.
       -3    1    3    3    0  502  0.38933669354E+03 -0.62426789152E+03 -0.15227668637E+04  0.16911866818E+04  0.10100000352E+00 0. -1.
</event>
<event>
 5   0  0.5824956E-05  0.1904766E+04  0.7818609E-02  0.8652488E-01
        1   -1    0    0  501    0  0.00000000000E+00  0.00000000000E+00  0.29229070121E+04  0.29229070121E+04  0.50400001928E-02 0.  1.
       -1   -1    0    0    0  501  0.00000000000E+00  0.00000000000E+00 -0.31031882779E+03  0.31031882783E+03  0.50400001928E-02 0. -1.
    10030    2    1    2    0    0  0.00000000000E+00  0.00000000000E+00  0.26125881843E+04  0.32332258399E+04  0.19047656841E+04 0.  0.
        2    1    3    3  502    0  0.67542317456E+03 -0.20107890279E+03  0.21886683199E+03  0.73792403405E+03  0.25500000920E-02 0. -1.
       -2    1    3    3    0  502 -0.67542317456E+03  0.20107890279E+03  0.23937213523E+04  0.24953018059E+04  0.25500000920E-02 0.  1.
</event>
<event>
 5   0  0.5614989E-05  0.1869125E+04  0.7818609E-02  0.8670379E-01
        1   -1    0    0  501    0  0.00000000000E+00  0.00000000000E+00  0.20607126721E+04  0.20607126721E+04  0.50400001928E-02 0.  1.
       -1   -1    0    0    0  501  0.00000000000E+00  0.00000000000E+00 -0.42383725310E+03  0.42383725313E+03  0.50400001928E-02 0. -1.
    10030    2    1    2    0    0  0.00000000000E+00  0.00000000000E+00  0.16368754190E+04  0.24845499252E+04  0.18691247132E+04 0.  0.
        4    1    3    3  502    0 -0.33160801993E+03  0.68404142802E+03  0.15410564652E+04  0.17183518836E+04  0.12699999809E+01 0.  1.
       -4    1    3    3    0  502  0.33160801993E+03 -0.68404142802E+03  0.95818953795E+02  0.76619804159E+03  0.12699999809E+01 0. -1.
</event>
<event>
 5   0  0.4061125E-05  0.1897251E+04  0.7818609E-02  0.8656226E-01
       -3   -1    0    0    0  501  0.00000000000E+00  0.00000000000E+00  0.14108070517E+04  0.14108070553E+04  0.10100000352E+00 0.  1.
        3   -1    0    0  501    0  0.00000000000E+00  0.00000000000E+00 -0.63785508206E+03  0.63785509006E+03  0.10100000352E+00 0. -1.
    10030    2    1    2    0    0  0.00000000000E+00  0.00000000000E+00  0.77295196959E+03  0.20486621453E+04  0.18972511269E+04 0.  0.
        5    1    3    3  502    0 -0.10460833880E+03 -0.86590905890E+03 -0.16288512603E+02  0.87236965128E+03  0.46999998093E+01 0. -1.
       -5    1    3    3    0  502  0.10460833880E+03  0.86590905890E+03  0.78924048219E+03  0.11762924941E+04  0.46999998093E+01 0.  1.
</event>
<event>
 5   0  0.1101678E-04  0.1902787E+04  0.7818609E-02  0.8653470E-01
        2   -1    0    0  501    0  0.00000000000E+00  0.00000000000E+00  0.77437952557E+03  0.77437952558E+03  0.25500000920E-02 0. -1.
       -2   -1    0    0    0  501  0.00000000000E+00  0.00000000000E+00 -0.11688708484E+04  0.11688708484E+04  0.25500000920E-02 0.  1.
    10030    2    1    2    0    0  0.00000000000E+00  0.00000000000E+00 -0.39449132284E+03  0.19432503740E+04  0.19027870643E+04 0.  0.
        4    1    3    3  502    0  0.38445413600E+03  0.27422034629E+03 -0.10407305775E+04  0.11428576153E+04  0.12699999809E+01 0.  1.
       -4    1    3    3    0  502 -0.38445413600E+03 -0.27422034629E+03  0.64623925466E+03  0.80039275869E+03  0.12699999809E+01 0. -1.
</event>
<event>
 5   0  0.5628936E-05  0.1901388E+04  0.7818609E-02  0.8654166E-01
        1   -1    0    0  501    0  0.00000000000E+00  0.00000000000E+00  0.13623206551E+04  0.13623206551E+04  0.50400001928E-02 0.  1.
       -1   -1    0    0    0  501  0.00000000000E+00  0.00000000000E+00 -0.66344104667E+03  0.66344104669E+03  0.50400001928E-02 0. -1.
    10030    2    1    2    0    0  0.00000000000E+00  0.00000000000E+00  0.69887960839E+03  0.20257617018E+04  0.19013883783E+04 0.  0.
        5    1    3    3  502    0  0.58159737816E+03 -0.20768646619E+03  0.11194961472E+04  0.12785471802E+04  0.46999998093E+01 0.  1.
       -5    1    3    3    0  502 -0.58159737816E+03  0.20768646619E+03 -0.42061653878E+03  0.74721452155E+03  0.46999998093E+01 0. -1.
</event>
<event>
 5   0  0.1141890E-04  0.1919310E+04  0.7818609E-02  0.8645304E-01
        2   -1    0    0  501    0  0.00000000000E+00  0.00000000000E+00  0.15527500459E+04  0.15527500459E+04  0.25500000920E-02 0.  1.
       -2   -1    0    0    0  501  0.00000000000E+00  0.00000000000E+00 -0.59310123242E+03  0.59310123242E+03  0.25500000920E-02 0. -1.
    10030    2    1    2    0    0  0.00000000000E+00  0.00000000000E+00  0.95964881351E+03  0.21458512783E+04  0.19193102572E+04 0.  0.
        2    1    3    3  502    0  0.75678497671E+03 -0.58830936434E+03  0.53113901455E+03  0.10958741086E+04  0.25500000920E-02 0. -1.
       -2    1    3    3    0  502 -0.75678497671E+03  0.58830936434E+03  0.42850979896E+03  0.10499771697E+04  0.25500000920E-02 0.  1.
</event>
<event>
 5   0  0.5614989E-05  0.1903053E+04  0.7818609E-02  0.8653338E-01
        1   -1    0    0  501    0  0.00000000000E+00  0.00000000000E+00  0.12733754574E+04  0.12733754574E+04  0.50400001928E-02 0. -1.
       -1   -1    0    0    0  501  0.00000000000E+00  0.00000000000E+00 -0.71102582874E+03  0.71102582876E+03  0.50400001928E-02 0.  1.
    10030    2    1    2    0    0  0.00000000000E+00  0.00000000000E+00  0.56234962869E+03  0.19844012862E+04  0.19030531679E+04 0.  0.
        4    1    3    3  502    0  0.62282256223E+03  0.58300570768E+03 -0.15826272917E+03  0.86767061928E+03  0.12699999809E+01 0.  1.
       -4    1    3    3    0  502 -0.62282256223E+03 -0.58300570768E+03  0.72061235787E+03  0.11167306669E+04  0.12699999809E+01 0. -1.
</event>
<event>
 5   0  0.5841424E-05  0.1872420E+04  0.7818609E-02  0.8668708E-01
       -1   -1    0    0    0  501  0.00000000000E+00  0.00000000000E+00  0.54932857859E+03  0.54932857862E+03  0.50400001928E-02 0. -1.
        1   -1    0    0  501    0  0.00000000000E+00  0.00000000000E+00 -0.15955646181E+04  0.15955646181E+04  0.50400001928E-02 0.  1.
    10030    2    1    2    0    0  0.00000000000E+00  0.00000000000E+00 -0.10462360395E+04  0.21448931967E+04  0.18724200851E+04 0.  0.
        1    1    3    3  502    0 -0.76840590544E+03 -0.41789308153E+03 -0.90546580830E+03  0.12589482091E+04  0.50400001928E-02 0.  1.
       -1    1    3    3    0  502  0.76840590544E+03  0.41789308153E+03 -0.14077023120E+03  0.88594498764E+03  0.50400001928E-02 0. -1.
</event>
<event>
 5   0  0.1141890E-04  0.1897118E+04  0.7818609E-02  0.8656292E-01
       -2   -1    0    0    0  501  0.00000000000E+00  0.00000000000E+00  0.78807067526E+03  0.78807067527E+03  0.25500000920E-02 0.  1.
        2   -1    0    0  501    0  0.00000000000E+00  0.00000000000E+00 -0.11417308281E+04  0.11417308281E+04  0.25500000920E-02 0. -1.
    10030    2    1    2    0    0  0.00000000000E+00  0.00000000000E+00 -0.35366015287E+03  0.19298015034E+04  0.18971184304E+04 0.  0.
        2    1    3    3  502    0  0.56776358489E+03  0.75209731665E+03 -0.66524296223E+02  0.94468584409E+03  0.25500000920E-02 0.  1.
       -2    1    3    3    0  502 -0.56776358489E+03 -0.75209731665E+03 -0.28713585665E+03  0.98511565931E+03  0.25500000920E-02 0. -1.
</event>
<event>
 5   0  0.1101678E-04  0.1873521E+04  0.7818609E-02  0.8668150E-01
        2   -1    0    0  501    0  0.00000000000E+00  0.00000000000E+00  0.49196183027E+03  0.49196183028E+03  0.25500000920E-02 0. -1.
       -2   -1    0    0    0  501  0.00000000000E+00  0.00000000000E+00 -0.17837165589E+04  0.17837165589E+04  0.25500000920E-02 0.  1.
    10030    2    1    2    0    0  0.00000000000E+00  0.00000000000E+00 -0.12917547286E+04  0.22756783891E+04  0.18735212441E+04 0.  0.
        4    1    3    3  502    0 -0.80240864134E+03 -0.15845665388E+02 -0.59050131782E+02  0.80473551169E+03  0.12699999809E+01 0. -1.
       -4    1    3    3    0  502  0.80240864134E+03  0.15845665388E+02 -0.12327045968E+04  0.14709428774E+04  0.12699999809E+01 0.  1.
</event>
<event>
 5   0  0.5824956E-05  0.1883371E+04  0.7818609E-02  0.8663178E-01
       -1   -1    0    0    0  501  0.00000000000E+00  0.00000000000E+00  0.10168479522E+04  0.10168479522E+04  0.50400001928E-02 0. -1.
        1   -1    0    0  501    0  0.00000000000E+00  0.00000000000E+00 -0.87207890073E+03  0.87207890075E+03  0.50400001928E-02 0.  1.
    10030    2    1    2    0    0  0.00000000000E+00  0.00000000000E+00  0.14476905149E+03  0.18889268530E+04  0.18833710674E+04 0.  0.
        2    1    3    3  502    0  0.61439911208E+03 -0.17537770559E+03 -0.62141330833E+03  0.89129013701E+03  0.25500000920E-02 0.  1.
       -2    1    3    3    0  502 -0.61439911208E+03  0.17537770559E+03  0.76618235982E+03  0.99763671598E+03  0.25500000920E-02 0. -1.
</event>
<event>
 5   0  0.5579109E-05  0.1888222E+04  0.7818609E-02  0.8660742E-01
        1   -1    0    0  501    0  0.00000000000E+00  0.00000000000E+00  0.27906161565E+04  0.27906161565E+04  0.50400001928E-02 0. -1.
       -1   -1    0    0    0  501  0.00000000000E+00  0.00000000000E+00 -0.31940805410E+03  0.31940805414E+03  0.50400001928E-02 0.  1.
    10030    2    1    2    0    0  0.00000000000E+00  0.00000000000E+00  0.24712081024E+04  0.31100242107E+04  0.18882216780E+04 0.  0.
        3    1    3    3  502    0  0.70135450330E+03 -0.52757595445E+03  0.18087986877E+04  0.20104694053E+04  0.10100000352E+00 0. -1.
       -3    1    3    3    0  502 -0.70135450330E+03  0.52757595445E+03  0.66240941477E+03  0.10995548054E+04  0.10100000352E+00 0.  1.
</event>
<event>
 5   0  0.5841424E-05  0.1901574E+04  0.7818609E-02  0.8654073E-01
       -1   -1    0    0    0  501  0.00000000000E+00  0.00000000000E+00  0.11756944054E+04  0.11756944054E+04  0.50400001928E-02 0.  1.
        1   -1    0    0  501    0  0.00000000000E+00  0.00000000000E+00 -0.76890377035E+03  0.76890377036E+03  0.50400001928E-02 0. -1.
    10030    2    1    2    0    0  0.00000000000E+00  0.00000000000E+00  0.40679063508E+03  0.19445981758E+04  0.19015739388E+04 0.  0.
        1    1    3    3  502    0  0.30014376620E+03 -0.33861534676E+03 -0.65173569096E+03  0.79341416949E+03  0.50400001928E-02 0. -1.
       -1    1    3    3    0  502 -0.30014376620E+03  0.33861534676E+03  0.10585263260E+04  0.11511840063E+04  0.50400001928E-02 0.  1.
</event>
<event>
 5   0  0.1101678E-04  0.1898569E+04  0.7818609E-02  0.8655569E-01
       -2   -1    0    0    0  501  0.00000000000E+00  0.00000000000E+00  0.42068004691E+03  0.42068004692E+03  0.25500000920E-02 0.  1.
        2   -1    0    0  501    0  0.00000000000E+00  0.00000000000E+00 -0.21421055698E+04  0.21421055698E+04  0.25500000920E-02 0. -1.
    10030    2    1    2    0    0  0.00000000000E+00  0.00000000000E+00 -0.17214255229E+04  0.25627856167E+04  0.18985690102E+04 0.  0.
        4    1    3    3  502    0 -0.23088999143E+03  0.34808157435E+03 -0.20113914082E+04  0.20543047438E+04  0.12699999809E+01 0. -1.
       -4    1    3    3    0  502  0.23088999143E+03 -0.34808157435E+03  0.28996588533E+03  0.50848087289E+03  0.12699999809E+01 0.  1.
</event>
<event>
 5   0  0.5579109E-05  0.1891916E+04  0.7818609E-02  0.8658891E-01
        1   -1    0    0  501    0  0.00000000000E+00  0.00000000000E+00  0.19038868013E+04  0.19038868014E+04  0.50400001928E-02 0. -1.
       -1   -1    0    0    0  501  0.00000000000E+00  0.00000000000E+00 -0.47000492349E+03  0.47000492352E+03  0.50400001928E-02 0.  1.
    10030    2    1    2    0    0  0.00000000000E+00  0.00000000000E+00  0.14338818779E+04  0.23738917249E+04  0.18919156117E+04 0.  0.
        3    1    3    3  502    0 -0.27316539422E+03 -0.90243767248E+03  0.81269017874E+03  0.12447804715E+04  0.10100000352E+00 0. -1.
       -3    1    3    3    0  502  0.27316539422E+03  0.90243767248E+03  0.62119169911E+03  0.11291112534E+04  0.10100000352E+00 0.  1.
</event>
<event>
 5   0  0.5841424E-05  0.1901103E+04  0.7818609E-02  0.8654307E-01
       -1   -1    0    0    0  501  0.00000000000E+00  0.00000000000E+00  0.99309509633E+03  0.99309509634E+03  0.50400001928E-02 0. -1.
        1   -1    0    0  501    0  0.00000000000E+00  0.00000000000E+00 -0.90983060953E+03  0.90983060955E+03  0.50400001928E-02 0.  1.
    10030    2    1    2    0    0  0.00000000000E+00  0.00000000000E+00  0.83264486796E+02  0.19029257059E+04  0.19011031712E+04 0.  0.
        1    1    3    3  502    0 -0.53388760612E+03 -0.27501360944E+03  0.77914240742E+03  0.98373337466E+03  0.50400001928E-02 0. -1.
       -1    1    3    3    0  502  0.53388760612E+03  0.27501360944E+03 -0.69587792062E+03  0.91919233123E+03  0.50400001928E-02 0.  1.
</event>
<event>
 5   0  0.5841424E-05  0.2004456E+04  0.7818609E-02  0.8604540E-01
        1   -1    0    0  501    0  0.00000000000E+00  0.00000000000E+00  0.10028191053E+04  0.10028191053E+04  0.50400001928E-02 0. -1.
       -1   -1    0    0    0  501  0.00000000000E+00  0.00000000000E+00 -0.10016372982E+04  0.10016372982E+04  0.50400001928E-02 0.  1.
    10030    2    1    2    0    0  0.00000000000E+00  0.00000000000E+00  0.11818070929E+01  0.20044564035E+04  0.20044560551E+04 0.  0.
        1    1    3    3  502    0 -0.31032115754E+03  0.74854896402E+03  0.59036744406E+03  0.10025759280E+04  0.50400001928E-02 0. -1.
       -1    1    3    3    0  502  0.31032115754E+03 -0.74854896402E+03 -0.58918563697E+03  0.10018804755E+04  0.50400001928E-02 0.  1.
</event>
<event>
 5   0  0.1101678E-04  0.1899986E+04  0.7818609E-02  0.8654863E-01
        2   -1    0    0  501    0  0.00000000000E+00  0.00000000000E+00  0.15474246185E+04  0.15474246185E+04  0.25500000920E-02 0. -1.
       -2   -1    0    0    0  501  0.00000000000E+00  0.00000000000E+00 -0.58321879459E+03  0.58321879460E+03  0.25500000920E-02 0.  1.
    10030    2    1    2    0    0  0.00000000000E+00  0.00000000000E+00  0.96420582389E+03  0.21306434131E+04  0.18999864428E+04 0.  0.
        4    1    3    3  502    0 -0.55802741874E+03 -0.74743655518E+03  0.68404666401E+03  0.11567097542E+04  0.12699999809E+01 0.  1.
       -4    1    3    3    0  502  0.55802741874E+03  0.74743655518E+03  0.28015915988E+03  0.97393365885E+03  0.12699999809E+01 0. -1.
</event>
<event>
 5   0  0.1133638E-04  0.1898544E+04  0.7818609E-02  0.8655581E-01
        2   -1    0    0  501    0  0.00000000000E+00  0.00000000000E+00  0.14913944302E+04  0.14913944302E+04  0.25500000920E-02 0. -1.
       -2   -1    0    0    0  501  0.00000000000E+00  0.00000000000E+00 -0.60421143840E+03  0.60421143841E+03  0.25500000920E-02 0.  1.
    10030    2    1    2    0    0  0.00000000000E+00  0.00000000000E+00  0.88718299183E+03  0.20956058686E+04  0.18985442570E+04 0.  0.
        3    1    3    3  502    0  0.74499822838E+02 -0.57439641447E+03  0.12737431543E+04  0.13992509060E+04  0.10100000352E+00 0. -1.
       -3    1    3    3    0  502 -0.74499822838E+02  0.57439641447E+03 -0.38656016250E+03  0.69635496264E+03  0.10100000352E+00 0.  1.
</event>
<event>
 5   0  0.1182630E-04  0.1889857E+04  0.7818609E-02  0.8659922E-01
        2   -1    0    0  501    0  0.00000000000E+00  0.00000000000E+00  0.82577107496E+03  0.82577107497E+03  0.25500000920E-02 0.  1.
       -2   -1    0    0    0  501  0.00000000000E+00  0.00000000000E+00 -0.10812800249E+04  0.10812800249E+04  0.25500000920E-02 0. -1.
    10030    2    1    2    0    0  0.00000000000E+00  0.00000000000E+00 -0.25550894997E+03  0.19070510999E+04  0.18898568925E+04 0.  0.
        5    1    3    3  502    0 -0.37822537740E+03  0.54383405586E+03  0.55221429009E+03  0.86242253484E+03  0.46999998093E+01 0.  1.
       -5    1    3    3    0  502  0.37822537740E+03 -0.54383405586E+03 -0.80772324005E+03  0.10446285651E+04  0.46999998093E+01 0. -1.
</event>
<event>
 5   0  0.1133638E-04  0.1996719E+04  0.7818609E-02  0.8608156E-01
        2   -1    0    0  501    0  0.00000000000E+00  0.00000000000E+00  0.81382116440E+03  0.81382116440E+03  0.25500000920E-02 0.  1.
       -2   -1    0    0    0  501  0.00000000000E+00  0.00000000000E+00 -0.12247431042E+04  0.12247431042E+04  0.25500000920E-02 0. -1.
    10030    2    1    2    0    0  0.00000000000E+00  0.00000000000E+00 -0.41092193977E+03  0.20385642686E+04  0.19967191682E+04 0.  0.
        3    1    3    3  502    0  0.57463429133E+03 -0.77762699664E+03  0.48372688103E+02  0.96811582046E+03  0.10100000352E+00 0.  1.
       -3    1    3    3    0  502 -0.57463429133E+03  0.77762699664E+03 -0.45929462787E+03  0.10704484481E+04  0.10100000352E+00 0. -1.
</event>
<event>
 5   0  0.5628936E-05  0.1927865E+04  0.7818609E-02  0.8641109E-01
       -1   -1    0    0    0  501  0.00000000000E+00  0.00000000000E+00  0.61595826628E+03  0.61595826630E+03  0.50400001928E-02 0.  1.
        1   -1    0    0  501    0  0.00000000000E+00  0.00000000000E+00 -0.15084879144E+04  0.15084879144E+04  0.50400001928E-02 0. -1.
    10030    2    1    2    0    0  0.00000000000E+00  0.00000000000E+00 -0.89252964813E+03  0.21244461807E+04  0.19278647261E+04 0.  0.
        5    1    3    3  502    0 -0.27202233916E+03 -0.66975685491E+03  0.25638429107E+03  0.76702372349E+03  0.46999998093E+01 0.  1.
       -5    1    3    3    0  502  0.27202233916E+03  0.66975685491E+03 -0.11489139392E+04  0.13574224572E+04  0.46999998093E+01 0. -1.
</event>
<event>
 5   0  0.1182630E-04  0.1893710E+04  0.7818609E-02  0.8657994E-01
       -2   -1    0    0    0  501  0.00000000000E+00  0.00000000000E+00  0.79387897704E+03  0.79387897704E+03  0.25500000920E-02 0. -1.
        2   -1    0    0  501    0  0.00000000000E+00  0.00000000000E+00 -0.11293086197E+04  0.11293086197E+04  0.25500000920E-02 0.  1.
    10030    2    1    2    0    0  0.00000000000E+00  0.00000000000E+00 -0.33542964268E+03  0.19231875968E+04  0.18937099797E+04 0.  0.
        5    1    3    3  502    0  0.42162564082E+03  0.53734712074E+03 -0.83366770914E+03  0.10777448902E+04  0.46999998093E+01 0.  1.
       -5    1    3    3    0  502 -0.42162564082E+03 -0.53734712074E+03  0.49823806645E+03  0.84544270653E+03  0.46999998093E+01 0. -1.
</event>
<event>
 5   0  0.1141890E-04  0.1906726E+04  0.7818609E-02  0.8651516E-01
        2   -1    0    0  501    0  0.00000000000E+00  0.00000000000E+00  0.12000331507E+04  0.12000331507E+04  0.25500000920E-02 0.  1.
       -2   -1    0    0    0  501  0.00000000000E+00  0.00000000000E+00 -0.75739636956E+03  0.75739636956E+03  0.25500000920E-02 0. -1.
    10030    2    1    2    0    0  0.00000000000E+00  0.00000000000E+00  0.44263678115E+03  0.19574295203E+04  0.19067257293E+04 0.  0.
        2    1    3    3  502    0  0.80939096676E+03 -0.11608695465E+03 -0.28193253426E+03  0.86491379455E+03  0.25500000920E-02 0. -1.
       -2    1    3    3    0  502 -0.80939096676E+03  0.11608695465E+03  0.72456931542E+03  0.10925157257E+04  0.25500000920E-02 0.  1.
</event>
<event>
 5   0  0.1182630E-04  0.1882121E+04  0.7818609E-02  0.8663808E-01
       -2   -1    0    0    0  501  0.00000000000E+00  0.00000000000E+00  0.11165316798E+04  0.11165316798E+04  0.25500000920E-02 0. -1.
        2   -1    0    0  501    0  0.00000000000E+00  0.00000000000E+00 -0.79316553777E+03  0.79316553777E+03  0.25500000920E-02 0.  1.
    10030    2    1    2    0    0  0.00000000000E+00  0.00000000000E+00  0.32336614199E+03  0.19096972175E+04  0.18821205596E+04 0.  0.
        5    1    3    3  502    0  0.61177884511E+03 -0.39809627951E+03 -0.44100509388E+03  0.85279633319E+03  0.46999998093E+01 0.  1.
       -5    1    3    3    0  502 -0.61177884511E+03  0.39809627951E+03  0.76437123586E+03  0.10569008843E+04  0.46999998093E+01 0. -1.
</event>
<event>
 5   0  0.5841424E-05  0.1883205E+04  0.7818609E-02  0.8663262E-01
        1   -1    0    0  501    0  0.00000000000E+00  0.00000000000E+00  0.90107340623E+03  0.90107340625E+03  0.50400001928E-02 0.  1.
       -1   -1    0    0    0  501  0.00000000000E+00  0.00000000000E+00 -0.98395422962E+03  0.98395422963E+03  0.50400001928E-02 0. -1.
    10030    2    1    2    0    0  0.00000000000E+00  0.00000000000E+00 -0.82880823382E+02  0.18850276359E+04  0.18832047040E+04 0.  0.
        1    1    3    3  502    0  0.71074578352E+03  0.49257342507E+03 -0.41439582286E+03  0.95891190727E+03  0.50400001928E-02 0. -1.
       -1    1    3    3    0  502 -0.71074578352E+03 -0.49257342507E+03  0.33151499947E+03  0.92611572861E+03  0.50400001928E-02 0.  1.
</event>
<event>
 5   0  0.1141890E-04  0.1893958E+04  0.7818609E-02  0.8657870E-01
       -2   -1    0    0    0  501  0.00000000000E+00  0.00000000000E+00  0.74879502591E+03  0.74879502591E+03  0.25500000920E-02 0.  1.
        2   -1    0    0  501    0  0.00000000000E+00  0.00000000000E+00 -0.11976166442E+04  0.11976166442E+04  0.25500000920E-02 0. -1.
    10030    2    1    2    0    0  0.00000000000E+00  0.00000000000E+00 -0.44882161825E+03  0.19464116701E+04  0.18939581686E+04 0.  0.
        2    1    3    3  502    0 -0.22469491938E+03 -0.79071695470E+03  0.25876800557E+03  0.86178999180E+03  0.25500000920E-02 0.  1.
       -2    1    3    3    0  502  0.22469491938E+03  0.79071695470E+03 -0.70758962383E+03  0.10846216783E+04  0.25500000920E-02 0. -1.
</event>
<event>
 5   0  0.5628936E-05  0.1905238E+04  0.7818609E-02  0.8652253E-01
        1   -1    0    0  501    0  0.00000000000E+00  0.00000000000E+00  0.40197155316E+03  0.40197155319E+03  0.50400001928E-02 0. -1.
       -1   -1    0    0    0  501  0.00000000000E+00  0.00000000000E+00 -0.22575808438E+04  0.22575808438E+04  0.50400001928E-02 0.  1.
    10030    2    1    2    0    0  0.00000000000E+00  0.00000000000E+00 -0.18556092906E+04  0.26595523970E+04  0.19052383349E+04 0.  0.
        5    1    3    3  502    0 -0.55755585476E+03 -0.75916855726E+03 -0.11264751966E+04  0.14683915990E+04  0.46999998093E+01 0.  1.
       -5    1    3    3    0  502  0.55755585476E+03  0.75916855726E+03 -0.72913409401E+03  0.11911607979E+04  0.46999998093E+01 0. -1.
</event>
<event>
 5   0  0.5628936E-05  0.1900863E+04  0.7818609E-02  0.8654427E-01
       -1   -1    0    0    0  501  0.00000000000E+00  0.00000000000E+00  0.81488781374E+03  0.81488781376E+03  0.50400001928E-02 0.  1.
        1   -1    0    0  501    0  0.00000000000E+00  0.00000000000E+00 -0.11085209472E+04  0.11085209472E+04  0.50400001928E-02 0. -1.
    10030    2    1    2    0    0  0.00000000000E+00  0.00000000000E+00 -0.29363313341E+03  0.19234087609E+04  0.19008631841E+04 0.  0.
        5    1    3    3  502    0 -0.50687933864E+03 -0.44348589267E+03  0.53172768576E+03  0.85811585625E+03  0.46999998093E+01 0.  1.
       -5    1    3    3    0  502  0.50687933864E+03  0.44348589267E+03 -0.82536081917E+03  0.10652929047E+04  0.46999998093E+01 0. -1.
</event>
<event>
 5   0  0.1101678E-04  0.1894196E+04  0.7818609E-02  0.8657751E-01
        2   -1    0    0  501    0  0.00000000000E+00  0.00000000000E+00  0.11139282111E+04  0.11139282111E+04  0.25500000920E-02 0. -1.
       -2   -1    0    0    0  501  0.00000000000E+00  0.00000000000E+00 -0.80525311855E+03  0.80525311855E+03  0.25500000920E-02 0.  1.
    10030    2    1    2    0    0  0.00000000000E+00  0.00000000000E+00  0.30867509252E+03  0.19191813296E+04  0.18941955188E+04 0.  0.
        4    1    3    3  502    0  0.34632539459E+03 -0.45744769000E+03  0.91779735329E+03  0.10823831404E+04  0.12699999809E+01 0. -1.
       -4    1    3    3    0  502 -0.34632539459E+03  0.45744769000E+03 -0.60912226077E+03  0.83679818922E+03  0.12699999809E+01 0.  1.
</event>
<event>
 5   0  0.5628936E-05  0.1901680E+04  0.7818609E-02  0.8654020E-01
        1   -1    0    0  501    0  0.00000000000E+00  0.00000000000E+00  0.56528898331E+03  0.56528898334E+03  0.50400001928E-02 0. -1.
       -1   -1    0    0    0  501  0.00000000000E+00  0.00000000000E+00 -0.15993537254E+04  0.15993537254E+04  0.50400001928E-02 0.  1.
    10030    2    1    2    0    0  0.00000000000E+00  0.00000000000E+00 -0.10340647421E+04  0.21646427087E+04  0.19016803532E+04 0.  0.
        5    1    3    3  502    0  0.34664386064E+03  0.21033418024E+03 -0.14960002554E+04  0.15499810604E+04  0.46999998093E+01 0.  1.
       -5    1    3    3    0  502 -0.34664386064E+03 -0.21033418024E+03  0.46193551330E+03  0.61466164834E+03  0.46999998093E+01 0. -1.
</event>
<event>
 5   0  0.5841424E-05  0.1877834E+04  0.7818609E-02  0.8665969E-01
       -1   -1    0    0    0  501  0.00000000000E+00  0.00000000000E+00  0.17466821253E+04  0.17466821253E+04  0.50400001928E-02 0. -1.
        1   -1    0    0  501    0  0.00000000000E+00  0.00000000000E+00 -0.50470860958E+03  0.50470860961E+03  0.50400001928E-02 0.  1.
    10030    2    1    2    0    0  0.00000000000E+00  0.00000000000E+00  0.12419735157E+04  0.22513907349E+04  0.18778343983E+04 0.  0.
        1    1    3    3  502    0  0.41424330417E+02  0.14399318274E+03  0.17322561695E+04  0.17387240864E+04  0.50400001928E-02 0. -1.
       -1    1    3    3    0  502 -0.41424330417E+02 -0.14399318274E+03 -0.49028265381E+03  0.51266664849E+03  0.50400001928E-02 0.  1.
</event>
<event>
 5   0  0.5628936E-05  0.1878479E+04  0.7818609E-02  0.8665643E-01
       -1   -1    0    0    0  501  0.00000000000E+00  0.00000000000E+00  0.18668000070E+04  0.18668000070E+04  0.50400001928E-02 0. -1.
        1   -1    0    0  501    0  0.00000000000E+00  0.00000000000E+00 -0.47255781909E+03  0.47255781911E+03  0.50400001928E-02 0.  1.
    10030    2    1    2    0    0  0.00000000000E+00  0.00000000000E+00  0.13942421879E+04  0.23393578261E+04  0.18784791082E+04 0.  0.
        5    1    3    3  502    0 -0.27261541376E+03 -0.77174346031E+02  0.18122968018E+04  0.18343164480E+04  0.46999998093E+01 0. -1.
       -5    1    3    3    0  502  0.27261541376E+03  0.77174346031E+02 -0.41805461385E+03  0.50504137818E+03  0.46999998093E+01 0.  1.
</event>
<event>
 5   0  0.1182630E-04  0.1886049E+04  0.7818609E-02  0.8661832E-01
        2   -1    0    0  501    0  0.00000000000E+00  0.00000000000E+00  0.39539240833E+03  0.39539240834E+03  0.25500000920E-02 0. -1.
       -2   -1    0    0    0  501  0.00000000000E+00  0.00000000000E+00 -0.22491452140E+04  0.22491452140E+04  0.25500000920E-02 0.  1.
    10030    2    1    2    0    0  0.00000000000E+00  0.00000000000E+00 -0.18537528057E+04  0.26445376224E+04  0.18860487193E+04 0.  0.
        5    1    3    3  502    0 -0.33222516196E+03 -0.87812341938E+03 -0.10507001414E+04  0.14090660648E+04  0.46999998093E+01 0. -1.
       -5    1    3    3    0  502  0.33222516196E+03  0.87812341938E+03 -0.80305266433E+03  0.12354715576E+04  0.46999998093E+01 0.  1.
</event>
<event>
 5   0  0.5841424E-05  0.1895646E+04  0.7818609E-02  0.8657027E-01
        1   -1    0    0  501    0  0.00000000000E+00  0.00000000000E+00  0.52051718279E+03  0.52051718282E+03  0.50400001928E-02 0.  1.
       -1   -1    0    0    0  501  0.00000000000E+00  0.00000000000E+00 -0.17259147346E+04  0.17259147346E+04  0.50400001928E-02 0. -1.
    10030    2    1    2    0    0  0.00000000000E+00  0.00000000000E+00 -0.12053975518E+04  0.22464319174E+04  0.18956458271E+04 0.  0.
        1    1    3    3  502    0  0.45600762142E+02 -0.34141415053E+03  0.44372320463E+03  0.56172353880E+03  0.50400001928E-02 0.  1.
       -1    1    3    3    0  502 -0.45600762142E+02  0.34141415053E+03 -0.16491207564E+04  0.16847083786E+04  0.50400001928E-02 0. -1.
</event>
<event>
 5   0  0.4061125E-05  0.1897331E+04  0.7818609E-02  0.8656186E-01
        3   -1    0    0  501    0  0.00000000000E+00  0.00000000000E+00  0.16308232422E+04  0.16308232453E+04  0.10100000352E+00 0.  1.
       -3   -1    0    0    0  501  0.00000000000E+00  0.00000000000E+00 -0.55184768527E+03  0.55184769451E+03  0.10100000352E+00 0. -1.
    10030    2    1    2    0    0  0.00000000000E+00  0.00000000000E+00  0.10789755569E+04  0.21826709398E+04  0.18973308038E+04 0.  0.
        3    1    3    3  502    0 -0.94098291298E+02  0.86506669598E+03  0.97416356542E+03  0.13062119044E+04  0.10100000352E+00 0.  1.
       -3    1    3    3    0  502  0.94098291298E+02 -0.86506669598E+03  0.10481199148E+03  0.87645903537E+03  0.10100000352E+00 0. -1.
</event>
<event>
 5   0  0.1182630E-04  0.1892237E+04  0.7818609E-02  0.8658730E-01
        2   -1    0    0  501    0  0.00000000000E+00  0.00000000000E+00  0.86291804116E+03  0.86291804116E+03  0.25500000920E-02 0. -1.
       -2   -1    0    0    0  501  0.00000000000E+00  0.00000000000E+00 -0.10373413445E+04  0.10373413445E+04  0.25500000920E-02 0.  1.
    10030    2    1    2    0    0  0.00000000000E+00  0.00000000000E+00 -0.17442330330E+03  0.19002593856E+04  0.18922373646E+04 0.  0.
        5    1    3    3  502    0 -0.28031484314E+03 -0.89444218209E+03  0.41844809211E+02  0.93828370253E+03  0.46999998093E+01 0.  1.
       -5    1    3    3    0  502  0.28031484314E+03  0.89444218209E+03 -0.21626811251E+03  0.96197568310E+03  0.46999998093E+01 0. -1.
</event>
<event>
 5   0  0.5628936E-05  0.1882696E+04  0.7818609E-02  0.8663518E-01
       -1   -1    0    0    0  501  0.00000000000E+00  0.00000000000E+00  0.60965561575E+03  0.60965561577E+03  0.50400001928E-02 0.  1.
        1   -1    0    0  501    0  0.00000000000E+00  0.00000000000E+00 -0.14535028447E+04  0.14535028448E+04  0.50400001928E-02 0. -1.
    10030    2    1    2    0    0  0.00000000000E+00  0.00000000000E+00 -0.84384722900E+03  0.20631584605E+04  0.18826961219E+04 0.  0.
        5    1    3    3  502    0 -0.82252274215E+02 -0.82920487087E+03 -0.90181211634E+03  0.12278572139E+04  0.46999998093E+01 0. -1.
       -5    1    3    3    0  502  0.82252274215E+02  0.82920487087E+03  0.57964887335E+02  0.83530124665E+03  0.46999998093E+01 0.  1.
</event>
<event>
 5   0  0.1101678E-04  0.1894637E+04  0.7818609E-02  0.8657530E-01
        2   -1    0    0  501    0  0.00000000000E+00  0.00000000000E+00  0.11292639042E+04  0.11292639042E+04  0.25500000920E-02 0.  1.
       -2   -1    0    0    0  501  0.00000000000E+00  0.00000000000E+00 -0.79468826543E+03  0.79468826543E+03  0.25500000920E-02 0. -1.
    10030    2    1    2    0    0  0.00000000000E+00  0.00000000000E+00  0.33457563876E+03  0.19239521696E+04  0.18946374569E+04 0.  0.
        4    1    3    3  502    0 -0.13917030011E+03 -0.47746193561E+03 -0.65145815727E+03  0.81959600778E+03  0.12699999809E+01 0. -1.
       -4    1    3    3    0  502  0.13917030011E+03  0.47746193561E+03  0.98603379603E+03  0.11043561618E+04  0.12699999809E+01 0.  1.
</event>
<event>
 5   0  0.5614989E-05  0.1895327E+04  0.7818609E-02  0.8657186E-01
       -1   -1    0    0    0  501  0.00000000000E+00  0.00000000000E+00  0.56122967595E+03  0.56122967597E+03  0.50400001928E-02 0.  1.
        1   -1    0    0  501    0  0.00000000000E+00  0.00000000000E+00 -0.16001765384E+04  0.16001765384E+04  0.50400001928E-02 0. -1.
    10030    2    1    2    0    0  0.00000000000E+00  0.00000000000E+00 -0.10389468625E+04  0.21614062144E+04  0.18953274758E+04 0.  0.
        4    1    3    3  502    0  0.33810982319E+03 -0.47967286253E+03  0.32906977841E+03  0.67282452359E+03  0.12699999809E+01 0.  1.
       -4    1    3    3    0  502 -0.33810982319E+03  0.47967286253E+03 -0.13680166409E+04  0.14885816908E+04  0.12699999809E+01 0. -1.
</event>
<event>
 5   0  0.5824956E-05  0.1915826E+04  0.7818609E-02  0.8647019E-01
        1   -1    0    0  501    0  0.00000000000E+00  0.00000000000E+00  0.13776976715E+04  0.13776976715E+04  0.50400001928E-02 0.  1.
       -1   -1    0    0    0  501  0.00000000000E+00  0.00000000000E+00 -0.66603685149E+03  0.66603685151E+03  0.50400001928E-02 0. -1.
    10030    2    1    2    0    0  0.00000000000E+00  0.00000000000E+00  0.71166081998E+03  0.20437345230E+04  0.19158261084E+04 0.  0.
        2    1    3    3  502    0 -0.31750391106E+03  0.17137594103E+03 -0.59078011985E+03  0.69224244071E+03  0.25500000920E-02 0. -1.
       -2    1    3    3    0  502  0.31750391106E+03 -0.17137594103E+03  0.13024409398E+04  0.13514920823E+04  0.25500000920E-02 0.  1.
</event>
<event>
 5   0  0.5579109E-05  0.1910999E+04  0.7818609E-02  0.8649401E-01
       -1   -1    0    0    0  501  0.00000000000E+00  0.00000000000E+00  0.88783425982E+03  0.88783425983E+03  0.50400001928E-02 0.  1.
        1   -1    0    0  501    0  0.00000000000E+00  0.00000000000E+00 -0.10283214346E+04  0.10283214347E+04  0.50400001928E-02 0. -1.
    10030    2    1    2    0    0  0.00000000000E+00  0.00000000000E+00 -0.14048717482E+03  0.19161556945E+04  0.19109986916E+04 0.  0.
        3    1    3    3  502    0  0.42570011342E+03  0.81774695918E+03 -0.32201542081E+03  0.97653705370E+03  0.10100000352E+00 0.  1.
       -3    1    3    3    0  502 -0.42570011342E+03 -0.81774695918E+03  0.18152824599E+03  0.93961864078E+03  0.10100000352E+00 0. -1.
</event>
<event>
 5   0  0.1133638E-04  0.1901733E+04  0.7818609E-02  0.8653994E-01
       -2   -1    0    0    0  501  0.00000000000E+00  0.00000000000E+00  0.10193610963E+04  0.10193610963E+04  0.25500000920E-02 0.  1.
        2   -1    0    0  501    0  0.00000000000E+00  0.00000000000E+00 -0.88697415624E+03  0.88697415624E+03  0.25500000920E-02 0. -1.
    10030    2    1    2    0    0  0.00000000000E+00  0.00000000000E+00  0.13238694003E+03  0.19063352525E+04  0.19017328396E+04 0.  0.
        3    1    3    3  502    0 -0.20614775940E+03  0.71466938121E+03 -0.52760632458E+03  0.91193073590E+03  0.10100000352E+00 0. -1.
       -3    1    3    3    0  502  0.20614775940E+03 -0.71466938121E+03  0.65999326461E+03  0.99440451662E+03  0.10100000352E+00 0.  1.
</event>
<event>
 5   0  0.5824956E-05  0.1900418E+04  0.7818609E-02  0.8654648E-01
        1   -1    0    0  501    0  0.00000000000E+00  0.00000000000E+00  0.45516750645E+03  0.45516750648E+03  0.50400001928E-02 0. -1.
       -1   -1    0    0    0  501  0.00000000000E+00  0.00000000000E+00 -0.19836597143E+04  0.19836597143E+04  0.50400001928E-02 0.  1.
    10030    2    1    2    0    0  0.00000000000E+00  0.00000000000E+00 -0.15284922078E+04  0.24388272207E+04  0.19004183180E+04 0.  0.
        2    1    3    3  502    0  0.26779181549E+03  0.12245784919E+03  0.39513765331E+03  0.49279016461E+03  0.25500000920E-02 0. -1.
       -2    1    3    3    0  502 -0.26779181549E+03 -0.12245784919E+03 -0.19236298611E+04  0.19460370561E+04  0.25500000920E-02 0.  1.
</event>
<event>
 5   0  0.5824956E-05  0.1747317E+04  0.7818609E-02  0.8734828E-01
       -1   -1    0    0    0  501  0.00000000000E+00  0.00000000000E+00  0.12716774013E+04  0.12716774013E+04  0.50400001928E-02 0.  1.
        1   -1    0    0  501    0  0.00000000000E+00  0.00000000000E+00 -0.60021477407E+03  0.60021477409E+03  0.50400001928E-02 0. -1.
    10030    2    1    2    0    0  0.00000000000E+00  0.00000000000E+00  0.67146262721E+03  0.18718921754E+04  0.17473174458E+04 0.  0.
        2    1    3    3  502    0 -0.17497228264E+03  0.67182637965E+03  0.90393541559E+03  0.11397654231E+04  0.25500000920E-02 0.  1.
       -2    1    3    3    0  502  0.17497228264E+03 -0.67182637965E+03 -0.23247278838E+03  0.73212675230E+03  0.25500000920E-02 0. -1.
</event>
<event>
 5   0  0.1182630E-04  0.1900315E+04  0.7818609E-02  0.8654700E-01
        2   -1    0    0  501    0  0.00000000000E+00  0.00000000000E+00  0.20362491473E+04  0.20362491473E+04  0.25500000920E-02 0.  1.
       -2   -1    0    0    0  501  0.00000000000E+00  0.00000000000E+00 -0.44336371721E+03  0.44336371722E+03  0.25500000920E-02 0. -1.
    10030    2    1    2    0    0  0.00000000000E+00  0.00000000000E+00  0.15928854301E+04  0.24796128645E+04  0.19003147014E+04 0.  0.
        5    1    3    3  502    0 -0.56666258205E+03  0.46100980248E+02  0.17897919894E+04  0.18779268456E+04  0.46999998093E+01 0.  1.
       -5    1    3    3    0  502  0.56666258205E+03 -0.46100980248E+02 -0.19690655927E+03  0.60168601891E+03  0.46999998093E+01 0. -1.
</event>
<event>
 5   0  0.1101678E-04  0.1923123E+04  0.7818609E-02  0.8643432E-01
       -2   -1    0    0    0  501  0.00000000000E+00  0.00000000000E+00  0.12788040307E+04  0.12788040307E+04  0.25500000920E-02 0. -1.
        2   -1    0    0  501    0  0.00000000000E+00  0.00000000000E+00 -0.72301956198E+03  0.72301956199E+03  0.25500000920E-02 0.  1.
    10030    2    1    2    0    0  0.00000000000E+00  0.00000000000E+00  0.55578446874E+03  0.20018235927E+04  0.19231228044E+04 0.  0.
        4    1    3    3  502    0  0.34397187908E+02  0.68890339456E+03  0.97525474115E+03  0.11945268840E+04  0.12699999809E+01 0. -1.
       -4    1    3    3    0  502 -0.34397187908E+02 -0.68890339456E+03 -0.41947027241E+03  0.80729670872E+03  0.12699999809E+01 0.  1.
</event>
<event>
 5   0  0.5824956E-05  0.1910815E+04  0.7818609E-02  0.8649492E-01
        1   -1    0    0  501    0  0.00000000000E+00  0.00000000000E+00  0.91526614234E+03  0.91526614236E+03  0.50400001928E-02 0.  1.
       -1   -1    0    0    0  501  0.00000000000E+00  0.00000000000E+00 -0.99730895348E+03  0.99730895349E+03  0.50400001928E-02 0. -1.
    10030    2    1    2    0    0  0.00000000000E+00  0.00000000000E+00 -0.82042811138E+02  0.19125750958E+04  0.19108146102E+04 0.  0.
        2    1    3    3  502    0 -0.14616885518E+02 -0.64343720254E+03  0.66572972600E+03  0.92597038562E+03  0.25500000920E-02 0.  1.
       -2    1    3    3    0  502  0.14616885518E+02  0.64343720254E+03 -0.74777253713E+03  0.98660471023E+03  0.25500000920E-02 0. -1.
</event>
<event>
 5   0  0.5579109E-05  0.1902204E+04  0.7818609E-02  0.8653760E-01
        1   -1    0    0  501    0  0.00000000000E+00  0.00000000000E+00  0.16840771157E+04  0.16840771157E+04  0.50400001928E-02 0.  1.
       -1   -1    0    0    0  501  0.00000000000E+00  0.00000000000E+00 -0.53714586672E+03  0.53714586674E+03  0.50400001928E-02 0. -1.
    10030    2    1    2    0    0  0.00000000000E+00  0.00000000000E+00  0.11469312490E+04  0.22212229824E+04  0.19022040500E+04 0.  0.
        3    1    3    3  502    0  0.78626511547E+03 -0.40631355791E+03  0.16678801464E+03  0.90062300169E+03  0.10100000352E+00 0. -1.
       -3    1    3    3    0  502 -0.78626511547E+03  0.40631355791E+03  0.98014323433E+03  0.13205999808E+04  0.10100000352E+00 0.  1.
</event>
<event>
 5   0  0.5628936E-05  0.1950070E+04  0.7818609E-02  0.8630327E-01
        1   -1    0    0  501    0  0.00000000000E+00  0.00000000000E+00  0.83937296730E+03  0.83937296731E+03  0.50400001928E-02 0.  1.
       -1   -1    0    0    0  501  0.00000000000E+00  0.00000000000E+00 -0.11326228108E+04  0.11326228108E+04  0.50400001928E-02 0. -1.
    10030    2    1    2    0    0  0.00000000000E+00  0.00000000000E+00 -0.29324984349E+03  0.19719957781E+04  0.19500697111E+04 0.  0.
        5    1    3    3  502    0  0.59394961052E+03 -0.21818696709E+03  0.60353064018E+03  0.87444440422E+03  0.46999998093E+01 0. -1.
       -5    1    3    3    0  502 -0.59394961052E+03  0.21818696709E+03 -0.89678048367E+03  0.10975513739E+04  0.46999998093E+01 0.  1.
</event>
<event>
 5   0  0.1141890E-04  0.1891978E+04  0.7818609E-02  0.8658860E-01
       -2   -1    0    0    0  501  0.00000000000E+00  0.00000000000E+00  0.11002882156E+04  0.11002882156E+04  0.25500000920E-02 0.  1.
        2   -1    0    0  501    0  0.00000000000E+00  0.00000000000E+00 -0.81332776611E+03  0.81332776611E+03  0.25500000920E-02 0. -1.
    10030    2    1    2    0    0  0.00000000000E+00  0.00000000000E+00  0.28696044946E+03  0.19136159817E+04  0.18919777551E+04 0.  0.
        2    1    3    3  502    0  0.84051871086E+03 -0.11287341847E+03  0.56741929280E+03  0.10203806965E+04  0.25500000920E-02 0.  1.
       -2    1    3    3    0  502 -0.84051871086E+03  0.11287341847E+03 -0.28045884335E+03  0.89323528520E+03  0.25500000920E-02 0. -1.
</event>
<event>
 5   0  0.5841424E-05  0.1874701E+04  0.7818609E-02  0.8667553E-01
       -1   -1    0    0    0  501  0.00000000000E+00  0.00000000000E+00  0.38819250481E+03  0.38819250484E+03  0.50400001928E-02 0.  1.
        1   -1    0    0  501    0  0.00000000000E+00  0.00000000000E+00 -0.22633759140E+04  0.22633759140E+04  0.50400001928E-02 0. -1.
    10030    2    1    2    0    0  0.00000000000E+00  0.00000000000E+00 -0.18751834092E+04  0.26515684189E+04  0.18747005792E+04 0.  0.
        1    1    3    3  502    0  0.65790568135E+03  0.15361707616E+03 -0.18574596656E+02  0.67585731283E+03  0.50400001928E-02 0.  1.
       -1    1    3    3    0  502 -0.65790568135E+03 -0.15361707616E+03 -0.18566088125E+04  0.19757111060E+04  0.50400001928E-02 0. -1.
</event>
<event>
 5   0  0.1182630E-04  0.1930311E+04  0.7818609E-02  0.8639914E-01
        2   -1    0    0  501    0  0.00000000000E+00  0.00000000000E+00  0.18621066349E+04  0.18621066349E+04  0.25500000920E-02 0. -1.
       -2   -1    0    0    0  501  0.00000000000E+00  0.00000000000E+00 -0.50025342586E+03  0.50025342586E+03  0.25500000920E-02 0.  1.
    10030    2    1    2    0    0  0.00000000000E+00  0.00000000000E+00  0.13618532091E+04  0.23623600608E+04  0.19303110873E+04 0.  0.
        5    1    3    3  502    0  0.55887812780E+03 -0.77102084694E+03  0.48864517860E+03  0.10703336436E+04  0.46999998093E+01 0.  1.
       -5    1    3    3    0  502 -0.55887812780E+03  0.77102084694E+03  0.87320803048E+03  0.12920264172E+04  0.46999998093E+01 0. -1.
</event>
<event>
 5   0  0.5579109E-05  0.1904415E+04  0.7818609E-02  0.8652662E-01
       -1   -1    0    0    0  501  0.00000000000E+00  0.00000000000E+00  0.11040078814E+04  0.11040078815E+04  0.50400001928E-02 0. -1.
        1   -1    0    0  501    0  0.00000000000E+00  0.00000000000E+00 -0.82127997854E+03  0.82127997855E+03  0.50400001928E-02 0.  1.
    10030    2    1    2    0    0  0.00000000000E+00  0.00000000000E+00  0.28272790291E+03  0.19252878600E+04  0.19044154685E+04 0.  0.
        3    1    3    3  502    0 -0.11659278067E+03 -0.16150809678E+03  0.10827087658E+04  0.11008801132E+04  0.10100000352E+00 0. -1.
       -3    1    3    3    0  502  0.11659278067E+03  0.16150809678E+03 -0.79998086290E+03  0.82440774683E+03  0.10100000352E+00 0.  1.
</event>
<event>
 5   0  0.1141890E-04  0.1890073E+04  0.7818609E-02  0.8659814E-01
       -2   -1    0    0    0  501  0.00000000000E+00  0.00000000000E+00  0.41591469770E+03  0.41591469771E+03  0.25500000920E-02 0.  1.
        2   -1    0    0  501    0  0.00000000000E+00  0.00000000000E+00 -0.21473006385E+04  0.21473006385E+04  0.25500000920E-02 0. -1.
    10030    2    1    2    0    0  0.00000000000E+00  0.00000000000E+00 -0.17313859408E+04  0.25632153363E+04  0.18900729044E+04 0.  0.
        2    1    3    3  502    0 -0.77246372327E+03 -0.22615828126E+03 -0.19409772508E+03  0.82796237767E+03  0.25500000920E-02 0.  1.
       -2    1    3    3    0  502  0.77246372327E+03  0.22615828126E+03 -0.15372882158E+04  0.17352529586E+04  0.25500000920E-02 0. -1.
</event>
<event>
 5   0  0.1182630E-04  0.1899531E+04  0.7818609E-02  0.8655090E-01
       -2   -1    0    0    0  501  0.00000000000E+00  0.00000000000E+00  0.52127415816E+03  0.52127415817E+03  0.25500000920E-02 0. -1.
        2   -1    0    0  501    0  0.00000000000E+00  0.00000000000E+00 -0.17304802407E+04  0.17304802407E+04  0.25500000920E-02 0.  1.
    10030    2    1    2    0    0  0.00000000000E+00  0.00000000000E+00 -0.12092060826E+04  0.22517543989E+04  0.18995311324E+04 0.  0.
        5    1    3    3  502    0 -0.32213823963E+03 -0.91705788175E+02 -0.16581327571E+04  0.16916291931E+04  0.46999998093E+01 0.  1.
       -5    1    3    3    0  502  0.32213823963E+03  0.91705788175E+02  0.44892667452E+03  0.56012520574E+03  0.46999998093E+01 0. -1.
</event>
<event>
 5   0  0.5841424E-05  0.1953315E+04  0.7818609E-02  0.8628764E-01
       -1   -1    0    0    0  501  0.00000000000E+00  0.00000000000E+00  0.82731327190E+03  0.82731327191E+03  0.50400001928E-02 0. -1.
        1   -1    0    0  501    0  0.00000000000E+00  0.00000000000E+00 -0.11529613983E+04  0.11529613983E+04  0.50400001928E-02 0.  1.
    10030    2    1    2    0    0  0.00000000000E+00  0.00000000000E+00 -0.32564812638E+03  0.19802746702E+04  0.19533154039E+04 0.  0.
        1    1    3    3  502    0 -0.78008053917E+03 -0.26294339767E+03  0.36997232152E+03  0.90252113365E+03  0.50400001928E-02 0. -1.
       -1    1    3    3    0  502  0.78008053917E+03  0.26294339767E+03 -0.69562044790E+03  0.10777535365E+04  0.50400001928E-02 0.  1.
</event>
<event>
 5   0  0.5614989E-05  0.1893617E+04  0.7818609E-02  0.8658040E-01
       -1   -1    0    0    0  501  0.00000000000E+00  0.00000000000E+00  0.14726492555E+04  0.14726492555E+04  0.50400001928E-02 0.  1.
        1   -1    0    0  501    0  0.00000000000E+00  0.00000000000E+00 -0.60873063607E+03  0.60873063609E+03  0.50400001928E-02 0. -1.
    10030    2    1    2    0    0  0.00000000000E+00  0.00000000000E+00  0.86391861945E+03  0.20813798916E+04  0.18936174039E+04 0.  0.
        4    1    3    3  502    0  0.29188208985E+03 -0.41702466388E+03 -0.44553606441E+03  0.67646782795E+03  0.12699999809E+01 0. -1.
       -4    1    3    3    0  502 -0.29188208985E+03  0.41702466388E+03  0.13094546839E+04  0.14049120637E+04  0.12699999809E+01 0.  1.
</event>
<event>
 5   0  0.1133638E-04  0.1888230E+04  0.7818609E-02  0.8660738E-01
        2   -1    0    0  501    0  0.00000000000E+00  0.00000000000E+00  0.72368903947E+03  0.72368903948E+03  0.25500000920E-02 0. -1.
       -2   -1    0    0    0  501  0.00000000000E+00  0.00000000000E+00 -0.12316791520E+04  0.12316791520E+04  0.25500000920E-02 0.  1.
    10030    2    1    2    0    0  0.00000000000E+00  0.00000000000E+00 -0.50799011250E+03  0.19553681915E+04  0.18882295437E+04 0.  0.
        3    1    3    3  502    0  0.39177504001E+03  0.42817596468E+03  0.51715060480E+03  0.77734618861E+03  0.10100000352E+00 0. -1.
       -3    1    3    3    0  502 -0.39177504001E+03 -0.42817596468E+03 -0.10251407173E+04  0.11780220028E+04  0.10100000352E+00 0.  1.
</event>
<event>
 5   0  0.5628936E-05  0.1896077E+04  0.7818609E-02  0.8656812E-01
        1   -1    0    0  501    0  0.00000000000E+00  0.00000000000E+00  0.16787232705E+04  0.16787232705E+04  0.50400001928E-02 0.  1.
       -1   -1    0    0    0  501  0.00000000000E+00  0.00000000000E+00 -0.53539308355E+03  0.53539308358E+03  0.50400001928E-02 0. -1.
    10030    2    1    2    0    0  0.00000000000E+00  0.00000000000E+00  0.11433301869E+04  0.22141163541E+04  0.18960768215E+04 0.  0.
        5    1    3    3  502    0 -0.28094802459E+03  0.87050517659E+03  0.86253131986E+03  0.12572563075E+04  0.46999998093E+01 0.  1.
       -5    1    3    3    0  502  0.28094802459E+03 -0.87050517659E+03  0.28079886707E+03  0.95686004658E+03  0.46999998093E+01 0. -1.
</event>
<event>
 5   0  0.1118206E-04  0.1900471E+04  0.7818609E-02  0.8654622E-01
       -2   -1    0    0    0  501  0.00000000000E+00  0.00000000000E+00  0.42335105425E+03  0.42335105425E+03  0.25500000920E-02 0. -1.
        2   -1    0    0  501    0  0.00000000000E+00  0.00000000000E+00 -0.21328571155E+04  0.21328571155E+04  0.25500000920E-02 0.  1.
    10030    2    1    2    0    0  0.00000000000E+00  0.00000000000E+00 -0.17095060613E+04  0.25562081698E+04  0.19004707926E+04 0.  0.
        1    1    3    3  502    0 -0.36881132150E+03 -0.76087586982E+03 -0.14379380411E+04  0.16681186080E+04  0.50400001928E-02 0.  1.
       -1    1    3    3    0  502  0.36881132150E+03  0.76087586982E+03 -0.27156802012E+03  0.88808956177E+03  0.50400001928E-02 0. -1.
</event>
<event>
 5   0  0.5841424E-05  0.1910217E+04  0.7818609E-02  0.8649787E-01
       -1   -1    0    0    0  501  0.00000000000E+00  0.00000000000E+00  0.84614052516E+03  0.84614052518E+03  0.50400001928E-02 0. -1.
        1   -1    0    0  501    0  0.00000000000E+00  0.00000000000E+00 -0.10781093885E+04  0.10781093885E+04  0.50400001928E-02 0.  1.
    10030    2    1    2    0    0  0.00000000000E+00  0.00000000000E+00 -0.23196886334E+03  0.19242499137E+04  0.19102167879E+04 0.  0.
        1    1    3    3  502    0  0.73134815482E+03 -0.39611649413E+03 -0.58895863992E+03  0.10191421295E+04  0.50400001928E-02 0.  1.
       -1    1    3    3    0  502 -0.73134815482E+03  0.39611649413E+03  0.35698977658E+03  0.90510778423E+03  0.50400001928E-02 0. -1.
</event>
<event>
 5   0  0.1141890E-04  0.1894473E+04  0.7818609E-02  0.8657613E-01
        2   -1    0    0  501    0  0.00000000000E+00  0.00000000000E+00  0.17555214526E+04  0.17555214526E+04  0.25500000920E-02 0. -1.
       -2   -1    0    0    0  501  0.00000000000E+00  0.00000000000E+00 -0.51110546080E+03  0.51110546080E+03  0.25500000920E-02 0.  1.
    10030    2    1    2    0    0  0.00000000000E+00  0.00000000000E+00  0.12444159918E+04  0.22666269134E+04  0.18944725925E+04 0.  0.
        2    1    3    3  502    0 -0.50693260376E+03  0.77415752151E+03  0.86433924508E+03  0.12662475522E+04  0.25500000920E-02 0. -1.
       -2    1    3    3    0  502  0.50693260376E+03 -0.77415752151E+03  0.38007674670E+03  0.10003793612E+04  0.25500000920E-02 0.  1.
</event>
<event>
 5   0  0.5579109E-05  0.2006665E+04  0.7818609E-02  0.8603511E-01
       -1   -1    0    0    0  501  0.00000000000E+00  0.00000000000E+00  0.56916902694E+03  0.56916902696E+03  0.50400001928E-02 0. -1.
        1   -1    0    0  501    0  0.00000000000E+00  0.00000000000E+00 -0.17686773842E+04  0.17686773842E+04  0.50400001928E-02 0.  1.
    10030    2    1    2    0    0  0.00000000000E+00  0.00000000000E+00 -0.11995083573E+04  0.23378464112E+04  0.20066652793E+04 0.  0.
        3    1    3    3  502    0 -0.35205042819E+03  0.93390419021E+03 -0.71947497806E+03  0.12303498668E+04  0.10100000352E+00 0. -1.
       -3    1    3    3    0  502  0.35205042819E+03 -0.93390419021E+03 -0.48003337921E+03  0.11074965444E+04  0.10100000352E+00 0.  1.
</event>
<event>
 5   0  0.1101678E-04  0.1913328E+04  0.7818609E-02  0.8648251E-01
        2   -1    0    0  501    0  0.00000000000E+00  0.00000000000E+00  0.18112595320E+04  0.18112595320E+04  0.25500000920E-02 0. -1.
       -2   -1    0    0    0  501  0.00000000000E+00  0.00000000000E+00 -0.50528680810E+03  0.50528680811E+03  0.25500000920E-02 0.  1.
    10030    2    1    2    0    0  0.00000000000E+00  0.00000000000E+00  0.13059727239E+04  0.23165463401E+04  0.19133275178E+04 0.  0.
        4    1    3    3  502    0 -0.62702944557E+03  0.27989938664E+03 -0.15349367217E+03  0.70361318389E+03  0.12699999809E+01 0.  1.
       -4    1    3    3    0  502  0.62702944557E+03 -0.27989938664E+03  0.14594663961E+04  0.16129331562E+04  0.12699999809E+01 0. -1.
</event>
<event>
 5   0  0.1118206E-04  0.1881303E+04  0.7818609E-02  0.8664219E-01
        2   -1    0    0  501    0  0.00000000000E+00  0.00000000000E+00  0.10358931035E+04  0.10358931035E+04  0.25500000920E-02 0.  1.
       -2   -1    0    0    0  501  0.00000000000E+00  0.00000000000E+00 -0.85416693719E+03  0.85416693720E+03  0.25500000920E-02 0. -1.
    10030    2    1    2    0    0  0.00000000000E+00  0.00000000000E+00  0.18172616627E+03  0.18900600407E+04  0.18813034199E+04 0.  0.
        1    1    3    3  502    0  0.73782282138E+03  0.92932381372E+02 -0.48784470702E+03  0.88938821751E+03  0.50400001928E-02 0. -1.
       -1    1    3    3    0  502 -0.73782282138E+03 -0.92932381372E+02  0.66957087329E+03  0.10006718231E+04  0.50400001928E-02 0.  1.
</event>
<event>
 5   0  0.5579109E-05  0.1875987E+04  0.7818609E-02  0.8666903E-01
       -1   -1    0    0    0  501  0.00000000000E+00  0.00000000000E+00  0.76611853896E+03  0.76611853898E+03  0.50400001928E-02 0.  1.
        1   -1    0    0  501    0  0.00000000000E+00  0.00000000000E+00 -0.11484272103E+04  0.11484272103E+04  0.50400001928E-02 0. -1.
    10030    2    1    2    0    0  0.00000000000E+00  0.00000000000E+00 -0.38230867136E+03  0.19145457493E+04  0.18759865421E+04 0.  0.
        3    1    3    3  502    0  0.15272920577E+03 -0.63900027046E+03  0.49207123539E+03  0.82084204744E+03  0.10100000352E+00 0.  1.
       -3    1    3    3    0  502 -0.15272920577E+03  0.63900027046E+03 -0.87437990675E+03  0.10937037019E+04  0.10100000352E+00 0. -1.
</event>
<event>
 5   0  0.5628936E-05  0.1871713E+04  0.7818609E-02  0.8669066E-01
       -1   -1    0    0    0  501  0.00000000000E+00  0.00000000000E+00  0.10996871062E+04  0.10996871062E+04  0.50400001928E-02 0. -1.
        1   -1    0    0  501    0  0.00000000000E+00  0.00000000000E+00 -0.79643319367E+03  0.79643319369E+03  0.50400001928E-02 0.  1.
    10030    2    1    2    0    0  0.00000000000E+00  0.00000000000E+00  0.30325391251E+03  0.18961202999E+04  0.18717129203E+04 0.  0.
        5    1    3    3  502    0 -0.34005087302E+03 -0.67765382264E+03  0.70737519889E+03  0.10369431332E+04  0.46999998093E+01 0. -1.
       -5    1    3    3    0  502  0.34005087302E+03  0.67765382264E+03 -0.40412128638E+03  0.85917716664E+03  0.46999998093E+01 0.  1.
</event>
<event>
 5   0  0.5579109E-05  0.1905278E+04  0.7818609E-02  0.8652234E-01
        1   -1    0    0  501    0  0.00000000000E+00  0.00000000000E+00  0.70735972916E+03  0.70735972918E+03  0.50400001928E-02 0.  1.
       -1   -1    0    0    0  501  0.00000000000E+00  0.00000000000E+00 -0.12829695611E+04  0.12829695611E+04  0.50400001928E-02 0. -1.
    10030    2    1    2    0    0  0.00000000000E+00  0.00000000000E+00 -0.57560983196E+03  0.19903292903E+04  0.19052779338E+04 0.  0.
        3    1    3    3  502    0 -0.20000622598E+03 -0.69879625382E+03  0.35547808613E+03  0.80912506740E+03  0.10100000352E+00 0.  1.
       -3    1    3    3    0  502  0.20000622598E+03  0.69879625382E+03 -0.93108791809E+03  0.11812042229E+04  0.10100000352E+00 0. -1.
</event>
<event>
 5   0  0.4061125E-05  0.1901173E+04  0.7818609E-02  0.8654273E-01
       -3   -1    0    0    0  501  0.00000000000E+00  0.00000000000E+00  0.10753195536E+04  0.10753195584E+04  0.10100000352E+00 0.  1.
        3   -1    0    0  501    0  0.00000000000E+00  0.00000000000E+00 -0.84032183945E+03  0.84032184552E+03  0.10100000352E+00 0. -1.
    10030    2    1    2    0    0  0.00000000000E+00  0.00000000000E+00  0.23499771419E+03  0.19156414039E+04  0.19011728124E+04 0.  0.
        1    1    3    3  502    0 -0.89895852549E+03 -0.24683217531E+03  0.30482216412E+03  0.98080023709E+03  0.50400001928E-02 0.  1.
       -1    1    3    3    0  502  0.89895852549E+03  0.24683217531E+03 -0.69824449924E+02  0.93484116681E+03  0.50400001928E-02 0. -1.
</event>
<event>
 5   0  0.1141890E-04  0.1898152E+04  0.7818609E-02  0.8655777E-01
       -2   -1    0    0    0  501  0.00000000000E+00  0.00000000000E+00  0.44194605468E+03  0.44194605469E+03  0.25500000920E-02 0.  1.
        2   -1    0    0  501    0  0.00000000000E+00  0.00000000000E+00 -0.20381345202E+04  0.20381345202E+04  0.25500000920E-02 0. -1.
    10030    2    1    2    0    0  0.00000000000E+00  0.00000000000E+00 -0.15961884655E+04  0.24800805749E+04  0.18981522701E+04 0.  0.
        2    1    3    3  502    0 -0.14226917663E+03 -0.49400758201E+03 -0.18404616109E+04  0.19109115497E+04  0.25500000920E-02 0. -1.
       -2    1    3    3    0  502  0.14226917663E+03  0.49400758201E+03  0.24427314533E+03  0.56916902520E+03  0.25500000920E-02 0.  1.
</event>
<event>
 5   0  0.5579109E-05  0.1911689E+04  0.7818609E-02  0.8649060E-01
        1   -1    0    0  501    0  0.00000000000E+00  0.00000000000E+00  0.11955207988E+04  0.11955207988E+04  0.50400001928E-02 0.  1.
       -1   -1    0    0    0  501  0.00000000000E+00  0.00000000000E+00 -0.76421782683E+03  0.76421782685E+03  0.50400001928E-02 0. -1.
    10030    2    1    2    0    0  0.00000000000E+00  0.00000000000E+00  0.43130297201E+03  0.19597386257E+04  0.19116885801E+04 0.  0.
        3    1    3    3  502    0 -0.72339801317E+02 -0.38698096285E+03  0.11085498340E+04  0.11763800649E+04  0.10100000352E+00 0.  1.
       -3    1    3    3    0  502  0.72339801317E+02  0.38698096285E+03 -0.67724686200E+03  0.78335856078E+03  0.10100000352E+00 0. -1.
</event>
<event>
 5   0  0.1118206E-04  0.1915135E+04  0.7818609E-02  0.8647359E-01
        2   -1    0    0  501    0  0.00000000000E+00  0.00000000000E+00  0.20942113361E+04  0.20942113361E+04  0.25500000920E-02 0. -1.
       -2   -1    0    0    0  501  0.00000000000E+00  0.00000000000E+00 -0.43784298416E+03  0.43784298417E+03  0.25500000920E-02 0.  1.
    10030    2    1    2    0    0  0.00000000000E+00  0.00000000000E+00  0.16563683519E+04  0.25320543203E+04  0.19151352337E+04 0.  0.
        1    1    3    3  502    0  0.26965588881E+03 -0.35420462538E+03 -0.29271275732E+03  0.53278135603E+03  0.50400001928E-02 0.  1.
       -1    1    3    3    0  502 -0.26965588881E+03  0.35420462538E+03  0.19490811093E+04  0.19992729642E+04  0.50400001928E-02 0. -1.
</event>
<event>
 5   0  0.1101678E-04  0.1904209E+04  0.7818609E-02  0.8652764E-01
        2   -1    0    0  501    0  0.00000000000E+00  0.00000000000E+00  0.85108356550E+03  0.85108356551E+03  0.25500000920E-02 0. -1.
       -2   -1    0    0    0  501  0.00000000000E+00  0.00000000000E+00 -0.10651160557E+04  0.10651160557E+04  0.25500000920E-02 0.  1.
    10030    2    1    2    0    0  0.00000000000E+00  0.00000000000E+00 -0.21403249021E+03  0.19161996212E+04  0.19042087810E+04 0.  0.
        4    1    3    3  502    0 -0.46760820391E+03  0.51180548109E+03 -0.76373502039E+03  0.10314528962E+04  0.12699999809E+01 0.  1.
       -4    1    3    3    0  502  0.46760820391E+03 -0.51180548109E+03  0.54970253018E+03  0.88474672501E+03  0.12699999809E+01 0. -1.
</event>
<event>
 5   0  0.5628936E-05  0.1903673E+04  0.7818609E-02  0.8653030E-01
        1   -1    0    0  501    0  0.00000000000E+00  0.00000000000E+00  0.21832088214E+04  0.21832088214E+04  0.50400001928E-02 0. -1.
       -1   -1    0    0    0  501  0.00000000000E+00  0.00000000000E+00 -0.41498220658E+03  0.41498220662E+03  0.50400001928E-02 0.  1.
    10030    2    1    2    0    0  0.00000000000E+00  0.00000000000E+00  0.17682266148E+04  0.25981910280E+04  0.19036730961E+04 0.  0.
        5    1    3    3  502    0  0.88879875315E+03  0.17575881695E+03  0.48592805233E+03  0.10281062919E+04  0.46999998093E+01 0.  1.
       -5    1    3    3    0  502 -0.88879875315E+03 -0.17575881695E+03  0.12822985625E+04  0.15700847361E+04  0.46999998093E+01 0. -1.
</event>
<event>
 5   0  0.1133638E-04  0.1903682E+04  0.7818609E-02  0.8653026E-01
       -2   -1    0    0    0  501  0.00000000000E+00  0.00000000000E+00  0.61270828104E+03  0.61270828104E+03  0.25500000920E-02 0.  1.
        2   -1    0    0  501    0  0.00000000000E+00  0.00000000000E+00 -0.14786821977E+04  0.14786821977E+04  0.25500000920E-02 0. -1.
    10030    2    1    2    0    0  0.00000000000E+00  0.00000000000E+00 -0.86597391663E+03  0.20913904787E+04  0.19036815149E+04 0.  0.
        3    1    3    3  502    0 -0.13364813089E+03  0.33112871231E+03  0.53633516628E+03  0.64433179946E+03  0.10100000352E+00 0. -1.
       -3    1    3    3    0  502  0.13364813089E+03 -0.33112871231E+03 -0.14023090829E+04  0.14470586793E+04  0.10100000352E+00 0.  1.
</event>
<event>
 5   0  0.1133638E-04  0.1895994E+04  0.7818609E-02  0.8656853E-01
       -2   -1    0    0    0  501  0.00000000000E+00  0.00000000000E+00  0.15201375941E+04  0.15201375941E+04  0.25500000920E-02 0.  1.
        2   -1    0    0  501    0  0.00000000000E+00  0.00000000000E+00 -0.59119552870E+03  0.59119552871E+03  0.25500000920E-02 0. -1.
    10030    2    1    2    0    0  0.00000000000E+00  0.00000000000E+00  0.92894206542E+03  0.21113331228E+04  0.18959942496E+04 0.  0.
        3    1    3    3  502    0  0.60408287448E+03 -0.43036872694E+03 -0.19297747584E+03  0.76640307721E+03  0.10100000352E+00 0. -1.
       -3    1    3    3    0  502 -0.60408287448E+03  0.43036872694E+03  0.11219195413E+04  0.13449300456E+04  0.10100000352E+00 0.  1.
</event>
<event>
 5   0  0.5824956E-05  0.1912604E+04  0.7818609E-02  0.8648608E-01
        1   -1    0    0  501    0  0.00000000000E+00  0.00000000000E+00  0.14127986635E+04  0.14127986635E+04  0.50400001928E-02 0. -1.
       -1   -1    0    0    0  501  0.00000000000E+00  0.00000000000E+00 -0.64730647837E+03  0.64730647839E+03  0.50400001928E-02 0.  1.
    10030    2    1    2    0    0  0.00000000000E+00  0.00000000000E+00  0.76549218509E+03  0.20601051419E+04  0.19126042220E+04 0.  0.
        2    1    3    3  502    0 -0.19407973885E+03  0.91776044842E+03  0.58299359717E+03  0.11044603751E+04  0.25500000920E-02 0.  1.
       -2    1    3    3    0  502  0.19407973885E+03 -0.91776044842E+03  0.18249858792E+03  0.95564476680E+03  0.25500000920E-02 0. -1.
</event>
<event>
 5   0  0.5628936E-05  0.1943131E+04  0.7818609E-02  0.8633680E-01
       -1   -1    0    0    0  501  0.00000000000E+00  0.00000000000E+00  0.48038519862E+03  0.48038519864E+03  0.50400001928E-02 0. -1.
        1   -1    0    0  501    0  0.00000000000E+00  0.00000000000E+00 -0.19649635270E+04  0.19649635270E+04  0.50400001928E-02 0.  1.
    10030    2    1    2    0    0  0.00000000000E+00  0.00000000000E+00 -0.14845783284E+04  0.24453487257E+04  0.19431308697E+04 0.  0.
        5    1    3    3  502    0  0.85073311767E+03  0.39004033992E+03 -0.41402935610E+03  0.10233868780E+04  0.46999998093E+01 0. -1.
       -5    1    3    3    0  502 -0.85073311767E+03 -0.39004033992E+03 -0.10705489723E+04  0.14219618477E+04  0.46999998093E+01 0.  1.
</event>
<event>
 5   0  0.5841424E-05  0.1901426E+04  0.7818609E-02  0.8654147E-01
       -1   -1    0    0    0  501  0.00000000000E+00  0.00000000000E+00  0.15634012918E+04  0.15634012918E+04  0.50400001928E-02 0. -1.
        1   -1    0    0  501    0  0.00000000000E+00  0.00000000000E+00 -0.57813405511E+03  0.57813405514E+03  0.50400001928E-02 0.  1.
    10030    2    1    2    0    0  0.00000000000E+00  0.00000000000E+00  0.98526723665E+03  0.21415353469E+04  0.19014263368E+04 0.  0.
        1    1    3    3  502    0 -0.40350193156E+03 -0.33898525948E+03 -0.39857267743E+03  0.66074578632E+03  0.50400001928E-02 0.  1.
       -1    1    3    3    0  502  0.40350193156E+03  0.33898525948E+03  0.13838399141E+04  0.14807895606E+04  0.50400001928E-02 0. -1.
</event>
<event>
 5   0  0.1182630E-04  0.1918052E+04  0.7818609E-02  0.8645923E-01
        2   -1    0    0  501    0  0.00000000000E+00  0.00000000000E+00  0.87450674224E+03  0.87450674225E+03  0.25500000920E-02 0. -1.
       -2   -1    0    0    0  501  0.00000000000E+00  0.00000000000E+00 -0.10517135646E+04  0.10517135646E+04  0.25500000920E-02 0.  1.
    10030    2    1    2    0    0  0.00000000000E+00  0.00000000000E+00 -0.17720682236E+03  0.19262203069E+04  0.19180517231E+04 0.  0.
        5    1    3    3  502    0  0.75184586699E+03  0.24103102292E+03 -0.63529329605E+03  0.10134040772E+04  0.46999998093E+01 0.  1.
       -5    1    3    3    0  502 -0.75184586699E+03 -0.24103102292E+03  0.45808647368E+03  0.91281622964E+03  0.46999998093E+01 0. -1.
</event>
<event>
 5   0  0.1133638E-04  0.1900566E+04  0.7818609E-02  0.8654574E-01
       -2   -1    0    0    0  501  0.00000000000E+00  0.00000000000E+00  0.75362565645E+03  0.75362565645E+03  0.25500000920E-02 0.  1.
        2   -1    0    0  501    0  0.00000000000E+00  0.00000000000E+00 -0.11982582852E+04  0.11982582852E+04  0.25500000920E-02 0. -1.
    10030    2    1    2    0    0  0.00000000000E+00  0.00000000000E+00 -0.44463262875E+03  0.19518839417E+04  0.19005664280E+04 0.  0.
        3    1    3    3  502    0  0.68415258868E+03 -0.74231506993E+02  0.45071281690E+03  0.82262818742E+03  0.10100000352E+00 0.  1.
       -3    1    3    3    0  502 -0.68415258868E+03  0.74231506993E+02 -0.89534544565E+03  0.11292557542E+04  0.10100000352E+00 0. -1.
</event>
<event>
 5   0  0.1101678E-04  0.1893834E+04  0.7818609E-02  0.8657932E-01
       -2   -1    0    0    0  501  0.00000000000E+00  0.00000000000E+00  0.94668742254E+03  0.94668742254E+03  0.25500000920E-02 0. -1.
        2   -1    0    0  501    0  0.00000000000E+00  0.00000000000E+00 -0.94714634335E+03  0.94714634335E+03  0.25500000920E-02 0.  1.
    10030    2    1    2    0    0  0.00000000000E+00  0.00000000000E+00 -0.45892080538E+00  0.18938337659E+04  0.18938337103E+04 0.  0.
        4    1    3    3  502    0  0.66072246749E+02  0.30772519098E+03  0.89284927607E+03  0.94670046880E+03  0.12699999809E+01 0. -1.
       -4    1    3    3    0  502 -0.66072246749E+02 -0.30772519098E+03 -0.89330819688E+03  0.94713329709E+03  0.12699999809E+01 0.  1.
</event>
<event>
 5   0  0.1133638E-04  0.1873946E+04  0.7818609E-02  0.8667935E-01
        2   -1    0    0  501    0  0.00000000000E+00  0.00000000000E+00  0.16896321138E+04  0.16896321138E+04  0.25500000920E-02 0. -1.
       -2   -1    0    0    0  501  0.00000000000E+00  0.00000000000E+00 -0.51959163249E+03  0.51959163250E+03  0.25500000920E-02 0.  1.
    10030    2    1    2    0    0  0.00000000000E+00  0.00000000000E+00  0.11700404813E+04  0.22092237463E+04  0.18739463261E+04 0.  0.
        3    1    3    3  502    0 -0.47699415809E+03  0.79739957537E+03  0.72722100791E+03  0.11799236900E+04  0.10100000352E+00 0.  1.
       -3    1    3    3    0  502  0.47699415809E+03 -0.79739957537E+03  0.44281947336E+03  0.10293000563E+04  0.10100000352E+00 0. -1.
</event>
<event>
 5   0  0.5628936E-05  0.1904018E+04  0.7818609E-02  0.8652859E-01
        1   -1    0    0  501    0  0.00000000000E+00  0.00000000000E+00  0.10856057867E+04  0.10856057867E+04  0.50400001928E-02 0. -1.
       -1   -1    0    0    0  501  0.00000000000E+00  0.00000000000E+00 -0.83485250865E+03  0.83485250867E+03  0.50400001928E-02 0.  1.
    10030    2    1    2    0    0  0.00000000000E+00  0.00000000000E+00  0.25075327807E+03  0.19204582954E+04  0.19040175571E+04 0.  0.
        5    1    3    3  502    0 -0.82013678077E+03 -0.17793175590E+03  0.57871793771E+03  0.10194216941E+04  0.46999998093E+01 0. -1.
       -5    1    3    3    0  502  0.82013678077E+03  0.17793175590E+03 -0.32796465964E+03  0.90103660132E+03  0.46999998093E+01 0.  1.
</event>
<event>
 5   0  0.5614989E-05  0.1889671E+04  0.7818609E-02  0.8660015E-01
        1   -1    0    0  501    0  0.00000000000E+00  0.00000000000E+00  0.18619282557E+04  0.18619282557E+04  0.50400001928E-02 0. -1.
       -1   -1    0    0    0  501  0.00000000000E+00  0.00000000000E+00 -0.47945654954E+03  0.47945654957E+03  0.50400001928E-02 0.  1.
    10030    2    1    2    0    0  0.00000000000E+00  0.00000000000E+00  0.13824717062E+04  0.23413848053E+04  0.18896705501E+04 0.  0.
        4    1    3    3  502    0 -0.57081275865E+03 -0.55869655235E+03  0.65864669808E+02  0.80144170759E+03  0.12699999809E+01 0.  1.
       -4    1    3    3    0  502  0.57081275865E+03  0.55869655235E+03  0.13166070364E+04  0.15399430977E+04  0.12699999809E+01 0. -1.
</event>
<event>
 5   0  0.5628936E-05  0.1900629E+04  0.7818609E-02  0.8654544E-01
       -1   -1    0    0    0  501  0.00000000000E+00  0.00000000000E+00  0.10467378649E+04  0.10467378649E+04  0.50400001928E-02 0. -1.
        1   -1    0    0  501    0  0.00000000000E+00  0.00000000000E+00 -0.86277304005E+03  0.86277304006E+03  0.50400001928E-02 0.  1.
    10030    2    1    2    0    0  0.00000000000E+00  0.00000000000E+00  0.18396482486E+03  0.19095109050E+04  0.19006285380E+04 0.  0.
        5    1    3    3  502    0  0.16693604919E+02  0.69514534383E+03  0.74275132362E+03  0.10174513965E+04  0.46999998093E+01 0. -1.
       -5    1    3    3    0  502 -0.16693604919E+02 -0.69514534383E+03 -0.55878649875E+03  0.89205950849E+03  0.46999998093E+01 0.  1.
</event>
<event>
 5   0  0.5614989E-05  0.1971938E+04  0.7818609E-02  0.8619854E-01
       -1   -1    0    0    0  501  0.00000000000E+00  0.00000000000E+00  0.70735504373E+03  0.70735504375E+03  0.50400001928E-02 0.  1.
        1   -1    0    0  501    0  0.00000000000E+00  0.00000000000E+00 -0.13743239212E+04  0.13743239212E+04  0.50400001928E-02 0. -1.
    10030    2    1    2    0    0  0.00000000000E+00  0.00000000000E+00 -0.66696887749E+03  0.20816789650E+04  0.19719380897E+04 0.  0.
        4    1    3    3  502    0 -0.23029336709E+03 -0.95854262591E+03 -0.31537320659E+03  0.10350366530E+04  0.12699999809E+01 0.  1.
       -4    1    3    3    0  502  0.23029336709E+03  0.95854262591E+03 -0.35159567090E+03  0.10466423120E+04  0.12699999809E+01 0. -1.
</event>
<event>
 5   0  0.1133638E-04  0.1898931E+04  0.7818609E-02  0.8655389E-01
       -2   -1    0    0    0  501  0.00000000000E+00  0.00000000000E+00  0.62917925336E+03  0.62917925336E+03  0.25500000920E-02 0. -1.
        2   -1    0    0  501    0  0.00000000000E+00  0.00000000000E+00 -0.14327945071E+04  0.14327945071E+04  0.25500000920E-02 0.  1.
    10030    2    1    2    0    0  0.00000000000E+00  0.00000000000E+00 -0.80361525375E+03  0.20619737605E+04  0.18989308341E+04 0.  0.
        3    1    3    3  502    0  0.52866348418E+03  0.43904422868E+03 -0.11132240814E+04  0.13082479810E+04  0.10100000352E+00 0.  1.
       -3    1    3    3    0  502 -0.52866348418E+03 -0.43904422868E+03  0.30960882765E+03  0.75372577945E+03  0.10100000352E+00 0. -1.
</event>
<event>
 5   0  0.5579109E-05  0.1899234E+04  0.7818609E-02  0.8655238E-01
        1   -1    0    0  501    0  0.00000000000E+00  0.00000000000E+00  0.77427679865E+03  0.77427679867E+03  0.50400001928E-02 0.  1.
       -1   -1    0    0    0  501  0.00000000000E+00  0.00000000000E+00 -0.11646646859E+04  0.11646646859E+04  0.50400001928E-02 0. -1.
    10030    2    1    2    0    0  0.00000000000E+00  0.00000000000E+00 -0.39038788720E+03  0.19389414845E+04  0.18992344189E+04 0.  0.
        3    1    3    3  502    0 -0.49609034033E+03  0.36818797916E+03  0.54106667262E+03  0.82123149488E+03  0.10100000352E+00 0.  1.
       -3    1    3    3    0  502  0.49609034033E+03 -0.36818797916E+03 -0.93145455981E+03  0.11177099897E+04  0.10100000352E+00 0. -1.
</event>
<event>
 5   0  0.4061125E-05  0.1893178E+04  0.7818609E-02  0.8658260E-01
       -4   -1    0    0    0  501  0.00000000000E+00  0.00000000000E+00  0.62647583736E+03  0.62647712463E+03  0.12699999809E+01 0.  1.
        4   -1    0    0  501    0  0.00000000000E+00  0.00000000000E+00 -0.14302680290E+04  0.14302685928E+04  0.12699999809E+01 0. -1.
    10030    2    1    2    0    0  0.00000000000E+00  0.00000000000E+00 -0.80379219163E+03  0.20567457175E+04  0.18931775033E+04 0.  0.
        2    1    3    3  502    0  0.40761205506E+03  0.61620472313E+03  0.24098621101E+03  0.77712946293E+03  0.25500000920E-02 0.  1.
       -2    1    3    3    0  502 -0.40761205506E+03 -0.61620472313E+03 -0.10447784026E+04  0.12796162545E+04  0.25500000920E-02 0. -1.
</event>
<event>
 5   0  0.1133638E-04  0.1928067E+04  0.7818609E-02  0.8641010E-01
        2   -1    0    0  501    0  0.00000000000E+00  0.00000000000E+00  0.84071625954E+03  0.84071625955E+03  0.25500000920E-02 0. -1.
       -2   -1    0    0    0  501  0.00000000000E+00  0.00000000000E+00 -0.11054393047E+04  0.11054393047E+04  0.25500000920E-02 0.  1.
    10030    2    1    2    0    0  0.00000000000E+00  0.00000000000E+00 -0.26472304512E+03  0.19461555642E+04  0.19280672160E+04 0.  0.
        3    1    3    3  502    0  0.15150434208E+03 -0.91791500001E+03  0.12267322336E+03  0.93838704320E+03  0.10100000352E+00 0. -1.
       -3    1    3    3    0  502 -0.15150434208E+03  0.91791500001E+03 -0.38739626848E+03  0.10077685210E+04  0.10100000352E+00 0.  1.
</event>
<event>
 5   0  0.5579109E-05  0.1818102E+04  0.7818609E-02  0.8696732E-01
       -1   -1    0    0    0  501  0.00000000000E+00  0.00000000000E+00  0.98198167585E+03  0.98198167587E+03  0.50400001928E-02 0.  1.
        1   -1    0    0  501    0  0.00000000000E+00  0.00000000000E+00 -0.84153692015E+03  0.84153692017E+03  0.50400001928E-02 0. -1.
    10030    2    1    2    0    0  0.00000000000E+00  0.00000000000E+00  0.14044475570E+03  0.18235185960E+04  0.18181021260E+04 0.  0.
        3    1    3    3  502    0 -0.81415100390E+03  0.24216568884E+03  0.39505100769E+03  0.93677712765E+03  0.10100000352E+00 0.  1.
       -3    1    3    3    0  502  0.81415100390E+03 -0.24216568884E+03 -0.25460625199E+03  0.88674146839E+03  0.10100000352E+00 0. -1.
</event>
<event>
 5   0  0.1101678E-04  0.1898557E+04  0.7818609E-02  0.8655575E-01
       -2   -1    0    0    0  501  0.00000000000E+00  0.00000000000E+00  0.92838495844E+03  0.92838495844E+03  0.25500000920E-02 0. -1.
        2   -1    0    0  501    0  0.00000000000E+00  0.00000000000E+00 -0.97064196910E+03  0.97064196910E+03  0.25500000920E-02 0.  1.
    10030    2    1    2    0    0  0.00000000000E+00  0.00000000000E+00 -0.42257010666E+02  0.18990269275E+04  0.18985567193E+04 0.  0.
        4    1    3    3  502    0 -0.63799067367E+03 -0.47187224606E+03 -0.54224916388E+03  0.96110940320E+03  0.12699999809E+01 0.  1.
       -4    1    3    3    0  502  0.63799067367E+03  0.47187224606E+03  0.49999215321E+03  0.93791752434E+03  0.12699999809E+01 0. -1.
</event>
<event>
 5   0  0.4061125E-05  0.1905474E+04  0.7818609E-02  0.8652136E-01
       -4   -1    0    0    0  501  0.00000000000E+00  0.00000000000E+00  0.12437186220E+04  0.12437192704E+04  0.12699999809E+01 0. -1.
        4   -1    0    0  501    0  0.00000000000E+00  0.00000000000E+00 -0.72983223916E+03  0.72983334414E+03  0.12699999809E+01 0.  1.
    10030    2    1    2    0    0  0.00000000000E+00  0.00000000000E+00  0.51388638283E+03  0.19735526145E+04  0.19054738801E+04 0.  0.
        1    1    3    3  502    0  0.90801615730E+03 -0.12690200007E+03  0.52525515157E+03  0.10566411093E+04  0.50400001928E-02 0.  1.
       -1    1    3    3    0  502 -0.90801615730E+03  0.12690200007E+03 -0.11368768745E+02  0.91691150526E+03  0.50400001928E-02 0. -1.
</event>
<event>
 5   0  0.5824956E-05  0.1893092E+04  0.7818609E-02  0.8658302E-01
       -1   -1    0    0    0  501  0.00000000000E+00  0.00000000000E+00  0.45809557414E+03  0.45809557417E+03  0.50400001928E-02 0. -1.
        1   -1    0    0  501    0  0.00000000000E+00  0.00000000000E+00 -0.19558139192E+04  0.19558139193E+04  0.50400001928E-02 0.  1.
    10030    2    1    2    0    0  0.00000000000E+00  0.00000000000E+00 -0.14977183451E+04  0.24139094934E+04  0.18930923911E+04 0.  0.
        2    1    3    3  502    0  0.22603015383E+03  0.76986256878E+03 -0.13891795775E+04  0.16042437171E+04  0.25500000920E-02 0.  1.
       -2    1    3    3    0  502 -0.22603015383E+03 -0.76986256878E+03 -0.10853876757E+03  0.80966577631E+03  0.25500000920E-02 0. -1.
</event>
<event>
 5   0  0.5614989E-05  0.1789668E+04  0.7818609E-02  0.8711813E-01
        1   -1    0    0  501    0  0.00000000000E+00  0.00000000000E+00  0.22110535350E+04  0.22110535350E+04  0.50400001928E-02 0.  1.
       -1   -1    0    0    0  501  0.00000000000E+00  0.00000000000E+00 -0.36214781717E+03  0.36214781720E+03  0.50400001928E-02 0. -1.
    10030    2    1    2    0    0  0.00000000000E+00  0.00000000000E+00  0.18489057178E+04  0.25732013522E+04  0.17896683619E+04 0.  0.
        4    1    3    3  502    0  0.45529532112E+03 -0.55799986301E+03  0.16083015961E+03  0.73791979896E+03  0.12699999809E+01 0.  1.
       -4    1    3    3    0  502 -0.45529532112E+03  0.55799986301E+03  0.16880755582E+04  0.18352815533E+04  0.12699999809E+01 0. -1.
</event>
<event>
 5   0  0.5579109E-05  0.1871038E+04  0.7818609E-02  0.8669408E-01
        1   -1    0    0  501    0  0.00000000000E+00  0.00000000000E+00  0.14398281398E+04  0.14398281398E+04  0.50400001928E-02 0.  1.
       -1   -1    0    0    0  501  0.00000000000E+00  0.00000000000E+00 -0.60784756290E+03  0.60784756292E+03  0.50400001928E-02 0. -1.
    10030    2    1    2    0    0  0.00000000000E+00  0.00000000000E+00  0.83198057693E+03  0.20476757028E+04  0.18710382421E+04 0.  0.
        3    1    3    3  502    0 -0.80661649923E+03  0.34087991359E+03  0.77625894815E+03  0.11702167565E+04  0.10100000352E+00 0.  1.
       -3    1    3    3    0  502  0.80661649923E+03 -0.34087991359E+03  0.55721628785E+02  0.87745894630E+03  0.10100000352E+00 0. -1.
</event>
<event>
 5   0  0.5628936E-05  0.1888921E+04  0.7818609E-02  0.8660391E-01
       -1   -1    0    0    0  501  0.00000000000E+00  0.00000000000E+00  0.10387780987E+04  0.10387780987E+04  0.50400001928E-02 0.  1.
        1   -1    0    0  501    0  0.00000000000E+00  0.00000000000E+00 -0.85870702034E+03  0.85870702035E+03  0.50400001928E-02 0. -1.
    10030    2    1    2    0    0  0.00000000000E+00  0.00000000000E+00  0.18007107836E+03  0.18974851191E+04  0.18889214340E+04 0.  0.
        5    1    3    3  502    0  0.96758295346E+02  0.86391743350E+03  0.46085468747E+03  0.98393324600E+03  0.46999998093E+01 0. -1.
       -5    1    3    3    0  502 -0.96758295346E+02 -0.86391743350E+03 -0.28078360912E+03  0.91355187306E+03  0.46999998093E+01 0.  1.
</event>
<event>
 5   0  0.1133638E-04  0.1904644E+04  0.7818609E-02  0.8652548E-01
        2   -1    0    0  501    0  0.00000000000E+00  0.00000000000E+00  0.89368743070E+03  0.89368743070E+03  0.25500000920E-02 0.  1.
       -2   -1    0    0    0  501  0.00000000000E+00  0.00000000000E+00 -0.10148037310E+04  0.10148037310E+04  0.25500000920E-02 0. -1.
    10030    2    1    2    0    0  0.00000000000E+00  0.00000000000E+00 -0.12111630032E+03  0.19084911617E+04  0.19046441547E+04 0.  0.
        3    1    3    3  502    0  0.52615545250E+03  0.69864129673E+03  0.31700273517E+03  0.93028488432E+03  0.10100000352E+00 0. -1.
       -3    1    3    3    0  502 -0.52615545250E+03 -0.69864129673E+03 -0.43811903550E+03  0.97820627740E+03  0.10100000352E+00 0.  1.
</event>
<event>
 5   0  0.5841424E-05  0.1901012E+04  0.7818609E-02  0.8654353E-01
       -1   -1    0    0    0  501  0.00000000000E+00  0.00000000000E+00  0.62497747692E+03  0.62497747694E+03  0.50400001928E-02 0.  1.
        1   -1    0    0  501    0  0.00000000000E+00  0.00000000000E+00 -0.14455913812E+04  0.14455913812E+04  0.50400001928E-02 0. -1.
    10030    2    1    2    0    0  0.00000000000E+00  0.00000000000E+00 -0.82061390431E+03  0.20705688582E+04  0.19010124188E+04 0.  0.
        1    1    3    3  502    0 -0.89425728831E+03  0.30489825150E+03 -0.29709893959E+03  0.99041749853E+03  0.50400001928E-02 0. -1.
       -1    1    3    3    0  502  0.89425728831E+03 -0.30489825150E+03 -0.52351496472E+03  0.10801513597E+04  0.50400001928E-02 0.  1.
</event>
<event>
 5   0  0.1118206E-04  0.1914184E+04  0.7818609E-02  0.8647828E-01
        2   -1    0    0  501    0  0.00000000000E+00  0.00000000000E+00  0.12134193739E+04  0.12134193739E+04  0.25500000920E-02 0. -1.
       -2   -1    0    0    0  501  0.00000000000E+00  0.00000000000E+00 -0.75491193671E+03  0.75491193671E+03  0.25500000920E-02 0.  1.
    10030    2    1    2    0    0  0.00000000000E+00  0.00000000000E+00  0.45850743715E+03  0.19683313106E+04  0.19141836584E+04 0.  0.
        1    1    3    3  502    0  0.21053088905E+03 -0.55941480229E+03  0.99789893196E+03  0.11632155667E+04  0.50400001928E-02 0. -1.
       -1    1    3    3    0  502 -0.21053088905E+03  0.55941480229E+03 -0.53939149481E+03  0.80511574383E+03  0.50400001928E-02 0.  1.
</event>
<event>
 5   0  0.5579109E-05  0.1898084E+04  0.7818609E-02  0.8655811E-01
        1   -1    0    0  501    0  0.00000000000E+00  0.00000000000E+00  0.16411720362E+04  0.16411720362E+04  0.50400001928E-02 0. -1.
       -1   -1    0    0    0  501  0.00000000000E+00  0.00000000000E+00 -0.54880351599E+03  0.54880351601E+03  0.50400001928E-02 0.  1.
    10030    2    1    2    0    0  0.00000000000E+00  0.00000000000E+00  0.10923685202E+04  0.21899755522E+04  0.18980842804E+04 0.  0.
        3    1    3    3  502    0 -0.76757569619E+03  0.33404940451E+03  0.30301073320E+02  0.83766318964E+03  0.10100000352E+00 0.  1.
       -3    1    3    3    0  502  0.76757569619E+03 -0.33404940451E+03  0.10620674469E+04  0.13523123626E+04  0.10100000352E+00 0. -1.
</event>
<event>
 5   0  0.5824956E-05  0.1886219E+04  0.7818609E-02  0.8661746E-01
       -1   -1    0    0    0  501  0.00000000000E+00  0.00000000000E+00  0.90722614653E+03  0.90722614654E+03  0.50400001928E-02 0. -1.
        1   -1    0    0  501    0  0.00000000000E+00  0.00000000000E+00 -0.98041242427E+03  0.98041242428E+03  0.50400001928E-02 0.  1.
    10030    2    1    2    0    0  0.00000000000E+00  0.00000000000E+00 -0.73186277736E+02  0.18876385708E+04  0.18862192722E+04 0.  0.
        2    1    3    3  502    0  0.89779704472E+03 -0.28878336681E+03 -0.41115303366E+02  0.94399461579E+03  0.25500000920E-02 0. -1.
       -2    1    3    3    0  502 -0.89779704472E+03  0.28878336681E+03 -0.32070974370E+02  0.94364395503E+03  0.25500000920E-02 0.  1.
</event>
<event>
 5   0  0.4061125E-05  0.1914907E+04  0.7818609E-02  0.8647471E-01
        3   -1    0    0  501    0  0.00000000000E+00  0.00000000000E+00  0.70255599609E+03  0.70255600335E+03  0.10100000352E+00 0.  1.
       -3   -1    0    0    0  501  0.00000000000E+00  0.00000000000E+00 -0.13048320144E+04  0.13048320183E+04  0.10100000352E+00 0. -1.
    10030    2    1    2    0    0  0.00000000000E+00  0.00000000000E+00 -0.60227601832E+03  0.20073880217E+04  0.19149073783E+04 0.  0.
        2    1    3    3  502    0 -0.39144650279E+03 -0.12637538702E+03  0.60520781254E+03  0.73176334929E+03  0.25500000920E-02 0.  1.
       -2    1    3    3    0  502  0.39144650279E+03  0.12637538702E+03 -0.12074838309E+04  0.12756246724E+04  0.25500000920E-02 0. -1.
</event>
<event>
 5   0  0.1182630E-04  0.1965791E+04  0.7818609E-02  0.8622784E-01
       -2   -1    0    0    0  501  0.00000000000E+00  0.00000000000E+00  0.72315638759E+03  0.72315638759E+03  0.25500000920E-02 0.  1.
        2   -1    0    0  501    0  0.00000000000E+00  0.00000000000E+00 -0.13359259118E+04  0.13359259118E+04  0.25500000920E-02 0. -1.
    10030    2    1    2    0    0  0.00000000000E+00  0.00000000000E+00 -0.61276952417E+03  0.20590822993E+04  0.19657907889E+04 0.  0.
        5    1    3    3  502    0  0.32460141949E+03  0.78361854010E+03 -0.82657916187E+03  0.11843476258E+04  0.46999998093E+01 0. -1.
       -5    1    3    3    0  502 -0.32460141949E+03 -0.78361854010E+03  0.21380963770E+03  0.87473467354E+03  0.46999998093E+01 0.  1.
</event>
<event>
 5   0  0.1182630E-04  0.1901433E+04  0.7818609E-02  0.8654143E-01
        2   -1    0    0  501    0  0.00000000000E+00  0.00000000000E+00  0.86727576719E+03  0.86727576719E+03  0.25500000920E-02 0.  1.
       -2   -1    0    0    0  501  0.00000000000E+00  0.00000000000E+00 -0.10421853903E+04  0.10421853903E+04  0.25500000920E-02 0. -1.
    10030    2    1    2    0    0  0.00000000000E+00  0.00000000000E+00 -0.17490962307E+03  0.19094611575E+04  0.19014332846E+04 0.  0.
        5    1    3    3  502    0 -0.94769091176E+03 -0.43002451850E+02 -0.24960495135E+02  0.94900600178E+03  0.46999998093E+01 0.  1.
       -5    1    3    3    0  502  0.94769091176E+03  0.43002451850E+02 -0.14994912794E+03  0.96045515568E+03  0.46999998093E+01 0. -1.
</event>
<event>
 5   0  0.1182630E-04  0.1915874E+04  0.7818609E-02  0.8646995E-01
        2   -1    0    0  501    0  0.00000000000E+00  0.00000000000E+00  0.15022871948E+04  0.15022871948E+04  0.25500000920E-02 0.  1.
       -2   -1    0    0    0  501  0.00000000000E+00  0.00000000000E+00 -0.61083078775E+03  0.61083078776E+03  0.25500000920E-02 0. -1.
    10030    2    1    2    0    0  0.00000000000E+00  0.00000000000E+00  0.89145640708E+03  0.21131179826E+04  0.19158739736E+04 0.  0.
        5    1    3    3  502    0  0.90363857693E+03 -0.20693858053E+03  0.71189175035E+03  0.11688448178E+04  0.46999998093E+01 0.  1.
       -5    1    3    3    0  502 -0.90363857693E+03  0.20693858053E+03  0.17956465672E+03  0.94427316481E+03  0.46999998093E+01 0. -1.
</event>
<event>
 5   0  0.5614989E-05  0.1896465E+04  0.7818609E-02  0.8656618E-01
       -1   -1    0    0    0  501  0.00000000000E+00  0.00000000000E+00  0.54773407129E+03  0.54773407131E+03  0.50400001928E-02 0.  1.
        1   -1    0    0  501    0  0.00000000000E+00  0.00000000000E+00 -0.16415726171E+04  0.16415726171E+04  0.50400001928E-02 0. -1.
    10030    2    1    2    0    0  0.00000000000E+00  0.00000000000E+00 -0.10938385458E+04  0.21893066884E+04  0.18964653995E+04 0.  0.
        4    1    3    3  502    0 -0.27198761796E+03 -0.53767151205E+03  0.29831042782E+03  0.67235306458E+03  0.12699999809E+01 0.  1.
       -4    1    3    3    0  502  0.27198761796E+03  0.53767151205E+03 -0.13921489736E+04  0.15169536238E+04  0.12699999809E+01 0. -1.
</event>
<event>
 5   0  0.1141890E-04  0.1903714E+04  0.7818609E-02  0.8653010E-01
       -2   -1    0    0    0  501  0.00000000000E+00  0.00000000000E+00  0.50655064172E+03  0.50655064172E+03  0.25500000920E-02 0.  1.
        2   -1    0    0  501    0  0.00000000000E+00  0.00000000000E+00 -0.17886303115E+04  0.17886303115E+04  0.25500000920E-02 0. -1.
    10030    2    1    2    0    0  0.00000000000E+00  0.00000000000E+00 -0.12820796698E+04  0.22951809533E+04  0.19037140879E+04 0.  0.
        2    1    3    3  502    0 -0.23428399991E+03 -0.92245357471E+03 -0.62306651619E+03  0.11375506467E+04  0.25500000920E-02 0. -1.
       -2    1    3    3    0  502  0.23428399991E+03  0.92245357471E+03 -0.65901315363E+03  0.11576303066E+04  0.25500000920E-02 0.  1.
</event>
<event>
 5   0  0.1133638E-04  0.1895974E+04  0.7818609E-02  0.8656863E-01
        2   -1    0    0  501    0  0.00000000000E+00  0.00000000000E+00  0.18671276699E+04  0.18671276699E+04  0.25500000920E-02 0. -1.
       -2   -1    0    0    0  501  0.00000000000E+00  0.00000000000E+00 -0.48131671232E+03  0.48131671232E+03  0.25500000920E-02 0.  1.
    10030    2    1    2    0    0  0.00000000000E+00  0.00000000000E+00  0.13858109576E+04  0.23484443822E+04  0.18959744213E+04 0.  0.
        3    1    3    3  502    0 -0.60901703955E+03  0.19161775419E+03 -0.17508579819E+03  0.66202278293E+03  0.10100000352E+00 0.  1.
       -3    1    3    3    0  502  0.60901703955E+03 -0.19161775419E+03  0.15608967557E+04  0.16864215993E+04  0.10100000352E+00 0. -1.
</event>
<event>
 5   0  0.5579109E-05  0.1910321E+04  0.7818609E-02  0.8649736E-01
       -1   -1    0    0    0  501  0.00000000000E+00  0.00000000000E+00  0.17296621650E+04  0.17296621650E+04  0.50400001928E-02 0.  1.
        1   -1    0    0  501    0  0.00000000000E+00  0.00000000000E+00 -0.52746229697E+03  0.52746229700E+03  0.50400001928E-02 0. -1.
    10030    2    1    2    0    0  0.00000000000E+00  0.00000000000E+00  0.12021998680E+04  0.22571244620E+04  0.19103209977E+04 0.  0.
        3    1    3    3  502    0 -0.48031261735E+03 -0.45610397323E+03 -0.21202119260E+03  0.69547396867E+03  0.10100000352E+00 0. -1.
       -3    1    3    3    0  502  0.48031261735E+03  0.45610397323E+03  0.14142210606E+04  0.15616504933E+04  0.10100000352E+00 0.  1.
</event>
<event>
 5   0  0.1133638E-04  0.1921402E+04  0.7818609E-02  0.8644276E-01
       -2   -1    0    0    0  501  0.00000000000E+00  0.00000000000E+00  0.65037463873E+03  0.65037463874E+03  0.25500000920E-02 0. -1.
        2   -1    0    0  501    0  0.00000000000E+00  0.00000000000E+00 -0.14190990534E+04  0.14190990534E+04  0.25500000920E-02 0.  1.
    10030    2    1    2    0    0  0.00000000000E+00  0.00000000000E+00 -0.76872441464E+03  0.20694736921E+04  0.19214016073E+04 0.  0.
        3    1    3    3  502    0  0.33026173355E+03 -0.42491828495E+02  0.58623238379E+03  0.67420085000E+03  0.10100000352E+00 0. -1.
       -3    1    3    3    0  502 -0.33026173355E+03  0.42491828495E+02 -0.13549567984E+04  0.13952728421E+04  0.10100000352E+00 0.  1.
</event>
<event>
 5   0  0.5841424E-05  0.1895624E+04  0.7818609E-02  0.8657038E-01
        1   -1    0    0  501    0  0.00000000000E+00  0.00000000000E+00  0.97353890991E+03  0.97353890993E+03  0.50400001928E-02 0. -1.
       -1   -1    0    0    0  501  0.00000000000E+00  0.00000000000E+00 -0.92276511408E+03  0.92276511410E+03  0.50400001928E-02 0.  1.
    10030    2    1    2    0    0  0.00000000000E+00  0.00000000000E+00  0.50773795831E+02  0.18963040240E+04  0.18956241645E+04 0.  0.
        1    1    3    3  502    0 -0.26125192470E+03 -0.68466696718E+03  0.62670673185E+03  0.96425243161E+03  0.50400001928E-02 0. -1.
       -1    1    3    3    0  502  0.26125192470E+03  0.68466696718E+03 -0.57593293601E+03  0.93205159241E+03  0.50400001928E-02 0.  1.
</event>
<event>
 5   0  0.1182630E-04  0.1894323E+04  0.7818609E-02  0.8657687E-01
        2   -1    0    0  501    0  0.00000000000E+00  0.00000000000E+00  0.16308014107E+04  0.16308014107E+04  0.25500000920E-02 0. -1.
       -2   -1    0    0    0  501  0.00000000000E+00  0.00000000000E+00 -0.55010668993E+03  0.55010668994E+03  0.25500000920E-02 0.  1.
    10030    2    1    2    0    0  0.00000000000E+00  0.00000000000E+00  0.10806947208E+04  0.21809081006E+04  0.18943228510E+04 0.  0.
        5    1    3    3  502    0  0.10076006853E+03 -0.62250771153E+03  0.13539609116E+04  0.14936199927E+04  0.46999998093E+01 0. -1.
       -5    1    3    3    0  502 -0.10076006853E+03  0.62250771153E+03 -0.27326619083E+03  0.68728810798E+03  0.46999998093E+01 0.  1.
</event>
<event>
 5   0  0.5579109E-05  0.1904417E+04  0.7818609E-02  0.8652661E-01
       -1   -1    0    0    0  501  0.00000000000E+00  0.00000000000E+00  0.91021123466E+03  0.91021123468E+03  0.50400001928E-02 0. -1.
        1   -1    0    0  501    0  0.00000000000E+00  0.00000000000E+00 -0.99614332967E+03  0.99614332969E+03  0.50400001928E-02 0.  1.
    10030    2    1    2    0    0  0.00000000000E+00  0.00000000000E+00 -0.85932095008E+02  0.19063545644E+04  0.19044168137E+04 0.  0.
        3    1    3    3  502    0  0.78953247956E+03  0.22180706427E+03 -0.52733950943E+03  0.97501121965E+03  0.10100000352E+00 0.  1.
       -3    1    3    3    0  502 -0.78953247956E+03 -0.22180706427E+03  0.44140741442E+03  0.93134334471E+03  0.10100000352E+00 0. -1.
</event>
<event>
 5   0  0.1141890E-04  0.1900457E+04  0.7818609E-02  0.8654629E-01
        2   -1    0    0  501    0  0.00000000000E+00  0.00000000000E+00  0.91513846026E+03  0.91513846026E+03  0.25500000920E-02 0.  1.
       -2   -1    0    0    0  501  0.00000000000E+00  0.00000000000E+00 -0.98666366609E+03  0.98666366609E+03  0.25500000920E-02 0. -1.
    10030    2    1    2    0    0  0.00000000000E+00  0.00000000000E+00 -0.71525205824E+02  0.19018021264E+04  0.19004566485E+04 0.  0.
        2    1    3    3  502    0  0.38056512721E+03  0.34773992474E+03 -0.83456391367E+03  0.98094332014E+03  0.25500000920E-02 0. -1.
       -2    1    3    3    0  502 -0.38056512721E+03 -0.34773992474E+03  0.76303870785E+03  0.92085880622E+03  0.25500000920E-02 0.  1.
</event>
<event>
 5   0  0.5628936E-05  0.1922467E+04  0.7818609E-02  0.8643753E-01
        1   -1    0    0  501    0  0.00000000000E+00  0.00000000000E+00  0.11957185030E+04  0.11957185030E+04  0.50400001928E-02 0.  1.
       -1   -1    0    0    0  501  0.00000000000E+00  0.00000000000E+00 -0.77273196846E+03  0.77273196848E+03  0.50400001928E-02 0. -1.
    10030    2    1    2    0    0  0.00000000000E+00  0.00000000000E+00  0.42298653452E+03  0.19684504715E+04  0.19224670739E+04 0.  0.
        5    1    3    3  502    0  0.67170884471E+02 -0.72623073472E+03  0.85258822432E+03  0.11219856407E+04  0.46999998093E+01 0.  1.
       -5    1    3    3    0  502 -0.67170884471E+02  0.72623073472E+03 -0.42960168980E+03  0.84646483073E+03  0.46999998093E+01 0. -1.
</event>
<event>
 5   0  0.5824956E-05  0.1905212E+04  0.7818609E-02  0.8652266E-01
       -1   -1    0    0    0  501  0.00000000000E+00  0.00000000000E+00  0.14517951795E+04  0.14517951795E+04  0.50400001928E-02 0.  1.
        1   -1    0    0  501    0  0.00000000000E+00  0.00000000000E+00 -0.62505924830E+03  0.62505924832E+03  0.50400001928E-02 0. -1.
    10030    2    1    2    0    0  0.00000000000E+00  0.00000000000E+00  0.82673593118E+03  0.20768544278E+04  0.19052118030E+04 0.  0.
        2    1    3    3  502    0  0.63256751785E+02  0.11797445192E+03 -0.61475532219E+03  0.62916094453E+03  0.25500000920E-02 0. -1.
       -2    1    3    3    0  502 -0.63256751785E+02 -0.11797445192E+03  0.14414912534E+04  0.14476934833E+04  0.25500000920E-02 0.  1.
</event>
<event>
 5   0  0.4061125E-05  0.1890088E+04  0.7818609E-02  0.8659806E-01
       -3   -1    0    0    0  501  0.00000000000E+00  0.00000000000E+00  0.14488047623E+04  0.14488047659E+04  0.10100000352E+00 0. -1.
        3   -1    0    0  501    0  0.00000000000E+00  0.00000000000E+00 -0.61644464352E+03  0.61644465180E+03  0.10100000352E+00 0.  1.
    10030    2    1    2    0    0  0.00000000000E+00  0.00000000000E+00  0.83236011883E+03  0.20652494177E+04  0.18900877730E+04 0.  0.
        4    1    3    3  502    0  0.45519531542E+03 -0.79003694804E+03  0.14466616030E+03  0.92319611421E+03  0.12699999809E+01 0.  1.
       -4    1    3    3    0  502 -0.45519531542E+03  0.79003694804E+03  0.68769395852E+03  0.11420533035E+04  0.12699999809E+01 0. -1.
</event>
<event>
 5   0  0.1182630E-04  0.1896838E+04  0.7818609E-02  0.8656432E-01
        2   -1    0    0  501    0  0.00000000000E+00  0.00000000000E+00  0.93798838954E+03  0.93798838955E+03  0.25500000920E-02 0. -1.
       -2   -1    0    0    0  501  0.00000000000E+00  0.00000000000E+00 -0.95896531225E+03  0.95896531225E+03  0.25500000920E-02 0.  1.
    10030    2    1    2    0    0  0.00000000000E+00  0.00000000000E+00 -0.20976922708E+02  0.18969537018E+04  0.18968377146E+04 0.  0.
        5    1    3    3  502    0  0.72329085848E+03  0.41819005475E+03 -0.45934065017E+03  0.95344035510E+03  0.46999998093E+01 0.  1.
       -5    1    3    3    0  502 -0.72329085848E+03 -0.41819005475E+03  0.43836372746E+03  0.94351334670E+03  0.46999998093E+01 0. -1.
</event>
<event>
 5   0  0.4061125E-05  0.1909508E+04  0.7818609E-02  0.8650138E-01
        3   -1    0    0  501    0  0.00000000000E+00  0.00000000000E+00  0.91361573825E+03  0.91361574383E+03  0.10100000352E+00 0. -1.
       -3   -1    0    0    0  501  0.00000000000E+00  0.00000000000E+00 -0.99774450687E+03  0.99774451198E+03  0.10100000352E+00 0.  1.
    10030    2    1    2    0    0  0.00000000000E+00  0.00000000000E+00 -0.84128768615E+02  0.19113602558E+04  0.19095078889E+04 0.  0.
        2    1    3    3  502    0 -0.14083804121E+03  0.20496431239E+03  0.88062664492E+03  0.91506776304E+03  0.25500000920E-02 0. -1.
       -2    1    3    3    0  502  0.14083804121E+03 -0.20496431239E+03 -0.96475541354E+03  0.99629249277E+03  0.25500000920E-02 0.  1.
</event>
<event>
 5   0  0.1118206E-04  0.1877633E+04  0.7818609E-02  0.8666071E-01
       -2   -1    0    0    0  501  0.00000000000E+00  0.00000000000E+00  0.50712664231E+03  0.50712664232E+03  0.25500000920E-02 0.  1.
        2   -1    0    0  501    0  0.00000000000E+00  0.00000000000E+00 -0.17379809282E+04  0.17379809282E+04  0.25500000920E-02 0. -1.
    10030    2    1    2    0    0  0.00000000000E+00  0.00000000000E+00 -0.12308542859E+04  0.22451075706E+04  0.18776330127E+04 0.  0.
        1    1    3    3  502    0  0.58617993156E+03 -0.67671029055E+03 -0.27758263845E+03  0.93733443909E+03  0.50400001928E-02 0. -1.
       -1    1    3    3    0  502 -0.58617993156E+03  0.67671029055E+03 -0.95327164747E+03  0.13077731315E+04  0.50400001928E-02 0.  1.
</event>
<event>
 5   0  0.1182630E-04  0.1904989E+04  0.7818609E-02  0.8652377E-01
       -2   -1    0    0    0  501  0.00000000000E+00  0.00000000000E+00  0.12594473961E+04  0.12594473961E+04  0.25500000920E-02 0.  1.
        2   -1    0    0  501    0  0.00000000000E+00  0.00000000000E+00 -0.72035240914E+03  0.72035240914E+03  0.25500000920E-02 0. -1.
    10030    2    1    2    0    0  0.00000000000E+00  0.00000000000E+00  0.53909498701E+03  0.19797998053E+04  0.19049892031E+04 0.  0.
        5    1    3    3  502    0 -0.78062003222E+03 -0.52525983509E+03  0.42355028037E+03  0.10318345115E+04  0.46999998093E+01 0.  1.
       -5    1    3    3    0  502  0.78062003222E+03  0.52525983509E+03  0.11554470664E+03  0.94796529382E+03  0.46999998093E+01 0. -1.
</event>
<event>
 5   0  0.1182630E-04  0.1908115E+04  0.7818609E-02  0.8650827E-01
        2   -1    0    0  501    0  0.00000000000E+00  0.00000000000E+00  0.52786162884E+03  0.52786162884E+03  0.25500000920E-02 0. -1.
       -2   -1    0    0    0  501  0.00000000000E+00  0.00000000000E+00 -0.17243648805E+04  0.17243648805E+04  0.25500000920E-02 0.  1.
    10030    2    1    2    0    0  0.00000000000E+00  0.00000000000E+00 -0.11965032517E+04  0.22522265094E+04  0.19081153577E+04 0.  0.
        5    1    3    3  502    0 -0.18370724069E+03 -0.89693076159E+03 -0.28159711874E+03  0.95788943447E+03  0.46999998093E+01 0. -1.
       -5    1    3    3    0  502  0.18370724069E+03  0.89693076159E+03 -0.91490613294E+03  0.12943370749E+04  0.46999998093E+01 0.  1.
</event>
<event>
 5   0  0.5628936E-05  0.1775558E+04  0.7818609E-02  0.8719406E-01
       -1   -1    0    0    0  501  0.00000000000E+00  0.00000000000E+00  0.96524161489E+03  0.96524161490E+03  0.50400001928E-02 0.  1.
        1   -1    0    0  501    0  0.00000000000E+00  0.00000000000E+00 -0.81653310179E+03  0.81653310181E+03  0.50400001928E-02 0. -1.
    10030    2    1    2    0    0  0.00000000000E+00  0.00000000000E+00  0.14870851309E+03  0.17817747167E+04  0.17755581993E+04 0.  0.
        5    1    3    3  502    0  0.26411664255E+03 -0.13600287157E+03  0.91386875357E+03  0.96095398990E+03  0.46999998093E+01 0.  1.
       -5    1    3    3    0  502 -0.26411664255E+03  0.13600287157E+03 -0.76516024048E+03  0.82082072681E+03  0.46999998093E+01 0. -1.
</event>
<event>
 5   0  0.4061125E-05  0.1899373E+04  0.7818609E-02  0.8655168E-01
        3   -1    0    0  501    0  0.00000000000E+00  0.00000000000E+00  0.53928598358E+03  0.53928599304E+03  0.10100000352E+00 0. -1.
       -3   -1    0    0    0  501  0.00000000000E+00  0.00000000000E+00 -0.16724055604E+04  0.16724055635E+04  0.10100000352E+00 0.  1.
    10030    2    1    2    0    0  0.00000000000E+00  0.00000000000E+00 -0.11331195768E+04  0.22116915565E+04  0.18993734666E+04 0.  0.
        2    1    3    3  502    0  0.62505973174E+03  0.26064324388E+03 -0.13418218309E+04  0.15030370570E+04  0.25500000920E-02 0.  1.
       -2    1    3    3    0  502 -0.62505973174E+03 -0.26064324388E+03  0.20870225406E+03  0.70865449951E+03  0.25500000920E-02 0. -1.
</event>
<event>
 5   0  0.1182630E-04  0.1923462E+04  0.7818609E-02  0.8643265E-01
       -2   -1    0    0    0  501  0.00000000000E+00  0.00000000000E+00  0.10727531403E+04  0.10727531403E+04  0.25500000920E-02 0. -1.
        2   -1    0    0  501    0  0.00000000000E+00  0.00000000000E+00 -0.86219894888E+03  0.86219894889E+03  0.25500000920E-02 0.  1.
    10030    2    1    2    0    0  0.00000000000E+00  0.00000000000E+00  0.21055419142E+03  0.19349520892E+04  0.19234621181E+04 0.  0.
        5    1    3    3  502    0 -0.91051408191E+03 -0.29512956705E+03  0.19946967101E+03  0.97772572553E+03  0.46999998093E+01 0. -1.
       -5    1    3    3    0  502  0.91051408191E+03  0.29512956705E+03  0.11084520410E+02  0.95722636367E+03  0.46999998093E+01 0.  1.
</event>
<event>
 5   0  0.5614989E-05  0.1903381E+04  0.7818609E-02  0.8653176E-01
        1   -1    0    0  501    0  0.00000000000E+00  0.00000000000E+00  0.13052342413E+04  0.13052342413E+04  0.50400001928E-02 0. -1.
       -1   -1    0    0    0  501  0.00000000000E+00  0.00000000000E+00 -0.69390942246E+03  0.69390942248E+03  0.50400001928E-02 0.  1.
    10030    2    1    2    0    0  0.00000000000E+00  0.00000000000E+00  0.61132481882E+03  0.19991436638E+04  0.19033805070E+04 0.  0.
        4    1    3    3  502    0 -0.11616690203E+03 -0.90968037105E+03  0.57282102374E+03  0.10812671570E+04  0.12699999809E+01 0. -1.
       -4    1    3    3    0  502  0.11616690203E+03  0.90968037105E+03  0.38503795075E+02  0.91787650680E+03  0.12699999809E+01 0.  1.
</event>
<event>
 5   0  0.1118206E-04  0.1914530E+04  0.7818609E-02  0.8647657E-01
        2   -1    0    0  501    0  0.00000000000E+00  0.00000000000E+00  0.11696311144E+04  0.11696311144E+04  0.25500000920E-02 0.  1.
       -2   -1    0    0    0  501  0.00000000000E+00  0.00000000000E+00 -0.78345752735E+03  0.78345752736E+03  0.25500000920E-02 0. -1.
    10030    2    1    2    0    0  0.00000000000E+00  0.00000000000E+00  0.38617358709E+03  0.19530886418E+04  0.19145300215E+04 0.  0.
        1    1    3    3  502    0 -0.75545151715E+03 -0.53235741717E+03  0.44760075634E+03  0.10268679815E+04  0.50400001928E-02 0.  1.
       -1    1    3    3    0  502  0.75545151715E+03  0.53235741717E+03 -0.61427169247E+02  0.92622066028E+03  0.50400001928E-02 0. -1.
</event>
<event>
 5   0  0.5628936E-05  0.1899158E+04  0.7818609E-02  0.8655276E-01
        1   -1    0    0  501    0  0.00000000000E+00  0.00000000000E+00  0.20468368238E+04  0.20468368238E+04  0.50400001928E-02 0.  1.
       -1   -1    0    0    0  501  0.00000000000E+00  0.00000000000E+00 -0.44053340796E+03  0.44053340799E+03  0.50400001928E-02 0. -1.
    10030    2    1    2    0    0  0.00000000000E+00  0.00000000000E+00  0.16063034159E+04  0.24873702318E+04  0.18991577097E+04 0.  0.
        5    1    3    3  502    0 -0.52814842879E+03 -0.67579575399E+03  0.13368332277E+04  0.15883279991E+04  0.46999998093E+01 0.  1.
       -5    1    3    3    0  502  0.52814842879E+03  0.67579575399E+03  0.26947018815E+03  0.89904223274E+03  0.46999998093E+01 0. -1.
</event>
<event>
 5   0  0.5841424E-05  0.1847954E+04  0.7818609E-02  0.8681206E-01
        1   -1    0    0  501    0  0.00000000000E+00  0.00000000000E+00  0.18246320927E+04  0.18246320927E+04  0.50400001928E-02 0.  1.
       -1   -1    0    0    0  501  0.00000000000E+00  0.00000000000E+00 -0.46789359586E+03  0.46789359589E+03  0.50400001928E-02 0. -1.
    10030    2    1    2    0    0  0.00000000000E+00  0.00000000000E+00  0.13567384968E+04  0.22925256886E+04  0.18479541888E+04 0.  0.
        1    1    3    3  502    0  0.56817416972E+03  0.39013618057E+03  0.14418073691E+04  0.15980727819E+04  0.50400001928E-02 0.  1.
       -1    1    3    3    0  502 -0.56817416972E+03 -0.39013618057E+03 -0.85068872322E+02  0.69445290667E+03  0.50400001928E-02 0. -1.
</event>
<event>
 5   0  0.5841424E-05  0.1907522E+04  0.7818609E-02  0.8651121E-01
        1   -1    0    0  501    0  0.00000000000E+00  0.00000000000E+00  0.10145503234E+04  0.10145503234E+04  0.50400001928E-02 0.  1.
       -1   -1    0    0    0  501  0.00000000000E+00  0.00000000000E+00 -0.89661403990E+03  0.89661403992E+03  0.50400001928E-02 0. -1.
    10030    2    1    2    0    0  0.00000000000E+00  0.00000000000E+00  0.11793628351E+03  0.19111643633E+04  0.19075220200E+04 0.  0.
        1    1    3    3  502    0  0.40335878100E+03  0.85651258753E+03  0.17472205682E+03  0.96272525466E+03  0.50400001928E-02 0.  1.
       -1    1    3    3    0  502 -0.40335878100E+03 -0.85651258753E+03 -0.56785773310E+02  0.94843910868E+03  0.50400001928E-02 0. -1.
</event>
<event>
 5   0  0.5614989E-05  0.1901230E+04  0.7818609E-02  0.8654244E-01
       -1   -1    0    0    0  501  0.00000000000E+00  0.00000000000E+00  0.53354086026E+03  0.53354086028E+03  0.50400001928E-02 0. -1.
        1   -1    0    0  501    0  0.00000000000E+00  0.00000000000E+00 -0.16937205652E+04  0.16937205652E+04  0.50400001928E-02 0.  1.
    10030    2    1    2    0    0  0.00000000000E+00  0.00000000000E+00 -0.11601797050E+04  0.22272614255E+04  0.19012302622E+04 0.  0.
        4    1    3    3  502    0  0.54847131220E+03  0.72145673089E+03 -0.91626078301E+03  0.12887420340E+04  0.12699999809E+01 0.  1.
       -4    1    3    3    0  502 -0.54847131220E+03 -0.72145673089E+03 -0.24391892197E+03  0.93851939151E+03  0.12699999809E+01 0. -1.
</event>
<event>
 5   0  0.1101678E-04  0.1900134E+04  0.7818609E-02  0.8654790E-01
       -2   -1    0    0    0  501  0.00000000000E+00  0.00000000000E+00  0.97661068910E+03  0.97661068910E+03  0.25500000920E-02 0.  1.
        2   -1    0    0  501    0  0.00000000000E+00  0.00000000000E+00 -0.92424445324E+03  0.92424445325E+03  0.25500000920E-02 0. -1.
    10030    2    1    2    0    0  0.00000000000E+00  0.00000000000E+00  0.52366235855E+02  0.19008551423E+04  0.19001336925E+04 0.  0.
        4    1    3    3  502    0  0.70945505082E+03 -0.61326386286E+03 -0.12621107604E+03  0.94622929739E+03  0.12699999809E+01 0. -1.
       -4    1    3    3    0  502 -0.70945505082E+03  0.61326386286E+03  0.17857731189E+03  0.95462584496E+03  0.12699999809E+01 0.  1.
</event>
<event>
 5   0  0.1118206E-04  0.1894659E+04  0.7818609E-02  0.8657519E-01
        2   -1    0    0  501    0  0.00000000000E+00  0.00000000000E+00  0.13152097801E+04  0.13152097801E+04  0.25500000920E-02 0.  1.
       -2   -1    0    0    0  501  0.00000000000E+00  0.00000000000E+00 -0.68234990501E+03  0.68234990501E+03  0.25500000920E-02 0. -1.
    10030    2    1    2    0    0  0.00000000000E+00  0.00000000000E+00  0.63285987513E+03  0.19975596852E+04  0.18946590918E+04 0.  0.
        1    1    3    3  502    0 -0.74420290588E+03 -0.16306934807E+03  0.91003944182E+03  0.11868451302E+04  0.50400001928E-02 0.  1.
       -1    1    3    3    0  502  0.74420290588E+03  0.16306934807E+03 -0.27717956669E+03  0.81071455495E+03  0.50400001928E-02 0. -1.
</event>
<event>
 5   0  0.5841424E-05  0.1868697E+04  0.7818609E-02  0.8670597E-01
        1   -1    0    0  501    0  0.00000000000E+00  0.00000000000E+00  0.10217576350E+04  0.10217576350E+04  0.50400001928E-02 0. -1.
       -1   -1    0    0    0  501  0.00000000000E+00  0.00000000000E+00 -0.85441704062E+03  0.85441704063E+03  0.50400001928E-02 0.  1.
    10030    2    1    2    0    0  0.00000000000E+00  0.00000000000E+00  0.16734059435E+03  0.18761746756E+04  0.18686970163E+04 0.  0.
        1    1    3    3  502    0 -0.36831124571E+03  0.83336605370E+03 -0.12417252630E+03  0.91954932956E+03  0.50400001928E-02 0.  1.
       -1    1    3    3    0  502  0.36831124571E+03 -0.83336605370E+03  0.29151312065E+03  0.95662534606E+03  0.50400001928E-02 0. -1.
</event>
<event>
 5   0  0.1182630E-04  0.1895323E+04  0.7818609E-02  0.8657188E-01
       -2   -1    0    0    0  501  0.00000000000E+00  0.00000000000E+00  0.36842534334E+03  0.36842534334E+03  0.25500000920E-02 0. -1.
        2   -1    0    0  501    0  0.00000000000E+00  0.00000000000E+00 -0.24375703360E+04  0.24375703360E+04  0.25500000920E-02 0.  1.
    10030    2    1    2    0    0  0.00000000000E+00  0.00000000000E+00 -0.20691449926E+04  0.28059956793E+04  0.18953233898E+04 0.  0.
        5    1    3    3  502    0  0.46512877247E+03 -0.56595318156E+03 -0.19245795227E+04  0.20592902194E+04  0.46999998093E+01 0.  1.
       -5    1    3    3    0  502 -0.46512877247E+03  0.56595318156E+03 -0.14456546993E+03  0.74670545987E+03  0.46999998093E+01 0. -1.
</event>
<event>
 5   0  0.1133638E-04  0.1895743E+04  0.7818609E-02  0.8656978E-01
        2   -1    0    0  501    0  0.00000000000E+00  0.00000000000E+00  0.11768983465E+04  0.11768983465E+04  0.25500000920E-02 0. -1.
       -2   -1    0    0    0  501  0.00000000000E+00  0.00000000000E+00 -0.76341342600E+03  0.76341342601E+03  0.25500000920E-02 0.  1.
    10030    2    1    2    0    0  0.00000000000E+00  0.00000000000E+00  0.41348492053E+03  0.19403117725E+04  0.18957425973E+04 0.  0.
        3    1    3    3  502    0  0.81053189499E+03  0.15175052761E+03  0.68513882248E+03  0.10721032561E+04  0.10100000352E+00 0. -1.
       -3    1    3    3    0  502 -0.81053189499E+03 -0.15175052761E+03 -0.27165390195E+03  0.86820851647E+03  0.10100000352E+00 0.  1.
</event>
<event>
 5   0  0.1101678E-04  0.1877427E+04  0.7818609E-02  0.8666175E-01
        2   -1    0    0  501    0  0.00000000000E+00  0.00000000000E+00  0.13939522038E+04  0.13939522038E+04  0.25500000920E-02 0. -1.
       -2   -1    0    0    0  501  0.00000000000E+00  0.00000000000E+00 -0.63214693349E+03  0.63214693349E+03  0.25500000920E-02 0.  1.
    10030    2    1    2    0    0  0.00000000000E+00  0.00000000000E+00  0.76180527030E+03  0.20260991373E+04  0.18774265483E+04 0.  0.
        4    1    3    3  502    0 -0.65698440164E+03 -0.19226285129E+03 -0.31229291267E+03  0.75241078154E+03  0.12699999809E+01 0.  1.
       -4    1    3    3    0  502  0.65698440164E+03  0.19226285129E+03  0.10740981830E+04  0.12736883557E+04  0.12699999809E+01 0. -1.
</event>
<event>
 5   0  0.1141890E-04  0.1905002E+04  0.7818609E-02  0.8652371E-01
        2   -1    0    0  501    0  0.00000000000E+00  0.00000000000E+00  0.69407628161E+03  0.69407628162E+03  0.25500000920E-02 0. -1.
       -2   -1    0    0    0  501  0.00000000000E+00  0.00000000000E+00 -0.13071442564E+04  0.13071442564E+04  0.25500000920E-02 0.  1.
    10030    2    1    2    0    0  0.00000000000E+00  0.00000000000E+00 -0.61306797478E+03  0.20012205380E+04  0.19050016536E+04 0.  0.
        2    1    3    3  502    0 -0.34206126783E+03 -0.32381255085E+02  0.62670754775E+03  0.71471449338E+03  0.25500000920E-02 0. -1.
       -2    1    3    3    0  502  0.34206126783E+03  0.32381255085E+02 -0.12397755225E+04  0.12865060446E+04  0.25500000920E-02 0.  1.
</event>
<event>
 5   0  0.1141890E-04  0.1901591E+04  0.7818609E-02  0.8654065E-01
        2   -1    0    0  501    0  0.00000000000E+00  0.00000000000E+00  0.22403174648E+04  0.22403174648E+04  0.25500000920E-02 0.  1.
       -2   -1    0    0    0  501  0.00000000000E+00  0.00000000000E+00 -0.40351973668E+03  0.40351973669E+03  0.25500000920E-02 0. -1.
    10030    2    1    2    0    0  0.00000000000E+00  0.00000000000E+00  0.18367977281E+04  0.26438372015E+04  0.19015912426E+04 0.  0.
        2    1    3    3  502    0 -0.53667683974E+03  0.73864242928E+03  0.12872886289E+04  0.15782036253E+04  0.25500000920E-02 0.  1.
       -2    1    3    3    0  502  0.53667683974E+03 -0.73864242928E+03  0.54950909918E+03  0.10656335762E+04  0.25500000920E-02 0. -1.
</event>
<event>
 5   0  0.1141890E-04  0.1893407E+04  0.7818609E-02  0.8658145E-01
        2   -1    0    0  501    0  0.00000000000E+00  0.00000000000E+00  0.17422522311E+04  0.17422522311E+04  0.25500000920E-02 0.  1.
       -2   -1    0    0    0  501  0.00000000000E+00  0.00000000000E+00 -0.51441869618E+03  0.51441869619E+03  0.25500000920E-02 0. -1.
    10030    2    1    2    0    0  0.00000000000E+00  0.00000000000E+00  0.12278335349E+04  0.22566709273E+04  0.18934065820E+04 0.  0.
        2    1    3    3  502    0 -0.52153786746E+03 -0.49367729135E+03  0.13491374592E+04  0.15283621623E+04  0.25500000920E-02 0.  1.
       -2    1    3    3    0  502  0.52153786746E+03  0.49367729135E+03 -0.12130392428E+03  0.72830876504E+03  0.25500000920E-02 0. -1.
</event>
<event>
 5   0  0.1133638E-04  0.1895838E+04  0.7818609E-02  0.8656931E-01
        2   -1    0    0  501    0  0.00000000000E+00  0.00000000000E+00  0.13348687824E+04  0.13348687824E+04  0.25500000920E-02 0. -1.
       -2   -1    0    0    0  501  0.00000000000E+00  0.00000000000E+00 -0.67313770651E+03  0.67313770651E+03  0.25500000920E-02 0.  1.
    10030    2    1    2    0    0  0.00000000000E+00  0.00000000000E+00  0.66173107593E+03  0.20080064890E+04  0.18958380846E+04 0.  0.
        3    1    3    3  502    0 -0.74768805727E+03  0.28074026593E+03 -0.20992949670E+03  0.82578625060E+03  0.10100000352E+00 0.  1.
       -3    1    3    3    0  502  0.74768805727E+03 -0.28074026593E+03  0.87166057264E+03  0.11822202384E+04  0.10100000352E+00 0. -1.
</event>
<event>
 5   0  0.1101678E-04  0.1847414E+04  0.7818609E-02  0.8681484E-01
        2   -1    0    0  501    0  0.00000000000E+00  0.00000000000E+00  0.10916229638E+04  0.10916229638E+04  0.25500000920E-02 0.  1.
       -2   -1    0    0    0  501  0.00000000000E+00  0.00000000000E+00 -0.78162010327E+03  0.78162010327E+03  0.25500000920E-02 0. -1.
    10030    2    1    2    0    0  0.00000000000E+00  0.00000000000E+00  0.31000286054E+03  0.18732430671E+04  0.18474138180E+04 0.  0.
        4    1    3    3  502    0 -0.35982563917E+03 -0.39768408523E+03  0.91758394333E+03  0.10628212588E+04  0.12699999809E+01 0. -1.
       -4    1    3    3    0  502  0.35982563917E+03  0.39768408523E+03 -0.60758108278E+03  0.81042180826E+03  0.12699999809E+01 0.  1.
</event>
<event>
 5   0  0.1118206E-04  0.1893842E+04  0.7818609E-02  0.8657928E-01
        2   -1    0    0  501    0  0.00000000000E+00  0.00000000000E+00  0.70958307879E+03  0.70958307880E+03  0.25500000920E-02 0.  1.
       -2   -1    0    0    0  501  0.00000000000E+00  0.00000000000E+00 -0.12636419970E+04  0.12636419970E+04  0.25500000920E-02 0. -1.
    10030    2    1    2    0    0  0.00000000000E+00  0.00000000000E+00 -0.55405891823E+03  0.19732250758E+04  0.18938415760E+04 0.  0.
        1    1    3    3  502    0 -0.49781267342E+03 -0.40532180478E+03 -0.10023080494E+04  0.11902624287E+04  0.50400001928E-02 0. -1.
       -1    1    3    3    0  502  0.49781267342E+03  0.40532180478E+03  0.44824913114E+03  0.78296264715E+03  0.50400001928E-02 0.  1.
</event>
<event>
 5   0  0.5841424E-05  0.1892095E+04  0.7818609E-02  0.8658801E-01
       -1   -1    0    0    0  501  0.00000000000E+00  0.00000000000E+00  0.44035028671E+03  0.44035028674E+03  0.50400001928E-02 0. -1.
        1   -1    0    0  501    0  0.00000000000E+00  0.00000000000E+00 -0.20324869394E+04  0.20324869394E+04  0.50400001928E-02 0.  1.
    10030    2    1    2    0    0  0.00000000000E+00  0.00000000000E+00 -0.15921366527E+04  0.24728372261E+04  0.18920953533E+04 0.  0.
        1    1    3    3  502    0 -0.66536468704E+03  0.38255400508E+02 -0.16735946434E+04  0.18014140759E+04  0.50400001928E-02 0.  1.
       -1    1    3    3    0  502  0.66536468704E+03 -0.38255400508E+02  0.81457990688E+02  0.67142315026E+03  0.50400001928E-02 0. -1.
</event>
<event>
 5   0  0.5579109E-05  0.1901963E+04  0.7818609E-02  0.8653880E-01
        1   -1    0    0  501    0  0.00000000000E+00  0.00000000000E+00  0.22137148990E+04  0.22137148990E+04  0.50400001928E-02 0.  1.
       -1   -1    0    0    0  501  0.00000000000E+00  0.00000000000E+00 -0.40852839679E+03  0.40852839682E+03  0.50400001928E-02 0. -1.
    10030    2    1    2    0    0  0.00000000000E+00  0.00000000000E+00  0.18051865022E+04  0.26222432958E+04  0.19019625640E+04 0.  0.
        3    1    3    3  502    0  0.72544715979E+03  0.14624571043E+03  0.17260200710E+04  0.18779794155E+04  0.10100000352E+00 0.  1.
       -3    1    3    3    0  502 -0.72544715979E+03 -0.14624571043E+03  0.79166431209E+02  0.74426388029E+03  0.10100000352E+00 0. -1.
</event>
<event>
 5   0  0.5841424E-05  0.1907117E+04  0.7818609E-02  0.8651322E-01
       -1   -1    0    0    0  501  0.00000000000E+00  0.00000000000E+00  0.11182117020E+04  0.11182117021E+04  0.50400001928E-02 0.  1.
        1   -1    0    0  501    0  0.00000000000E+00  0.00000000000E+00 -0.81314967647E+03  0.81314967649E+03  0.50400001928E-02 0. -1.
    10030    2    1    2    0    0  0.00000000000E+00  0.00000000000E+00  0.30506202557E+03  0.19313613785E+04  0.19071166548E+04 0.  0.
        1    1    3    3  502    0  0.11024389913E+03  0.92360945555E+03  0.36511710402E+03  0.99925904717E+03  0.50400001928E-02 0.  1.
       -1    1    3    3    0  502 -0.11024389913E+03 -0.92360945555E+03 -0.60055078443E+02  0.93210233137E+03  0.50400001928E-02 0. -1.
</event>
<event>
 5   0  0.1101678E-04  0.1942563E+04  0.7818609E-02  0.8633955E-01
       -2   -1    0    0    0  501  0.00000000000E+00  0.00000000000E+00  0.64366837913E+03  0.64366837913E+03  0.25500000920E-02 0.  1.
        2   -1    0    0  501    0  0.00000000000E+00  0.00000000000E+00 -0.14656427996E+04  0.14656427996E+04  0.25500000920E-02 0. -1.
    10030    2    1    2    0    0  0.00000000000E+00  0.00000000000E+00 -0.82197442043E+03  0.21093111787E+04  0.19425631780E+04 0.  0.
        4    1    3    3  502    0 -0.10842966409E+03 -0.89426938457E+03 -0.80536003062E+03  0.12083381630E+04  0.12699999809E+01 0. -1.
       -4    1    3    3    0  502  0.10842966409E+03  0.89426938457E+03 -0.16614389805E+02  0.90097301573E+03  0.12699999809E+01 0.  1.
</event>
<event>
 5   0  0.1141890E-04  0.1898162E+04  0.7818609E-02  0.8655772E-01
        2   -1    0    0  501    0  0.00000000000E+00  0.00000000000E+00  0.10846165440E+04  0.10846165440E+04  0.25500000920E-02 0.  1.
       -2   -1    0    0    0  501  0.00000000000E+00  0.00000000000E+00 -0.83048253666E+03  0.83048253666E+03  0.25500000920E-02 0. -1.
    10030    2    1    2    0    0  0.00000000000E+00  0.00000000000E+00  0.25413400738E+03  0.19150990807E+04  0.18981623732E+04 0.  0.
        2    1    3    3  502    0  0.68548599001E+03  0.60222607506E+03 -0.13639091789E+03  0.92258862472E+03  0.25500000920E-02 0. -1.
       -2    1    3    3    0  502 -0.68548599001E+03 -0.60222607506E+03  0.39052492527E+03  0.99251045598E+03  0.25500000920E-02 0.  1.
</event>
<event>
 5   0  0.1141890E-04  0.1910878E+04  0.7818609E-02  0.8649461E-01
       -2   -1    0    0    0  501  0.00000000000E+00  0.00000000000E+00  0.38130166224E+03  0.38130166225E+03  0.25500000920E-02 0.  1.
        2   -1    0    0  501    0  0.00000000000E+00  0.00000000000E+00 -0.23940711357E+04  0.23940711357E+04  0.25500000920E-02 0. -1.
    10030    2    1    2    0    0  0.00000000000E+00  0.00000000000E+00 -0.20127694734E+04  0.27753727979E+04  0.19108776032E+04 0.  0.
        2    1    3    3  502    0 -0.55079568080E+03 -0.13011654634E+03  0.11164553440E+03  0.57686300192E+03  0.25500000920E-02 0.  1.
       -2    1    3    3    0  502  0.55079568080E+03  0.13011654634E+03 -0.21244150078E+04  0.21985097960E+04  0.25500000920E-02 0. -1.
</event>
<event>
 5   0  0.1118206E-04  0.1892645E+04  0.7818609E-02  0.8658526E-01
       -2   -1    0    0    0  501  0.00000000000E+00  0.00000000000E+00  0.55469647953E+03  0.55469647954E+03  0.25500000920E-02 0. -1.
        2   -1    0    0  501    0  0.00000000000E+00  0.00000000000E+00 -0.16144433128E+04  0.16144433128E+04  0.25500000920E-02 0.  1.
    10030    2    1    2    0    0  0.00000000000E+00  0.00000000000E+00 -0.10597468333E+04  0.21691397923E+04  0.18926447337E+04 0.  0.
        1    1    3    3  502    0 -0.36963877841E+03 -0.29922287482E+03 -0.14675389469E+04  0.15426722646E+04  0.50400001928E-02 0.  1.
       -1    1    3    3    0  502  0.36963877841E+03  0.29922287482E+03  0.40779211363E+03  0.62646752772E+03  0.50400001928E-02 0. -1.
</event>
<event>
 5   0  0.1182630E-04  0.1906110E+04  0.7818609E-02  0.8651821E-01
        2   -1    0    0  501    0  0.00000000000E+00  0.00000000000E+00  0.96955530498E+03  0.96955530499E+03  0.25500000920E-02 0. -1.
       -2   -1    0    0    0  501  0.00000000000E+00  0.00000000000E+00 -0.93683510980E+03  0.93683510980E+03  0.25500000920E-02 0.  1.
    10030    2    1    2    0    0  0.00000000000E+00  0.00000000000E+00  0.32720195184E+02  0.19063904148E+04  0.19061095987E+04 0.  0.
        5    1    3    3  502    0 -0.38258234600E+03  0.38002414108E+03 -0.76956974738E+03  0.93970595686E+03  0.46999998093E+01 0.  1.
       -5    1    3    3    0  502  0.38258234600E+03 -0.38002414108E+03  0.80228994256E+03  0.96668445793E+03  0.46999998093E+01 0. -1.
</event>
<event>
 5   0  0.5824956E-05  0.1904663E+04  0.7818609E-02  0.8652539E-01
        1   -1    0    0  501    0  0.00000000000E+00  0.00000000000E+00  0.74766930883E+03  0.74766930884E+03  0.50400001928E-02 0. -1.
       -1   -1    0    0    0  501  0.00000000000E+00  0.00000000000E+00 -0.12130166340E+04  0.12130166340E+04  0.50400001928E-02 0.  1.
    10030    2    1    2    0    0  0.00000000000E+00  0.00000000000E+00 -0.46534732515E+03  0.19606859428E+04  0.19046630236E+04 0.  0.
        2    1    3    3  502    0 -0.62540963180E+02 -0.24890863537E+03  0.71139927777E+03  0.75627760330E+03  0.25500000920E-02 0. -1.
       -2    1    3    3    0  502  0.62540963180E+02  0.24890863537E+03 -0.11767466029E+04  0.12044083395E+04  0.25500000920E-02 0.  1.
</event>
<event>
 5   0  0.5579109E-05  0.1896115E+04  0.7818609E-02  0.8656792E-01
       -1   -1    0    0    0  501  0.00000000000E+00  0.00000000000E+00  0.86022362042E+03  0.86022362043E+03  0.50400001928E-02 0.  1.
        1   -1    0    0  501    0  0.00000000000E+00  0.00000000000E+00 -0.10448599964E+04  0.10448599964E+04  0.50400001928E-02 0. -1.
    10030    2    1    2    0    0  0.00000000000E+00  0.00000000000E+00 -0.18463637594E+03  0.19050836168E+04  0.18961152380E+04 0.  0.
        3    1    3    3  502    0  0.11728330611E+03  0.93429514348E+03  0.18432259496E+02  0.94180812665E+03  0.10100000352E+00 0.  1.
       -3    1    3    3    0  502 -0.11728330611E+03 -0.93429514348E+03 -0.20306863543E+03  0.96327549015E+03  0.10100000352E+00 0. -1.
</event>
<event>
 5   0  0.5841424E-05  0.1947691E+04  0.7818609E-02  0.8631475E-01
        1   -1    0    0  501    0  0.00000000000E+00  0.00000000000E+00  0.51305509768E+03  0.51305509770E+03  0.50400001928E-02 0. -1.
       -1   -1    0    0    0  501  0.00000000000E+00  0.00000000000E+00 -0.18484861720E+04  0.18484861720E+04  0.50400001928E-02 0.  1.
    10030    2    1    2    0    0  0.00000000000E+00  0.00000000000E+00 -0.13354310743E+04  0.23615412697E+04  0.19476912009E+04 0.  0.
        1    1    3    3  502    0 -0.21035470403E+03  0.90877729156E+02 -0.18153334056E+04  0.18297385706E+04  0.50400001928E-02 0.  1.
       -1    1    3    3    0  502  0.21035470403E+03 -0.90877729156E+02  0.47990233130E+03  0.53180269911E+03  0.50400001928E-02 0. -1.
</event>
<event>
 5   0  0.5824956E-05  0.1893146E+04  0.7818609E-02  0.8658276E-01
        1   -1    0    0  501    0  0.00000000000E+00  0.00000000000E+00  0.15125349336E+04  0.15125349336E+04  0.50400001928E-02 0.  1.
       -1   -1    0    0    0  501  0.00000000000E+00  0.00000000000E+00 -0.59238304938E+03  0.59238304940E+03  0.50400001928E-02 0. -1.
    10030    2    1    2    0    0  0.00000000000E+00  0.00000000000E+00  0.92015188425E+03  0.21049179831E+04  0.18931455901E+04 0.  0.
        2    1    3    3  502    0 -0.46126473628E+03  0.17686291605E+03  0.13578349624E+04  0.14449087975E+04  0.25500000920E-02 0.  1.
       -2    1    3    3    0  502  0.46126473628E+03 -0.17686291605E+03 -0.43768307818E+03  0.66000918550E+03  0.25500000920E-02 0. -1.
</event>
<event>
 5   0  0.1133638E-04  0.1903571E+04  0.7818609E-02  0.8653081E-01
        2   -1    0    0  501    0  0.00000000000E+00  0.00000000000E+00  0.10356702477E+04  0.10356702477E+04  0.25500000920E-02 0.  1.
       -2   -1    0    0    0  501  0.00000000000E+00  0.00000000000E+00 -0.87469478979E+03  0.87469478979E+03  0.25500000920E-02 0. -1.
    10030    2    1    2    0    0  0.00000000000E+00  0.00000000000E+00  0.16097545792E+03  0.19103650375E+04  0.19035707180E+04 0.  0.
        3    1    3    3  502    0 -0.31997277334E+03 -0.88857116091E+03 -0.38061267948E+02  0.94519307763E+03  0.10100000352E+00 0. -1.
       -3    1    3    3    0  502  0.31997277334E+03  0.88857116091E+03  0.19903672587E+03  0.96517195988E+03  0.10100000352E+00 0.  1.
</event>
<event>
 5   0  0.5824956E-05  0.1897772E+04  0.7818609E-02  0.8655966E-01
        1   -1    0    0  501    0  0.00000000000E+00  0.00000000000E+00  0.20448859454E+04  0.20448859454E+04  0.50400001928E-02 0.  1.
       -1   -1    0    0    0  501  0.00000000000E+00  0.00000000000E+00 -0.44031059749E+03  0.44031059752E+03  0.50400001928E-02 0. -1.
    10030    2    1    2    0    0  0.00000000000E+00  0.00000000000E+00  0.16045753479E+04  0.24851965429E+04  0.18977723282E+04 0.  0.
        2    1    3    3  502    0 -0.32655554967E+03  0.59222384046E+03 -0.69331946069E+02  0.67983418786E+03  0.25500000920E-02 0. -1.
       -2    1    3    3    0  502  0.32655554967E+03 -0.59222384046E+03  0.16739072940E+04  0.18053623550E+04  0.25500000920E-02 0.  1.
</event>
<event>
 5   0  0.1182630E-04  0.1895784E+04  0.7818609E-02  0.8656958E-01
       -2   -1    0    0    0  501  0.00000000000E+00  0.00000000000E+00  0.60498110948E+03  0.60498110948E+03  0.25500000920E-02 0. -1.
        2   -1    0    0  501    0  0.00000000000E+00  0.00000000000E+00 -0.14851684199E+04  0.14851684199E+04  0.25500000920E-02 0.  1.
    10030    2    1    2    0    0  0.00000000000E+00  0.00000000000E+00 -0.88018731041E+03  0.20901495294E+04  0.18957835725E+04 0.  0.
        5    1    3    3  502    0 -0.20830928638E+03 -0.31126256853E+03 -0.14001138688E+04  0.14493509171E+04  0.46999998093E+01 0.  1.
       -5    1    3    3    0  502  0.20830928638E+03  0.31126256853E+03  0.51992655839E+03  0.64079861226E+03  0.46999998093E+01 0. -1.
</event>
<event>
 5   0  0.1118206E-04  0.1940678E+04  0.7818609E-02  0.8634869E-01
        2   -1    0    0  501    0  0.00000000000E+00  0.00000000000E+00  0.20187960565E+04  0.20187960565E+04  0.25500000920E-02 0.  1.
       -2   -1    0    0    0  501  0.00000000000E+00  0.00000000000E+00 -0.46639581694E+03  0.46639581694E+03  0.25500000920E-02 0. -1.
    10030    2    1    2    0    0  0.00000000000E+00  0.00000000000E+00  0.15524002395E+04  0.24851918734E+04  0.19406782690E+04 0.  0.
        1    1    3    3  502    0  0.36708157725E+03  0.70363318512E+03  0.14911595452E+04  0.16892025731E+04  0.50400001928E-02 0.  1.
       -1    1    3    3    0  502 -0.36708157725E+03 -0.70363318512E+03  0.61240694285E+02  0.79598930031E+03  0.50400001928E-02 0. -1.
</event>
<event>
 5   0  0.5628936E-05  0.1910769E+04  0.7818609E-02  0.8649515E-01
       -1   -1    0    0    0  501  0.00000000000E+00  0.00000000000E+00  0.96683197652E+03  0.96683197654E+03  0.50400001928E-02 0.  1.
        1   -1    0    0  501    0  0.00000000000E+00  0.00000000000E+00 -0.94407219802E+03  0.94407219803E+03  0.50400001928E-02 0. -1.
    10030    2    1    2    0    0  0.00000000000E+00  0.00000000000E+00  0.22759778503E+02  0.19109041746E+04  0.19107686299E+04 0.  0.
        5    1    3    3  502    0  0.35824996456E+03  0.31090199810E+03 -0.81797623757E+03  0.94557406096E+03  0.46999998093E+01 0. -1.
       -5    1    3    3    0  502 -0.35824996456E+03 -0.31090199810E+03  0.84073601607E+03  0.96533011361E+03  0.46999998093E+01 0.  1.
</event>
<event>
 5   0  0.5579109E-05  0.1902537E+04  0.7818609E-02  0.8653594E-01
       -1   -1    0    0    0  501  0.00000000000E+00  0.00000000000E+00  0.18862070656E+04  0.18862070656E+04  0.50400001928E-02 0. -1.
        1   -1    0    0  501    0  0.00000000000E+00  0.00000000000E+00 -0.47975218551E+03  0.47975218553E+03  0.50400001928E-02 0.  1.
    10030    2    1    2    0    0  0.00000000000E+00  0.00000000000E+00  0.14064548801E+04  0.23659592511E+04  0.19025372134E+04 0.  0.
        3    1    3    3  502    0  0.92033246087E+02  0.59497628480E+03 -0.21268082295E+03  0.63851393133E+03  0.10100000352E+00 0.  1.
       -3    1    3    3    0  502 -0.92033246087E+02 -0.59497628480E+03  0.16191357030E+04  0.17274453198E+04  0.10100000352E+00 0. -1.
</event>
<event>
 5   0  0.5841424E-05  0.1923188E+04  0.7818609E-02  0.8643399E-01
        1   -1    0    0  501    0  0.00000000000E+00  0.00000000000E+00  0.90652245534E+03  0.90652245536E+03  0.50400001928E-02 0.  1.
       -1   -1    0    0    0  501  0.00000000000E+00  0.00000000000E+00 -0.10200113673E+04  0.10200113673E+04  0.50400001928E-02 0. -1.
    10030    2    1    2    0    0  0.00000000000E+00  0.00000000000E+00 -0.11348891193E+03  0.19265338226E+04  0.19231881958E+04 0.  0.
        1    1    3    3  502    0 -0.93601465506E+03 -0.16655564500E+03 -0.20121389780E+03  0.97177736651E+03  0.50400001928E-02 0. -1.
       -1    1    3    3    0  502  0.93601465506E+03  0.16655564500E+03  0.87724985870E+02  0.95475645614E+03  0.50400001928E-02 0.  1.
</event>
<event>
 5   0  0.5628936E-05  0.1879888E+04  0.7818609E-02  0.8664933E-01
       -1   -1    0    0    0  501  0.00000000000E+00  0.00000000000E+00  0.48316293709E+03  0.48316293711E+03  0.50400001928E-02 0.  1.
        1   -1    0    0  501    0  0.00000000000E+00  0.00000000000E+00 -0.18285647002E+04  0.18285647002E+04  0.50400001928E-02 0. -1.
    10030    2    1    2    0    0  0.00000000000E+00  0.00000000000E+00 -0.13454017632E+04  0.23117276374E+04  0.18798879661E+04 0.  0.
        5    1    3    3  502    0 -0.11849900457E+03  0.89641068364E+03 -0.98832956288E+03  0.13395564724E+04  0.46999998093E+01 0.  1.
       -5    1    3    3    0  502  0.11849900457E+03 -0.89641068364E+03 -0.35707220028E+03  0.97217116499E+03  0.46999998093E+01 0. -1.
</event>
<event>
 5   0  0.1141890E-04  0.1901736E+04  0.7818609E-02  0.8653993E-01
        2   -1    0    0  501    0  0.00000000000E+00  0.00000000000E+00  0.11672158780E+04  0.11672158780E+04  0.25500000920E-02 0. -1.
       -2   -1    0    0    0  501  0.00000000000E+00  0.00000000000E+00 -0.77462069854E+03  0.77462069855E+03  0.25500000920E-02 0.  1.
    10030    2    1    2    0    0  0.00000000000E+00  0.00000000000E+00  0.39259517942E+03  0.19418365765E+04  0.19017356060E+04 0.  0.
        2    1    3    3  502    0 -0.13660470589E+03  0.24853504469E+02  0.11568090023E+04  0.11651118445E+04  0.25500000920E-02 0. -1.
       -2    1    3    3    0  502  0.13660470589E+03 -0.24853504469E+02 -0.76421382285E+03  0.77672473206E+03  0.25500000920E-02 0.  1.
</event>
<event>
 5   0  0.5824956E-05  0.1800434E+04  0.7818609E-02  0.8706069E-01
       -1   -1    0    0    0  501  0.00000000000E+00  0.00000000000E+00  0.13276495334E+04  0.13276495334E+04  0.50400001928E-02 0.  1.
        1   -1    0    0  501    0  0.00000000000E+00  0.00000000000E+00 -0.61039508664E+03  0.61039508667E+03  0.50400001928E-02 0. -1.
    10030    2    1    2    0    0  0.00000000000E+00  0.00000000000E+00  0.71725444677E+03  0.19380446201E+04  0.18004341166E+04 0.  0.
        2    1    3    3  502    0  0.53676380450E+03  0.16129222164E+03 -0.39967312649E+03  0.68838155890E+03  0.25500000920E-02 0. -1.
       -2    1    3    3    0  502 -0.53676380450E+03 -0.16129222164E+03  0.11169275733E+04  0.12496630612E+04  0.25500000920E-02 0.  1.
</event>
<event>
 5   0  0.1182630E-04  0.1894746E+04  0.7818609E-02  0.8657476E-01
       -2   -1    0    0    0  501  0.00000000000E+00  0.00000000000E+00  0.72660589968E+03  0.72660589969E+03  0.25500000920E-02 0.  1.
        2   -1    0    0  501    0  0.00000000000E+00  0.00000000000E+00 -0.12352160516E+04  0.12352160516E+04  0.25500000920E-02 0. -1.
    10030    2    1    2    0    0  0.00000000000E+00  0.00000000000E+00 -0.50861015187E+03  0.19618219512E+04  0.18947456509E+04 0.  0.
        5    1    3    3  502    0 -0.53120158214E+03 -0.69061440254E+03  0.13084442343E+03  0.88105943443E+03  0.46999998093E+01 0.  1.
       -5    1    3    3    0  502  0.53120158214E+03  0.69061440254E+03 -0.63945457530E+03  0.10807625168E+04  0.46999998093E+01 0. -1.
</event>
<event>
 5   0  0.5579109E-05  0.1904494E+04  0.7818609E-02  0.8652623E-01
       -1   -1    0    0    0  501  0.00000000000E+00  0.00000000000E+00  0.76150143137E+03  0.76150143139E+03  0.50400001928E-02 0.  1.
        1   -1    0    0  501    0  0.00000000000E+00  0.00000000000E+00 -0.11907713844E+04  0.11907713844E+04  0.50400001928E-02 0. -1.
    10030    2    1    2    0    0  0.00000000000E+00  0.00000000000E+00 -0.42926995300E+03  0.19522728158E+04  0.19044937529E+04 0.  0.
        3    1    3    3  502    0 -0.32191821504E+03  0.60206422130E+02  0.70195491782E+03  0.77459464708E+03  0.10100000352E+00 0.  1.
       -3    1    3    3    0  502  0.32191821504E+03 -0.60206422130E+02 -0.11312248708E+04  0.11776781687E+04  0.10100000352E+00 0. -1.
</event>
<event>
 5   0  0.1133638E-04  0.1910865E+04  0.7818609E-02  0.8649467E-01
       -2   -1    0    0    0  501  0.00000000000E+00  0.00000000000E+00  0.97839618839E+03  0.97839618839E+03  0.25500000920E-02 0.  1.
        2   -1    0    0  501    0  0.00000000000E+00  0.00000000000E+00 -0.93300818863E+03  0.93300818863E+03  0.25500000920E-02 0. -1.
    10030    2    1    2    0    0  0.00000000000E+00  0.00000000000E+00  0.45387999758E+02  0.19114043770E+04  0.19108654118E+04 0.  0.
        3    1    3    3  502    0 -0.27960771242E+03 -0.29373360581E+03  0.88803437973E+03  0.97625046674E+03  0.10100000352E+00 0.  1.
       -3    1    3    3    0  502  0.27960771242E+03  0.29373360581E+03 -0.84264637998E+03  0.93515391028E+03  0.10100000352E+00 0. -1.
</event>
<event>
 5   0  0.1182630E-04  0.1849678E+04  0.7818609E-02  0.8680318E-01
       -2   -1    0    0    0  501  0.00000000000E+00  0.00000000000E+00  0.10753026741E+04  0.10753026741E+04  0.25500000920E-02 0. -1.
        2   -1    0    0  501    0  0.00000000000E+00  0.00000000000E+00 -0.79542947696E+03  0.79542947697E+03  0.25500000920E-02 0.  1.
    10030    2    1    2    0    0  0.00000000000E+00  0.00000000000E+00  0.27987319716E+03  0.18707321511E+04  0.18496782895E+04 0.  0.
        5    1    3    3  502    0 -0.91500398066E+03  0.12952000335E+03  0.10350383209E+03  0.92991550645E+03  0.46999998093E+01 0.  1.
       -5    1    3    3    0  502  0.91500398066E+03 -0.12952000335E+03  0.17636936507E+03  0.94081664464E+03  0.46999998093E+01 0. -1.
</event>
<event>
 5   0  0.1182630E-04  0.1907519E+04  0.7818609E-02  0.8651123E-01
        2   -1    0    0  501    0  0.00000000000E+00  0.00000000000E+00  0.19477366695E+04  0.19477366695E+04  0.25500000920E-02 0. -1.
       -2   -1    0    0    0  501  0.00000000000E+00  0.00000000000E+00 -0.46703284334E+03  0.46703284335E+03  0.25500000920E-02 0.  1.
    10030    2    1    2    0    0  0.00000000000E+00  0.00000000000E+00  0.14807038262E+04  0.24147695129E+04  0.19075188019E+04 0.  0.
        5    1    3    3  502    0 -0.88289020177E+03  0.34613964868E+03  0.61170573420E+03  0.11285006690E+04  0.46999998093E+01 0.  1.
       -5    1    3    3    0  502  0.88289020177E+03 -0.34613964868E+03  0.86899809200E+03  0.12862688438E+04  0.46999998093E+01 0. -1.
</event>
<event>
 5   0  0.1133638E-04  0.1820859E+04  0.7818609E-02  0.8695285E-01
        2   -1    0    0  501    0  0.00000000000E+00  0.00000000000E+00  0.88412959730E+03  0.88412959731E+03  0.25500000920E-02 0. -1.
       -2   -1    0    0    0  501  0.00000000000E+00  0.00000000000E+00 -0.93751127308E+03  0.93751127308E+03  0.25500000920E-02 0.  1.
    10030    2    1    2    0    0  0.00000000000E+00  0.00000000000E+00 -0.53381675773E+02  0.18216408704E+04  0.18208585495E+04 0.  0.
        3    1    3    3  502    0  0.28468051379E+03 -0.79142806464E+03  0.32199883287E+03  0.90060237342E+03  0.10100000352E+00 0.  1.
       -3    1    3    3    0  502 -0.28468051379E+03  0.79142806464E+03 -0.37538050865E+03  0.92103849697E+03  0.10100000352E+00 0. -1.
</event>
<event>
 5   0  0.5841424E-05  0.1869648E+04  0.7818609E-02  0.8670114E-01
       -1   -1    0    0    0  501  0.00000000000E+00  0.00000000000E+00  0.84574046298E+03  0.84574046299E+03  0.50400001928E-02 0.  1.
        1   -1    0    0  501    0  0.00000000000E+00  0.00000000000E+00 -0.10332907611E+04  0.10332907611E+04  0.50400001928E-02 0. -1.
    10030    2    1    2    0    0  0.00000000000E+00  0.00000000000E+00 -0.18755029809E+03  0.18790312241E+04  0.18696478884E+04 0.  0.
        1    1    3    3  502    0  0.74200084018E+03 -0.11963508640E+03  0.46490863545E+03  0.88375213724E+03  0.50400001928E-02 0.  1.
       -1    1    3    3    0  502 -0.74200084018E+03  0.11963508640E+03 -0.65245893354E+03  0.99527908685E+03  0.50400001928E-02 0. -1.
</event>
<event>
 5   0  0.5614989E-05  0.1895773E+04  0.7818609E-02  0.8656963E-01
        1   -1    0    0  501    0  0.00000000000E+00  0.00000000000E+00  0.14043930084E+04  0.14043930084E+04  0.50400001928E-02 0.  1.
       -1   -1    0    0    0  501  0.00000000000E+00  0.00000000000E+00 -0.63977044121E+03  0.63977044123E+03  0.50400001928E-02 0. -1.
    10030    2    1    2    0    0  0.00000000000E+00  0.00000000000E+00  0.76462256720E+03  0.20441634496E+04  0.18957733352E+04 0.  0.
        4    1    3    3  502    0  0.62488527470E+03 -0.27298598507E+03  0.10922421003E+04  0.12876324682E+04  0.12699999809E+01 0.  1.
       -4    1    3    3    0  502 -0.62488527470E+03  0.27298598507E+03 -0.32761953307E+03  0.75653098147E+03  0.12699999809E+01 0. -1.
</event>
<event>
 5   0  0.5628936E-05  0.1935391E+04  0.7818609E-02  0.8637438E-01
       -1   -1    0    0    0  501  0.00000000000E+00  0.00000000000E+00  0.47755582610E+03  0.47755582612E+03  0.50400001928E-02 0. -1.
        1   -1    0    0  501    0  0.00000000000E+00  0.00000000000E+00 -0.19608901139E+04  0.19608901139E+04  0.50400001928E-02 0.  1.
    10030    2    1    2    0    0  0.00000000000E+00  0.00000000000E+00 -0.14833342878E+04  0.24384459400E+04  0.19353909148E+04 0.  0.
        5    1    3    3  502    0 -0.87143241124E+02  0.40049572354E+03 -0.18461124835E+04  0.18910695811E+04  0.46999998093E+01 0.  1.
       -5    1    3    3    0  502  0.87143241124E+02 -0.40049572354E+03  0.36277819566E+03  0.54737635891E+03  0.46999998093E+01 0. -1.
</event>
<event>
 5   0  0.1141890E-04  0.1905284E+04  0.7818609E-02  0.8652231E-01
        2   -1    0    0  501    0  0.00000000000E+00  0.00000000000E+00  0.72410495851E+03  0.72410495852E+03  0.25500000920E-02 0. -1.
       -2   -1    0    0    0  501  0.00000000000E+00  0.00000000000E+00 -0.12533083646E+04  0.12533083646E+04  0.25500000920E-02 0.  1.
    10030    2    1    2    0    0  0.00000000000E+00  0.00000000000E+00 -0.52920340609E+03  0.19774133231E+04  0.19052840222E+04 0.  0.
        2    1    3    3  502    0 -0.14593313931E+03  0.44556215129E+03 -0.11252757819E+04  0.12190437634E+04  0.25500000920E-02 0.  1.
       -2    1    3    3    0  502  0.14593313931E+03 -0.44556215129E+03  0.59607237583E+03  0.75836955968E+03  0.25500000920E-02 0. -1.
</event>
<event>
 5   0  0.5579109E-05  0.1911361E+04  0.7818609E-02  0.8649222E-01
        1   -1    0    0  501    0  0.00000000000E+00  0.00000000000E+00  0.17354511452E+04  0.17354511452E+04  0.50400001928E-02 0.  1.
       -1   -1    0    0    0  501  0.00000000000E+00  0.00000000000E+00 -0.52627539848E+03  0.52627539850E+03  0.50400001928E-02 0. -1.
    10030    2    1    2    0    0  0.00000000000E+00  0.00000000000E+00  0.12091757468E+04  0.22617265437E+04  0.19113610261E+04 0.  0.
        3    1    3    3  502    0 -0.83688007551E+03  0.91564167735E+02  0.11397945216E+04  0.14169981719E+04  0.10100000352E+00 0.  1.
       -3    1    3    3    0  502  0.83688007551E+03 -0.91564167735E+02  0.69381225196E+02  0.84472837185E+03  0.10100000352E+00 0. -1.
</event>
<event>
 5   0  0.5614989E-05  0.1897367E+04  0.7818609E-02  0.8656168E-01
        1   -1    0    0  501    0  0.00000000000E+00  0.00000000000E+00  0.69056052017E+03  0.69056052019E+03  0.50400001928E-02 0.  1.
       -1   -1    0    0    0  501  0.00000000000E+00  0.00000000000E+00 -0.13032893904E+04  0.13032893904E+04  0.50400001928E-02 0. -1.
    10030    2    1    2    0    0  0.00000000000E+00  0.00000000000E+00 -0.61272887018E+03  0.19938499106E+04  0.18973668063E+04 0.  0.
        4    1    3    3  502    0  0.45399106440E+03  0.80822676681E+03 -0.94466909987E+02  0.93180684861E+03  0.12699999809E+01 0.  1.
       -4    1    3    3    0  502 -0.45399106440E+03 -0.80822676681E+03 -0.51826196019E+03  0.10620430619E+04  0.12699999809E+01 0. -1.
</event>
<event>
 5   0  0.1101678E-04  0.1899771E+04  0.7818609E-02  0.8654971E-01
        2   -1    0    0  501    0  0.00000000000E+00  0.00000000000E+00  0.11542025617E+04  0.11542025617E+04  0.25500000920E-02 0.  1.
       -2   -1    0    0    0  501  0.00000000000E+00  0.00000000000E+00 -0.78173631639E+03  0.78173631639E+03  0.25500000920E-02 0. -1.
    10030    2    1    2    0    0  0.00000000000E+00  0.00000000000E+00  0.37246624529E+03  0.19359388781E+04  0.18997705745E+04 0.  0.
        4    1    3    3  502    0 -0.25140040091E+03  0.57905488656E+03 -0.53704984849E+03  0.82881293178E+03  0.12699999809E+01 0. -1.
       -4    1    3    3    0  502  0.25140040091E+03 -0.57905488656E+03  0.90951609378E+03  0.11071259463E+04  0.12699999809E+01 0.  1.
</event>
<event>
 5   0  0.5614989E-05  0.1903432E+04  0.7818609E-02  0.8653150E-01
       -1   -1    0    0    0  501  0.00000000000E+00  0.00000000000E+00  0.11592419168E+04  0.11592419168E+04  0.50400001928E-02 0.  1.
        1   -1    0    0  501    0  0.00000000000E+00  0.00000000000E+00 -0.78134131967E+03  0.78134131968E+03  0.50400001928E-02 0. -1.
    10030    2    1    2    0    0  0.00000000000E+00  0.00000000000E+00  0.37790059713E+03  0.19405832365E+04  0.19034322779E+04 0.  0.
        4    1    3    3  502    0 -0.46308283009E+03 -0.15517320089E+03  0.10217395105E+04  0.11324653063E+04  0.12699999809E+01 0.  1.
       -4    1    3    3    0  502  0.46308283009E+03  0.15517320089E+03 -0.64383891337E+03  0.80811793017E+03  0.12699999809E+01 0. -1.
</event>
<event>
 5   0  0.5614989E-05  0.1907460E+04  0.7818609E-02  0.8651152E-01
        1   -1    0    0  501    0  0.00000000000E+00  0.00000000000E+00  0.12346789297E+04  0.12346789297E+04  0.50400001928E-02 0.  1.
       -1   -1    0    0    0  501  0.00000000000E+00  0.00000000000E+00 -0.73671055027E+03  0.73671055029E+03  0.50400001928E-02 0. -1.
    10030    2    1    2    0    0  0.00000000000E+00  0.00000000000E+00  0.49796837945E+03  0.19713894800E+04  0.19074600848E+04 0.  0.
        4    1    3    3  502    0 -0.17441855384E+02  0.74670108774E+03 -0.36396336499E+03  0.83086561892E+03  0.12699999809E+01 0. -1.
       -4    1    3    3    0  502  0.17441855384E+02 -0.74670108774E+03  0.86193174443E+03  0.11405238611E+04  0.12699999809E+01 0.  1.
</event>
<event>
 5   0  0.5841424E-05  0.1849531E+04  0.7818609E-02  0.8680394E-01
        1   -1    0    0  501    0  0.00000000000E+00  0.00000000000E+00  0.24124365594E+04  0.24124365594E+04  0.50400001928E-02 0.  1.
       -1   -1    0    0    0  501  0.00000000000E+00  0.00000000000E+00 -0.35449273785E+03  0.35449273789E+03  0.50400001928E-02 0. -1.
    10030    2    1    2    0    0  0.00000000000E+00  0.00000000000E+00  0.20579438215E+04  0.27669292973E+04  0.18495310118E+04 0.  0.
        1    1    3    3  502    0  0.11359411309E+02 -0.46536999252E+03  0.22243753630E+04  0.22725633153E+04  0.50400001928E-02 0.  1.
       -1    1    3    3    0  502 -0.11359411309E+02  0.46536999252E+03 -0.16643154149E+03  0.49436598203E+03  0.50400001928E-02 0. -1.
</event>
<event>
 5   0  0.1118206E-04  0.1867243E+04  0.7818609E-02  0.8671336E-01
        2   -1    0    0  501    0  0.00000000000E+00  0.00000000000E+00  0.11076001077E+04  0.11076001077E+04  0.25500000920E-02 0.  1.
       -2   -1    0    0    0  501  0.00000000000E+00  0.00000000000E+00 -0.78697057750E+03  0.78697057751E+03  0.25500000920E-02 0. -1.
    10030    2    1    2    0    0  0.00000000000E+00  0.00000000000E+00  0.32062953019E+03  0.18945706852E+04  0.18672425621E+04 0.  0.
        1    1    3    3  502    0  0.14333405739E+03 -0.85223453533E+03 -0.19812646684E+03  0.88662418876E+03  0.50400001928E-02 0. -1.
       -1    1    3    3    0  502 -0.14333405739E+03  0.85223453533E+03  0.51875599703E+03  0.10079464964E+04  0.50400001928E-02 0.  1.
</event>
<event>
 5   0  0.5579109E-05  0.1890907E+04  0.7818609E-02  0.8659396E-01
       -1   -1    0    0    0  501  0.00000000000E+00  0.00000000000E+00  0.45338898605E+03  0.45338898608E+03  0.50400001928E-02 0.  1.
        1   -1    0    0  501    0  0.00000000000E+00  0.00000000000E+00 -0.19715561815E+04  0.19715561815E+04  0.50400001928E-02 0. -1.
    10030    2    1    2    0    0  0.00000000000E+00  0.00000000000E+00 -0.15181671954E+04  0.24249451676E+04  0.18909065107E+04 0.  0.
        3    1    3    3  502    0  0.32360110901E+03 -0.11394683825E+03 -0.18889137747E+04  0.19198168710E+04  0.10100000352E+00 0. -1.
       -3    1    3    3    0  502 -0.32360110901E+03  0.11394683825E+03  0.37074657930E+03  0.50512829654E+03  0.10100000352E+00 0.  1.
</event>
<event>
 5   0  0.1141890E-04  0.1898405E+04  0.7818609E-02  0.8655651E-01
        2   -1    0    0  501    0  0.00000000000E+00  0.00000000000E+00  0.12148960753E+04  0.12148960753E+04  0.25500000920E-02 0. -1.
       -2   -1    0    0    0  501  0.00000000000E+00  0.00000000000E+00 -0.74161517335E+03  0.74161517335E+03  0.25500000920E-02 0.  1.
    10030    2    1    2    0    0  0.00000000000E+00  0.00000000000E+00  0.47328090193E+03  0.19565112486E+04  0.18984049763E+04 0.  0.
        2    1    3    3  502    0 -0.33076225312E+03  0.73877014566E+03 -0.27431701492E+03  0.85465479633E+03  0.25500000920E-02 0.  1.
       -2    1    3    3    0  502  0.33076225312E+03 -0.73877014566E+03  0.74759791685E+03  0.11018564523E+04  0.25500000920E-02 0. -1.
</event>
<event>
 5   0  0.1133638E-04  0.1901217E+04  0.7818609E-02  0.8654251E-01
       -2   -1    0    0    0  501  0.00000000000E+00  0.00000000000E+00  0.62227982883E+03  0.62227982884E+03  0.25500000920E-02 0.  1.
        2   -1    0    0  501    0  0.00000000000E+00  0.00000000000E+00 -0.14521711956E+04  0.14521711956E+04  0.25500000920E-02 0. -1.
    10030    2    1    2    0    0  0.00000000000E+00  0.00000000000E+00 -0.82989136678E+03  0.20744510245E+04  0.19012173395E+04 0.  0.
        3    1    3    3  502    0 -0.17661403751E+03  0.33567621802E+03  0.53613421636E+03  0.65674268153E+03  0.10100000352E+00 0.  1.
       -3    1    3    3    0  502  0.17661403751E+03 -0.33567621802E+03 -0.13660255831E+04  0.14177083429E+04  0.10100000352E+00 0. -1.
</event>
<event>
 5   0  0.5628936E-05  0.1904349E+04  0.7818609E-02  0.8652694E-01
        1   -1    0    0  501    0  0.00000000000E+00  0.00000000000E+00  0.49775203540E+03  0.49775203542E+03  0.50400001928E-02 0. -1.
       -1   -1    0    0    0  501  0.00000000000E+00  0.00000000000E+00 -0.18214622637E+04  0.18214622637E+04  0.50400001928E-02 0.  1.
    10030    2    1    2    0    0  0.00000000000E+00  0.00000000000E+00 -0.13237102283E+04  0.23192142991E+04  0.19043492844E+04 0.  0.
        5    1    3    3  502    0 -0.46890261792E+03 -0.47347452273E+03  0.16643302324E+03  0.68685502836E+03  0.46999998093E+01 0. -1.
       -5    1    3    3    0  502  0.46890261792E+03  0.47347452273E+03 -0.14901432516E+04  0.16323592708E+04  0.46999998093E+01 0.  1.
</event>
<event>
 5   0  0.1101678E-04  0.2127176E+04  0.7818609E-02  0.8549366E-01
        2   -1    0    0  501    0  0.00000000000E+00  0.00000000000E+00  0.21646549641E+04  0.21646549641E+04  0.25500000920E-02 0. -1.
       -2   -1    0    0    0  501  0.00000000000E+00  0.00000000000E+00 -0.52258661299E+03  0.52258661299E+03  0.25500000920E-02 0.  1.
    10030    2    1    2    0    0  0.00000000000E+00  0.00000000000E+00  0.16420683511E+04  0.26872415771E+04  0.21271762560E+04 0.  0.
        4    1    3    3  502    0 -0.25186657138E+03  0.10408003326E+03  0.21197979958E+04  0.21372446231E+04  0.12699999809E+01 0. -1.
       -4    1    3    3    0  502  0.25186657138E+03 -0.10408003326E+03 -0.47772964468E+03  0.54999695400E+03  0.12699999809E+01 0.  1.
</event>
<event>
 5   0  0.1101678E-04  0.1900283E+04  0.7818609E-02  0.8654715E-01
        2   -1    0    0  501    0  0.00000000000E+00  0.00000000000E+00  0.10236205967E+04  0.10236205967E+04  0.25500000920E-02 0.  1.
       -2   -1    0    0    0  501  0.00000000000E+00  0.00000000000E+00 -0.88193717287E+03  0.88193717287E+03  0.25500000920E-02 0. -1.
    10030    2    1    2    0    0  0.00000000000E+00  0.00000000000E+00  0.14168342387E+03  0.19055577696E+04  0.19002831949E+04 0.  0.
        4    1    3    3  502    0 -0.12114570905E+03 -0.15343363849E+03  0.10032339900E+04  0.10221047969E+04  0.12699999809E+01 0.  1.
       -4    1    3    3    0  502  0.12114570905E+03  0.15343363849E+03 -0.86155056609E+03  0.88345297276E+03  0.12699999809E+01 0. -1.
</event>
<event>
 5   0  0.1141890E-04  0.1930655E+04  0.7818609E-02  0.8639746E-01
        2   -1    0    0  501    0  0.00000000000E+00  0.00000000000E+00  0.11362786374E+04  0.11362786374E+04  0.25500000920E-02 0. -1.
       -2   -1    0    0    0  501  0.00000000000E+00  0.00000000000E+00 -0.82009557022E+03  0.82009557022E+03  0.25500000920E-02 0.  1.
    10030    2    1    2    0    0  0.00000000000E+00  0.00000000000E+00  0.31618306718E+03  0.19563742076E+04  0.19306548910E+04 0.  0.
        2    1    3    3  502    0 -0.66503355522E+03 -0.59201308758E+03 -0.21984881282E+03  0.91710556968E+03  0.25500000920E-02 0.  1.
       -2    1    3    3    0  502  0.66503355522E+03  0.59201308758E+03  0.53603187999E+03  0.10392686379E+04  0.25500000920E-02 0. -1.
</event>
<event>
 5   0  0.5628936E-05  0.1897118E+04  0.7818609E-02  0.8656293E-01
       -1   -1    0    0    0  501  0.00000000000E+00  0.00000000000E+00  0.51924679598E+03  0.51924679601E+03  0.50400001928E-02 0. -1.
        1   -1    0    0  501    0  0.00000000000E+00  0.00000000000E+00 -0.17328247708E+04  0.17328247708E+04  0.50400001928E-02 0.  1.
    10030    2    1    2    0    0  0.00000000000E+00  0.00000000000E+00 -0.12135779749E+04  0.22520715669E+04  0.18971175085E+04 0.  0.
        5    1    3    3  502    0  0.38403407861E+03  0.27794843286E+03  0.36851761828E+03  0.60047050706E+03  0.46999998093E+01 0. -1.
       -5    1    3    3    0  502 -0.38403407861E+03 -0.27794843286E+03 -0.15820955931E+04  0.16516010598E+04  0.46999998093E+01 0.  1.
</event>
<event>
 5   0  0.1133638E-04  0.1902645E+04  0.7818609E-02  0.8653541E-01
       -2   -1    0    0    0  501  0.00000000000E+00  0.00000000000E+00  0.50020770901E+03  0.50020770902E+03  0.25500000920E-02 0.  1.
        2   -1    0    0  501    0  0.00000000000E+00  0.00000000000E+00 -0.18092776435E+04  0.18092776435E+04  0.25500000920E-02 0. -1.
    10030    2    1    2    0    0  0.00000000000E+00  0.00000000000E+00 -0.13090699345E+04  0.23094853525E+04  0.19026451325E+04 0.  0.
        3    1    3    3  502    0  0.16385095249E+03 -0.18097357274E+03 -0.17706081194E+04  0.17873588592E+04  0.10100000352E+00 0. -1.
       -3    1    3    3    0  502 -0.16385095249E+03  0.18097357274E+03  0.46153818496E+03  0.52212649333E+03  0.10100000352E+00 0.  1.
</event>
<event>
 5   0  0.5579109E-05  0.1787021E+04  0.7818609E-02  0.8713232E-01
       -1   -1    0    0    0  501  0.00000000000E+00  0.00000000000E+00  0.52991382986E+03  0.52991382988E+03  0.50400001928E-02 0. -1.
        1   -1    0    0  501    0  0.00000000000E+00  0.00000000000E+00 -0.15065867868E+04  0.15065867869E+04  0.50400001928E-02 0.  1.
    10030    2    1    2    0    0  0.00000000000E+00  0.00000000000E+00 -0.97667295699E+03  0.20365006167E+04  0.17870211798E+04 0.  0.
        3    1    3    3  502    0  0.24233143022E+03 -0.59744604399E+03  0.21665061209E+03  0.68014983310E+03  0.10100000352E+00 0. -1.
       -3    1    3    3    0  502 -0.24233143022E+03  0.59744604399E+03 -0.11933235691E+04  0.13563507836E+04  0.10100000352E+00 0.  1.
</event>
<event>
 5   0  0.1101678E-04  0.1899091E+04  0.7818609E-02  0.8655309E-01
        2   -1    0    0  501    0  0.00000000000E+00  0.00000000000E+00  0.10623597250E+04  0.10623597250E+04  0.25500000920E-02 0.  1.
       -2   -1    0    0    0  501  0.00000000000E+00  0.00000000000E+00 -0.84871099163E+03  0.84871099163E+03  0.25500000920E-02 0. -1.
    10030    2    1    2    0    0  0.00000000000E+00  0.00000000000E+00  0.21364873338E+03  0.19110707166E+04  0.18990907042E+04 0.  0.
        4    1    3    3  502    0  0.41403401062E+03  0.15088906722E+03 -0.73957787403E+03  0.86091156178E+03  0.12699999809E+01 0. -1.
       -4    1    3    3    0  502 -0.41403401062E+03 -0.15088906722E+03  0.95322660742E+03  0.10501591549E+04  0.12699999809E+01 0.  1.
</event>
<event>
 5   0  0.5614989E-05  0.1899918E+04  0.7818609E-02  0.8654897E-01
        1   -1    0    0  501    0  0.00000000000E+00  0.00000000000E+00  0.14141416234E+04  0.14141416234E+04  0.50400001928E-02 0. -1.
       -1   -1    0    0    0  501  0.00000000000E+00  0.00000000000E+00 -0.63814109390E+03  0.63814109392E+03  0.50400001928E-02 0.  1.
    10030    2    1    2    0    0  0.00000000000E+00  0.00000000000E+00  0.77600052953E+03  0.20522827174E+04  0.18999177693E+04 0.  0.
        4    1    3    3  502    0 -0.10145246138E+03 -0.45546889653E+03  0.12818095399E+04  0.13641047713E+04  0.12699999809E+01 0. -1.
       -4    1    3    3    0  502  0.10145246138E+03  0.45546889653E+03 -0.50580901034E+03  0.68817794608E+03  0.12699999809E+01 0.  1.
</event>
<event>
 5   0  0.5579109E-05  0.2016051E+04  0.7818609E-02  0.8599153E-01
        1   -1    0    0  501    0  0.00000000000E+00  0.00000000000E+00  0.12764497321E+04  0.12764497321E+04  0.50400001928E-02 0.  1.
       -1   -1    0    0    0  501  0.00000000000E+00  0.00000000000E+00 -0.79604788532E+03  0.79604788534E+03  0.50400001928E-02 0. -1.
    10030    2    1    2    0    0  0.00000000000E+00  0.00000000000E+00  0.48040184680E+03  0.20724976175E+04  0.20160507037E+04 0.  0.
        3    1    3    3  502    0  0.78493589907E+03  0.42781269932E+03 -0.23863801580E+03  0.92525465908E+03  0.10100000352E+00 0. -1.
       -3    1    3    3    0  502 -0.78493589907E+03 -0.42781269932E+03  0.71903986260E+03  0.11472429584E+04  0.10100000352E+00 0.  1.
</event>
<event>
 5   0  0.1141890E-04  0.1918687E+04  0.7818609E-02  0.8645610E-01
       -2   -1    0    0    0  501  0.00000000000E+00  0.00000000000E+00  0.68201322698E+03  0.68201322698E+03  0.25500000920E-02 0. -1.
        2   -1    0    0  501    0  0.00000000000E+00  0.00000000000E+00 -0.13494452608E+04  0.13494452608E+04  0.25500000920E-02 0.  1.
    10030    2    1    2    0    0  0.00000000000E+00  0.00000000000E+00 -0.66743203386E+03  0.20314584878E+04  0.19186865476E+04 0.  0.
        2    1    3    3  502    0  0.45696988269E+03 -0.84125889403E+03 -0.39899634994E+03  0.10371769800E+04  0.25500000920E-02 0. -1.
       -2    1    3    3    0  502 -0.45696988269E+03  0.84125889403E+03 -0.26843568391E+03  0.99428150786E+03  0.25500000920E-02 0.  1.
</event>
<event>
 5   0  0.5579109E-05  0.1895155E+04  0.7818609E-02  0.8657272E-01
        1   -1    0    0  501    0  0.00000000000E+00  0.00000000000E+00  0.54192989868E+03  0.54192989871E+03  0.50400001928E-02 0. -1.
       -1   -1    0    0    0  501  0.00000000000E+00  0.00000000000E+00 -0.16568628013E+04  0.16568628013E+04  0.50400001928E-02 0.  1.
    10030    2    1    2    0    0  0.00000000000E+00  0.00000000000E+00 -0.11149329026E+04  0.21987927000E+04  0.18951553921E+04 0.  0.
        3    1    3    3  502    0 -0.82957658109E+03  0.11661857317E+03 -0.10712559417E+04  0.13599215045E+04  0.10100000352E+00 0.  1.
       -3    1    3    3    0  502  0.82957658109E+03 -0.11661857317E+03 -0.43676960858E+02  0.83887119548E+03  0.10100000352E+00 0. -1.
</event>
<event>
 5   0  0.1101678E-04  0.1923993E+04  0.7818609E-02  0.8643005E-01
        2   -1    0    0  501    0  0.00000000000E+00  0.00000000000E+00  0.24228206883E+04  0.24228206883E+04  0.25500000920E-02 0.  1.
       -2   -1    0    0    0  501  0.00000000000E+00  0.00000000000E+00 -0.38196698106E+03  0.38196698107E+03  0.25500000920E-02 0. -1.
    10030    2    1    2    0    0  0.00000000000E+00  0.00000000000E+00  0.20408537072E+04  0.28047876694E+04  0.19239932474E+04 0.  0.
        4    1    3    3  502    0  0.67798786036E+03  0.34373533786E+03  0.18799257167E+04  0.20277928481E+04  0.12699999809E+01 0.  1.
       -4    1    3    3    0  502 -0.67798786036E+03 -0.34373533786E+03  0.16092799048E+03  0.77699482129E+03  0.12699999809E+01 0. -1.
</event>
<event>
 5   0  0.1118206E-04  0.1910333E+04  0.7818609E-02  0.8649730E-01
       -2   -1    0    0    0  501  0.00000000000E+00  0.00000000000E+00  0.89894218689E+03  0.89894218690E+03  0.25500000920E-02 0. -1.
        2   -1    0    0  501    0  0.00000000000E+00  0.00000000000E+00 -0.10149070291E+04  0.10149070291E+04  0.25500000920E-02 0.  1.
    10030    2    1    2    0    0  0.00000000000E+00  0.00000000000E+00 -0.11596484220E+03  0.19138492160E+04  0.19103326875E+04 0.  0.
        1    1    3    3  502    0  0.39078351352E+03 -0.84706170864E+03  0.14762072409E+03  0.94446660655E+03  0.50400001928E-02 0. -1.
       -1    1    3    3    0  502 -0.39078351352E+03  0.84706170864E+03 -0.26358556629E+03  0.96938260943E+03  0.50400001928E-02 0.  1.
</event>
<event>
 5   0  0.1118206E-04  0.1904442E+04  0.7818609E-02  0.8652649E-01
        2   -1    0    0  501    0  0.00000000000E+00  0.00000000000E+00  0.11664345242E+04  0.11664345242E+04  0.25500000920E-02 0. -1.
       -2   -1    0    0    0  501  0.00000000000E+00  0.00000000000E+00 -0.77734719943E+03  0.77734719943E+03  0.25500000920E-02 0.  1.
    10030    2    1    2    0    0  0.00000000000E+00  0.00000000000E+00  0.38908732474E+03  0.19437817236E+04  0.19044417667E+04 0.  0.
        1    1    3    3  502    0  0.65225703475E+03 -0.29651649720E+03 -0.44559894914E+03  0.84375333837E+03  0.50400001928E-02 0.  1.
       -1    1    3    3    0  502 -0.65225703475E+03  0.29651649720E+03  0.83468627389E+03  0.11000283852E+04  0.50400001928E-02 0. -1.
</event>
<event>
 5   0  0.1133638E-04  0.1890801E+04  0.7818609E-02  0.8659449E-01
        2   -1    0    0  501    0  0.00000000000E+00  0.00000000000E+00  0.22544519526E+04  0.22544519526E+04  0.25500000920E-02 0. -1.
       -2   -1    0    0    0  501  0.00000000000E+00  0.00000000000E+00 -0.39645199687E+03  0.39645199688E+03  0.25500000920E-02 0.  1.
    10030    2    1    2    0    0  0.00000000000E+00  0.00000000000E+00  0.18579999558E+04  0.26509039495E+04  0.18908008658E+04 0.  0.
        3    1    3    3  502    0 -0.88383098958E+03  0.31579891718E+03  0.76978928078E+03  0.12138623156E+04  0.10100000352E+00 0. -1.
       -3    1    3    3    0  502  0.88383098958E+03 -0.31579891718E+03  0.10882106750E+04  0.14370416339E+04  0.10100000352E+00 0.  1.
</event>
<event>
 5   0  0.1182630E-04  0.1886671E+04  0.7818609E-02  0.8661520E-01
       -2   -1    0    0    0  501  0.00000000000E+00  0.00000000000E+00  0.10165750486E+04  0.10165750486E+04  0.25500000920E-02 0. -1.
        2   -1    0    0  501    0  0.00000000000E+00  0.00000000000E+00 -0.87537245103E+03  0.87537245103E+03  0.25500000920E-02 0.  1.
    10030    2    1    2    0    0  0.00000000000E+00  0.00000000000E+00  0.14120259760E+03  0.18919474997E+04  0.18866709220E+04 0.  0.
        5    1    3    3  502    0 -0.40565774580E+03  0.33202493429E+03 -0.71585029706E+03  0.88727814213E+03  0.46999998093E+01 0.  1.
       -5    1    3    3    0  502  0.40565774580E+03 -0.33202493429E+03  0.85705289465E+03  0.10046693575E+04  0.46999998093E+01 0. -1.
</event>
<event>
 5   0  0.5579109E-05  0.1906900E+04  0.7818609E-02  0.8651429E-01
        1   -1    0    0  501    0  0.00000000000E+00  0.00000000000E+00  0.14688050675E+04  0.14688050675E+04  0.50400001928E-02 0. -1.
       -1   -1    0    0    0  501  0.00000000000E+00  0.00000000000E+00 -0.61891597425E+03  0.61891597427E+03  0.50400001928E-02 0.  1.
    10030    2    1    2    0    0  0.00000000000E+00  0.00000000000E+00  0.84988909322E+03  0.20877210418E+04  0.19069000177E+04 0.  0.
        3    1    3    3  502    0 -0.13448435381E+03 -0.89940765929E+02  0.14536670021E+04  0.14626425216E+04  0.10100000352E+00 0. -1.
       -3    1    3    3    0  502  0.13448435381E+03  0.89940765929E+02 -0.60377790893E+03  0.62507852011E+03  0.10100000352E+00 0.  1.
</event>
<event>
 5   0  0.5614989E-05  0.1901494E+04  0.7818609E-02  0.8654113E-01
        1   -1    0    0  501    0  0.00000000000E+00  0.00000000000E+00  0.17620944670E+04  0.17620944670E+04  0.50400001928E-02 0.  1.
       -1   -1    0    0    0  501  0.00000000000E+00  0.00000000000E+00 -0.51298011645E+03  0.51298011648E+03  0.50400001928E-02 0. -1.
    10030    2    1    2    0    0  0.00000000000E+00  0.00000000000E+00  0.12491143505E+04  0.22750745834E+04  0.19014935444E+04 0.  0.
        4    1    3    3  502    0 -0.63490029611E+03 -0.30008096018E+03 -0.14227546108E+03  0.71651300643E+03  0.12699999809E+01 0.  1.
       -4    1    3    3    0  502  0.63490029611E+03  0.30008096018E+03  0.13913898116E+04  0.15585615770E+04  0.12699999809E+01 0. -1.
</event>
<event>
 5   0  0.1101678E-04  0.1891079E+04  0.7818609E-02  0.8659310E-01
       -2   -1    0    0    0  501  0.00000000000E+00  0.00000000000E+00  0.79041258294E+03  0.79041258294E+03  0.25500000920E-02 0.  1.
        2   -1    0    0  501    0  0.00000000000E+00  0.00000000000E+00 -0.11311112507E+04  0.11311112507E+04  0.25500000920E-02 0. -1.
    10030    2    1    2    0    0  0.00000000000E+00  0.00000000000E+00 -0.34069866772E+03  0.19215238336E+04  0.18910785972E+04 0.  0.
        4    1    3    3  502    0 -0.79242915458E+03 -0.67886152819E+02 -0.68994332340E+03  0.10528893091E+04  0.12699999809E+01 0.  1.
       -4    1    3    3    0  502  0.79242915458E+03  0.67886152819E+02  0.34924465569E+03  0.86863452452E+03  0.12699999809E+01 0. -1.
</event>
<event>
 5   0  0.5579109E-05  0.1889313E+04  0.7818609E-02  0.8660194E-01
        1   -1    0    0  501    0  0.00000000000E+00  0.00000000000E+00  0.25186395044E+04  0.25186395044E+04  0.50400001928E-02 0.  1.
       -1   -1    0    0    0  501  0.00000000000E+00  0.00000000000E+00 -0.35430863900E+03  0.35430863903E+03  0.50400001928E-02 0. -1.
    10030    2    1    2    0    0  0.00000000000E+00  0.00000000000E+00  0.21643308654E+04  0.28729481434E+04  0.18893128222E+04 0.  0.
        3    1    3    3  502    0 -0.14196004771E+03  0.10844371142E+03  0.24927204274E+04  0.24991134094E+04  0.10100000352E+00 0.  1.
       -3    1    3    3    0  502  0.14196004771E+03 -0.10844371142E+03 -0.32838956203E+03  0.37383473400E+03  0.10100000352E+00 0. -1.
</event>
<event>
 5   0  0.5824956E-05  0.1904195E+04  0.7818609E-02  0.8652771E-01
        1   -1    0    0  501    0  0.00000000000E+00  0.00000000000E+00  0.15230881495E+04  0.15230881495E+04  0.50400001928E-02 0.  1.
       -1   -1    0    0    0  501  0.00000000000E+00  0.00000000000E+00 -0.59516531755E+03  0.59516531757E+03  0.50400001928E-02 0. -1.
    10030    2    1    2    0    0  0.00000000000E+00  0.00000000000E+00  0.92792283196E+03  0.21182534671E+04  0.19041945722E+04 0.  0.
        2    1    3    3  502    0  0.84465343921E+03 -0.27716528966E+03  0.84321024612E+03  0.12252606047E+04  0.25500000920E-02 0.  1.
       -2    1    3    3    0  502 -0.84465343921E+03  0.27716528966E+03  0.84712585838E+02  0.89299286244E+03  0.25500000920E-02 0. -1.
</event>
<event>
 5   0  0.5628936E-05  0.1893194E+04  0.7818609E-02  0.8658252E-01
       -1   -1    0    0    0  501  0.00000000000E+00  0.00000000000E+00  0.75257254360E+03  0.75257254362E+03  0.50400001928E-02 0.  1.
        1   -1    0    0  501    0  0.00000000000E+00  0.00000000000E+00 -0.11906432770E+04  0.11906432770E+04  0.50400001928E-02 0. -1.
    10030    2    1    2    0    0  0.00000000000E+00  0.00000000000E+00 -0.43807073341E+03  0.19432158206E+04  0.18931935342E+04 0.  0.
        5    1    3    3  502    0 -0.73554304265E+03 -0.14165986054E+03 -0.81306008742E+03  0.11055224464E+04  0.46999998093E+01 0. -1.
       -5    1    3    3    0  502  0.73554304265E+03  0.14165986054E+03  0.37498935401E+03  0.83769337427E+03  0.46999998093E+01 0.  1.
</event>
<event>
 5   0  0.5579109E-05  0.1865771E+04  0.7818609E-02  0.8672084E-01
       -1   -1    0    0    0  501  0.00000000000E+00  0.00000000000E+00  0.11103673197E+04  0.11103673197E+04  0.50400001928E-02 0.  1.
        1   -1    0    0  501    0  0.00000000000E+00  0.00000000000E+00 -0.78377278707E+03  0.78377278709E+03  0.50400001928E-02 0. -1.
    10030    2    1    2    0    0  0.00000000000E+00  0.00000000000E+00  0.32659453262E+03  0.18941401068E+04  0.18657713567E+04 0.  0.
        3    1    3    3  502    0 -0.16783461684E+03 -0.44107172431E+03 -0.65365122723E+03  0.80620882013E+03  0.10100000352E+00 0. -1.
       -3    1    3    3    0  502  0.16783461684E+03  0.44107172431E+03  0.98024575985E+03  0.10879312867E+04  0.10100000352E+00 0.  1.
</event>
<event>
 5   0  0.5628936E-05  0.1934672E+04  0.7818609E-02  0.8637788E-01
        1   -1    0    0  501    0  0.00000000000E+00  0.00000000000E+00  0.11442715782E+04  0.11442715782E+04  0.50400001928E-02 0. -1.
       -1   -1    0    0    0  501  0.00000000000E+00  0.00000000000E+00 -0.81775920285E+03  0.81775920287E+03  0.50400001928E-02 0.  1.
    10030    2    1    2    0    0  0.00000000000E+00  0.00000000000E+00  0.32651237535E+03  0.19620307811E+04  0.19346716659E+04 0.  0.
        5    1    3    3  502    0 -0.92729094639E+03 -0.64686213480E+02 -0.10823029686E+03  0.93583582568E+03  0.46999998093E+01 0.  1.
       -5    1    3    3    0  502  0.92729094639E+03  0.64686213480E+02  0.43474267221E+03  0.10261949554E+04  0.46999998093E+01 0. -1.
</event>
<event>
 5   0  0.5824956E-05  0.1901690E+04  0.7818609E-02  0.8654016E-01
        1   -1    0    0  501    0  0.00000000000E+00  0.00000000000E+00  0.14530492099E+04  0.14530492099E+04  0.50400001928E-02 0.  1.
       -1   -1    0    0    0  501  0.00000000000E+00  0.00000000000E+00 -0.62221309227E+03  0.62221309229E+03  0.50400001928E-02 0. -1.
    10030    2    1    2    0    0  0.00000000000E+00  0.00000000000E+00  0.83083611766E+03  0.20752623022E+04  0.19016900296E+04 0.  0.
        2    1    3    3  502    0  0.83495827746E+03  0.20700746839E+03 -0.26646810720E+02  0.86064944641E+03  0.25500000920E-02 0. -1.
       -2    1    3    3    0  502 -0.83495827746E+03 -0.20700746839E+03  0.85748292838E+03  0.12146128558E+04  0.25500000920E-02 0.  1.
</event>
<event>
 5   0  0.5824956E-05  0.1964748E+04  0.7818609E-02  0.8623282E-01
        1   -1    0    0  501    0  0.00000000000E+00  0.00000000000E+00  0.23935924896E+04  0.23935924896E+04  0.50400001928E-02 0.  1.
       -1   -1    0    0    0  501  0.00000000000E+00  0.00000000000E+00 -0.40318416463E+03  0.40318416466E+03  0.50400001928E-02 0. -1.
    10030    2    1    2    0    0  0.00000000000E+00  0.00000000000E+00  0.19904083249E+04  0.27967766542E+04  0.19647479110E+04 0.  0.
        2    1    3    3  502    0 -0.79573329025E+02 -0.59223687854E+03 -0.11472782004E+03  0.60847260226E+03  0.25500000920E-02 0. -1.
       -2    1    3    3    0  502  0.79573329025E+02  0.59223687854E+03  0.21051361450E+04  0.21883040520E+04  0.25500000920E-02 0.  1.
</event>
<event>
 5   0  0.1182630E-04  0.1895079E+04  0.7818609E-02  0.8657310E-01
        2   -1    0    0  501    0  0.00000000000E+00  0.00000000000E+00  0.10843887823E+04  0.10843887823E+04  0.25500000920E-02 0. -1.
       -2   -1    0    0    0  501  0.00000000000E+00  0.00000000000E+00 -0.82796010776E+03  0.82796010776E+03  0.25500000920E-02 0.  1.
    10030    2    1    2    0    0  0.00000000000E+00  0.00000000000E+00  0.25642867450E+03  0.19123488900E+04  0.18950785240E+04 0.  0.
        5    1    3    3  502    0 -0.26236307044E+03 -0.52198133672E+03  0.88100855442E+03  0.10571173348E+04  0.46999998093E+01 0. -1.
       -5    1    3    3    0  502  0.26236307044E+03  0.52198133672E+03 -0.62457987992E+03  0.85523155520E+03  0.46999998093E+01 0.  1.
</event>
<event>
 5   0  0.5579109E-05  0.1897931E+04  0.7818609E-02  0.8655887E-01
        1   -1    0    0  501    0  0.00000000000E+00  0.00000000000E+00  0.12325280816E+04  0.12325280816E+04  0.50400001928E-02 0. -1.
       -1   -1    0    0    0  501  0.00000000000E+00  0.00000000000E+00 -0.73064134136E+03  0.73064134137E+03  0.50400001928E-02 0.  1.
    10030    2    1    2    0    0  0.00000000000E+00  0.00000000000E+00  0.50188674025E+03  0.19631694230E+04  0.18979314749E+04 0.  0.
        3    1    3    3  502    0  0.68324860675E+03 -0.56385817429E+03 -0.10100392797E+03  0.89160894063E+03  0.10100000352E+00 0.  1.
       -3    1    3    3    0  502 -0.68324860675E+03  0.56385817429E+03  0.60289066822E+03  0.10715604824E+04  0.10100000352E+00 0. -1.
</event>
<event>
 5   0  0.1182630E-04  0.1842379E+04  0.7818609E-02  0.8684082E-01
       -2   -1    0    0    0  501  0.00000000000E+00  0.00000000000E+00  0.63151461701E+03  0.63151461702E+03  0.25500000920E-02 0. -1.
        2   -1    0    0  501    0  0.00000000000E+00  0.00000000000E+00 -0.13437375461E+04  0.13437375461E+04  0.25500000920E-02 0.  1.
    10030    2    1    2    0    0  0.00000000000E+00  0.00000000000E+00 -0.71222292912E+03  0.19752521632E+04  0.18423787904E+04 0.  0.
        5    1    3    3  502    0 -0.67229595425E+03  0.60689357275E+03 -0.53636217039E+03  0.10526196495E+04  0.46999998093E+01 0. -1.
       -5    1    3    3    0  502  0.67229595425E+03 -0.60689357275E+03 -0.17586075872E+03  0.92263251363E+03  0.46999998093E+01 0.  1.
</event>
<event>
 5   0  0.5579109E-05  0.1901567E+04  0.7818609E-02  0.8654077E-01
       -1   -1    0    0    0  501  0.00000000000E+00  0.00000000000E+00  0.46182902146E+03  0.46182902149E+03  0.50400001928E-02 0. -1.
        1   -1    0    0  501    0  0.00000000000E+00  0.00000000000E+00 -0.19574110446E+04  0.19574110446E+04  0.50400001928E-02 0.  1.
    10030    2    1    2    0    0  0.00000000000E+00  0.00000000000E+00 -0.14955820231E+04  0.24192400661E+04  0.19015669616E+04 0.  0.
        3    1    3    3  502    0  0.26508169666E+03 -0.27657942278E+03  0.35929085908E+03  0.52521844468E+03  0.10100000352E+00 0. -1.
       -3    1    3    3    0  502 -0.26508169666E+03  0.27657942278E+03 -0.18548728822E+04  0.18940216214E+04  0.10100000352E+00 0.  1.
</event>
<event>
 5   0  0.1101678E-04  0.1920797E+04  0.7818609E-02  0.8644573E-01
        2   -1    0    0  501    0  0.00000000000E+00  0.00000000000E+00  0.15378141894E+04  0.15378141894E+04  0.25500000920E-02 0.  1.
       -2   -1    0    0    0  501  0.00000000000E+00  0.00000000000E+00 -0.59978977393E+03  0.59978977393E+03  0.25500000920E-02 0. -1.
    10030    2    1    2    0    0  0.00000000000E+00  0.00000000000E+00  0.93802441552E+03  0.21376039634E+04  0.19207969440E+04 0.  0.
        4    1    3    3  502    0 -0.41101181225E+03  0.35129270737E+03  0.13523466043E+04  0.14564272131E+04  0.12699999809E+01 0.  1.
       -4    1    3    3    0  502  0.41101181225E+03 -0.35129270737E+03 -0.41432218879E+03  0.68117675025E+03  0.12699999809E+01 0. -1.
</event>
<event>
 5   0  0.5614989E-05  0.1892615E+04  0.7818609E-02  0.8658541E-01
       -1   -1    0    0    0  501  0.00000000000E+00  0.00000000000E+00  0.97432729175E+03  0.97432729176E+03  0.50400001928E-02 0.  1.
        1   -1    0    0  501    0  0.00000000000E+00  0.00000000000E+00 -0.91909356362E+03  0.91909356364E+03  0.50400001928E-02 0. -1.
    10030    2    1    2    0    0  0.00000000000E+00  0.00000000000E+00  0.55233728126E+02  0.18934208554E+04  0.18926150615E+04 0.  0.
        4    1    3    3  502    0 -0.53904079531E+03 -0.73325865113E+03 -0.23184486534E+03  0.93914156704E+03  0.12699999809E+01 0. -1.
       -4    1    3    3    0  502  0.53904079531E+03  0.73325865113E+03  0.28707859347E+03  0.95427928836E+03  0.12699999809E+01 0.  1.
</event>
<event>
 5   0  0.1101678E-04  0.1900467E+04  0.7818609E-02  0.8654624E-01
        2   -1    0    0  501    0  0.00000000000E+00  0.00000000000E+00  0.14765203104E+04  0.14765203104E+04  0.25500000920E-02 0.  1.
       -2   -1    0    0    0  501  0.00000000000E+00  0.00000000000E+00 -0.61153460082E+03  0.61153460083E+03  0.25500000920E-02 0. -1.
    10030    2    1    2    0    0  0.00000000000E+00  0.00000000000E+00  0.86498570954E+03  0.20880549112E+04  0.19004665307E+04 0.  0.
        4    1    3    3  502    0  0.12201008840E+03 -0.49671887292E+03  0.13123678167E+04  0.14085194353E+04  0.12699999809E+01 0.  1.
       -4    1    3    3    0  502 -0.12201008840E+03  0.49671887292E+03 -0.44738210712E+03  0.67953547594E+03  0.12699999809E+01 0. -1.
</event>
<event>
 5   0  0.1141890E-04  0.1912091E+04  0.7818609E-02  0.8648861E-01
        2   -1    0    0  501    0  0.00000000000E+00  0.00000000000E+00  0.13653550292E+04  0.13653550292E+04  0.25500000920E-02 0.  1.
       -2   -1    0    0    0  501  0.00000000000E+00  0.00000000000E+00 -0.66944000038E+03  0.66944000039E+03  0.25500000920E-02 0. -1.
    10030    2    1    2    0    0  0.00000000000E+00  0.00000000000E+00  0.69591502885E+03  0.20347950296E+04  0.19120912858E+04 0.  0.
        2    1    3    3  502    0  0.74508709238E+03 -0.30180988590E+03  0.89863907919E+03  0.12057347043E+04  0.25500000920E-02 0.  1.
       -2    1    3    3    0  502 -0.74508709238E+03  0.30180988590E+03 -0.20272405034E+03  0.82906032534E+03  0.25500000920E-02 0. -1.
</event>
<event>
 5   0  0.5841424E-05  0.1893617E+04  0.7818609E-02  0.8658040E-01
        1   -1    0    0  501    0  0.00000000000E+00  0.00000000000E+00  0.24531710264E+04  0.24531710265E+04  0.50400001928E-02 0. -1.
       -1   -1    0    0    0  501  0.00000000000E+00  0.00000000000E+00 -0.36542350344E+03  0.36542350347E+03  0.50400001928E-02 0.  1.
    10030    2    1    2    0    0  0.00000000000E+00  0.00000000000E+00  0.20877475230E+04  0.28185945299E+04  0.18936170163E+04 0.  0.
        1    1    3    3  502    0  0.26469865747E+03 -0.71586294026E+03  0.20990305588E+03  0.79157085684E+03  0.50400001928E-02 0.  1.
       -1    1    3    3    0  502 -0.26469865747E+03  0.71586294026E+03  0.18778444671E+04  0.20270236731E+04  0.50400001928E-02 0. -1.
</event>
<event>
 5   0  0.5841424E-05  0.1904905E+04  0.7818609E-02  0.8652419E-01
        1   -1    0    0  501    0  0.00000000000E+00  0.00000000000E+00  0.24832149168E+04  0.24832149168E+04  0.50400001928E-02 0.  1.
       -1   -1    0    0    0  501  0.00000000000E+00  0.00000000000E+00 -0.36531893395E+03  0.36531893399E+03  0.50400001928E-02 0. -1.
    10030    2    1    2    0    0  0.00000000000E+00  0.00000000000E+00  0.21178959828E+04  0.28485338508E+04  0.19049046446E+04 0.  0.
        1    1    3    3  502    0  0.27846874882E+03  0.22578180677E+01 -0.30308168035E+03  0.41159257380E+03  0.50400001928E-02 0. -1.
       -1    1    3    3    0  502 -0.27846874882E+03 -0.22578180677E+01  0.24209776632E+04  0.24369412770E+04  0.50400001928E-02 0.  1.
</event>
<event>
 5   0  0.1182630E-04  0.1971640E+04  0.7818609E-02  0.8619996E-01
       -2   -1    0    0    0  501  0.00000000000E+00  0.00000000000E+00  0.11352024279E+04  0.11352024279E+04  0.25500000920E-02 0.  1.
        2   -1    0    0  501    0  0.00000000000E+00  0.00000000000E+00 -0.85609485523E+03  0.85609485524E+03  0.25500000920E-02 0. -1.
    10030    2    1    2    0    0  0.00000000000E+00  0.00000000000E+00  0.27910757266E+03  0.19912972831E+04  0.19716398841E+04 0.  0.
        5    1    3    3  502    0 -0.79830902147E+02  0.97955467155E+03  0.21725285706E+03  0.10065392299E+04  0.46999998093E+01 0.  1.
       -5    1    3    3    0  502  0.79830902147E+02 -0.97955467155E+03  0.61854715608E+02  0.98475805320E+03  0.46999998093E+01 0. -1.
</event>
<event>
 5   0  0.1133638E-04  0.1897649E+04  0.7818609E-02  0.8656028E-01
       -2   -1    0    0    0  501  0.00000000000E+00  0.00000000000E+00  0.69356432335E+03  0.69356432336E+03  0.25500000920E-02 0. -1.
        2   -1    0    0  501    0  0.00000000000E+00  0.00000000000E+00 -0.12980308047E+04  0.12980308047E+04  0.25500000920E-02 0.  1.
    10030    2    1    2    0    0  0.00000000000E+00  0.00000000000E+00 -0.60446648133E+03  0.19915951280E+04  0.18976489209E+04 0.  0.
        3    1    3    3  502    0  0.40796714926E+03  0.12785527824E+02  0.59671509731E+03  0.72295890766E+03  0.10100000352E+00 0. -1.
       -3    1    3    3    0  502 -0.40796714926E+03 -0.12785527824E+02 -0.12011815786E+04  0.12686362204E+04  0.10100000352E+00 0.  1.
</event>
<event>
 5   0  0.1182630E-04  0.1904053E+04  0.7818609E-02  0.8652841E-01
       -2   -1    0    0    0  501  0.00000000000E+00  0.00000000000E+00  0.46021011879E+03  0.46021011879E+03  0.25500000920E-02 0. -1.
        2   -1    0    0  501    0  0.00000000000E+00  0.00000000000E+00 -0.19694368122E+04  0.19694368122E+04  0.25500000920E-02 0.  1.
    10030    2    1    2    0    0  0.00000000000E+00  0.00000000000E+00 -0.15092266934E+04  0.24296469310E+04  0.19040533073E+04 0.  0.
        5    1    3    3  502    0  0.16181863117E+02  0.57129697736E+03  0.21693000149E+03  0.61132872056E+03  0.46999998093E+01 0. -1.
       -5    1    3    3    0  502 -0.16181863117E+02 -0.57129697736E+03 -0.17261566949E+04  0.18183182104E+04  0.46999998093E+01 0.  1.
</event>
<event>
 5   0  0.5824956E-05  0.1899720E+04  0.7818609E-02  0.8654996E-01
        1   -1    0    0  501    0  0.00000000000E+00  0.00000000000E+00  0.12453652498E+04  0.12453652499E+04  0.50400001928E-02 0. -1.
       -1   -1    0    0    0  501  0.00000000000E+00  0.00000000000E+00 -0.72447371900E+03  0.72447371902E+03  0.50400001928E-02 0.  1.
    10030    2    1    2    0    0  0.00000000000E+00  0.00000000000E+00  0.52089153085E+03  0.19698389689E+04  0.18997203943E+04 0.  0.
        2    1    3    3  502    0  0.38238629984E+03  0.57376855627E+02 -0.63917326786E+03  0.74703002096E+03  0.25500000920E-02 0.  1.
       -2    1    3    3    0  502 -0.38238629984E+03 -0.57376855627E+02  0.11600647987E+04  0.12228089479E+04  0.25500000920E-02 0. -1.
</event>
<event>
 5   0  0.1101678E-04  0.1899541E+04  0.7818609E-02  0.8655085E-01
        2   -1    0    0  501    0  0.00000000000E+00  0.00000000000E+00  0.85416759492E+03  0.85416759492E+03  0.25500000920E-02 0. -1.
       -2   -1    0    0    0  501  0.00000000000E+00  0.00000000000E+00 -0.10560739622E+04  0.10560739622E+04  0.25500000920E-02 0.  1.
    10030    2    1    2    0    0  0.00000000000E+00  0.00000000000E+00 -0.20190636732E+03  0.19102415572E+04  0.18995411618E+04 0.  0.
        4    1    3    3  502    0  0.88555083392E+03 -0.34328987146E+03 -0.97146601349E+02  0.95471843512E+03  0.12699999809E+01 0. -1.
       -4    1    3    3    0  502 -0.88555083392E+03  0.34328987146E+03 -0.10475976597E+03  0.95552312205E+03  0.12699999809E+01 0.  1.
</event>
<event>
 5   0  0.5579109E-05  0.1892782E+04  0.7818609E-02  0.8658458E-01
        1   -1    0    0  501    0  0.00000000000E+00  0.00000000000E+00  0.14065957980E+04  0.14065957981E+04  0.50400001928E-02 0. -1.
       -1   -1    0    0    0  501  0.00000000000E+00  0.00000000000E+00 -0.63675406027E+03  0.63675406029E+03  0.50400001928E-02 0.  1.
    10030    2    1    2    0    0  0.00000000000E+00  0.00000000000E+00  0.76984173777E+03  0.20433498583E+04  0.18927816415E+04 0.  0.
        3    1    3    3  502    0  0.92475567704E+03 -0.14114635303E+03  0.53971557285E+03  0.10799945671E+04  0.10100000352E+00 0. -1.
       -3    1    3    3    0  502 -0.92475567704E+03  0.14114635303E+03  0.23012616493E+03  0.96335529124E+03  0.10100000352E+00 0.  1.
</event>
<event>
 5   0  0.1133638E-04  0.1897688E+04  0.7818609E-02  0.8656008E-01
        2   -1    0    0  501    0  0.00000000000E+00  0.00000000000E+00  0.17991443971E+04  0.17991443971E+04  0.25500000920E-02 0.  1.
       -2   -1    0    0    0  501  0.00000000000E+00  0.00000000000E+00 -0.50040751199E+03  0.50040751199E+03  0.25500000920E-02 0. -1.
    10030    2    1    2    0    0  0.00000000000E+00  0.00000000000E+00  0.12987368851E+04  0.22995519091E+04  0.18976884586E+04 0.  0.
        3    1    3    3  502    0  0.33504343232E+03 -0.71418299426E+03  0.10463949035E+02  0.78893659775E+03  0.10100000352E+00 0.  1.
       -3    1    3    3    0  502 -0.33504343232E+03  0.71418299426E+03  0.12882729360E+04  0.15106153113E+04  0.10100000352E+00 0. -1.
</event>
<event>
 5   0  0.5841424E-05  0.1892894E+04  0.7818609E-02  0.8658402E-01
        1   -1    0    0  501    0  0.00000000000E+00  0.00000000000E+00  0.26629335759E+04  0.26629335759E+04  0.50400001928E-02 0. -1.
       -1   -1    0    0    0  501  0.00000000000E+00  0.00000000000E+00 -0.33638164249E+03  0.33638164253E+03  0.50400001928E-02 0.  1.
    10030    2    1    2    0    0  0.00000000000E+00  0.00000000000E+00  0.23265519334E+04  0.29993152184E+04  0.18928940490E+04 0.  0.
        1    1    3    3  502    0  0.30963135160E+03  0.66787287748E+03  0.22074213894E+03  0.76853942404E+03  0.50400001928E-02 0.  1.
       -1    1    3    3    0  502 -0.30963135160E+03 -0.66787287748E+03  0.21058097944E+04  0.22307757944E+04  0.50400001928E-02 0. -1.
</event>
<event>
 5   0  0.1182630E-04  0.1901879E+04  0.7818609E-02  0.8653921E-01
        2   -1    0    0  501    0  0.00000000000E+00  0.00000000000E+00  0.12603790592E+04  0.12603790592E+04  0.25500000920E-02 0. -1.
       -2   -1    0    0    0  501  0.00000000000E+00  0.00000000000E+00 -0.71747168966E+03  0.71747168967E+03  0.25500000920E-02 0.  1.
    10030    2    1    2    0    0  0.00000000000E+00  0.00000000000E+00  0.54290736958E+03  0.19778507489E+04  0.19018793792E+04 0.  0.
        5    1    3    3  502    0 -0.43526400333E+03 -0.51823794908E+02  0.11490368427E+04  0.12298163336E+04  0.46999998093E+01 0. -1.
       -5    1    3    3    0  502  0.43526400333E+03  0.51823794908E+02 -0.60612947317E+03  0.74803441535E+03  0.46999998093E+01 0.  1.
</event>
<event>
 5   0  0.5614989E-05  0.1909384E+04  0.7818609E-02  0.8650199E-01
        1   -1    0    0  501    0  0.00000000000E+00  0.00000000000E+00  0.94215215852E+03  0.94215215853E+03  0.50400001928E-02 0. -1.
       -1   -1    0    0    0  501  0.00000000000E+00  0.00000000000E+00 -0.96739891596E+03  0.96739891598E+03  0.50400001928E-02 0.  1.
    10030    2    1    2    0    0  0.00000000000E+00  0.00000000000E+00 -0.25246757448E+02  0.19095510745E+04  0.19093841697E+04 0.  0.
        4    1    3    3  502    0 -0.20090542055E+03  0.48460228859E+03  0.78508849449E+03  0.94422874516E+03  0.12699999809E+01 0. -1.
       -4    1    3    3    0  502  0.20090542055E+03 -0.48460228859E+03 -0.81033525193E+03  0.96532232935E+03  0.12699999809E+01 0.  1.
</event>
<event>
 5   0  0.1141890E-04  0.1902296E+04  0.7818609E-02  0.8653714E-01
       -2   -1    0    0    0  501  0.00000000000E+00  0.00000000000E+00  0.73914577818E+03  0.73914577819E+03  0.25500000920E-02 0.  1.
        2   -1    0    0  501    0  0.00000000000E+00  0.00000000000E+00 -0.12239571918E+04  0.12239571918E+04  0.25500000920E-02 0. -1.
    10030    2    1    2    0    0  0.00000000000E+00  0.00000000000E+00 -0.48481141365E+03  0.19631029700E+04  0.19022962871E+04 0.  0.
        2    1    3    3  502    0  0.83698379353E+03 -0.44124800389E+03 -0.34267701157E+03  0.10063146654E+04  0.25500000920E-02 0.  1.
       -2    1    3    3    0  502 -0.83698379353E+03  0.44124800389E+03 -0.14213440208E+03  0.95678830460E+03  0.25500000920E-02 0. -1.
</event>
<event>
 5   0  0.1133638E-04  0.1904580E+04  0.7818609E-02  0.8652580E-01
        2   -1    0    0  501    0  0.00000000000E+00  0.00000000000E+00  0.17964227481E+04  0.17964227481E+04  0.25500000920E-02 0.  1.
       -2   -1    0    0    0  501  0.00000000000E+00  0.00000000000E+00 -0.50481250851E+03  0.50481250851E+03  0.25500000920E-02 0. -1.
    10030    2    1    2    0    0  0.00000000000E+00  0.00000000000E+00  0.12916102396E+04  0.23012352566E+04  0.19045804513E+04 0.  0.
        3    1    3    3  502    0  0.65742235538E+03 -0.67355656693E+03  0.47081925653E+03  0.10524036225E+04  0.10100000352E+00 0. -1.
       -3    1    3    3    0  502 -0.65742235538E+03  0.67355656693E+03  0.82079098308E+03  0.12488316341E+04  0.10100000352E+00 0.  1.
</event>
<event>
 5   0  0.5628936E-05  0.1901931E+04  0.7818609E-02  0.8653896E-01
       -1   -1    0    0    0  501  0.00000000000E+00  0.00000000000E+00  0.57204683800E+03  0.57204683802E+03  0.50400001928E-02 0. -1.
        1   -1    0    0  501    0  0.00000000000E+00  0.00000000000E+00 -0.15808765264E+04  0.15808765264E+04  0.50400001928E-02 0.  1.
    10030    2    1    2    0    0  0.00000000000E+00  0.00000000000E+00 -0.10088296884E+04  0.21529233644E+04  0.19019310379E+04 0.  0.
        5    1    3    3  502    0 -0.88569432360E+03 -0.66882324871E+02 -0.88892667043E+03  0.12566385302E+04  0.46999998093E+01 0.  1.
       -5    1    3    3    0  502  0.88569432360E+03  0.66882324871E+02 -0.11990301792E+03  0.89628483416E+03  0.46999998093E+01 0. -1.
</event>
<event>
 5   0  0.4061125E-05  0.1897235E+04  0.7818609E-02  0.8656234E-01
        4   -1    0    0  501    0  0.00000000000E+00  0.00000000000E+00  0.10188568062E+04  0.10188575977E+04  0.12699999809E+01 0. -1.
       -4   -1    0    0    0  501  0.00000000000E+00  0.00000000000E+00 -0.88321847904E+03  0.88321939212E+03  0.12699999809E+01 0.  1.
    10030    2    1    2    0    0  0.00000000000E+00  0.00000000000E+00  0.13563832712E+03  0.19020769898E+04  0.18972345979E+04 0.  0.
        5    1    3    3  502    0 -0.57660490829E+03  0.38217976118E+03  0.71856607313E+03  0.99744367338E+03  0.46999998093E+01 0. -1.
       -5    1    3    3    0  502  0.57660490829E+03 -0.38217976118E+03 -0.58292774601E+03  0.90463331643E+03  0.46999998093E+01 0.  1.
</event>
<event>
 5   0  0.1101678E-04  0.1903990E+04  0.7818609E-02  0.8652873E-01
       -2   -1    0    0    0  501  0.00000000000E+00  0.00000000000E+00  0.10560799156E+04  0.10560799156E+04  0.25500000920E-02 0. -1.
        2   -1    0    0  501    0  0.00000000000E+00  0.00000000000E+00 -0.85816872743E+03  0.85816872744E+03  0.25500000920E-02 0.  1.
    10030    2    1    2    0    0  0.00000000000E+00  0.00000000000E+00  0.19791118821E+03  0.19142486431E+04  0.19039902912E+04 0.  0.
        4    1    3    3  502    0 -0.23653907390E+03  0.69404465791E+03 -0.51147663191E+03  0.89401268366E+03  0.12699999809E+01 0.  1.
       -4    1    3    3    0  502  0.23653907390E+03 -0.69404465791E+03  0.70938782012E+03  0.10202359594E+04  0.12699999809E+01 0. -1.
</event>
<event>
 5   0  0.1141890E-04  0.1907233E+04  0.7818609E-02  0.8651264E-01
       -2   -1    0    0    0  501  0.00000000000E+00  0.00000000000E+00  0.96541047168E+03  0.96541047169E+03  0.25500000920E-02 0.  1.
        2   -1    0    0  501    0  0.00000000000E+00  0.00000000000E+00 -0.94196681387E+03  0.94196681387E+03  0.25500000920E-02 0. -1.
    10030    2    1    2    0    0  0.00000000000E+00  0.00000000000E+00  0.23443657817E+02  0.19073772856E+04  0.19072332066E+04 0.  0.
        2    1    3    3  502    0  0.65885448916E+03  0.34179245817E+03 -0.58704980235E+03  0.94632911442E+03  0.25500000920E-02 0. -1.
       -2    1    3    3    0  502 -0.65885448916E+03 -0.34179245817E+03  0.61049346016E+03  0.96104817114E+03  0.25500000920E-02 0.  1.
</event>
<event>
 5   0  0.5824956E-05  0.1879243E+04  0.7818609E-02  0.8665258E-01
       -1   -1    0    0    0  501  0.00000000000E+00  0.00000000000E+00  0.69181190468E+03  0.69181190470E+03  0.50400001928E-02 0.  1.
        1   -1    0    0  501    0  0.00000000000E+00  0.00000000000E+00 -0.12761978866E+04  0.12761978866E+04  0.50400001928E-02 0. -1.
    10030    2    1    2    0    0  0.00000000000E+00  0.00000000000E+00 -0.58438598196E+03  0.19680097913E+04  0.18792433485E+04 0.  0.
        2    1    3    3  502    0  0.45744944924E+02  0.16493317533E+03 -0.12597348022E+04  0.12713092952E+04  0.25500000920E-02 0. -1.
       -2    1    3    3    0  502 -0.45744944924E+02 -0.16493317533E+03  0.67534882022E+03  0.69670049612E+03  0.25500000920E-02 0.  1.
</event>
<event>
 5   0  0.1101678E-04  0.1962961E+04  0.7818609E-02  0.8624136E-01
       -2   -1    0    0    0  501  0.00000000000E+00  0.00000000000E+00  0.77378135986E+03  0.77378135986E+03  0.25500000920E-02 0. -1.
        2   -1    0    0  501    0  0.00000000000E+00  0.00000000000E+00 -0.12449300507E+04  0.12449300507E+04  0.25500000920E-02 0.  1.
    10030    2    1    2    0    0  0.00000000000E+00  0.00000000000E+00 -0.47114869085E+03  0.20187114106E+04  0.19629606900E+04 0.  0.
        4    1    3    3  502    0  0.11522593432E+03 -0.91534130759E+03  0.10886385534E+03  0.92896699469E+03  0.12699999809E+01 0. -1.
       -4    1    3    3    0  502 -0.11522593432E+03  0.91534130759E+03 -0.58001254619E+03  0.10897444159E+04  0.12699999809E+01 0.  1.
</event>
<event>
 5   0  0.1182630E-04  0.1908960E+04  0.7818609E-02  0.8650409E-01
        2   -1    0    0  501    0  0.00000000000E+00  0.00000000000E+00  0.29247197899E+04  0.29247197899E+04  0.25500000920E-02 0.  1.
       -2   -1    0    0    0  501  0.00000000000E+00  0.00000000000E+00 -0.31149393981E+03  0.31149393982E+03  0.25500000920E-02 0. -1.
    10030    2    1    2    0    0  0.00000000000E+00  0.00000000000E+00  0.26132258501E+04  0.32362137297E+04  0.19089604398E+04 0.  0.
        5    1    3    3  502    0 -0.54651868011E+03  0.10422856411E+03 -0.81430006814E+01  0.55644825433E+03  0.46999998093E+01 0. -1.
       -5    1    3    3    0  502  0.54651868011E+03 -0.10422856411E+03  0.26213688508E+04  0.26797654754E+04  0.46999998093E+01 0.  1.
</event>
<event>
 5   0  0.1101678E-04  0.1904082E+04  0.7818609E-02  0.8652827E-01
       -2   -1    0    0    0  501  0.00000000000E+00  0.00000000000E+00  0.37876867718E+03  0.37876867719E+03  0.25500000920E-02 0. -1.
        2   -1    0    0  501    0  0.00000000000E+00  0.00000000000E+00 -0.23929701756E+04  0.23929701756E+04  0.25500000920E-02 0.  1.
    10030    2    1    2    0    0  0.00000000000E+00  0.00000000000E+00 -0.20142014984E+04  0.27717388528E+04  0.19040820864E+04 0.  0.
        4    1    3    3  502    0 -0.12037459734E+03 -0.35554725188E+03  0.26649797157E+03  0.46035494323E+03  0.12699999809E+01 0. -1.
       -4    1    3    3    0  502  0.12037459734E+03  0.35554725188E+03 -0.22806994700E+04  0.23113839096E+04  0.12699999809E+01 0.  1.
</event>
<event>
 5   0  0.1141890E-04  0.1905741E+04  0.7818609E-02  0.8652004E-01
        2   -1    0    0  501    0  0.00000000000E+00  0.00000000000E+00  0.10297477344E+04  0.10297477344E+04  0.25500000920E-02 0.  1.
       -2   -1    0    0    0  501  0.00000000000E+00  0.00000000000E+00 -0.88173264613E+03  0.88173264613E+03  0.25500000920E-02 0. -1.
    10030    2    1    2    0    0  0.00000000000E+00  0.00000000000E+00  0.14801508828E+03  0.19114803805E+04  0.19057410052E+04 0.  0.
        2    1    3    3  502    0 -0.80346114157E+03 -0.40746813848E+03  0.38539719122E+03  0.97985258325E+03  0.25500000920E-02 0.  1.
       -2    1    3    3    0  502  0.80346114157E+03  0.40746813848E+03 -0.23738210294E+03  0.93162779730E+03  0.25500000920E-02 0. -1.
</event>
<event>
 5   0  0.1182630E-04  0.1850945E+04  0.7818609E-02  0.8679667E-01
        2   -1    0    0  501    0  0.00000000000E+00  0.00000000000E+00  0.80154549769E+03  0.80154549770E+03  0.25500000920E-02 0.  1.
       -2   -1    0    0    0  501  0.00000000000E+00  0.00000000000E+00 -0.10685599322E+04  0.10685599322E+04  0.25500000920E-02 0. -1.
    10030    2    1    2    0    0  0.00000000000E+00  0.00000000000E+00 -0.26701443454E+03  0.18701054299E+04  0.18509450588E+04 0.  0.
        5    1    3    3  502    0 -0.24633718368E+03 -0.63713690742E+03  0.49733735660E+03  0.84498046317E+03  0.46999998093E+01 0.  1.
       -5    1    3    3    0  502  0.24633718368E+03  0.63713690742E+03 -0.76435179114E+03  0.10251249668E+04  0.46999998093E+01 0. -1.
</event>
<event>
 5   0  0.5841424E-05  0.1901540E+04  0.7818609E-02  0.8654090E-01
       -1   -1    0    0    0  501  0.00000000000E+00  0.00000000000E+00  0.87625220490E+03  0.87625220491E+03  0.50400001928E-02 0.  1.
        1   -1    0    0  501    0  0.00000000000E+00  0.00000000000E+00 -0.10316251606E+04  0.10316251606E+04  0.50400001928E-02 0. -1.
    10030    2    1    2    0    0  0.00000000000E+00  0.00000000000E+00 -0.15537295567E+03  0.19078773655E+04  0.19015402405E+04 0.  0.
        1    1    3    3  502    0 -0.36788138565E+03 -0.38923058367E+03  0.71050564392E+03  0.88975020722E+03  0.50400001928E-02 0.  1.
       -1    1    3    3    0  502  0.36788138565E+03  0.38923058367E+03 -0.86587859959E+03  0.10181271583E+04  0.50400001928E-02 0. -1.
</event>
<event>
 5   0  0.1133638E-04  0.1909766E+04  0.7818609E-02  0.8650010E-01
       -2   -1    0    0    0  501  0.00000000000E+00  0.00000000000E+00  0.58610119545E+03  0.58610119546E+03  0.25500000920E-02 0. -1.
        2   -1    0    0  501    0  0.00000000000E+00  0.00000000000E+00 -0.15557064832E+04  0.15557064832E+04  0.25500000920E-02 0.  1.
    10030    2    1    2    0    0  0.00000000000E+00  0.00000000000E+00 -0.96960528776E+03  0.21418076787E+04  0.19097658805E+04 0.  0.
        3    1    3    3  502    0  0.93219843738E+03  0.20567127097E+03 -0.45955460452E+03  0.10594739464E+04  0.10100000352E+00 0.  1.
       -3    1    3    3    0  502 -0.93219843738E+03 -0.20567127097E+03 -0.51005068324E+03  0.10823337323E+04  0.10100000352E+00 0. -1.
</event>
<event>
 5   0  0.5841424E-05  0.1917929E+04  0.7818609E-02  0.8645983E-01
       -1   -1    0    0    0  501  0.00000000000E+00  0.00000000000E+00  0.10749205644E+04  0.10749205644E+04  0.50400001928E-02 0.  1.
        1   -1    0    0  501    0  0.00000000000E+00  0.00000000000E+00 -0.85551737433E+03  0.85551737434E+03  0.50400001928E-02 0. -1.
    10030    2    1    2    0    0  0.00000000000E+00  0.00000000000E+00  0.21940319003E+03  0.19304379387E+04  0.19179293197E+04 0.  0.
        1    1    3    3  502    0  0.38321090246E+03 -0.26166409888E+03 -0.73499433407E+03  0.86921537466E+03  0.50400001928E-02 0. -1.
       -1    1    3    3    0  502 -0.38321090246E+03  0.26166409888E+03  0.95439752410E+03  0.10612225640E+04  0.50400001928E-02 0.  1.
</event>
<event>
 5   0  0.1141890E-04  0.1874184E+04  0.7818609E-02  0.8667814E-01
       -2   -1    0    0    0  501  0.00000000000E+00  0.00000000000E+00  0.69795992868E+03  0.69795992868E+03  0.25500000920E-02 0.  1.
        2   -1    0    0  501    0  0.00000000000E+00  0.00000000000E+00 -0.12581542814E+04  0.12581542814E+04  0.25500000920E-02 0. -1.
    10030    2    1    2    0    0  0.00000000000E+00  0.00000000000E+00 -0.56019435271E+03  0.19561142101E+04  0.18741838464E+04 0.  0.
        2    1    3    3  502    0  0.81529404671E+03  0.40951912075E+03 -0.50329361985E+03  0.10419763724E+04  0.25500000920E-02 0. -1.
       -2    1    3    3    0  502 -0.81529404671E+03 -0.40951912075E+03 -0.56900732855E+02  0.91413783767E+03  0.25500000920E-02 0.  1.
</event>
<event>
 5   0  0.1182630E-04  0.1899963E+04  0.7818609E-02  0.8654875E-01
       -2   -1    0    0    0  501  0.00000000000E+00  0.00000000000E+00  0.70755246302E+03  0.70755246303E+03  0.25500000920E-02 0.  1.
        2   -1    0    0  501    0  0.00000000000E+00  0.00000000000E+00 -0.12754742269E+04  0.12754742269E+04  0.25500000920E-02 0. -1.
    10030    2    1    2    0    0  0.00000000000E+00  0.00000000000E+00 -0.56792176389E+03  0.19830266899E+04  0.18999630847E+04 0.  0.
        5    1    3    3  502    0  0.23460923513E+03  0.18341920657E+03  0.65756276097E+03  0.72186908312E+03  0.46999998093E+01 0.  1.
       -5    1    3    3    0  502 -0.23460923513E+03 -0.18341920657E+03 -0.12254845249E+04  0.12611576068E+04  0.46999998093E+01 0. -1.
</event>
<event>
 5   0  0.5579109E-05  0.1905408E+04  0.7818609E-02  0.8652169E-01
       -1   -1    0    0    0  501  0.00000000000E+00  0.00000000000E+00  0.10154166927E+04  0.10154166927E+04  0.50400001928E-02 0.  1.
        1   -1    0    0  501    0  0.00000000000E+00  0.00000000000E+00 -0.89386478236E+03  0.89386478238E+03  0.50400001928E-02 0. -1.
    10030    2    1    2    0    0  0.00000000000E+00  0.00000000000E+00  0.12155191029E+03  0.19092814750E+04  0.19054083248E+04 0.  0.
        3    1    3    3  502    0 -0.39339029913E+03  0.58446959972E+03 -0.58184237452E+03  0.91372928126E+03  0.10100000352E+00 0. -1.
       -3    1    3    3    0  502  0.39339029913E+03 -0.58446959972E+03  0.70339428481E+03  0.99555219379E+03  0.10100000352E+00 0.  1.
</event>
<event>
 5   0  0.5841424E-05  0.1884788E+04  0.7818609E-02  0.8662466E-01
        1   -1    0    0  501    0  0.00000000000E+00  0.00000000000E+00  0.88108628744E+03  0.88108628745E+03  0.50400001928E-02 0.  1.
       -1   -1    0    0    0  501  0.00000000000E+00  0.00000000000E+00 -0.10079676721E+04  0.10079676721E+04  0.50400001928E-02 0. -1.
    10030    2    1    2    0    0  0.00000000000E+00  0.00000000000E+00 -0.12688138469E+03  0.18890539596E+04  0.18847880455E+04 0.  0.
        1    1    3    3  502    0 -0.60944855023E+03  0.41773927844E+02 -0.78265378688E+03  0.99283409821E+03  0.50400001928E-02 0. -1.
       -1    1    3    3    0  502  0.60944855023E+03 -0.41773927844E+02  0.65577240219E+03  0.89621986138E+03  0.50400001928E-02 0.  1.
</event>
<event>
 5   0  0.5628936E-05  0.1904769E+04  0.7818609E-02  0.8652486E-01
        1   -1    0    0  501    0  0.00000000000E+00  0.00000000000E+00  0.12071572024E+04  0.12071572024E+04  0.50400001928E-02 0. -1.
       -1   -1    0    0    0  501  0.00000000000E+00  0.00000000000E+00 -0.75138198609E+03  0.75138198611E+03  0.50400001928E-02 0.  1.
    10030    2    1    2    0    0  0.00000000000E+00  0.00000000000E+00  0.45577521627E+03  0.19585391885E+04  0.19047689374E+04 0.  0.
        5    1    3    3  502    0 -0.61899341517E+03  0.44318076046E+03  0.81627563102E+03  0.11161944411E+04  0.46999998093E+01 0. -1.
       -5    1    3    3    0  502  0.61899341517E+03 -0.44318076046E+03 -0.36050041475E+03  0.84234474742E+03  0.46999998093E+01 0.  1.
</event>
<event>
 5   0  0.5579109E-05  0.1896134E+04  0.7818609E-02  0.8656783E-01
        1   -1    0    0  501    0  0.00000000000E+00  0.00000000000E+00  0.14933682637E+04  0.14933682637E+04  0.50400001928E-02 0. -1.
       -1   -1    0    0    0  501  0.00000000000E+00  0.00000000000E+00 -0.60188201893E+03  0.60188201895E+03  0.50400001928E-02 0.  1.
    10030    2    1    2    0    0  0.00000000000E+00  0.00000000000E+00  0.89148624473E+03  0.20952502826E+04  0.18961344948E+04 0.  0.
        3    1    3    3  502    0 -0.34042621589E+03 -0.30373890223E+03 -0.47260325859E+03  0.65688749373E+03  0.10100000352E+00 0.  1.
       -3    1    3    3    0  502  0.34042621589E+03  0.30373890223E+03  0.13640895033E+04  0.14383627889E+04  0.10100000352E+00 0. -1.
</event>
<event>
 5   0  0.1182630E-04  0.1903294E+04  0.7818609E-02  0.8653218E-01
       -2   -1    0    0    0  501  0.00000000000E+00  0.00000000000E+00  0.53038253230E+03  0.53038253231E+03  0.25500000920E-02 0. -1.
        2   -1    0    0  501    0  0.00000000000E+00  0.00000000000E+00 -0.17075079654E+04  0.17075079654E+04  0.25500000920E-02 0.  1.
    10030    2    1    2    0    0  0.00000000000E+00  0.00000000000E+00 -0.11771254331E+04  0.22378904978E+04  0.19032944057E+04 0.  0.
        5    1    3    3  502    0 -0.26795507077E+03  0.45991302211E+03  0.33897037324E+03  0.63106490299E+03  0.46999998093E+01 0. -1.
       -5    1    3    3    0  502  0.26795507077E+03 -0.45991302211E+03 -0.15160958064E+04  0.16068255948E+04  0.46999998093E+01 0.  1.
</event>
<event>
 5   0  0.1182630E-04  0.1760876E+04  0.7818609E-02  0.8727386E-01
        2   -1    0    0  501    0  0.00000000000E+00  0.00000000000E+00  0.13395493251E+04  0.13395493251E+04  0.25500000920E-02 0. -1.
       -2   -1    0    0    0  501  0.00000000000E+00  0.00000000000E+00 -0.57868047930E+03  0.57868047931E+03  0.25500000920E-02 0.  1.
    10030    2    1    2    0    0  0.00000000000E+00  0.00000000000E+00  0.76086884578E+03  0.19182298044E+04  0.17608759701E+04 0.  0.
        5    1    3    3  502    0  0.64713137846E+03  0.58520828599E+03  0.50887373148E+03  0.10100605544E+04  0.46999998093E+01 0. -1.
       -5    1    3    3    0  502 -0.64713137846E+03 -0.58520828599E+03  0.25199511430E+03  0.90816924998E+03  0.46999998093E+01 0.  1.
</event>
<event>
 5   0  0.5841424E-05  0.1900712E+04  0.7818609E-02  0.8654502E-01
        1   -1    0    0  501    0  0.00000000000E+00  0.00000000000E+00  0.56959732126E+03  0.56959732129E+03  0.50400001928E-02 0.  1.
       -1   -1    0    0    0  501  0.00000000000E+00  0.00000000000E+00 -0.15856406202E+04  0.15856406202E+04  0.50400001928E-02 0. -1.
    10030    2    1    2    0    0  0.00000000000E+00  0.00000000000E+00 -0.10160432990E+04  0.21552379415E+04  0.19007121295E+04 0.  0.
        1    1    3    3  502    0  0.82233323545E+03  0.21096456236E+03 -0.99234711697E+03  0.13059444082E+04  0.50400001928E-02 0. -1.
       -1    1    3    3    0  502 -0.82233323545E+03 -0.21096456236E+03 -0.23696182001E+02  0.84929353334E+03  0.50400001928E-02 0.  1.
</event>
<event>
 5   0  0.4061125E-05  0.1886667E+04  0.7818609E-02  0.8661522E-01
       -3   -1    0    0    0  501  0.00000000000E+00  0.00000000000E+00  0.65608718347E+03  0.65608719125E+03  0.10100000352E+00 0. -1.
        3   -1    0    0  501    0  0.00000000000E+00  0.00000000000E+00 -0.13563406423E+04  0.13563406461E+04  0.10100000352E+00 0.  1.
    10030    2    1    2    0    0  0.00000000000E+00  0.00000000000E+00 -0.70025345885E+03  0.20124278373E+04  0.18866666091E+04 0.  0.
        2    1    3    3  502    0  0.40267358023E+03  0.80596141477E+03 -0.51923996476E+02  0.90244995192E+03  0.25500000920E-02 0. -1.
       -2    1    3    3    0  502 -0.40267358023E+03 -0.80596141477E+03 -0.64832946237E+03  0.11099778854E+04  0.25500000920E-02 0.  1.
</event>
<event>
 5   0  0.1133638E-04  0.1942887E+04  0.7818609E-02  0.8633798E-01
        2   -1    0    0  501    0  0.00000000000E+00  0.00000000000E+00  0.13714598152E+04  0.13714598152E+04  0.25500000920E-02 0. -1.
       -2   -1    0    0    0  501  0.00000000000E+00  0.00000000000E+00 -0.68810101192E+03  0.68810101193E+03  0.25500000920E-02 0.  1.
    10030    2    1    2    0    0  0.00000000000E+00  0.00000000000E+00  0.68335880325E+03  0.20595608271E+04  0.19428874251E+04 0.  0.
        3    1    3    3  502    0 -0.93560764244E+03  0.15255747191E+03  0.11664008549E+03  0.95511274862E+03  0.10100000352E+00 0.  1.
       -3    1    3    3    0  502  0.93560764244E+03 -0.15255747191E+03  0.56671871776E+03  0.11044480785E+04  0.10100000352E+00 0. -1.
</event>
<event>
 5   0  0.1182630E-04  0.1898153E+04  0.7818609E-02  0.8655777E-01
        2   -1    0    0  501    0  0.00000000000E+00  0.00000000000E+00  0.89121245302E+03  0.89121245302E+03  0.25500000920E-02 0.  1.
       -2   -1    0    0    0  501  0.00000000000E+00  0.00000000000E+00 -0.10106970098E+04  0.10106970098E+04  0.25500000920E-02 0. -1.
    10030    2    1    2    0    0  0.00000000000E+00  0.00000000000E+00 -0.11948455681E+03  0.19019094629E+04  0.18981525349E+04 0.  0.
        5    1    3    3  502    0 -0.67809537741E+03  0.29012660192E+03 -0.65819898482E+03  0.98855185985E+03  0.46999998093E+01 0. -1.
       -5    1    3    3    0  502  0.67809537741E+03 -0.29012660192E+03  0.53871442801E+03  0.91335760300E+03  0.46999998093E+01 0.  1.
</event>
<event>
 5   0  0.1101678E-04  0.1901967E+04  0.7818609E-02  0.8653878E-01
        2   -1    0    0  501    0  0.00000000000E+00  0.00000000000E+00  0.10311961519E+04  0.10311961519E+04  0.25500000920E-02 0.  1.
       -2   -1    0    0    0  501  0.00000000000E+00  0.00000000000E+00 -0.87700994602E+03  0.87700994602E+03  0.25500000920E-02 0. -1.
    10030    2    1    2    0    0  0.00000000000E+00  0.00000000000E+00  0.15418620586E+03  0.19082060979E+04  0.19019666469E+04 0.  0.
        4    1    3    3  502    0 -0.75759554649E+03 -0.35208779540E+03 -0.37876608295E+03  0.91726887346E+03  0.12699999809E+01 0. -1.
       -4    1    3    3    0  502  0.75759554649E+03  0.35208779540E+03  0.53295228882E+03  0.99093722444E+03  0.12699999809E+01 0.  1.
</event>
<event>
 5   0  0.5579109E-05  0.1903816E+04  0.7818609E-02  0.8652959E-01
       -1   -1    0    0    0  501  0.00000000000E+00  0.00000000000E+00  0.92846833566E+03  0.92846833567E+03  0.50400001928E-02 0.  1.
        1   -1    0    0  501    0  0.00000000000E+00  0.00000000000E+00 -0.97593952783E+03  0.97593952785E+03  0.50400001928E-02 0. -1.
    10030    2    1    2    0    0  0.00000000000E+00  0.00000000000E+00 -0.47471192174E+02  0.19044078635E+04  0.19038161142E+04 0.  0.
        3    1    3    3  502    0 -0.87217042630E+03  0.25756037244E+03 -0.30508862560E+03  0.95921722129E+03  0.10100000352E+00 0. -1.
       -3    1    3    3    0  502  0.87217042630E+03 -0.25756037244E+03  0.25761743342E+03  0.94519064223E+03  0.10100000352E+00 0.  1.
</event>
<event>
 5   0  0.5614989E-05  0.1881719E+04  0.7818609E-02  0.8664010E-01
        1   -1    0    0  501    0  0.00000000000E+00  0.00000000000E+00  0.11994546677E+04  0.11994546677E+04  0.50400001928E-02 0.  1.
       -1   -1    0    0    0  501  0.00000000000E+00  0.00000000000E+00 -0.73801580407E+03  0.73801580409E+03  0.50400001928E-02 0. -1.
    10030    2    1    2    0    0  0.00000000000E+00  0.00000000000E+00  0.46143886362E+03  0.19374704718E+04  0.18817188962E+04 0.  0.
        4    1    3    3  502    0 -0.64536514531E+03  0.64163047120E+03  0.47660239420E+03  0.10272961050E+04  0.12699999809E+01 0.  1.
       -4    1    3    3    0  502  0.64536514531E+03 -0.64163047120E+03 -0.15163530582E+02  0.91017436677E+03  0.12699999809E+01 0. -1.
</event>
<event>
 5   0  0.5614989E-05  0.1904047E+04  0.7818609E-02  0.8652845E-01
        1   -1    0    0  501    0  0.00000000000E+00  0.00000000000E+00  0.88795928559E+03  0.88795928560E+03  0.50400001928E-02 0. -1.
       -1   -1    0    0    0  501  0.00000000000E+00  0.00000000000E+00 -0.10207097401E+04  0.10207097401E+04  0.50400001928E-02 0.  1.
    10030    2    1    2    0    0  0.00000000000E+00  0.00000000000E+00 -0.13275045454E+03  0.19086690257E+04  0.19040469444E+04 0.  0.
        4    1    3    3  502    0  0.47499091820E+03  0.80057522308E+03  0.13363360036E+03  0.94042363444E+03  0.12699999809E+01 0. -1.
       -4    1    3    3    0  502 -0.47499091820E+03 -0.80057522308E+03 -0.26638405490E+03  0.96824539130E+03  0.12699999809E+01 0.  1.
</event>
<event>
 5   0  0.5614989E-05  0.1904482E+04  0.7818609E-02  0.8652628E-01
        1   -1    0    0  501    0  0.00000000000E+00  0.00000000000E+00  0.90042852212E+03  0.90042852213E+03  0.50400001928E-02 0.  1.
       -1   -1    0    0    0  501  0.00000000000E+00  0.00000000000E+00 -0.10070351259E+04  0.10070351259E+04  0.50400001928E-02 0. -1.
    10030    2    1    2    0    0  0.00000000000E+00  0.00000000000E+00 -0.10660660375E+03  0.19074636480E+04  0.19044822395E+04 0.  0.
        4    1    3    3  502    0 -0.79042567232E+03  0.36260770175E+03 -0.44185965228E+03  0.97544792482E+03  0.12699999809E+01 0. -1.
       -4    1    3    3    0  502  0.79042567232E+03 -0.36260770175E+03  0.33525304853E+03  0.93201572319E+03  0.12699999809E+01 0.  1.
</event>
<event>
 5   0  0.5841424E-05  0.1894481E+04  0.7818609E-02  0.8657608E-01
        1   -1    0    0  501    0  0.00000000000E+00  0.00000000000E+00  0.37608301767E+03  0.37608301771E+03  0.50400001928E-02 0. -1.
       -1   -1    0    0    0  501  0.00000000000E+00  0.00000000000E+00 -0.23858155661E+04  0.23858155661E+04  0.50400001928E-02 0.  1.
    10030    2    1    2    0    0  0.00000000000E+00  0.00000000000E+00 -0.20097325484E+04  0.27618985838E+04  0.18944811614E+04 0.  0.
        1    1    3    3  502    0 -0.25749969462E+03  0.24741149553E+03 -0.22839271257E+04  0.23116750758E+04  0.50400001928E-02 0.  1.
       -1    1    3    3    0  502  0.25749969462E+03 -0.24741149553E+03  0.27419457729E+03  0.45022350793E+03  0.50400001928E-02 0. -1.
</event>
<event>
 5   0  0.5628936E-05  0.1890089E+04  0.7818609E-02  0.8659805E-01
        1   -1    0    0  501    0  0.00000000000E+00  0.00000000000E+00  0.93120630482E+03  0.93120630483E+03  0.50400001928E-02 0.  1.
       -1   -1    0    0    0  501  0.00000000000E+00  0.00000000000E+00 -0.95908855077E+03  0.95908855078E+03  0.50400001928E-02 0. -1.
    10030    2    1    2    0    0  0.00000000000E+00  0.00000000000E+00 -0.27882245954E+02  0.18902948556E+04  0.18900892099E+04 0.  0.
        5    1    3    3  502    0  0.95276805182E+02 -0.79476935196E+03  0.48845925384E+03  0.93773691678E+03  0.46999998093E+01 0.  1.
       -5    1    3    3    0  502 -0.95276805182E+02  0.79476935196E+03 -0.51634149980E+03  0.95255793883E+03  0.46999998093E+01 0. -1.
</event>
<event>
 5   0  0.1101678E-04  0.1878846E+04  0.7818609E-02  0.8665458E-01
        2   -1    0    0  501    0  0.00000000000E+00  0.00000000000E+00  0.86795754192E+03  0.86795754193E+03  0.25500000920E-02 0.  1.
       -2   -1    0    0    0  501  0.00000000000E+00  0.00000000000E+00 -0.10167732177E+04  0.10167732177E+04  0.25500000920E-02 0. -1.
    10030    2    1    2    0    0  0.00000000000E+00  0.00000000000E+00 -0.14881567580E+03  0.18847307597E+04  0.18788464363E+04 0.  0.
        4    1    3    3  502    0 -0.61677523125E+03  0.56263066129E+03 -0.50651139073E+03  0.97648366537E+03  0.12699999809E+01 0. -1.
       -4    1    3    3    0  502  0.61677523125E+03 -0.56263066129E+03  0.35769571493E+03  0.90824709428E+03  0.12699999809E+01 0.  1.
</event>
<event>
 5   0  0.4061125E-05  0.1912288E+04  0.7818609E-02  0.8648764E-01
        3   -1    0    0  501    0  0.00000000000E+00  0.00000000000E+00  0.66741378971E+03  0.66741379735E+03  0.10100000352E+00 0.  1.
       -3   -1    0    0    0  501  0.00000000000E+00  0.00000000000E+00 -0.13697824876E+04  0.13697824913E+04  0.10100000352E+00 0. -1.
    10030    2    1    2    0    0  0.00000000000E+00  0.00000000000E+00 -0.70236869790E+03  0.20371962887E+04  0.19122884016E+04 0.  0.
        2    1    3    3  502    0 -0.65777399987E+03  0.61136137162E+02  0.38520238013E+03  0.76471245304E+03  0.25500000920E-02 0.  1.
       -2    1    3    3    0  502  0.65777399987E+03 -0.61136137162E+02 -0.10875710780E+04  0.12724838356E+04  0.25500000920E-02 0. -1.
</event>
<event>
 5   0  0.1101678E-04  0.1897975E+04  0.7818609E-02  0.8655865E-01
       -2   -1    0    0    0  501  0.00000000000E+00  0.00000000000E+00  0.88101218485E+03  0.88101218485E+03  0.25500000920E-02 0.  1.
        2   -1    0    0  501    0  0.00000000000E+00  0.00000000000E+00 -0.10222072668E+04  0.10222072668E+04  0.25500000920E-02 0. -1.
    10030    2    1    2    0    0  0.00000000000E+00  0.00000000000E+00 -0.14119508194E+03  0.19032194516E+04  0.18979747706E+04 0.  0.
        4    1    3    3  502    0 -0.81915524495E+03  0.35219772266E+03 -0.39632879460E+03  0.97577491129E+03  0.12699999809E+01 0. -1.
       -4    1    3    3    0  502  0.81915524495E+03 -0.35219772266E+03  0.25513371267E+03  0.92744454034E+03  0.12699999809E+01 0.  1.
</event>
<event>
 5   0  0.5841424E-05  0.1894373E+04  0.7818609E-02  0.8657662E-01
        1   -1    0    0  501    0  0.00000000000E+00  0.00000000000E+00  0.25430255871E+04  0.25430255871E+04  0.50400001928E-02 0. -1.
       -1   -1    0    0    0  501  0.00000000000E+00  0.00000000000E+00 -0.35279342328E+03  0.35279342331E+03  0.50400001928E-02 0.  1.
    10030    2    1    2    0    0  0.00000000000E+00  0.00000000000E+00  0.21902321639E+04  0.28958190105E+04  0.18943734610E+04 0.  0.
        1    1    3    3  502    0 -0.80126147214E+03  0.18234765254E+03  0.18151894082E+04  0.19925318569E+04  0.50400001928E-02 0. -1.
       -1    1    3    3    0  502  0.80126147214E+03 -0.18234765254E+03  0.37504275562E+03  0.90328715351E+03  0.50400001928E-02 0.  1.
</event>
<event>
 5   0  0.1118206E-04  0.1791242E+04  0.7818609E-02  0.8710971E-01
       -2   -1    0    0    0  501  0.00000000000E+00  0.00000000000E+00  0.43005840170E+03  0.43005840171E+03  0.25500000920E-02 0. -1.
        2   -1    0    0  501    0  0.00000000000E+00  0.00000000000E+00 -0.18651811681E+04  0.18651811681E+04  0.25500000920E-02 0.  1.
    10030    2    1    2    0    0  0.00000000000E+00  0.00000000000E+00 -0.14351227664E+04  0.22952395698E+04  0.17912418397E+04 0.  0.
        1    1    3    3  502    0 -0.45853553147E+03  0.26331215950E+03  0.20870773631E+03  0.56846024152E+03  0.50400001928E-02 0. -1.
       -1    1    3    3    0  502  0.45853553147E+03 -0.26331215950E+03 -0.16438305027E+04  0.17267793283E+04  0.50400001928E-02 0.  1.
</event>
<event>
 5   0  0.5579109E-05  0.1925634E+04  0.7818609E-02  0.8642201E-01
        1   -1    0    0  501    0  0.00000000000E+00  0.00000000000E+00  0.11119400217E+04  0.11119400217E+04  0.50400001928E-02 0.  1.
       -1   -1    0    0    0  501  0.00000000000E+00  0.00000000000E+00 -0.83369324382E+03  0.83369324384E+03  0.50400001928E-02 0. -1.
    10030    2    1    2    0    0  0.00000000000E+00  0.00000000000E+00  0.27824677785E+03  0.19456332655E+04  0.19256343200E+04 0.  0.
        3    1    3    3  502    0 -0.28331756510E+02  0.11469674952E+03  0.11045884199E+04  0.11108886625E+04  0.10100000352E+00 0.  1.
       -3    1    3    3    0  502  0.28331756510E+02 -0.11469674952E+03 -0.82634164205E+03  0.83474460308E+03  0.10100000352E+00 0. -1.
</event>
<event>
 5   0  0.1141890E-04  0.1901592E+04  0.7818609E-02  0.8654065E-01
       -2   -1    0    0    0  501  0.00000000000E+00  0.00000000000E+00  0.59106687944E+03  0.59106687945E+03  0.25500000920E-02 0.  1.
        2   -1    0    0  501    0  0.00000000000E+00  0.00000000000E+00 -0.15294591907E+04  0.15294591907E+04  0.25500000920E-02 0. -1.
    10030    2    1    2    0    0  0.00000000000E+00  0.00000000000E+00 -0.93839231130E+03  0.21205260702E+04  0.19015916187E+04 0.  0.
        2    1    3    3  502    0 -0.93958492013E+03 -0.13295579212E+03 -0.40307712474E+03  0.10310035079E+04  0.25500000920E-02 0. -1.
       -2    1    3    3    0  502  0.93958492013E+03  0.13295579212E+03 -0.53531518657E+03  0.10895225623E+04  0.25500000920E-02 0.  1.
</event>
<event>
 5   0  0.5841424E-05  0.1912143E+04  0.7818609E-02  0.8648836E-01
        1   -1    0    0  501    0  0.00000000000E+00  0.00000000000E+00  0.13770145895E+04  0.13770145895E+04  0.50400001928E-02 0.  1.
       -1   -1    0    0    0  501  0.00000000000E+00  0.00000000000E+00 -0.66380727828E+03  0.66380727830E+03  0.50400001928E-02 0. -1.
    10030    2    1    2    0    0  0.00000000000E+00  0.00000000000E+00  0.71320731121E+03  0.20408218678E+04  0.19121425751E+04 0.  0.
        1    1    3    3  502    0 -0.29978672935E+03 -0.76278212073E+03  0.88203814805E+03  0.12040348589E+04  0.50400001928E-02 0.  1.
       -1    1    3    3    0  502  0.29978672935E+03  0.76278212073E+03 -0.16883083683E+03  0.83678700891E+03  0.50400001928E-02 0. -1.
</event>
<event>
 5   0  0.5628936E-05  0.1897912E+04  0.7818609E-02  0.8655897E-01
       -1   -1    0    0    0  501  0.00000000000E+00  0.00000000000E+00  0.64543396439E+03  0.64543396441E+03  0.50400001928E-02 0.  1.
        1   -1    0    0  501    0  0.00000000000E+00  0.00000000000E+00 -0.13952119222E+04  0.13952119222E+04  0.50400001928E-02 0. -1.
    10030    2    1    2    0    0  0.00000000000E+00  0.00000000000E+00 -0.74977795780E+03  0.20406458866E+04  0.18979116546E+04 0.  0.
        5    1    3    3  502    0  0.74712619648E+03  0.56502593415E+03 -0.21167281474E+03  0.96035375265E+03  0.46999998093E+01 0.  1.
       -5    1    3    3    0  502 -0.74712619648E+03 -0.56502593415E+03 -0.53810514306E+03  0.10802921340E+04  0.46999998093E+01 0. -1.
</event>
<event>
 5   0  0.5841424E-05  0.1888954E+04  0.7818609E-02  0.8660374E-01
       -1   -1    0    0    0  501  0.00000000000E+00  0.00000000000E+00  0.39516710803E+03  0.39516710806E+03  0.50400001928E-02 0. -1.
        1   -1    0    0  501    0  0.00000000000E+00  0.00000000000E+00 -0.22573671412E+04  0.22573671412E+04  0.50400001928E-02 0.  1.
    10030    2    1    2    0    0  0.00000000000E+00  0.00000000000E+00 -0.18622000332E+04  0.26525342492E+04  0.18889544674E+04 0.  0.
        1    1    3    3  502    0  0.15170390768E+03  0.49769967312E+03  0.17576981335E+03  0.54919401630E+03  0.50400001928E-02 0. -1.
       -1    1    3    3    0  502 -0.15170390768E+03 -0.49769967312E+03 -0.20379698465E+04  0.21033402329E+04  0.50400001928E-02 0.  1.
</event>
<event>
 5   0  0.1182630E-04  0.1903623E+04  0.7818609E-02  0.8653055E-01
        2   -1    0    0  501    0  0.00000000000E+00  0.00000000000E+00  0.14459551510E+04  0.14459551510E+04  0.25500000920E-02 0.  1.
       -2   -1    0    0    0  501  0.00000000000E+00  0.00000000000E+00 -0.62653752694E+03  0.62653752695E+03  0.25500000920E-02 0. -1.
    10030    2    1    2    0    0  0.00000000000E+00  0.00000000000E+00  0.81941762401E+03  0.20724926779E+04  0.19036230345E+04 0.  0.
        5    1    3    3  502    0  0.85791733940E+03  0.40863249064E+03  0.35087414817E+03  0.10129844182E+04  0.46999998093E+01 0.  1.
       -5    1    3    3    0  502 -0.85791733940E+03 -0.40863249064E+03  0.46854347584E+03  0.10595082597E+04  0.46999998093E+01 0. -1.
</event>
<event>
 5   0  0.1133638E-04  0.1892653E+04  0.7818609E-02  0.8658522E-01
       -2   -1    0    0    0  501  0.00000000000E+00  0.00000000000E+00  0.56543484144E+03  0.56543484145E+03  0.25500000920E-02 0.  1.
        2   -1    0    0  501    0  0.00000000000E+00  0.00000000000E+00 -0.15837964956E+04  0.15837964956E+04  0.25500000920E-02 0. -1.
    10030    2    1    2    0    0  0.00000000000E+00  0.00000000000E+00 -0.10183616542E+04  0.21492313371E+04  0.18926528687E+04 0.  0.
        3    1    3    3  502    0  0.43921631499E+02  0.91259566061E+03 -0.78912423979E+03  0.12072601317E+04  0.10100000352E+00 0. -1.
       -3    1    3    3    0  502 -0.43921631499E+02 -0.91259566061E+03 -0.22923741440E+03  0.94197120542E+03  0.10100000352E+00 0.  1.
</event>
<event>
 5   0  0.1118206E-04  0.1911548E+04  0.7818609E-02  0.8649129E-01
        2   -1    0    0  501    0  0.00000000000E+00  0.00000000000E+00  0.84273645045E+03  0.84273645045E+03  0.25500000920E-02 0. -1.
       -2   -1    0    0    0  501  0.00000000000E+00  0.00000000000E+00 -0.10839739783E+04  0.10839739783E+04  0.25500000920E-02 0.  1.
    10030    2    1    2    0    0  0.00000000000E+00  0.00000000000E+00 -0.24123752789E+03  0.19267104288E+04  0.19115484643E+04 0.  0.
        1    1    3    3  502    0 -0.33786967931E+03 -0.77543343033E+03 -0.56917836464E+03  0.10195179919E+04  0.50400001928E-02 0.  1.
       -1    1    3    3    0  502  0.33786967931E+03  0.77543343033E+03  0.32794083674E+03  0.90719243686E+03  0.50400001928E-02 0. -1.
</event>
<event>
 5   0  0.5824956E-05  0.1905110E+04  0.7818609E-02  0.8652317E-01
        1   -1    0    0  501    0  0.00000000000E+00  0.00000000000E+00  0.14740562774E+04  0.14740562774E+04  0.50400001928E-02 0. -1.
       -1   -1    0    0    0  501  0.00000000000E+00  0.00000000000E+00 -0.61555390306E+03  0.61555390308E+03  0.50400001928E-02 0.  1.
    10030    2    1    2    0    0  0.00000000000E+00  0.00000000000E+00  0.85850237437E+03  0.20896101805E+04  0.19051100702E+04 0.  0.
        2    1    3    3  502    0  0.65140907704E+03  0.64024191114E+03  0.13266140845E+03  0.92295316227E+03  0.25500000920E-02 0.  1.
       -2    1    3    3    0  502 -0.65140907704E+03 -0.64024191114E+03  0.72584096592E+03  0.11666570183E+04  0.25500000920E-02 0. -1.
</event>
<event>
 5   0  0.5841424E-05  0.1892435E+04  0.7818609E-02  0.8658631E-01
        1   -1    0    0  501    0  0.00000000000E+00  0.00000000000E+00  0.16023008920E+04  0.16023008920E+04  0.50400001928E-02 0. -1.
       -1   -1    0    0    0  501  0.00000000000E+00  0.00000000000E+00 -0.55877605264E+03  0.55877605267E+03  0.50400001928E-02 0.  1.
    10030    2    1    2    0    0  0.00000000000E+00  0.00000000000E+00  0.10435248393E+04  0.21610769446E+04  0.18924347995E+04 0.  0.
        1    1    3    3  502    0 -0.50518810493E+02  0.56781805961E+03 -0.34066592810E+03  0.66409545521E+03  0.50400001928E-02 0.  1.
       -1    1    3    3    0  502  0.50518810493E+02 -0.56781805961E+03  0.13841907674E+04  0.14969814894E+04  0.50400001928E-02 0. -1.
</event>
<event>
 5   0  0.1182630E-04  0.1898547E+04  0.7818609E-02  0.8655580E-01
       -2   -1    0    0    0  501  0.00000000000E+00  0.00000000000E+00  0.75989094641E+03  0.75989094641E+03  0.25500000920E-02 0.  1.
        2   -1    0    0  501    0  0.00000000000E+00  0.00000000000E+00 -0.11858543923E+04  0.11858543923E+04  0.25500000920E-02 0. -1.
    10030    2    1    2    0    0  0.00000000000E+00  0.00000000000E+00 -0.42596344592E+03  0.19457453388E+04  0.18985468301E+04 0.  0.
        5    1    3    3  502    0  0.57551251180E+03  0.74637712909E+03 -0.32895161645E+03  0.99826085069E+03  0.46999998093E+01 0. -1.
       -5    1    3    3    0  502 -0.57551251180E+03 -0.74637712909E+03 -0.97011829474E+02  0.94748448806E+03  0.46999998093E+01 0.  1.
</event>
<event>
 5   0  0.5628936E-05  0.1903862E+04  0.7818609E-02  0.8652937E-01
        1   -1    0    0  501    0  0.00000000000E+00  0.00000000000E+00  0.10375272325E+04  0.10375272325E+04  0.50400001928E-02 0.  1.
       -1   -1    0    0    0  501  0.00000000000E+00  0.00000000000E+00 -0.87339607131E+03  0.87339607133E+03  0.50400001928E-02 0. -1.
    10030    2    1    2    0    0  0.00000000000E+00  0.00000000000E+00  0.16413116121E+03  0.19109233039E+04  0.19038615588E+04 0.  0.
        5    1    3    3  502    0  0.28506780168E+03 -0.29833816598E+03 -0.77895122718E+03  0.88150803579E+03  0.46999998093E+01 0. -1.
       -5    1    3    3    0  502 -0.28506780168E+03  0.29833816598E+03  0.94308238839E+03  0.10294152681E+04  0.46999998093E+01 0.  1.
</event>
<event>
 5   0  0.5614989E-05  0.1942143E+04  0.7818609E-02  0.8634159E-01
        1   -1    0    0  501    0  0.00000000000E+00  0.00000000000E+00  0.14156707429E+04  0.14156707429E+04  0.50400001928E-02 0. -1.
       -1   -1    0    0    0  501  0.00000000000E+00  0.00000000000E+00 -0.66610138930E+03  0.66610138932E+03  0.50400001928E-02 0.  1.
    10030    2    1    2    0    0  0.00000000000E+00  0.00000000000E+00  0.74956935362E+03  0.20817721322E+04  0.19421434022E+04 0.  0.
        4    1    3    3  502    0 -0.96793742599E+03 -0.75971881387E+02  0.39347527658E+03  0.10476158616E+04  0.12699999809E+01 0. -1.
       -4    1    3    3    0  502  0.96793742599E+03  0.75971881387E+02  0.35609407704E+03  0.10341562706E+04  0.12699999809E+01 0.  1.
</event>
<event>
 5   0  0.1182630E-04  0.1888581E+04  0.7818609E-02  0.8660562E-01
        2   -1    0    0  501    0  0.00000000000E+00  0.00000000000E+00  0.14265802721E+04  0.14265802721E+04  0.25500000920E-02 0. -1.
       -2   -1    0    0    0  501  0.00000000000E+00  0.00000000000E+00 -0.62505007960E+03  0.62505007960E+03  0.25500000920E-02 0.  1.
    10030    2    1    2    0    0  0.00000000000E+00  0.00000000000E+00  0.80153019251E+03  0.20516303517E+04  0.18885805385E+04 0.  0.
        5    1    3    3  502    0 -0.48118915765E+02  0.14003317337E+03 -0.61234735749E+03  0.63001277441E+03  0.46999998093E+01 0.  1.
       -5    1    3    3    0  502  0.48118915765E+02 -0.14003317337E+03  0.14138775500E+04  0.14216175773E+04  0.46999998093E+01 0. -1.
</event>
<event>
 5   0  0.4061125E-05  0.1954389E+04  0.7818609E-02  0.8628247E-01
        3   -1    0    0  501    0  0.00000000000E+00  0.00000000000E+00  0.15260513425E+04  0.15260513458E+04  0.10100000352E+00 0. -1.
       -3   -1    0    0    0  501  0.00000000000E+00  0.00000000000E+00 -0.62573879012E+03  0.62573879828E+03  0.10100000352E+00 0.  1.
    10030    2    1    2    0    0  0.00000000000E+00  0.00000000000E+00  0.90031255237E+03  0.21517901441E+04  0.19543894526E+04 0.  0.
        3    1    3    3  502    0 -0.60595284884E+03 -0.43009043317E+03  0.11488842568E+04  0.13682440139E+04  0.10100000352E+00 0. -1.
       -3    1    3    3    0  502  0.60595284884E+03  0.43009043317E+03 -0.24857170447E+03  0.78354613022E+03  0.10100000352E+00 0.  1.
</event>
<event>
 5   0  0.1182630E-04  0.1907388E+04  0.7818609E-02  0.8651188E-01
        2   -1    0    0  501    0  0.00000000000E+00  0.00000000000E+00  0.19886227177E+04  0.19886227177E+04  0.25500000920E-02 0.  1.
       -2   -1    0    0    0  501  0.00000000000E+00  0.00000000000E+00 -0.45736792471E+03  0.45736792472E+03  0.25500000920E-02 0. -1.
    10030    2    1    2    0    0  0.00000000000E+00  0.00000000000E+00  0.15312547930E+04  0.24459906424E+04  0.19073879998E+04 0.  0.
        5    1    3    3  502    0  0.17956636486E+03 -0.90021317816E+03  0.10972708105E+04  0.14306128642E+04  0.46999998093E+01 0. -1.
       -5    1    3    3    0  502 -0.17956636486E+03  0.90021317816E+03  0.43398398245E+03  0.10153777782E+04  0.46999998093E+01 0.  1.
</event>
<event>
 5   0  0.1101678E-04  0.1853833E+04  0.7818609E-02  0.8678184E-01
        2   -1    0    0  501    0  0.00000000000E+00  0.00000000000E+00  0.71260625578E+03  0.71260625578E+03  0.25500000920E-02 0.  1.
       -2   -1    0    0    0  501  0.00000000000E+00  0.00000000000E+00 -0.12056787840E+04  0.12056787840E+04  0.25500000920E-02 0. -1.
    10030    2    1    2    0    0  0.00000000000E+00  0.00000000000E+00 -0.49307252826E+03  0.19182850398E+04  0.18538330496E+04 0.  0.
        4    1    3    3  502    0 -0.52324560478E+03  0.17914678643E+00  0.54516970853E+03  0.75564384403E+03  0.12699999809E+01 0.  1.
       -4    1    3    3    0  502  0.52324560478E+03 -0.17914678643E+00 -0.10382422368E+04  0.11626411958E+04  0.12699999809E+01 0. -1.
</event>
<event>
 5   0  0.1118206E-04  0.1909788E+04  0.7818609E-02  0.8649999E-01
        2   -1    0    0  501    0  0.00000000000E+00  0.00000000000E+00  0.97864303198E+03  0.97864303199E+03  0.25500000920E-02 0. -1.
       -2   -1    0    0    0  501  0.00000000000E+00  0.00000000000E+00 -0.93172162089E+03  0.93172162089E+03  0.25500000920E-02 0.  1.
    10030    2    1    2    0    0  0.00000000000E+00  0.00000000000E+00  0.46921411095E+02  0.19103646529E+04  0.19097883360E+04 0.  0.
        1    1    3    3  502    0  0.19882041251E+03  0.37015669487E+03 -0.83428119802E+03  0.93411490331E+03  0.50400001928E-02 0.  1.
       -1    1    3    3    0  502 -0.19882041251E+03 -0.37015669487E+03  0.88120260912E+03  0.97624974957E+03  0.50400001928E-02 0. -1.
</event>
<event>
 5   0  0.1118206E-04  0.1907666E+04  0.7818609E-02  0.8651050E-01
        2   -1    0    0  501    0  0.00000000000E+00  0.00000000000E+00  0.17698885249E+04  0.17698885249E+04  0.25500000920E-02 0.  1.
       -2   -1    0    0    0  501  0.00000000000E+00  0.00000000000E+00 -0.51404198843E+03  0.51404198844E+03  0.25500000920E-02 0. -1.
    10030    2    1    2    0    0  0.00000000000E+00  0.00000000000E+00  0.12558465365E+04  0.22839305134E+04  0.19076656066E+04 0.  0.
        1    1    3    3  502    0 -0.36307260162E+03 -0.35598275609E+03  0.15940965686E+04  0.16732272131E+04  0.50400001928E-02 0.  1.
       -1    1    3    3    0  502  0.36307260162E+03  0.35598275609E+03 -0.33825003210E+03  0.61070330024E+03  0.50400001928E-02 0. -1.
</event>
<event>
 5   0  0.5824956E-05  0.1899013E+04  0.7818609E-02  0.8655348E-01
        1   -1    0    0  501    0  0.00000000000E+00  0.00000000000E+00  0.12548823807E+04  0.12548823807E+04  0.50400001928E-02 0. -1.
       -1   -1    0    0    0  501  0.00000000000E+00  0.00000000000E+00 -0.71844413452E+03  0.71844413454E+03  0.50400001928E-02 0.  1.
    10030    2    1    2    0    0  0.00000000000E+00  0.00000000000E+00  0.53643824620E+03  0.19733265153E+04  0.18990133080E+04 0.  0.
        2    1    3    3  502    0  0.60236488452E+03 -0.44780665670E+03  0.87251613185E+03  0.11509381635E+04  0.25500000920E-02 0. -1.
       -2    1    3    3    0  502 -0.60236488452E+03  0.44780665670E+03 -0.33607788565E+03  0.82238835176E+03  0.25500000920E-02 0.  1.
</event>
<event>
 5   0  0.1118206E-04  0.1906077E+04  0.7818609E-02  0.8651837E-01
       -2   -1    0    0    0  501  0.00000000000E+00  0.00000000000E+00  0.38981019166E+03  0.38981019167E+03  0.25500000920E-02 0.  1.
        2   -1    0    0  501    0  0.00000000000E+00  0.00000000000E+00 -0.23300632678E+04  0.23300632678E+04  0.25500000920E-02 0. -1.
    10030    2    1    2    0    0  0.00000000000E+00  0.00000000000E+00 -0.19402530761E+04  0.27198734595E+04  0.19060770278E+04 0.  0.
        1    1    3    3  502    0  0.30243580838E+03 -0.68940141885E+03 -0.18040562890E+04  0.19548301278E+04  0.50400001928E-02 0. -1.
       -1    1    3    3    0  502 -0.30243580838E+03  0.68940141885E+03 -0.13619678710E+03  0.76504333168E+03  0.50400001928E-02 0.  1.
</event>
<event>
 5   0  0.5628936E-05  0.1909627E+04  0.7818609E-02  0.8650079E-01
        1   -1    0    0  501    0  0.00000000000E+00  0.00000000000E+00  0.10518851959E+04  0.10518851959E+04  0.50400001928E-02 0. -1.
       -1   -1    0    0    0  501  0.00000000000E+00  0.00000000000E+00 -0.86670022383E+03  0.86670022384E+03  0.50400001928E-02 0.  1.
    10030    2    1    2    0    0  0.00000000000E+00  0.00000000000E+00  0.18518497205E+03  0.19185854197E+04  0.19096273299E+04 0.  0.
        5    1    3    3  502    0 -0.58741554590E+03  0.44257309713E+03 -0.51913076025E+03  0.90024819139E+03  0.46999998093E+01 0.  1.
       -5    1    3    3    0  502  0.58741554590E+03 -0.44257309713E+03  0.70431573230E+03  0.10183372283E+04  0.46999998093E+01 0. -1.
</event>
<event>
 5   0  0.5579109E-05  0.1906065E+04  0.7818609E-02  0.8651844E-01
       -1   -1    0    0    0  501  0.00000000000E+00  0.00000000000E+00  0.97735707418E+03  0.97735707420E+03  0.50400001928E-02 0. -1.
        1   -1    0    0  501    0  0.00000000000E+00  0.00000000000E+00 -0.92931284843E+03  0.92931284844E+03  0.50400001928E-02 0.  1.
    10030    2    1    2    0    0  0.00000000000E+00  0.00000000000E+00  0.48044225755E+02  0.19066699226E+04  0.19060645179E+04 0.  0.
        3    1    3    3  502    0 -0.96708842725E+02 -0.94739786330E+03  0.60846367348E+02  0.95426285805E+03  0.10100000352E+00 0. -1.
       -3    1    3    3    0  502  0.96708842725E+02  0.94739786330E+03 -0.12802141593E+02  0.95240706458E+03  0.10100000352E+00 0.  1.
</event>
<event>
 5   0  0.1101678E-04  0.1920130E+04  0.7818609E-02  0.8644901E-01
        2   -1    0    0  501    0  0.00000000000E+00  0.00000000000E+00  0.11539336055E+04  0.11539336055E+04  0.25500000920E-02 0. -1.
       -2   -1    0    0    0  501  0.00000000000E+00  0.00000000000E+00 -0.79876726941E+03  0.79876726942E+03  0.25500000920E-02 0.  1.
    10030    2    1    2    0    0  0.00000000000E+00  0.00000000000E+00  0.35516633611E+03  0.19527008749E+04  0.19201295739E+04 0.  0.
        4    1    3    3  502    0  0.52691124332E+02 -0.56514781052E+03  0.96502679810E+03  0.11195743550E+04  0.12699999809E+01 0. -1.
       -4    1    3    3    0  502 -0.52691124332E+02  0.56514781052E+03 -0.60986046199E+03  0.83312651999E+03  0.12699999809E+01 0.  1.
</event>
<event>
 5   0  0.5841424E-05  0.1887623E+04  0.7818609E-02  0.8661042E-01
        1   -1    0    0  501    0  0.00000000000E+00  0.00000000000E+00  0.17964568053E+04  0.17964568053E+04  0.50400001928E-02 0. -1.
       -1   -1    0    0    0  501  0.00000000000E+00  0.00000000000E+00 -0.49585372950E+03  0.49585372953E+03  0.50400001928E-02 0.  1.
    10030    2    1    2    0    0  0.00000000000E+00  0.00000000000E+00  0.13006030758E+04  0.22923105348E+04  0.18876226390E+04 0.  0.
        1    1    3    3  502    0  0.91955892496E+02 -0.91357493695E+03  0.38506148316E+03  0.99566429956E+03  0.50400001928E-02 0.  1.
       -1    1    3    3    0  502 -0.91955892496E+02  0.91357493695E+03  0.91554159266E+03  0.12966462353E+04  0.50400001928E-02 0. -1.
</event>
<event>
 5   0  0.1133638E-04  0.1887613E+04  0.7818609E-02  0.8661047E-01
       -2   -1    0    0    0  501  0.00000000000E+00  0.00000000000E+00  0.84850075475E+03  0.84850075475E+03  0.25500000920E-02 0.  1.
        2   -1    0    0  501    0  0.00000000000E+00  0.00000000000E+00 -0.10498169507E+04  0.10498169507E+04  0.25500000920E-02 0. -1.
    10030    2    1    2    0    0  0.00000000000E+00  0.00000000000E+00 -0.20131619598E+03  0.18983177055E+04  0.18876127516E+04 0.  0.
        3    1    3    3  502    0 -0.43054531641E+03 -0.26662489026E+02  0.74356094599E+03  0.85962959954E+03  0.10100000352E+00 0.  1.
       -3    1    3    3    0  502  0.43054531641E+03  0.26662489026E+02 -0.94487714197E+03  0.10386881059E+04  0.10100000352E+00 0. -1.
</event>
<event>
 5   0  0.1133638E-04  0.1901274E+04  0.7818609E-02  0.8654223E-01
        2   -1    0    0  501    0  0.00000000000E+00  0.00000000000E+00  0.23952066260E+04  0.23952066260E+04  0.25500000920E-02 0.  1.
       -2   -1    0    0    0  501  0.00000000000E+00  0.00000000000E+00 -0.37729948779E+03  0.37729948779E+03  0.25500000920E-02 0. -1.
    10030    2    1    2    0    0  0.00000000000E+00  0.00000000000E+00  0.20179071382E+04  0.27725061138E+04  0.19012735028E+04 0.  0.
        3    1    3    3  502    0  0.13941512230E+03  0.37417611837E+03  0.22669863895E+04  0.23018843681E+04  0.10100000352E+00 0.  1.
       -3    1    3    3    0  502 -0.13941512230E+03 -0.37417611837E+03 -0.24907925128E+03  0.47062174567E+03  0.10100000352E+00 0. -1.
</event>
<event>
 5   0  0.1133638E-04  0.1899860E+04  0.7818609E-02  0.8654926E-01
       -2   -1    0    0    0  501  0.00000000000E+00  0.00000000000E+00  0.80994970732E+03  0.80994970733E+03  0.25500000920E-02 0.  1.
        2   -1    0    0  501    0  0.00000000000E+00  0.00000000000E+00 -0.11141022100E+04  0.11141022100E+04  0.25500000920E-02 0. -1.
    10030    2    1    2    0    0  0.00000000000E+00  0.00000000000E+00 -0.30415250266E+03  0.19240519173E+04  0.18998597410E+04 0.  0.
        3    1    3    3  502    0  0.25813950079E+02  0.18403193154E+03  0.79136146875E+03  0.81288812039E+03  0.10100000352E+00 0.  1.
       -3    1    3    3    0  502 -0.25813950079E+02 -0.18403193154E+03 -0.10955139714E+04  0.11111637969E+04  0.10100000352E+00 0. -1.
</event>
<event>
 5   0  0.5824956E-05  0.1904814E+04  0.7818609E-02  0.8652464E-01
       -1   -1    0    0    0  501  0.00000000000E+00  0.00000000000E+00  0.98037571605E+03  0.98037571606E+03  0.50400001928E-02 0. -1.
        1   -1    0    0  501    0  0.00000000000E+00  0.00000000000E+00 -0.92523664884E+03  0.92523664886E+03  0.50400001928E-02 0.  1.
    10030    2    1    2    0    0  0.00000000000E+00  0.00000000000E+00  0.55139067205E+02  0.19056123649E+04  0.19048144709E+04 0.  0.
        2    1    3    3  502    0  0.76959769245E+03  0.32199025676E+03  0.48724128126E+03  0.96610682631E+03  0.25500000920E-02 0. -1.
       -2    1    3    3    0  502 -0.76959769245E+03 -0.32199025676E+03 -0.43210221405E+03  0.93950553861E+03  0.25500000920E-02 0.  1.
</event>
<event>
 5   0  0.1182630E-04  0.1910772E+04  0.7818609E-02  0.8649513E-01
        2   -1    0    0  501    0  0.00000000000E+00  0.00000000000E+00  0.11258231789E+04  0.11258231789E+04  0.25500000920E-02 0. -1.
       -2   -1    0    0    0  501  0.00000000000E+00  0.00000000000E+00 -0.81075122400E+03  0.81075122401E+03  0.25500000920E-02 0.  1.
    10030    2    1    2    0    0  0.00000000000E+00  0.00000000000E+00  0.31507195488E+03  0.19365744029E+04  0.19107721165E+04 0.  0.
        5    1    3    3  502    0  0.10967163840E+03 -0.62614710472E+03 -0.56529345207E+03  0.85068610073E+03  0.46999998093E+01 0.  1.
       -5    1    3    3    0  502 -0.10967163840E+03  0.62614710472E+03  0.88036540695E+03  0.10858883022E+04  0.46999998093E+01 0. -1.
</event>
<event>
 5   0  0.1182630E-04  0.1905631E+04  0.7818609E-02  0.8652059E-01
       -2   -1    0    0    0  501  0.00000000000E+00  0.00000000000E+00  0.85102165841E+03  0.85102165841E+03  0.25500000920E-02 0.  1.
        2   -1    0    0  501    0  0.00000000000E+00  0.00000000000E+00 -0.10667849862E+04  0.10667849862E+04  0.25500000920E-02 0. -1.
    10030    2    1    2    0    0  0.00000000000E+00  0.00000000000E+00 -0.21576332777E+03  0.19178066446E+04  0.19056307387E+04 0.  0.
        5    1    3    3  502    0 -0.80324417274E+03 -0.42577461201E+03 -0.39492294464E+03  0.99119697511E+03  0.46999998093E+01 0. -1.
       -5    1    3    3    0  502  0.80324417274E+03  0.42577461201E+03  0.17915961686E+03  0.92660966949E+03  0.46999998093E+01 0.  1.
</event>
<event>
 5   0  0.1101678E-04  0.1898453E+04  0.7818609E-02  0.8655627E-01
       -2   -1    0    0    0  501  0.00000000000E+00  0.00000000000E+00  0.66364305858E+03  0.66364305859E+03  0.25500000920E-02 0.  1.
        2   -1    0    0  501    0  0.00000000000E+00  0.00000000000E+00 -0.13577044654E+04  0.13577044654E+04  0.25500000920E-02 0. -1.
    10030    2    1    2    0    0  0.00000000000E+00  0.00000000000E+00 -0.69406140684E+03  0.20213475240E+04  0.18984532063E+04 0.  0.
        4    1    3    3  502    0 -0.15405763649E+03 -0.49975794678E+03  0.49642256422E+03  0.72106084063E+03  0.12699999809E+01 0.  1.
       -4    1    3    3    0  502  0.15405763649E+03  0.49975794678E+03 -0.11904839711E+04  0.13002866834E+04  0.12699999809E+01 0. -1.
</event>
<event>
 5   0  0.1101678E-04  0.1898769E+04  0.7818609E-02  0.8655470E-01
        2   -1    0    0  501    0  0.00000000000E+00  0.00000000000E+00  0.86221941227E+03  0.86221941227E+03  0.25500000920E-02 0. -1.
       -2   -1    0    0    0  501  0.00000000000E+00  0.00000000000E+00 -0.10453609894E+04  0.10453609894E+04  0.25500000920E-02 0.  1.
    10030    2    1    2    0    0  0.00000000000E+00  0.00000000000E+00 -0.18314157710E+03  0.19075804016E+04  0.18987685882E+04 0.  0.
        4    1    3    3  502    0  0.55573580566E+03  0.70402527504E+03 -0.40419823772E+03  0.98380470718E+03  0.12699999809E+01 0.  1.
       -4    1    3    3    0  502 -0.55573580566E+03 -0.70402527504E+03  0.22105666062E+03  0.92377569447E+03  0.12699999809E+01 0. -1.
</event>
<event>
 5   0  0.5614989E-05  0.1893558E+04  0.7818609E-02  0.8658070E-01
        1   -1    0    0  501    0  0.00000000000E+00  0.00000000000E+00  0.21713966979E+04  0.21713966979E+04  0.50400001928E-02 0. -1.
       -1   -1    0    0    0  501  0.00000000000E+00  0.00000000000E+00 -0.41281743052E+03  0.41281743055E+03  0.50400001928E-02 0.  1.
    10030    2    1    2    0    0  0.00000000000E+00  0.00000000000E+00  0.17585792673E+04  0.25842141284E+04  0.18935579268E+04 0.  0.
        4    1    3    3  502    0 -0.44500866323E+03  0.74385149156E+03  0.35953860822E+03  0.93841215654E+03  0.12699999809E+01 0.  1.
       -4    1    3    3    0  502  0.44500866323E+03 -0.74385149156E+03  0.13990406591E+04  0.16458019719E+04  0.12699999809E+01 0. -1.
</event>
<event>
 5   0  0.1133638E-04  0.1665890E+04  0.7818609E-02  0.8781062E-01
        2   -1    0    0  501    0  0.00000000000E+00  0.00000000000E+00  0.10536921546E+04  0.10536921546E+04  0.25500000920E-02 0. -1.
       -2   -1    0    0    0  501  0.00000000000E+00  0.00000000000E+00 -0.65844374271E+03  0.65844374271E+03  0.25500000920E-02 0.  1.
    10030    2    1    2    0    0  0.00000000000E+00  0.00000000000E+00  0.39524841192E+03  0.17121358973E+04  0.16658895593E+04 0.  0.
        3    1    3    3  502    0 -0.53534916477E+03 -0.75048200683E+02  0.84890836173E+03  0.10064175960E+04  0.10100000352E+00 0. -1.
       -3    1    3    3    0  502  0.53534916477E+03  0.75048200683E+02 -0.45365994981E+03  0.70571830138E+03  0.10100000352E+00 0.  1.
</event>
<event>
 5   0  0.5614989E-05  0.1920835E+04  0.7818609E-02  0.8644554E-01
        1   -1    0    0  501    0  0.00000000000E+00  0.00000000000E+00  0.12794398731E+04  0.12794398731E+04  0.50400001928E-02 0.  1.
       -1   -1    0    0    0  501  0.00000000000E+00  0.00000000000E+00 -0.72094195143E+03  0.72094195145E+03  0.50400001928E-02 0. -1.
    10030    2    1    2    0    0  0.00000000000E+00  0.00000000000E+00  0.55849792168E+03  0.20003818246E+04  0.19208351089E+04 0.  0.
        4    1    3    3  502    0  0.65803811253E+03  0.41927842396E+03 -0.30393437072E+03  0.83736865773E+03  0.12699999809E+01 0. -1.
       -4    1    3    3    0  502 -0.65803811253E+03 -0.41927842396E+03  0.86243229240E+03  0.11630131668E+04  0.12699999809E+01 0.  1.
</event>
<event>
 5   0  0.1118206E-04  0.1911210E+04  0.7818609E-02  0.8649297E-01
        2   -1    0    0  501    0  0.00000000000E+00  0.00000000000E+00  0.99172422191E+03  0.99172422191E+03  0.25500000920E-02 0. -1.
       -2   -1    0    0    0  501  0.00000000000E+00  0.00000000000E+00 -0.92080101026E+03  0.92080101027E+03  0.25500000920E-02 0.  1.
    10030    2    1    2    0    0  0.00000000000E+00  0.00000000000E+00  0.70923211649E+02  0.19125252322E+04  0.19112097378E+04 0.  0.
        1    1    3    3  502    0  0.71385516295E+03 -0.35464980284E+03 -0.49198276410E+03  0.93670311013E+03  0.50400001928E-02 0. -1.
       -1    1    3    3    0  502 -0.71385516295E+03  0.35464980284E+03  0.56290597575E+03  0.97582212205E+03  0.50400001928E-02 0.  1.
</event>
<event>
 5   0  0.1141890E-04  0.1893093E+04  0.7818609E-02  0.8658302E-01
        2   -1    0    0  501    0  0.00000000000E+00  0.00000000000E+00  0.18162661464E+04  0.18162661464E+04  0.25500000920E-02 0. -1.
       -2   -1    0    0    0  501  0.00000000000E+00  0.00000000000E+00 -0.49329230197E+03  0.49329230197E+03  0.25500000920E-02 0.  1.
    10030    2    1    2    0    0  0.00000000000E+00  0.00000000000E+00  0.13229738444E+04  0.23095584484E+04  0.18930928222E+04 0.  0.
        2    1    3    3  502    0 -0.93753880338E+03  0.69134230376E+02  0.52678100748E+03  0.10776162487E+04  0.25500000920E-02 0. -1.
       -2    1    3    3    0  502  0.93753880338E+03 -0.69134230376E+02  0.79619283694E+03  0.12319421996E+04  0.25500000920E-02 0.  1.
</event>
<event>
 5   0  0.5841424E-05  0.1893223E+04  0.7818609E-02  0.8658237E-01
        1   -1    0    0  501    0  0.00000000000E+00  0.00000000000E+00  0.68719488864E+03  0.68719488865E+03  0.50400001928E-02 0.  1.
       -1   -1    0    0    0  501  0.00000000000E+00  0.00000000000E+00 -0.13039580624E+04  0.13039580624E+04  0.50400001928E-02 0. -1.
    10030    2    1    2    0    0  0.00000000000E+00  0.00000000000E+00 -0.61676317376E+03  0.19911529511E+04  0.18932229826E+04 0.  0.
        1    1    3    3  502    0  0.20502887990E+03  0.90709192855E+03 -0.12254799510E+03  0.93801418942E+03  0.50400001928E-02 0.  1.
       -1    1    3    3    0  502 -0.20502887990E+03 -0.90709192855E+03 -0.49421517866E+03  0.10531387616E+04  0.50400001928E-02 0. -1.
</event>
<event>
 5   0  0.5824956E-05  0.1893929E+04  0.7818609E-02  0.8657884E-01
       -1   -1    0    0    0  501  0.00000000000E+00  0.00000000000E+00  0.19225358740E+04  0.19225358740E+04  0.50400001928E-02 0. -1.
        1   -1    0    0  501    0  0.00000000000E+00  0.00000000000E+00 -0.46643717339E+03  0.46643717342E+03  0.50400001928E-02 0.  1.
    10030    2    1    2    0    0  0.00000000000E+00  0.00000000000E+00  0.14560987006E+04  0.23889730474E+04  0.18939294589E+04 0.  0.
        2    1    3    3  502    0  0.59034727747E+03  0.46439382785E+02 -0.20407502750E+03  0.62634905695E+03  0.25500000920E-02 0.  1.
       -2    1    3    3    0  502 -0.59034727747E+03 -0.46439382785E+02  0.16601737281E+04  0.17626239904E+04  0.25500000920E-02 0. -1.
</event>
<event>
 5   0  0.1101678E-04  0.1891272E+04  0.7818609E-02  0.8659213E-01
        2   -1    0    0  501    0  0.00000000000E+00  0.00000000000E+00  0.22464488495E+04  0.22464488495E+04  0.25500000920E-02 0. -1.
       -2   -1    0    0    0  501  0.00000000000E+00  0.00000000000E+00 -0.39806278612E+03  0.39806278613E+03  0.25500000920E-02 0.  1.
    10030    2    1    2    0    0  0.00000000000E+00  0.00000000000E+00  0.18483860634E+04  0.26445116356E+04  0.18912722574E+04 0.  0.
        4    1    3    3  502    0  0.45996404923E+03 -0.72669938162E+03  0.37446226989E+03  0.93802053405E+03  0.12699999809E+01 0. -1.
       -4    1    3    3    0  502 -0.45996404923E+03  0.72669938162E+03  0.14739237935E+04  0.17064911016E+04  0.12699999809E+01 0.  1.
</event>
<event>
 5   0  0.1101678E-04  0.1892282E+04  0.7818609E-02  0.8658708E-01
       -2   -1    0    0    0  501  0.00000000000E+00  0.00000000000E+00  0.96169681359E+03  0.96169681359E+03  0.25500000920E-02 0. -1.
        2   -1    0    0  501    0  0.00000000000E+00  0.00000000000E+00 -0.93083670404E+03  0.93083670404E+03  0.25500000920E-02 0.  1.
    10030    2    1    2    0    0  0.00000000000E+00  0.00000000000E+00  0.30860109546E+02  0.18925335176E+04  0.18922818947E+04 0.  0.
        4    1    3    3  502    0 -0.68832933787E+03 -0.60443028678E+03  0.25220576535E+03  0.95012768085E+03  0.12699999809E+01 0.  1.
       -4    1    3    3    0  502  0.68832933787E+03  0.60443028678E+03 -0.22134565581E+03  0.94240583678E+03  0.12699999809E+01 0. -1.
</event>
<event>
 5   0  0.5614989E-05  0.1909487E+04  0.7818609E-02  0.8650148E-01
        1   -1    0    0  501    0  0.00000000000E+00  0.00000000000E+00  0.56822452005E+03  0.56822452008E+03  0.50400001928E-02 0. -1.
       -1   -1    0    0    0  501  0.00000000000E+00  0.00000000000E+00 -0.16041817408E+04  0.16041817408E+04  0.50400001928E-02 0.  1.
    10030    2    1    2    0    0  0.00000000000E+00  0.00000000000E+00 -0.10359572208E+04  0.21724062609E+04  0.19094872608E+04 0.  0.
        4    1    3    3  502    0 -0.72484118792E+03  0.45517096211E+03 -0.99926143828E+03  0.13157128818E+04  0.12699999809E+01 0.  1.
       -4    1    3    3    0  502  0.72484118792E+03 -0.45517096211E+03 -0.36695782497E+02  0.85669337910E+03  0.12699999809E+01 0. -1.
</event>
<event>
 5   0  0.5824956E-05  0.1910424E+04  0.7818609E-02  0.8649685E-01
       -1   -1    0    0    0  501  0.00000000000E+00  0.00000000000E+00  0.12706232327E+04  0.12706232327E+04  0.50400001928E-02 0.  1.
        1   -1    0    0  501    0  0.00000000000E+00  0.00000000000E+00 -0.71809605585E+03  0.71809605587E+03  0.50400001928E-02 0. -1.
    10030    2    1    2    0    0  0.00000000000E+00  0.00000000000E+00  0.55252717685E+03  0.19887192886E+04  0.19104235467E+04 0.  0.
        2    1    3    3  502    0  0.51892187281E+03 -0.80161933814E+03  0.30081090830E+03  0.10011796422E+04  0.25500000920E-02 0. -1.
       -2    1    3    3    0  502 -0.51892187281E+03  0.80161933814E+03  0.25171626855E+03  0.98753964640E+03  0.25500000920E-02 0.  1.
</event>
<event>
 5   0  0.1182630E-04  0.1905327E+04  0.7818609E-02  0.8652209E-01
       -2   -1    0    0    0  501  0.00000000000E+00  0.00000000000E+00  0.91341333896E+03  0.91341333896E+03  0.25500000920E-02 0. -1.
        2   -1    0    0  501    0  0.00000000000E+00  0.00000000000E+00 -0.99360048674E+03  0.99360048674E+03  0.25500000920E-02 0.  1.
    10030    2    1    2    0    0  0.00000000000E+00  0.00000000000E+00 -0.80187147781E+02  0.19070138257E+04  0.19053272036E+04 0.  0.
        5    1    3    3  502    0  0.39400710943E+03 -0.58654713955E+03 -0.67961669749E+03  0.98039792671E+03  0.46999998093E+01 0.  1.
       -5    1    3    3    0  502 -0.39400710943E+03  0.58654713955E+03  0.59942954971E+03  0.92661589899E+03  0.46999998093E+01 0. -1.
</event>
<event>
 5   0  0.4061125E-05  0.1897946E+04  0.7818609E-02  0.8655880E-01
        4   -1    0    0  501    0  0.00000000000E+00  0.00000000000E+00  0.12945819015E+04  0.12945825245E+04  0.12699999809E+01 0.  1.
       -4   -1    0    0    0  501  0.00000000000E+00  0.00000000000E+00 -0.69562831971E+03  0.69562947903E+03  0.12699999809E+01 0. -1.
    10030    2    1    2    0    0  0.00000000000E+00  0.00000000000E+00  0.59895358180E+03  0.19902120035E+04  0.18979458437E+04 0.  0.
        2    1    3    3  502    0 -0.81208421682E+03  0.45490325737E+03  0.49320617062E+03  0.10534087884E+04  0.25500000920E-02 0.  1.
       -2    1    3    3    0  502  0.81208421682E+03 -0.45490325737E+03  0.10574741119E+03  0.93680321507E+03  0.25500000920E-02 0. -1.
</event>
<event>
 5   0  0.5628936E-05  0.1736653E+04  0.7818609E-02  0.8740732E-01
       -1   -1    0    0    0  501  0.00000000000E+00  0.00000000000E+00  0.94294313735E+03  0.94294313736E+03  0.50400001928E-02 0.  1.
        1   -1    0    0  501    0  0.00000000000E+00  0.00000000000E+00 -0.79961416655E+03  0.79961416657E+03  0.50400001928E-02 0. -1.
    10030    2    1    2    0    0  0.00000000000E+00  0.00000000000E+00  0.14332897079E+03  0.17425573039E+04  0.17366527470E+04 0.  0.
        5    1    3    3  502    0 -0.70205183668E+02  0.53171292793E+03  0.75686338830E+03  0.92763769010E+03  0.46999998093E+01 0.  1.
       -5    1    3    3    0  502  0.70205183668E+02 -0.53171292793E+03 -0.61353441751E+03  0.81491961383E+03  0.46999998093E+01 0. -1.
</event>
<event>
 5   0  0.1141890E-04  0.1877787E+04  0.7818609E-02  0.8665993E-01
        2   -1    0    0  501    0  0.00000000000E+00  0.00000000000E+00  0.13345526710E+04  0.13345526710E+04  0.25500000920E-02 0. -1.
       -2   -1    0    0    0  501  0.00000000000E+00  0.00000000000E+00 -0.66053683616E+03  0.66053683616E+03  0.25500000920E-02 0.  1.
    10030    2    1    2    0    0  0.00000000000E+00  0.00000000000E+00  0.67401583487E+03  0.19950895072E+04  0.18777872073E+04 0.  0.
        2    1    3    3  502    0 -0.75936089425E+03 -0.26117209367E+03  0.85389781559E+03  0.11721694885E+04  0.25500000920E-02 0. -1.
       -2    1    3    3    0  502  0.75936089425E+03  0.26117209367E+03 -0.17988198072E+03  0.82292001872E+03  0.25500000920E-02 0.  1.
</event>
<event>
 5   0  0.5614989E-05  0.1898299E+04  0.7818609E-02  0.8655704E-01
       -1   -1    0    0    0  501  0.00000000000E+00  0.00000000000E+00  0.40434336507E+03  0.40434336510E+03  0.50400001928E-02 0.  1.
        1   -1    0    0  501    0  0.00000000000E+00  0.00000000000E+00 -0.22280188029E+04  0.22280188029E+04  0.50400001928E-02 0. -1.
    10030    2    1    2    0    0  0.00000000000E+00  0.00000000000E+00 -0.18236754378E+04  0.26323621680E+04  0.18982988387E+04 0.  0.
        4    1    3    3  502    0  0.53968369835E+03 -0.21839879562E+02 -0.19941243733E+04  0.20659789699E+04  0.12699999809E+01 0. -1.
       -4    1    3    3    0  502 -0.53968369835E+03  0.21839879562E+02  0.17044893553E+03  0.56638319814E+03  0.12699999809E+01 0.  1.
</event>
<event>
 5   0  0.1133638E-04  0.1897110E+04  0.7818609E-02  0.8656296E-01
       -2   -1    0    0    0  501  0.00000000000E+00  0.00000000000E+00  0.75152994819E+03  0.75152994819E+03  0.25500000920E-02 0. -1.
        2   -1    0    0  501    0  0.00000000000E+00  0.00000000000E+00 -0.11972326651E+04  0.11972326651E+04  0.25500000920E-02 0.  1.
    10030    2    1    2    0    0  0.00000000000E+00  0.00000000000E+00 -0.44570271690E+03  0.19487626133E+04  0.18971095939E+04 0.  0.
        3    1    3    3  502    0  0.84899669298E+03 -0.33872573907E+03 -0.48317935719E+03  0.10339210862E+04  0.10100000352E+00 0.  1.
       -3    1    3    3    0  502 -0.84899669298E+03  0.33872573907E+03  0.37476640289E+02  0.91484152713E+03  0.10100000352E+00 0. -1.
</event>
<event>
 5   0  0.4061125E-05  0.1836374E+04  0.7818609E-02  0.8687192E-01
        4   -1    0    0  501    0  0.00000000000E+00  0.00000000000E+00  0.63135024319E+03  0.63135152053E+03  0.12699999809E+01 0.  1.
       -4   -1    0    0    0  501  0.00000000000E+00  0.00000000000E+00 -0.13353365665E+04  0.13353371704E+04  0.12699999809E+01 0. -1.
    10030    2    1    2    0    0  0.00000000000E+00  0.00000000000E+00 -0.70398632328E+03  0.19666886909E+04  0.18363735088E+04 0.  0.
        1    1    3    3  502    0  0.66739252114E+03  0.58429390822E+03 -0.97981141624E+02  0.89241943759E+03  0.50400001928E-02 0.  1.
       -1    1    3    3    0  502 -0.66739252114E+03 -0.58429390822E+03 -0.60600518165E+03  0.10742692533E+04  0.50400001928E-02 0. -1.
</event>
<event>
 5   0  0.1141890E-04  0.1916972E+04  0.7818609E-02  0.8646454E-01
       -2   -1    0    0    0  501  0.00000000000E+00  0.00000000000E+00  0.93007681956E+03  0.93007681956E+03  0.25500000920E-02 0. -1.
        2   -1    0    0  501    0  0.00000000000E+00  0.00000000000E+00 -0.98776342225E+03  0.98776342225E+03  0.25500000920E-02 0.  1.
    10030    2    1    2    0    0  0.00000000000E+00  0.00000000000E+00 -0.57686602690E+02  0.19178402418E+04  0.19169724695E+04 0.  0.
        2    1    3    3  502    0 -0.26083276147E+03 -0.66345254141E+03 -0.66983049685E+03  0.97820033668E+03  0.25500000920E-02 0.  1.
       -2    1    3    3    0  502  0.26083276147E+03  0.66345254141E+03  0.61214389416E+03  0.93963990514E+03  0.25500000920E-02 0. -1.
</event>
<event>
 5   0  0.5579109E-05  0.1900076E+04  0.7818609E-02  0.8654819E-01
        1   -1    0    0  501    0  0.00000000000E+00  0.00000000000E+00  0.94566336866E+03  0.94566336868E+03  0.50400001928E-02 0.  1.
       -1   -1    0    0    0  501  0.00000000000E+00  0.00000000000E+00 -0.95443243056E+03  0.95443243057E+03  0.50400001928E-02 0. -1.
    10030    2    1    2    0    0  0.00000000000E+00  0.00000000000E+00 -0.87690618937E+01  0.19000957992E+04  0.19000755643E+04 0.  0.
        3    1    3    3  502    0 -0.13075282068E+03 -0.40638872812E+02  0.93574460059E+03  0.94570914442E+03  0.10100000352E+00 0.  1.
       -3    1    3    3    0  502  0.13075282068E+03  0.40638872812E+02 -0.94451366249E+03  0.95438665483E+03  0.10100000352E+00 0. -1.
</event>
<event>
 5   0  0.1141890E-04  0.1901210E+04  0.7818609E-02  0.8654254E-01
        2   -1    0    0  501    0  0.00000000000E+00  0.00000000000E+00  0.16575666092E+04  0.16575666092E+04  0.25500000920E-02 0. -1.
       -2   -1    0    0    0  501  0.00000000000E+00  0.00000000000E+00 -0.54516641634E+03  0.54516641635E+03  0.25500000920E-02 0.  1.
    10030    2    1    2    0    0  0.00000000000E+00  0.00000000000E+00  0.11124001928E+04  0.22027330255E+04  0.19012097708E+04 0.  0.
        2    1    3    3  502    0  0.88361308052E+03 -0.23612127103E+03  0.25602699872E+03  0.94977637093E+03  0.25500000920E-02 0.  1.
       -2    1    3    3    0  502 -0.88361308052E+03  0.23612127103E+03  0.85637319412E+03  0.12529566546E+04  0.25500000920E-02 0. -1.
</event>
<event>
 5   0  0.5628936E-05  0.1929634E+04  0.7818609E-02  0.8640245E-01
        1   -1    0    0  501    0  0.00000000000E+00  0.00000000000E+00  0.11882438509E+04  0.11882438510E+04  0.50400001928E-02 0.  1.
       -1   -1    0    0    0  501  0.00000000000E+00  0.00000000000E+00 -0.78340110515E+03  0.78340110516E+03  0.50400001928E-02 0. -1.
    10030    2    1    2    0    0  0.00000000000E+00  0.00000000000E+00  0.40484274580E+03  0.19716449561E+04  0.19296336917E+04 0.  0.
        5    1    3    3  502    0  0.78459794609E+02 -0.31569885468E+03 -0.72566440354E+03  0.79525632521E+03  0.46999998093E+01 0. -1.
       -5    1    3    3    0  502 -0.78459794609E+02  0.31569885468E+03  0.11305071493E+04  0.11763886309E+04  0.46999998093E+01 0.  1.
</event>
<event>
 5   0  0.5614989E-05  0.1883281E+04  0.7818609E-02  0.8663224E-01
       -1   -1    0    0    0  501  0.00000000000E+00  0.00000000000E+00  0.43173195392E+03  0.43173195395E+03  0.50400001928E-02 0. -1.
        1   -1    0    0  501    0  0.00000000000E+00  0.00000000000E+00 -0.20537891671E+04  0.20537891671E+04  0.50400001928E-02 0.  1.
    10030    2    1    2    0    0  0.00000000000E+00  0.00000000000E+00 -0.16220572132E+04  0.24855211210E+04  0.18832805528E+04 0.  0.
        4    1    3    3  502    0  0.68366192601E+03 -0.23536542810E+03 -0.16071697216E+04  0.17623242155E+04  0.12699999809E+01 0.  1.
       -4    1    3    3    0  502 -0.68366192601E+03  0.23536542810E+03 -0.14887491588E+02  0.72319690550E+03  0.12699999809E+01 0. -1.
</event>
<event>
 5   0  0.1133638E-04  0.1897153E+04  0.7818609E-02  0.8656275E-01
        2   -1    0    0  501    0  0.00000000000E+00  0.00000000000E+00  0.10842254692E+04  0.10842254692E+04  0.25500000920E-02 0. -1.
       -2   -1    0    0    0  501  0.00000000000E+00  0.00000000000E+00 -0.82989848824E+03  0.82989848825E+03  0.25500000920E-02 0.  1.
    10030    2    1    2    0    0  0.00000000000E+00  0.00000000000E+00  0.25432698093E+03  0.19141239574E+04  0.18971526853E+04 0.  0.
        3    1    3    3  502    0  0.90417537693E+03  0.23044002447E+03 -0.45131079436E+02  0.93416943948E+03  0.10100000352E+00 0.  1.
       -3    1    3    3    0  502 -0.90417537693E+03 -0.23044002447E+03  0.29945806037E+03  0.97995451795E+03  0.10100000352E+00 0. -1.
</event>
<event>
 5   0  0.5579109E-05  0.1894755E+04  0.7818609E-02  0.8657472E-01
        1   -1    0    0  501    0  0.00000000000E+00  0.00000000000E+00  0.18056208583E+04  0.18056208583E+04  0.50400001928E-02 0. -1.
       -1   -1    0    0    0  501  0.00000000000E+00  0.00000000000E+00 -0.49707212405E+03  0.49707212408E+03  0.50400001928E-02 0.  1.
    10030    2    1    2    0    0  0.00000000000E+00  0.00000000000E+00  0.13085487342E+04  0.23026929824E+04  0.18947546493E+04 0.  0.
        3    1    3    3  502    0  0.50656403883E+03  0.48669548830E+03 -0.11822382850E+03  0.71235981610E+03  0.10100000352E+00 0.  1.
       -3    1    3    3    0  502 -0.50656403883E+03 -0.48669548830E+03  0.14267725627E+04  0.15903331663E+04  0.10100000352E+00 0. -1.
</event>
<event>
 5   0  0.5824956E-05  0.1888471E+04  0.7818609E-02  0.8660616E-01
       -1   -1    0    0    0  501  0.00000000000E+00  0.00000000000E+00  0.76833183363E+03  0.76833183365E+03  0.50400001928E-02 0. -1.
        1   -1    0    0  501    0  0.00000000000E+00  0.00000000000E+00 -0.11604114257E+04  0.11604114257E+04  0.50400001928E-02 0.  1.
    10030    2    1    2    0    0  0.00000000000E+00  0.00000000000E+00 -0.39207959204E+03  0.19287432593E+04  0.18884713802E+04 0.  0.
        2    1    3    3  502    0  0.75147039179E+03  0.57158025010E+03 -0.18275053756E+03  0.96167015708E+03  0.25500000920E-02 0.  1.
       -2    1    3    3    0  502 -0.75147039179E+03 -0.57158025010E+03 -0.20932905448E+03  0.96707310225E+03  0.25500000920E-02 0. -1.
</event>
<event>
 5   0  0.5824956E-05  0.1910760E+04  0.7818609E-02  0.8649519E-01
       -1   -1    0    0    0  501  0.00000000000E+00  0.00000000000E+00  0.99197881992E+03  0.99197881993E+03  0.50400001928E-02 0.  1.
        1   -1    0    0  501    0  0.00000000000E+00  0.00000000000E+00 -0.92013110288E+03  0.92013110289E+03  0.50400001928E-02 0. -1.
    10030    2    1    2    0    0  0.00000000000E+00  0.00000000000E+00  0.71847717043E+02  0.19121099228E+04  0.19107596035E+04 0.  0.
        2    1    3    3  502    0  0.88562834939E+03 -0.11114678386E+03  0.37683950697E+03  0.96886490019E+03  0.25500000920E-02 0.  1.
       -2    1    3    3    0  502 -0.88562834939E+03  0.11114678386E+03 -0.30499178993E+03  0.94324502264E+03  0.25500000920E-02 0. -1.
</event>
<event>
 5   0  0.1101678E-04  0.1904443E+04  0.7818609E-02  0.8652648E-01
       -2   -1    0    0    0  501  0.00000000000E+00  0.00000000000E+00  0.42420156556E+03  0.42420156557E+03  0.25500000920E-02 0.  1.
        2   -1    0    0  501    0  0.00000000000E+00  0.00000000000E+00 -0.21374886211E+04  0.21374886211E+04  0.25500000920E-02 0. -1.
    10030    2    1    2    0    0  0.00000000000E+00  0.00000000000E+00 -0.17132870556E+04  0.25616901867E+04  0.19044432462E+04 0.  0.
        4    1    3    3  502    0 -0.85487592690E+02 -0.50681226027E+03  0.22159440334E+03  0.55970750232E+03  0.12699999809E+01 0.  1.
       -4    1    3    3    0  502  0.85487592690E+02  0.50681226027E+03 -0.19348814589E+04  0.20019826844E+04  0.12699999809E+01 0. -1.
</event>
<event>
 5   0  0.5841424E-05  0.1892097E+04  0.7818609E-02  0.8658800E-01
        1   -1    0    0  501    0  0.00000000000E+00  0.00000000000E+00  0.89708488449E+03  0.89708488451E+03  0.50400001928E-02 0.  1.
       -1   -1    0    0    0  501  0.00000000000E+00  0.00000000000E+00 -0.99768455220E+03  0.99768455222E+03  0.50400001928E-02 0. -1.
    10030    2    1    2    0    0  0.00000000000E+00  0.00000000000E+00 -0.10059966771E+03  0.18947694367E+04  0.18920969651E+04 0.  0.
        1    1    3    3  502    0  0.92736864431E+03 -0.17550739343E+03  0.14539465377E+02  0.94394218238E+03  0.50400001928E-02 0. -1.
       -1    1    3    3    0  502 -0.92736864431E+03  0.17550739343E+03 -0.11513913309E+03  0.95082725434E+03  0.50400001928E-02 0.  1.
</event>
<event>
 5   0  0.5841424E-05  0.1904191E+04  0.7818609E-02  0.8652773E-01
        1   -1    0    0  501    0  0.00000000000E+00  0.00000000000E+00  0.20300193220E+04  0.20300193220E+04  0.50400001928E-02 0.  1.
       -1   -1    0    0    0  501  0.00000000000E+00  0.00000000000E+00 -0.44654033100E+03  0.44654033103E+03  0.50400001928E-02 0. -1.
    10030    2    1    2    0    0  0.00000000000E+00  0.00000000000E+00  0.15834789910E+04  0.24765596530E+04  0.19041906418E+04 0.  0.
        1    1    3    3  502    0 -0.32936871784E+02 -0.78649069370E+03  0.95188426222E+02  0.79291442496E+03  0.50400001928E-02 0. -1.
       -1    1    3    3    0  502  0.32936871784E+02  0.78649069370E+03  0.14882905648E+04  0.16836452281E+04  0.50400001928E-02 0.  1.
</event>
<event>
 5   0  0.1182630E-04  0.1897014E+04  0.7818609E-02  0.8656344E-01
       -2   -1    0    0    0  501  0.00000000000E+00  0.00000000000E+00  0.88749521196E+03  0.88749521196E+03  0.25500000920E-02 0. -1.
        2   -1    0    0  501    0  0.00000000000E+00  0.00000000000E+00 -0.10137128101E+04  0.10137128101E+04  0.25500000920E-02 0.  1.
    10030    2    1    2    0    0  0.00000000000E+00  0.00000000000E+00 -0.12621759814E+03  0.19012080221E+04  0.18970137219E+04 0.  0.
        5    1    3    3  502    0 -0.32964169635E+03  0.28374322372E+03  0.78164825526E+03  0.89452219086E+03  0.46999998093E+01 0. -1.
       -5    1    3    3    0  502  0.32964169635E+03 -0.28374322372E+03 -0.90786585340E+03  0.10066858312E+04  0.46999998093E+01 0.  1.
</event>
<event>
 5   0  0.1118206E-04  0.1894037E+04  0.7818609E-02  0.8657830E-01
       -2   -1    0    0    0  501  0.00000000000E+00  0.00000000000E+00  0.10562227550E+04  0.10562227550E+04  0.25500000920E-02 0.  1.
        2   -1    0    0  501    0  0.00000000000E+00  0.00000000000E+00 -0.84910464639E+03  0.84910464640E+03  0.25500000920E-02 0. -1.
    10030    2    1    2    0    0  0.00000000000E+00  0.00000000000E+00  0.20711810857E+03  0.19053274014E+04  0.18940365877E+04 0.  0.
        1    1    3    3  502    0  0.38731869963E+03 -0.37022940612E+03 -0.68196596888E+03  0.86727341190E+03  0.50400001928E-02 0. -1.
       -1    1    3    3    0  502 -0.38731869963E+03  0.37022940612E+03  0.88908407746E+03  0.10380539895E+04  0.50400001928E-02 0.  1.
</event>
<event>
 5   0  0.1118206E-04  0.1890394E+04  0.7818609E-02  0.8659653E-01
        2   -1    0    0  501    0  0.00000000000E+00  0.00000000000E+00  0.21231068045E+04  0.21231068045E+04  0.25500000920E-02 0. -1.
       -2   -1    0    0    0  501  0.00000000000E+00  0.00000000000E+00 -0.42079730054E+03  0.42079730055E+03  0.25500000920E-02 0.  1.
    10030    2    1    2    0    0  0.00000000000E+00  0.00000000000E+00  0.17023095040E+04  0.25439041051E+04  0.18903942574E+04 0.  0.
        1    1    3    3  502    0  0.29990393383E+03  0.51489137310E+03 -0.13620978708E+03  0.61123530799E+03  0.50400001928E-02 0.  1.
       -1    1    3    3    0  502 -0.29990393383E+03 -0.51489137310E+03  0.18385192910E+04  0.19326687971E+04  0.50400001928E-02 0. -1.
</event>
<event>
 5   0  0.5579109E-05  0.1735844E+04  0.7818609E-02  0.8741181E-01
       -1   -1    0    0    0  501  0.00000000000E+00  0.00000000000E+00  0.24639546687E+04  0.24639546687E+04  0.50400001928E-02 0. -1.
        1   -1    0    0  501    0  0.00000000000E+00  0.00000000000E+00 -0.30572338710E+03  0.30572338714E+03  0.50400001928E-02 0.  1.
    10030    2    1    2    0    0  0.00000000000E+00  0.00000000000E+00  0.21582312816E+04  0.27696780559E+04  0.17358439642E+04 0.  0.
        3    1    3    3  502    0  0.64518251034E+02  0.49737622716E+03  0.22093257789E+04  0.22655388153E+04  0.10100000352E+00 0. -1.
       -3    1    3    3    0  502 -0.64518251034E+02 -0.49737622716E+03 -0.51094497260E+02  0.50413924060E+03  0.10100000352E+00 0.  1.
</event>
<event>
 5   0  0.1182630E-04  0.1891297E+04  0.7818609E-02  0.8659201E-01
       -2   -1    0    0    0  501  0.00000000000E+00  0.00000000000E+00  0.11203194056E+04  0.11203194056E+04  0.25500000920E-02 0.  1.
        2   -1    0    0  501    0  0.00000000000E+00  0.00000000000E+00 -0.79821073961E+03  0.79821073961E+03  0.25500000920E-02 0. -1.
    10030    2    1    2    0    0  0.00000000000E+00  0.00000000000E+00  0.32210866603E+03  0.19185301452E+04  0.18912968898E+04 0.  0.
        5    1    3    3  502    0 -0.37639587601E+03  0.15937853219E+03  0.10260660184E+04  0.11044948782E+04  0.46999998093E+01 0.  1.
       -5    1    3    3    0  502  0.37639587601E+03 -0.15937853219E+03 -0.70395735235E+03  0.81403526700E+03  0.46999998093E+01 0. -1.
</event>
<event>
 5   0  0.1141890E-04  0.1905086E+04  0.7818609E-02  0.8652329E-01
       -2   -1    0    0    0  501  0.00000000000E+00  0.00000000000E+00  0.44359052699E+03  0.44359052700E+03  0.25500000920E-02 0.  1.
        2   -1    0    0  501    0  0.00000000000E+00  0.00000000000E+00 -0.20454408310E+04  0.20454408310E+04  0.25500000920E-02 0. -1.
    10030    2    1    2    0    0  0.00000000000E+00  0.00000000000E+00 -0.16018503040E+04  0.24890313580E+04  0.19050860098E+04 0.  0.
        2    1    3    3  502    0  0.50452320364E+03 -0.80383092923E+03 -0.69437893284E+03  0.11759463968E+04  0.25500000920E-02 0.  1.
       -2    1    3    3    0  502 -0.50452320364E+03  0.80383092923E+03 -0.90747137112E+03  0.13130849612E+04  0.25500000920E-02 0. -1.
</event>
<event>
 5   0  0.5628936E-05  0.1885444E+04  0.7818609E-02  0.8662136E-01
       -1   -1    0    0    0  501  0.00000000000E+00  0.00000000000E+00  0.10463243738E+04  0.10463243738E+04  0.50400001928E-02 0. -1.
        1   -1    0    0  501    0  0.00000000000E+00  0.00000000000E+00 -0.84937743354E+03  0.84937743355E+03  0.50400001928E-02 0.  1.
    10030    2    1    2    0    0  0.00000000000E+00  0.00000000000E+00  0.19694694025E+03  0.18957018074E+04  0.18854435142E+04 0.  0.
        5    1    3    3  502    0  0.82007458466E+03  0.45745430851E+03  0.14861819008E+02  0.93916437988E+03  0.46999998093E+01 0.  1.
       -5    1    3    3    0  502 -0.82007458466E+03 -0.45745430851E+03  0.18208512124E+03  0.95653742747E+03  0.46999998093E+01 0. -1.
</event>
<event>
 5   0  0.1118206E-04  0.1824519E+04  0.7818609E-02  0.8693368E-01
        2   -1    0    0  501    0  0.00000000000E+00  0.00000000000E+00  0.18914893959E+04  0.18914893959E+04  0.25500000920E-02 0.  1.
       -2   -1    0    0    0  501  0.00000000000E+00  0.00000000000E+00 -0.43997985051E+03  0.43997985052E+03  0.25500000920E-02 0. -1.
    10030    2    1    2    0    0  0.00000000000E+00  0.00000000000E+00  0.14515095454E+04  0.23314692464E+04  0.18245188096E+04 0.  0.
        1    1    3    3  502    0 -0.63703268399E+03 -0.28429446515E+03  0.14769584083E+04  0.16334136412E+04  0.50400001928E-02 0.  1.
       -1    1    3    3    0  502  0.63703268399E+03  0.28429446515E+03 -0.25448862868E+02  0.69805560526E+03  0.50400001928E-02 0. -1.
</event>
<event>
 5   0  0.1101678E-04  0.1883573E+04  0.7818609E-02  0.8663077E-01
        2   -1    0    0  501    0  0.00000000000E+00  0.00000000000E+00  0.23974759202E+04  0.23974759202E+04  0.25500000920E-02 0. -1.
       -2   -1    0    0    0  501  0.00000000000E+00  0.00000000000E+00 -0.36995641320E+03  0.36995641321E+03  0.25500000920E-02 0.  1.
    10030    2    1    2    0    0  0.00000000000E+00  0.00000000000E+00  0.20275195070E+04  0.27674323334E+04  0.18835727671E+04 0.  0.
        4    1    3    3  502    0  0.56730620764E+03 -0.43564140079E+03  0.19138937360E+04  0.20431863862E+04  0.12699999809E+01 0. -1.
       -4    1    3    3    0  502 -0.56730620764E+03  0.43564140079E+03  0.11362577103E+03  0.72424594721E+03  0.12699999809E+01 0.  1.
</event>
<event>
 5   0  0.1118206E-04  0.1904241E+04  0.7818609E-02  0.8652748E-01
       -2   -1    0    0    0  501  0.00000000000E+00  0.00000000000E+00  0.37939517464E+03  0.37939517465E+03  0.25500000920E-02 0.  1.
        2   -1    0    0  501    0  0.00000000000E+00  0.00000000000E+00 -0.23894163442E+04  0.23894163442E+04  0.25500000920E-02 0. -1.
    10030    2    1    2    0    0  0.00000000000E+00  0.00000000000E+00 -0.20100211695E+04  0.27688115188E+04  0.19042405638E+04 0.  0.
        1    1    3    3  502    0 -0.79022154100E+03 -0.50079736016E+03 -0.74782932283E+03  0.11977047950E+04  0.50400001928E-02 0. -1.
       -1    1    3    3    0  502  0.79022154100E+03  0.50079736016E+03 -0.12621918467E+04  0.15711067238E+04  0.50400001928E-02 0.  1.
</event>
<event>
 5   0  0.1141890E-04  0.1887624E+04  0.7818609E-02  0.8661042E-01
        2   -1    0    0  501    0  0.00000000000E+00  0.00000000000E+00  0.25562394340E+04  0.25562394340E+04  0.25500000920E-02 0. -1.
       -2   -1    0    0    0  501  0.00000000000E+00  0.00000000000E+00 -0.34847310939E+03  0.34847310940E+03  0.25500000920E-02 0.  1.
    10030    2    1    2    0    0  0.00000000000E+00  0.00000000000E+00  0.22077663247E+04  0.29047125434E+04  0.18876235895E+04 0.  0.
        2    1    3    3  502    0 -0.43632519620E+03  0.21288410731E+03 -0.14159292314E+03  0.50571521223E+03  0.25500000920E-02 0.  1.
       -2    1    3    3    0  502  0.43632519620E+03 -0.21288410731E+03  0.23493592478E+04  0.23989973312E+04  0.25500000920E-02 0. -1.
</event>
<event>
 5   0  0.5824956E-05  0.1886719E+04  0.7818609E-02  0.8661496E-01
        1   -1    0    0  501    0  0.00000000000E+00  0.00000000000E+00  0.12775890865E+04  0.12775890865E+04  0.50400001928E-02 0. -1.
       -1   -1    0    0    0  501  0.00000000000E+00  0.00000000000E+00 -0.69656754026E+03  0.69656754027E+03  0.50400001928E-02 0.  1.
    10030    2    1    2    0    0  0.00000000000E+00  0.00000000000E+00  0.58102154623E+03  0.19741566268E+04  0.18867189377E+04 0.  0.
        2    1    3    3  502    0  0.35966236598E+03  0.84577494388E+03  0.51305216653E+03  0.10525753174E+04  0.25500000920E-02 0. -1.
       -2    1    3    3    0  502 -0.35966236598E+03 -0.84577494388E+03  0.67969379699E+02  0.92158130937E+03  0.25500000920E-02 0.  1.
</event>
<event>
 5   0  0.5824956E-05  0.1900204E+04  0.7818609E-02  0.8654755E-01
       -1   -1    0    0    0  501  0.00000000000E+00  0.00000000000E+00  0.50915102782E+03  0.50915102785E+03  0.50400001928E-02 0. -1.
        1   -1    0    0  501    0  0.00000000000E+00  0.00000000000E+00 -0.17729396631E+04  0.17729396631E+04  0.50400001928E-02 0.  1.
    10030    2    1    2    0    0  0.00000000000E+00  0.00000000000E+00 -0.12637886353E+04  0.22820906909E+04  0.19002042540E+04 0.  0.
        2    1    3    3  502    0 -0.66366165331E+02 -0.31610533411E+03 -0.17049787699E+04  0.17353039088E+04  0.25500000920E-02 0.  1.
       -2    1    3    3    0  502  0.66366165331E+02  0.31610533411E+03  0.44119013466E+03  0.54678678210E+03  0.25500000920E-02 0. -1.
</event>
<event>
 5   0  0.1118206E-04  0.1871701E+04  0.7818609E-02  0.8669072E-01
       -2   -1    0    0    0  501  0.00000000000E+00  0.00000000000E+00  0.64540647902E+03  0.64540647903E+03  0.25500000920E-02 0.  1.
        2   -1    0    0  501    0  0.00000000000E+00  0.00000000000E+00 -0.13569986732E+04  0.13569986732E+04  0.25500000920E-02 0. -1.
    10030    2    1    2    0    0  0.00000000000E+00  0.00000000000E+00 -0.71159219421E+03  0.20024051523E+04  0.18717005484E+04 0.  0.
        1    1    3    3  502    0  0.45714529550E+03 -0.54096931434E+03 -0.10102204025E+04  0.12337645164E+04  0.50400001928E-02 0. -1.
       -1    1    3    3    0  502 -0.45714529550E+03  0.54096931434E+03  0.29862820831E+03  0.76864063585E+03  0.50400001928E-02 0.  1.
</event>
<event>
 5   0  0.5579109E-05  0.1903126E+04  0.7818609E-02  0.8653302E-01
       -1   -1    0    0    0  501  0.00000000000E+00  0.00000000000E+00  0.59545141114E+03  0.59545141116E+03  0.50400001928E-02 0.  1.
        1   -1    0    0  501    0  0.00000000000E+00  0.00000000000E+00 -0.15206474887E+04  0.15206474887E+04  0.50400001928E-02 0. -1.
    10030    2    1    2    0    0  0.00000000000E+00  0.00000000000E+00 -0.92519607759E+03  0.21160988999E+04  0.19031255272E+04 0.  0.
        3    1    3    3  502    0  0.11071538063E+03  0.42916737149E+03 -0.13988668866E+04  0.14674028434E+04  0.10100000352E+00 0. -1.
       -3    1    3    3    0  502 -0.11071538063E+03 -0.42916737149E+03  0.47367080898E+03  0.64869605651E+03  0.10100000352E+00 0.  1.
</event>
<event>
 5   0  0.5628936E-05  0.2092537E+04  0.7818609E-02  0.8564538E-01
       -1   -1    0    0    0  501  0.00000000000E+00  0.00000000000E+00  0.71274972643E+03  0.71274972644E+03  0.50400001928E-02 0.  1.
        1   -1    0    0  501    0  0.00000000000E+00  0.00000000000E+00 -0.15358513494E+04  0.15358513494E+04  0.50400001928E-02 0. -1.
    10030    2    1    2    0    0  0.00000000000E+00  0.00000000000E+00 -0.82310162298E+03  0.22486010759E+04  0.20925368615E+04 0.  0.
        5    1    3    3  502    0  0.41839475060E+03  0.87304387482E+02 -0.14377502937E+04  0.14999414057E+04  0.46999998093E+01 0. -1.
       -5    1    3    3    0  502 -0.41839475060E+03 -0.87304387482E+02  0.61464867070E+03  0.74865967021E+03  0.46999998093E+01 0.  1.
</event>
<event>
 5   0  0.1118206E-04  0.1903521E+04  0.7818609E-02  0.8653106E-01
       -2   -1    0    0    0  501  0.00000000000E+00  0.00000000000E+00  0.62345842962E+03  0.62345842963E+03  0.25500000920E-02 0.  1.
        2   -1    0    0  501    0  0.00000000000E+00  0.00000000000E+00 -0.14529402274E+04  0.14529402274E+04  0.25500000920E-02 0. -1.
    10030    2    1    2    0    0  0.00000000000E+00  0.00000000000E+00 -0.82948179782E+03  0.20763986571E+04  0.19035207722E+04 0.  0.
        1    1    3    3  502    0  0.57178336376E+03 -0.62377086429E+03  0.60513176215E+02  0.84834435858E+03  0.50400001928E-02 0.  1.
       -1    1    3    3    0  502 -0.57178336376E+03  0.62377086429E+03 -0.88999497403E+03  0.12280542985E+04  0.50400001928E-02 0. -1.
</event>
<event>
 5   0  0.5614989E-05  0.1891643E+04  0.7818609E-02  0.8659028E-01
        1   -1    0    0  501    0  0.00000000000E+00  0.00000000000E+00  0.11494901353E+04  0.11494901353E+04  0.50400001928E-02 0.  1.
       -1   -1    0    0    0  501  0.00000000000E+00  0.00000000000E+00 -0.77823905123E+03  0.77823905125E+03  0.50400001928E-02 0. -1.
    10030    2    1    2    0    0  0.00000000000E+00  0.00000000000E+00  0.37125108408E+03  0.19277291866E+04  0.18916427912E+04 0.  0.
        4    1    3    3  502    0 -0.44117451695E+03 -0.80140857630E+03  0.43038613651E+03  0.10110017309E+04  0.12699999809E+01 0.  1.
       -4    1    3    3    0  502  0.44117451695E+03  0.80140857630E+03 -0.59135052429E+02  0.91672745563E+03  0.12699999809E+01 0. -1.
</event>
<event>
 5   0  0.1141890E-04  0.1898908E+04  0.7818609E-02  0.8655400E-01
       -2   -1    0    0    0  501  0.00000000000E+00  0.00000000000E+00  0.34349907237E+03  0.34349907238E+03  0.25500000920E-02 0.  1.
        2   -1    0    0  501    0  0.00000000000E+00  0.00000000000E+00 -0.26243543711E+04  0.26243543711E+04  0.25500000920E-02 0. -1.
    10030    2    1    2    0    0  0.00000000000E+00  0.00000000000E+00 -0.22808552987E+04  0.29678534434E+04  0.18989084149E+04 0.  0.
        2    1    3    3  502    0  0.85626274525E+03 -0.23201720421E+03 -0.16691621393E+04  0.18902698536E+04  0.25500000920E-02 0. -1.
       -2    1    3    3    0  502 -0.85626274525E+03  0.23201720421E+03 -0.61169315938E+03  0.10775835899E+04  0.25500000920E-02 0.  1.
</event>
<event>
 5   0  0.5841424E-05  0.1889232E+04  0.7818609E-02  0.8660235E-01
       -1   -1    0    0    0  501  0.00000000000E+00  0.00000000000E+00  0.53619900587E+03  0.53619900589E+03  0.50400001928E-02 0.  1.
        1   -1    0    0  501    0  0.00000000000E+00  0.00000000000E+00 -0.16641199370E+04  0.16641199370E+04  0.50400001928E-02 0. -1.
    10030    2    1    2    0    0  0.00000000000E+00  0.00000000000E+00 -0.11279209311E+04  0.22003189429E+04  0.18892320724E+04 0.  0.
        1    1    3    3  502    0  0.27643546897E+03 -0.70319861799E+02 -0.16127640306E+04  0.16377940255E+04  0.50400001928E-02 0. -1.
       -1    1    3    3    0  502 -0.27643546897E+03  0.70319861799E+02  0.48484309953E+03  0.56252491737E+03  0.50400001928E-02 0.  1.
</event>
<event>
 5   0  0.5841424E-05  0.1895446E+04  0.7818609E-02  0.8657127E-01
        1   -1    0    0  501    0  0.00000000000E+00  0.00000000000E+00  0.13176326741E+04  0.13176326741E+04  0.50400001928E-02 0.  1.
       -1   -1    0    0    0  501  0.00000000000E+00  0.00000000000E+00 -0.68166102209E+03  0.68166102211E+03  0.50400001928E-02 0. -1.
    10030    2    1    2    0    0  0.00000000000E+00  0.00000000000E+00  0.63597165201E+03  0.19992936962E+04  0.18954459479E+04 0.  0.
        1    1    3    3  502    0  0.82862145088E+03  0.83704204478E+02 -0.15907572619E+03  0.84789444473E+03  0.50400001928E-02 0. -1.
       -1    1    3    3    0  502 -0.82862145088E+03 -0.83704204478E+02  0.79504737820E+03  0.11513992515E+04  0.50400001928E-02 0.  1.
</event>
<event>
 5   0  0.1182630E-04  0.1908730E+04  0.7818609E-02  0.8650523E-01
       -2   -1    0    0    0  501  0.00000000000E+00  0.00000000000E+00  0.49705256334E+03  0.49705256335E+03  0.25500000920E-02 0. -1.
        2   -1    0    0  501    0  0.00000000000E+00  0.00000000000E+00 -0.18324277956E+04  0.18324277956E+04  0.25500000920E-02 0.  1.
    10030    2    1    2    0    0  0.00000000000E+00  0.00000000000E+00 -0.13353752322E+04  0.23294803589E+04  0.19087303979E+04 0.  0.
        5    1    3    3  502    0  0.92931653155E+03  0.14851682082E+03 -0.86105767172E+03  0.12755896150E+04  0.46999998093E+01 0.  1.
       -5    1    3    3    0  502 -0.92931653155E+03 -0.14851682082E+03 -0.47431756049E+03  0.10538907439E+04  0.46999998093E+01 0. -1.
</event>
<event>
 5   0  0.5579109E-05  0.1896191E+04  0.7818609E-02  0.8656755E-01
        1   -1    0    0  501    0  0.00000000000E+00  0.00000000000E+00  0.45471936660E+03  0.45471936663E+03  0.50400001928E-02 0. -1.
       -1   -1    0    0    0  501  0.00000000000E+00  0.00000000000E+00 -0.19767906842E+04  0.19767906842E+04  0.50400001928E-02 0.  1.
    10030    2    1    2    0    0  0.00000000000E+00  0.00000000000E+00 -0.15220713176E+04  0.24315100509E+04  0.18961909270E+04 0.  0.
        3    1    3    3  502    0  0.34788462950E+03 -0.47899754866E+03  0.18858835567E+03  0.62131147194E+03  0.10100000352E+00 0. -1.
       -3    1    3    3    0  502 -0.34788462950E+03  0.47899754866E+03 -0.17106596733E+04  0.18101985789E+04  0.10100000352E+00 0.  1.
</event>
<event>
 5   0  0.5628936E-05  0.1898111E+04  0.7818609E-02  0.8655797E-01
       -1   -1    0    0    0  501  0.00000000000E+00  0.00000000000E+00  0.16359043778E+04  0.16359043778E+04  0.50400001928E-02 0. -1.
        1   -1    0    0  501    0  0.00000000000E+00  0.00000000000E+00 -0.55058644763E+03  0.55058644766E+03  0.50400001928E-02 0.  1.
    10030    2    1    2    0    0  0.00000000000E+00  0.00000000000E+00  0.10853179302E+04  0.21864908255E+04  0.18981114615E+04 0.  0.
        5    1    3    3  502    0 -0.61588045586E+03 -0.28786503550E+03 -0.22014955978E+03  0.71460683823E+03  0.46999998093E+01 0.  1.
       -5    1    3    3    0  502  0.61588045586E+03  0.28786503550E+03  0.13054674900E+04  0.14718839873E+04  0.46999998093E+01 0. -1.
</event>
<event>
 5   0  0.1141890E-04  0.1911612E+04  0.7818609E-02  0.8649098E-01
        2   -1    0    0  501    0  0.00000000000E+00  0.00000000000E+00  0.96889120924E+03  0.96889120925E+03  0.25500000920E-02 0. -1.
       -2   -1    0    0    0  501  0.00000000000E+00  0.00000000000E+00 -0.94289743252E+03  0.94289743252E+03  0.25500000920E-02 0.  1.
    10030    2    1    2    0    0  0.00000000000E+00  0.00000000000E+00  0.25993776726E+02  0.19117886418E+04  0.19116119204E+04 0.  0.
        2    1    3    3  502    0 -0.51139241159E+03  0.75962390690E+03 -0.26091591755E+03  0.95217004501E+03  0.25500000920E-02 0.  1.
       -2    1    3    3    0  502  0.51139241159E+03 -0.75962390690E+03  0.28690969428E+03  0.95961859676E+03  0.25500000920E-02 0. -1.
</event>
<event>
 5   0  0.1101678E-04  0.1877835E+04  0.7818609E-02  0.8665969E-01
        2   -1    0    0  501    0  0.00000000000E+00  0.00000000000E+00  0.13917102289E+04  0.13917102289E+04  0.25500000920E-02 0. -1.
       -2   -1    0    0    0  501  0.00000000000E+00  0.00000000000E+00 -0.63344082652E+03  0.63344082653E+03  0.25500000920E-02 0.  1.
    10030    2    1    2    0    0  0.00000000000E+00  0.00000000000E+00  0.75826940235E+03  0.20251510554E+04  0.18778350062E+04 0.  0.
        4    1    3    3  502    0 -0.11327155364E+03  0.24416668977E+03  0.13492102547E+04  0.13757971295E+04  0.12699999809E+01 0. -1.
       -4    1    3    3    0  502  0.11327155364E+03 -0.24416668977E+03 -0.59094085233E+03  0.64935392592E+03  0.12699999809E+01 0.  1.
</event>
<event>
 5   0  0.5579109E-05  0.1897449E+04  0.7818609E-02  0.8656127E-01
        1   -1    0    0  501    0  0.00000000000E+00  0.00000000000E+00  0.12931380334E+04  0.12931380335E+04  0.50400001928E-02 0.  1.
       -1   -1    0    0    0  501  0.00000000000E+00  0.00000000000E+00 -0.69604190803E+03  0.69604190805E+03  0.50400001928E-02 0. -1.
    10030    2    1    2    0    0  0.00000000000E+00  0.00000000000E+00  0.59709612542E+03  0.19891799415E+04  0.18974490920E+04 0.  0.
        3    1    3    3  502    0 -0.73411556185E+01 -0.11620753718E+03  0.12856187363E+04  0.12908809510E+04  0.10100000352E+00 0.  1.
       -3    1    3    3    0  502  0.73411556185E+01  0.11620753718E+03 -0.68852261089E+03  0.69829899053E+03  0.10100000352E+00 0. -1.
</event>
<event>
 5   0  0.1141890E-04  0.1905206E+04  0.7818609E-02  0.8652270E-01
        2   -1    0    0  501    0  0.00000000000E+00  0.00000000000E+00  0.11145781553E+04  0.11145781553E+04  0.25500000920E-02 0.  1.
       -2   -1    0    0    0  501  0.00000000000E+00  0.00000000000E+00 -0.81416641724E+03  0.81416641725E+03  0.25500000920E-02 0. -1.
    10030    2    1    2    0    0  0.00000000000E+00  0.00000000000E+00  0.30041173802E+03  0.19287445725E+04  0.19052056093E+04 0.  0.
        2    1    3    3  502    0 -0.83336680171E+03 -0.31260998117E+03 -0.19343891860E+03  0.91084786971E+03  0.25500000920E-02 0. -1.
       -2    1    3    3    0  502  0.83336680171E+03  0.31260998117E+03  0.49385065662E+03  0.10178967028E+04  0.25500000920E-02 0.  1.
</event>
<event>
 5   0  0.1101678E-04  0.1859934E+04  0.7818609E-02  0.8675061E-01
       -2   -1    0    0    0  501  0.00000000000E+00  0.00000000000E+00  0.82332433223E+03  0.82332433224E+03  0.25500000920E-02 0.  1.
        2   -1    0    0  501    0  0.00000000000E+00  0.00000000000E+00 -0.10504227032E+04  0.10504227032E+04  0.25500000920E-02 0. -1.
    10030    2    1    2    0    0  0.00000000000E+00  0.00000000000E+00 -0.22709837092E+03  0.18737470354E+04  0.18599339458E+04 0.  0.
        4    1    3    3  502    0  0.26634258801E+03  0.87741611824E+03  0.42649187421E+02  0.91794225571E+03  0.12699999809E+01 0.  1.
       -4    1    3    3    0  502 -0.26634258801E+03 -0.87741611824E+03 -0.26974755835E+03  0.95580477968E+03  0.12699999809E+01 0. -1.
</event>
<event>
 5   0  0.1133638E-04  0.1903154E+04  0.7818609E-02  0.8653288E-01
       -2   -1    0    0    0  501  0.00000000000E+00  0.00000000000E+00  0.10844950492E+04  0.10844950492E+04  0.25500000920E-02 0. -1.
        2   -1    0    0  501    0  0.00000000000E+00  0.00000000000E+00 -0.83494994006E+03  0.83494994006E+03  0.25500000920E-02 0.  1.
    10030    2    1    2    0    0  0.00000000000E+00  0.00000000000E+00  0.24954510917E+03  0.19194449893E+04  0.19031543041E+04 0.  0.
        3    1    3    3  502    0  0.88821309040E+03 -0.33823285952E+03  0.77735320613E+02  0.95360723125E+03  0.10100000352E+00 0.  1.
       -3    1    3    3    0  502 -0.88821309040E+03  0.33823285952E+03  0.17180978856E+03  0.96583775804E+03  0.10100000352E+00 0. -1.
</event>
<event>
 5   0  0.5628936E-05  0.1891817E+04  0.7818609E-02  0.8658940E-01
       -1   -1    0    0    0  501  0.00000000000E+00  0.00000000000E+00  0.14863550867E+04  0.14863550868E+04  0.50400001928E-02 0. -1.
        1   -1    0    0  501    0  0.00000000000E+00  0.00000000000E+00 -0.60197129052E+03  0.60197129054E+03  0.50400001928E-02 0.  1.
    10030    2    1    2    0    0  0.00000000000E+00  0.00000000000E+00  0.88438379623E+03  0.20883263773E+04  0.18918172108E+04 0.  0.
        5    1    3    3  502    0 -0.62369011726E+03  0.31340028946E+03 -0.26248388599E+03  0.74574056092E+03  0.46999998093E+01 0.  1.
       -5    1    3    3    0  502  0.62369011726E+03 -0.31340028946E+03  0.11468676822E+04  0.13425858164E+04  0.46999998093E+01 0. -1.
</event>
<event>
 5   0  0.1141890E-04  0.1899681E+04  0.7818609E-02  0.8655015E-01
       -2   -1    0    0    0  501  0.00000000000E+00  0.00000000000E+00  0.62864106744E+03  0.62864106744E+03  0.25500000920E-02 0.  1.
        2   -1    0    0  501    0  0.00000000000E+00  0.00000000000E+00 -0.14351544196E+04  0.14351544196E+04  0.25500000920E-02 0. -1.
    10030    2    1    2    0    0  0.00000000000E+00  0.00000000000E+00 -0.80651335221E+03  0.20637954871E+04  0.18996810325E+04 0.  0.
        2    1    3    3  502    0  0.78728990999E+03  0.40812748905E+03 -0.77295452266E+03  0.11763724511E+04  0.25500000920E-02 0.  1.
       -2    1    3    3    0  502 -0.78728990999E+03 -0.40812748905E+03 -0.33558829546E+02  0.88742303595E+03  0.25500000920E-02 0. -1.
</event>
<event>
 5   0  0.4061125E-05  0.1902883E+04  0.7818609E-02  0.8653423E-01
        3   -1    0    0  501    0  0.00000000000E+00  0.00000000000E+00  0.12761798535E+04  0.12761798575E+04  0.10100000352E+00 0. -1.
       -3   -1    0    0    0  501  0.00000000000E+00  0.00000000000E+00 -0.70933669878E+03  0.70933670597E+03  0.10100000352E+00 0.  1.
    10030    2    1    2    0    0  0.00000000000E+00  0.00000000000E+00  0.56684315472E+03  0.19855165635E+04  0.19028833022E+04 0.  0.
        5    1    3    3  502    0  0.87395073408E+03  0.15679247311E+03  0.64009199891E+03  0.10945837667E+04  0.46999998093E+01 0.  1.
       -5    1    3    3    0  502 -0.87395073408E+03 -0.15679247311E+03 -0.73248844191E+02  0.89093279679E+03  0.46999998093E+01 0. -1.
</event>
<event>
 5   0  0.5614989E-05  0.1890676E+04  0.7818609E-02  0.8659511E-01
       -1   -1    0    0    0  501  0.00000000000E+00  0.00000000000E+00  0.96662133593E+03  0.96662133595E+03  0.50400001928E-02 0. -1.
        1   -1    0    0  501    0  0.00000000000E+00  0.00000000000E+00 -0.92452369678E+03  0.92452369680E+03  0.50400001928E-02 0.  1.
    10030    2    1    2    0    0  0.00000000000E+00  0.00000000000E+00  0.42097639152E+02  0.18911450327E+04  0.18906764196E+04 0.  0.
        4    1    3    3  502    0  0.14020320134E+03 -0.15250099993E+03  0.94363811179E+03  0.96610972025E+03  0.12699999809E+01 0. -1.
       -4    1    3    3    0  502 -0.14020320134E+03  0.15250099993E+03 -0.90154047264E+03  0.92503531249E+03  0.12699999809E+01 0.  1.
</event>
<event>
 5   0  0.1141890E-04  0.1902350E+04  0.7818609E-02  0.8653687E-01
       -2   -1    0    0    0  501  0.00000000000E+00  0.00000000000E+00  0.46547195050E+03  0.46547195051E+03  0.25500000920E-02 0.  1.
        2   -1    0    0  501    0  0.00000000000E+00  0.00000000000E+00 -0.19436922692E+04  0.19436922692E+04  0.25500000920E-02 0. -1.
    10030    2    1    2    0    0  0.00000000000E+00  0.00000000000E+00 -0.14782203187E+04  0.24091642197E+04  0.19023503691E+04 0.  0.
        2    1    3    3  502    0 -0.61731700473E+03  0.69136527214E+03 -0.46847642438E+03  0.10385260633E+04  0.25500000920E-02 0. -1.
       -2    1    3    3    0  502  0.61731700473E+03 -0.69136527214E+03 -0.10097438943E+04  0.13706381565E+04  0.25500000920E-02 0.  1.
</event>
<event>
 5   0  0.5628936E-05  0.1903447E+04  0.7818609E-02  0.8653143E-01
        1   -1    0    0  501    0  0.00000000000E+00  0.00000000000E+00  0.10267006443E+04  0.10267006443E+04  0.50400001928E-02 0. -1.
       -1   -1    0    0    0  501  0.00000000000E+00  0.00000000000E+00 -0.88222169830E+03  0.88222169832E+03  0.50400001928E-02 0.  1.
    10030    2    1    2    0    0  0.00000000000E+00  0.00000000000E+00  0.14447894600E+03  0.19089223426E+04  0.19034469639E+04 0.  0.
        5    1    3    3  502    0 -0.27511684852E+03  0.69485563647E+03 -0.51872791811E+03  0.90973313609E+03  0.46999998093E+01 0.  1.
       -5    1    3    3    0  502  0.27511684852E+03 -0.69485563647E+03  0.66320686411E+03  0.99918920655E+03  0.46999998093E+01 0. -1.
</event>
<event>
 5   0  0.5628936E-05  0.1897113E+04  0.7818609E-02  0.8656295E-01
       -1   -1    0    0    0  501  0.00000000000E+00  0.00000000000E+00  0.84661710510E+03  0.84661710511E+03  0.50400001928E-02 0.  1.
        1   -1    0    0  501    0  0.00000000000E+00  0.00000000000E+00 -0.10627700375E+04  0.10627700375E+04  0.50400001928E-02 0. -1.
    10030    2    1    2    0    0  0.00000000000E+00  0.00000000000E+00 -0.21615293241E+03  0.19093871426E+04  0.18971128512E+04 0.  0.
        5    1    3    3  502    0 -0.28549238641E+03 -0.28763499097E+03 -0.97123665674E+03  0.10524079647E+04  0.46999998093E+01 0. -1.
       -5    1    3    3    0  502  0.28549238641E+03  0.28763499097E+03  0.75508372432E+03  0.85697917796E+03  0.46999998093E+01 0.  1.
</event>
<event>
 5   0  0.5579109E-05  0.1903768E+04  0.7818609E-02  0.8652983E-01
       -1   -1    0    0    0  501  0.00000000000E+00  0.00000000000E+00  0.71993497045E+03  0.71993497047E+03  0.50400001928E-02 0.  1.
        1   -1    0    0  501    0  0.00000000000E+00  0.00000000000E+00 -0.12585625534E+04  0.12585625535E+04  0.50400001928E-02 0. -1.
    10030    2    1    2    0    0  0.00000000000E+00  0.00000000000E+00 -0.53862758300E+03  0.19784975239E+04  0.19037680476E+04 0.  0.
        3    1    3    3  502    0 -0.77676754599E+02 -0.86045447883E+03  0.14595555188E+03  0.87619553849E+03  0.10100000352E+00 0.  1.
       -3    1    3    3    0  502  0.77676754599E+02  0.86045447883E+03 -0.68458313488E+03  0.11023019854E+04  0.10100000352E+00 0. -1.
</event>
<event>
 5   0  0.5824956E-05  0.1904224E+04  0.7818609E-02  0.8652757E-01
       -1   -1    0    0    0  501  0.00000000000E+00  0.00000000000E+00  0.87940379458E+03  0.87940379460E+03  0.50400001928E-02 0. -1.
        1   -1    0    0  501    0  0.00000000000E+00  0.00000000000E+00 -0.10308313798E+04  0.10308313798E+04  0.50400001928E-02 0.  1.
    10030    2    1    2    0    0  0.00000000000E+00  0.00000000000E+00 -0.15142758524E+03  0.19102351744E+04  0.19042237547E+04 0.  0.
        2    1    3    3  502    0 -0.16847178044E+02 -0.80293278837E+03  0.43730277467E+03  0.91444989299E+03  0.25500000920E-02 0. -1.
       -2    1    3    3    0  502  0.16847178044E+02  0.80293278837E+03 -0.58873035992E+03  0.99578528144E+03  0.25500000920E-02 0.  1.
</event>
<event>
 5   0  0.1182630E-04  0.1903818E+04  0.7818609E-02  0.8652958E-01
       -2   -1    0    0    0  501  0.00000000000E+00  0.00000000000E+00  0.59335392299E+03  0.59335392300E+03  0.25500000920E-02 0.  1.
        2   -1    0    0  501    0  0.00000000000E+00  0.00000000000E+00 -0.15271331580E+04  0.15271331580E+04  0.25500000920E-02 0. -1.
    10030    2    1    2    0    0  0.00000000000E+00  0.00000000000E+00 -0.93377923504E+03  0.21204870810E+04  0.19038176911E+04 0.  0.
        5    1    3    3  502    0 -0.21948118879E+03  0.32492132550E+03 -0.14329935352E+04  0.14856777652E+04  0.46999998093E+01 0. -1.
       -5    1    3    3    0  502  0.21948118879E+03 -0.32492132550E+03  0.49921430017E+03  0.63480931585E+03  0.46999998093E+01 0.  1.
</event>
<event>
 5   0  0.5614989E-05  0.1910678E+04  0.7818609E-02  0.8649559E-01
        1   -1    0    0  501    0  0.00000000000E+00  0.00000000000E+00  0.17576226918E+04  0.17576226918E+04  0.50400001928E-02 0. -1.
       -1   -1    0    0    0  501  0.00000000000E+00  0.00000000000E+00 -0.51926548569E+03  0.51926548571E+03  0.50400001928E-02 0.  1.
    10030    2    1    2    0    0  0.00000000000E+00  0.00000000000E+00  0.12383572061E+04  0.22768881775E+04  0.19106782050E+04 0.  0.
        4    1    3    3  502    0 -0.60501720099E+03  0.65141268542E+03  0.20245883924E+03  0.91179794621E+03  0.12699999809E+01 0.  1.
       -4    1    3    3    0  502  0.60501720099E+03 -0.65141268542E+03  0.10358983669E+04  0.13650902313E+04  0.12699999809E+01 0. -1.
</event>
<event>
 5   0  0.5628936E-05  0.1898722E+04  0.7818609E-02  0.8655493E-01
        1   -1    0    0  501    0  0.00000000000E+00  0.00000000000E+00  0.20970104680E+04  0.20970104680E+04  0.50400001928E-02 0.  1.
       -1   -1    0    0    0  501  0.00000000000E+00  0.00000000000E+00 -0.42979570604E+03  0.42979570607E+03  0.50400001928E-02 0. -1.
    10030    2    1    2    0    0  0.00000000000E+00  0.00000000000E+00  0.16672147620E+04  0.25268061741E+04  0.18987217750E+04 0.  0.
        5    1    3    3  502    0 -0.80158708318E+02  0.94562754023E+03  0.86693415872E+03  0.12853924649E+04  0.46999998093E+01 0.  1.
       -5    1    3    3    0  502  0.80158708318E+02 -0.94562754023E+03  0.80028060327E+03  0.12414137092E+04  0.46999998093E+01 0. -1.
</event>
<event>
 5   0  0.1141890E-04  0.1894249E+04  0.7818609E-02  0.8657724E-01
        2   -1    0    0  501    0  0.00000000000E+00  0.00000000000E+00  0.16550215672E+04  0.16550215672E+04  0.25500000920E-02 0.  1.
       -2   -1    0    0    0  501  0.00000000000E+00  0.00000000000E+00 -0.54201413749E+03  0.54201413750E+03  0.25500000920E-02 0. -1.
    10030    2    1    2    0    0  0.00000000000E+00  0.00000000000E+00  0.11130074297E+04  0.21970357047E+04  0.18942492838E+04 0.  0.
        2    1    3    3  502    0  0.33654218793E+03  0.13797399711E+03  0.15707864892E+04  0.16123484930E+04  0.25500000920E-02 0.  1.
       -2    1    3    3    0  502 -0.33654218793E+03 -0.13797399711E+03 -0.45777905954E+03  0.58468721167E+03  0.25500000920E-02 0. -1.
</event>
<event>
 5   0  0.5824956E-05  0.1893545E+04  0.7818609E-02  0.8658076E-01
       -1   -1    0    0    0  501  0.00000000000E+00  0.00000000000E+00  0.75612754719E+03  0.75612754720E+03  0.50400001928E-02 0.  1.
        1   -1    0    0  501    0  0.00000000000E+00  0.00000000000E+00 -0.11854849319E+04  0.11854849319E+04  0.50400001928E-02 0. -1.
    10030    2    1    2    0    0  0.00000000000E+00  0.00000000000E+00 -0.42935738470E+03  0.19416124791E+04  0.18935446272E+04 0.  0.
        2    1    3    3  502    0  0.50840526094E+03  0.43081584358E+03  0.47492585689E+03  0.81831092500E+03  0.25500000920E-02 0.  1.
       -2    1    3    3    0  502 -0.50840526094E+03 -0.43081584358E+03 -0.90428324159E+03  0.11233015541E+04  0.25500000920E-02 0. -1.
</event>
<event>
 5   0  0.1182630E-04  0.1664275E+04  0.7818609E-02  0.8782006E-01
        2   -1    0    0  501    0  0.00000000000E+00  0.00000000000E+00  0.62627867204E+03  0.62627867204E+03  0.25500000920E-02 0. -1.
       -2   -1    0    0    0  501  0.00000000000E+00  0.00000000000E+00 -0.11056629303E+04  0.11056629303E+04  0.25500000920E-02 0.  1.
    10030    2    1    2    0    0  0.00000000000E+00  0.00000000000E+00 -0.47938425830E+03  0.17319416024E+04  0.16642753519E+04 0.  0.
        5    1    3    3  502    0  0.28300442537E+03 -0.41192714082E+03  0.45268229797E+03  0.67432842667E+03  0.46999998093E+01 0. -1.
       -5    1    3    3    0  502 -0.28300442537E+03  0.41192714082E+03 -0.93206655627E+03  0.10576131757E+04  0.46999998093E+01 0.  1.
</event>
<event>
 5   0  0.5841424E-05  0.1772236E+04  0.7818609E-02  0.8721205E-01
        1   -1    0    0  501    0  0.00000000000E+00  0.00000000000E+00  0.72703288440E+03  0.72703288442E+03  0.50400001928E-02 0. -1.
       -1   -1    0    0    0  501  0.00000000000E+00  0.00000000000E+00 -0.10800127572E+04  0.10800127572E+04  0.50400001928E-02 0.  1.
    10030    2    1    2    0    0  0.00000000000E+00  0.00000000000E+00 -0.35297987283E+03  0.18070456417E+04  0.17722356391E+04 0.  0.
        1    1    3    3  502    0  0.67319612503E+03 -0.29295572739E+02 -0.76325244274E+03  0.10181382739E+04  0.50400001928E-02 0.  1.
       -1    1    3    3    0  502 -0.67319612503E+03  0.29295572739E+02  0.41027256991E+03  0.78890736781E+03  0.50400001928E-02 0. -1.
</event>
<event>
 5   0  0.1133638E-04  0.1905236E+04  0.7818609E-02  0.8652254E-01
        2   -1    0    0  501    0  0.00000000000E+00  0.00000000000E+00  0.38707688898E+03  0.38707688899E+03  0.25500000920E-02 0.  1.
       -2   -1    0    0    0  501  0.00000000000E+00  0.00000000000E+00 -0.23444466947E+04  0.23444466947E+04  0.25500000920E-02 0. -1.
    10030    2    1    2    0    0  0.00000000000E+00  0.00000000000E+00 -0.19573698057E+04  0.27315235837E+04  0.19052360830E+04 0.  0.
        3    1    3    3  502    0  0.71989509300E+03  0.16670635236E+03 -0.18406207961E+04  0.19834124327E+04  0.10100000352E+00 0. -1.
       -3    1    3    3    0  502 -0.71989509300E+03 -0.16670635236E+03 -0.11674900963E+03  0.74811115103E+03  0.10100000352E+00 0.  1.
</event>
<event>
 5   0  0.1182630E-04  0.1904336E+04  0.7818609E-02  0.8652701E-01
       -2   -1    0    0    0  501  0.00000000000E+00  0.00000000000E+00  0.11812704327E+04  0.11812704327E+04  0.25500000920E-02 0.  1.
        2   -1    0    0  501    0  0.00000000000E+00  0.00000000000E+00 -0.76749938371E+03  0.76749938372E+03  0.25500000920E-02 0. -1.
    10030    2    1    2    0    0  0.00000000000E+00  0.00000000000E+00  0.41377104901E+03  0.19487698164E+04  0.19043364504E+04 0.  0.
        5    1    3    3  502    0  0.63477371177E+03 -0.16953680944E+03  0.91211091017E+03  0.11241213446E+04  0.46999998093E+01 0.  1.
       -5    1    3    3    0  502 -0.63477371177E+03  0.16953680944E+03 -0.49833986116E+03  0.82464847185E+03  0.46999998093E+01 0. -1.
</event>
<event>
 5   0  0.5841424E-05  0.1889897E+04  0.7818609E-02  0.8659902E-01
       -1   -1    0    0    0  501  0.00000000000E+00  0.00000000000E+00  0.18073103474E+04  0.18073103474E+04  0.50400001928E-02 0. -1.
        1   -1    0    0  501    0  0.00000000000E+00  0.00000000000E+00 -0.49406440813E+03  0.49406440815E+03  0.50400001928E-02 0.  1.
    10030    2    1    2    0    0  0.00000000000E+00  0.00000000000E+00  0.13132459393E+04  0.23013747556E+04  0.18898970524E+04 0.  0.
        1    1    3    3  502    0 -0.81679235875E+03 -0.41858530304E+03  0.93044678255E+03  0.13069409430E+04  0.50400001928E-02 0.  1.
       -1    1    3    3    0  502  0.81679235875E+03  0.41858530304E+03  0.38279915674E+03  0.99443381261E+03  0.50400001928E-02 0. -1.
</event>
<event>
 5   0  0.1141890E-04  0.1830902E+04  0.7818609E-02  0.8690037E-01
       -2   -1    0    0    0  501  0.00000000000E+00  0.00000000000E+00  0.48500604426E+03  0.48500604427E+03  0.25500000920E-02 0. -1.
        2   -1    0    0  501    0  0.00000000000E+00  0.00000000000E+00 -0.17279170991E+04  0.17279170991E+04  0.25500000920E-02 0.  1.
    10030    2    1    2    0    0  0.00000000000E+00  0.00000000000E+00 -0.12429110548E+04  0.22129231434E+04  0.18309016763E+04 0.  0.
        2    1    3    3  502    0  0.30846723963E+03 -0.27983631800E+03  0.36386641754E+03  0.55304536217E+03  0.25500000920E-02 0. -1.
       -2    1    3    3    0  502 -0.30846723963E+03  0.27983631800E+03 -0.16067774724E+04  0.16598777812E+04  0.25500000920E-02 0.  1.
</event>
<event>
 5   0  0.1182630E-04  0.1912654E+04  0.7818609E-02  0.8648583E-01
       -2   -1    0    0    0  501  0.00000000000E+00  0.00000000000E+00  0.39576171529E+03  0.39576171530E+03  0.25500000920E-02 0. -1.
        2   -1    0    0  501    0  0.00000000000E+00  0.00000000000E+00 -0.23108877120E+04  0.23108877120E+04  0.25500000920E-02 0.  1.
    10030    2    1    2    0    0  0.00000000000E+00  0.00000000000E+00 -0.19151259967E+04  0.27066494273E+04  0.19126535334E+04 0.  0.
        5    1    3    3  502    0  0.82204506958E+03 -0.45671398526E+03 -0.12034576481E+04  0.15273107612E+04  0.46999998093E+01 0.  1.
       -5    1    3    3    0  502 -0.82204506958E+03  0.45671398526E+03 -0.71166834861E+03  0.11793386660E+04  0.46999998093E+01 0. -1.
</event>
<event>
 5   0  0.5824956E-05  0.1892664E+04  0.7818609E-02  0.8658516E-01
        1   -1    0    0  501    0  0.00000000000E+00  0.00000000000E+00  0.15926086087E+04  0.15926086087E+04  0.50400001928E-02 0. -1.
       -1   -1    0    0    0  501  0.00000000000E+00  0.00000000000E+00 -0.56231296427E+03  0.56231296429E+03  0.50400001928E-02 0.  1.
    10030    2    1    2    0    0  0.00000000000E+00  0.00000000000E+00  0.10302956444E+04  0.21549215730E+04  0.18926642256E+04 0.  0.
        2    1    3    3  502    0 -0.26594286023E+02  0.85570775862E+03  0.56034289707E+02  0.85795271772E+03  0.25500000920E-02 0.  1.
       -2    1    3    3    0  502  0.26594286023E+02 -0.85570775862E+03  0.97426135469E+03  0.12969688552E+04  0.25500000920E-02 0. -1.
</event>
<event>
 5   0  0.1182630E-04  0.1897452E+04  0.7818609E-02  0.8656126E-01
       -2   -1    0    0    0  501  0.00000000000E+00  0.00000000000E+00  0.82300747399E+03  0.82300747399E+03  0.25500000920E-02 0. -1.
        2   -1    0    0  501    0  0.00000000000E+00  0.00000000000E+00 -0.10936488070E+04  0.10936488070E+04  0.25500000920E-02 0.  1.
    10030    2    1    2    0    0  0.00000000000E+00  0.00000000000E+00 -0.27064133300E+03  0.19166562810E+04  0.18974521254E+04 0.  0.
        5    1    3    3  502    0 -0.31244428071E+03  0.74620897596E+02  0.76638950734E+03  0.83100221051E+03  0.46999998093E+01 0. -1.
       -5    1    3    3    0  502  0.31244428071E+03 -0.74620897596E+02 -0.10370308403E+04  0.10856540705E+04  0.46999998093E+01 0.  1.
</event>
<event>
 5   0  0.5614989E-05  0.1894974E+04  0.7818609E-02  0.8657362E-01
        1   -1    0    0  501    0  0.00000000000E+00  0.00000000000E+00  0.92427300352E+03  0.92427300354E+03  0.50400001928E-02 0.  1.
       -1   -1    0    0    0  501  0.00000000000E+00  0.00000000000E+00 -0.97128368714E+03  0.97128368715E+03  0.50400001928E-02 0. -1.
    10030    2    1    2    0    0  0.00000000000E+00  0.00000000000E+00 -0.47010683614E+02  0.18955566907E+04  0.18949736577E+04 0.  0.
        4    1    3    3  502    0  0.32457124978E+02 -0.56679991917E+03 -0.78229925208E+03  0.96659678566E+03  0.12699999809E+01 0. -1.
       -4    1    3    3    0  502 -0.32457124978E+02  0.56679991917E+03  0.73528856846E+03  0.92895990503E+03  0.12699999809E+01 0.  1.
</event>
<event>
 5   0  0.5628936E-05  0.1902295E+04  0.7818609E-02  0.8653715E-01
       -1   -1    0    0    0  501  0.00000000000E+00  0.00000000000E+00  0.66462316476E+03  0.66462316478E+03  0.50400001928E-02 0.  1.
        1   -1    0    0  501    0  0.00000000000E+00  0.00000000000E+00 -0.13611941561E+04  0.13611941561E+04  0.50400001928E-02 0. -1.
    10030    2    1    2    0    0  0.00000000000E+00  0.00000000000E+00 -0.69657099137E+03  0.20258173209E+04  0.19022945807E+04 0.  0.
        5    1    3    3  502    0 -0.61217790330E+03 -0.55569413037E+03 -0.84903229622E+03  0.11850888920E+04  0.46999998093E+01 0.  1.
       -5    1    3    3    0  502  0.61217790330E+03  0.55569413037E+03  0.15246130485E+03  0.84072842897E+03  0.46999998093E+01 0. -1.
</event>
<event>
 5   0  0.5628936E-05  0.1886632E+04  0.7818609E-02  0.8661539E-01
        1   -1    0    0  501    0  0.00000000000E+00  0.00000000000E+00  0.72738179751E+03  0.72738179753E+03  0.50400001928E-02 0.  1.
       -1   -1    0    0    0  501  0.00000000000E+00  0.00000000000E+00 -0.12233540905E+04  0.12233540905E+04  0.50400001928E-02 0. -1.
    10030    2    1    2    0    0  0.00000000000E+00  0.00000000000E+00 -0.49597229296E+03  0.19507358880E+04  0.18866324468E+04 0.  0.
        5    1    3    3  502    0  0.50706155245E+03  0.64331149315E+03 -0.73170906672E+03  0.10983539245E+04  0.46999998093E+01 0. -1.
       -5    1    3    3    0  502 -0.50706155245E+03 -0.64331149315E+03  0.23573677375E+03  0.85238196350E+03  0.46999998093E+01 0.  1.
</event>
<event>
 5   0  0.1133638E-04  0.1896133E+04  0.7818609E-02  0.8656784E-01
       -2   -1    0    0    0  501  0.00000000000E+00  0.00000000000E+00  0.51419974066E+03  0.51419974067E+03  0.25500000920E-02 0.  1.
        2   -1    0    0  501    0  0.00000000000E+00  0.00000000000E+00 -0.17480175928E+04  0.17480175928E+04  0.25500000920E-02 0. -1.
    10030    2    1    2    0    0  0.00000000000E+00  0.00000000000E+00 -0.12338178521E+04  0.22622173334E+04  0.18961331102E+04 0.  0.
        3    1    3    3  502    0 -0.38674201572E+02  0.72820884711E+03  0.10590409377E+03  0.73688500199E+03  0.10100000352E+00 0.  1.
       -3    1    3    3    0  502  0.38674201572E+02 -0.72820884711E+03 -0.13397219459E+04  0.15253323314E+04  0.10100000352E+00 0. -1.
</event>
<event>
 5   0  0.5628936E-05  0.1899257E+04  0.7818609E-02  0.8655226E-01
        1   -1    0    0  501    0  0.00000000000E+00  0.00000000000E+00  0.11742274531E+04  0.11742274531E+04  0.50400001928E-02 0.  1.
       -1   -1    0    0    0  501  0.00000000000E+00  0.00000000000E+00 -0.76798983483E+03  0.76798983484E+03  0.50400001928E-02 0. -1.
    10030    2    1    2    0    0  0.00000000000E+00  0.00000000000E+00  0.40623761829E+03  0.19422172880E+04  0.18992574842E+04 0.  0.
        5    1    3    3  502    0  0.52574604431E+03  0.57688318420E+03 -0.35001286500E+03  0.85541464039E+03  0.46999998093E+01 0. -1.
       -5    1    3    3    0  502 -0.52574604431E+03 -0.57688318420E+03  0.75625048330E+03  0.10868026476E+04  0.46999998093E+01 0.  1.
</event>
<event>
 5   0  0.5628936E-05  0.1888644E+04  0.7818609E-02  0.8660530E-01
        1   -1    0    0  501    0  0.00000000000E+00  0.00000000000E+00  0.11763926284E+04  0.11763926284E+04  0.50400001928E-02 0. -1.
       -1   -1    0    0    0  501  0.00000000000E+00  0.00000000000E+00 -0.75803261167E+03  0.75803261169E+03  0.50400001928E-02 0.  1.
    10030    2    1    2    0    0  0.00000000000E+00  0.00000000000E+00  0.41836001676E+03  0.19344252401E+04  0.18886439331E+04 0.  0.
        5    1    3    3  502    0 -0.66303603595E+03  0.10178515370E+03  0.88992997156E+03  0.11144390727E+04  0.46999998093E+01 0. -1.
       -5    1    3    3    0  502  0.66303603595E+03 -0.10178515370E+03 -0.47156995481E+03  0.81998616742E+03  0.46999998093E+01 0.  1.
</event>
<event>
 5   0  0.1133638E-04  0.1859876E+04  0.7818609E-02  0.8675091E-01
        2   -1    0    0  501    0  0.00000000000E+00  0.00000000000E+00  0.73844587921E+03  0.73844587922E+03  0.25500000920E-02 0.  1.
       -2   -1    0    0    0  501  0.00000000000E+00  0.00000000000E+00 -0.11710873721E+04  0.11710873721E+04  0.25500000920E-02 0. -1.
    10030    2    1    2    0    0  0.00000000000E+00  0.00000000000E+00 -0.43264149292E+03  0.19095332514E+04  0.18598759573E+04 0.  0.
        3    1    3    3  502    0  0.12641703722E+03  0.61930199100E+03 -0.91663832645E+03  0.11134370459E+04  0.10100000352E+00 0. -1.
       -3    1    3    3    0  502 -0.12641703722E+03 -0.61930199100E+03  0.48399683353E+03  0.79609620551E+03  0.10100000352E+00 0.  1.
</event>
<event>
 5   0  0.1118206E-04  0.1881648E+04  0.7818609E-02  0.8664046E-01
        2   -1    0    0  501    0  0.00000000000E+00  0.00000000000E+00  0.15013611923E+04  0.15013611923E+04  0.25500000920E-02 0.  1.
       -2   -1    0    0    0  501  0.00000000000E+00  0.00000000000E+00 -0.58956472957E+03  0.58956472957E+03  0.25500000920E-02 0. -1.
    10030    2    1    2    0    0  0.00000000000E+00  0.00000000000E+00  0.91179646269E+03  0.20909259218E+04  0.18816477942E+04 0.  0.
        1    1    3    3  502    0  0.50174256391E+02  0.34513832285E+03  0.14268734719E+04  0.14688791042E+04  0.50400001928E-02 0.  1.
       -1    1    3    3    0  502 -0.50174256391E+02 -0.34513832285E+03 -0.51507700921E+03  0.62204681764E+03  0.50400001928E-02 0. -1.
</event>
<event>
 5   0  0.1101678E-04  0.1900144E+04  0.7818609E-02  0.8654785E-01
       -2   -1    0    0    0  501  0.00000000000E+00  0.00000000000E+00  0.47340292619E+03  0.47340292620E+03  0.25500000920E-02 0. -1.
        2   -1    0    0  501    0  0.00000000000E+00  0.00000000000E+00 -0.19066979735E+04  0.19066979735E+04  0.25500000920E-02 0.  1.
    10030    2    1    2    0    0  0.00000000000E+00  0.00000000000E+00 -0.14332950473E+04  0.23801008997E+04  0.19001435736E+04 0.  0.
        4    1    3    3  502    0  0.60936776252E+03 -0.12938571301E+03 -0.16151703110E+04  0.17311402251E+04  0.12699999809E+01 0.  1.
       -4    1    3    3    0  502 -0.60936776252E+03  0.12938571301E+03  0.18187526364E+03  0.64896067459E+03  0.12699999809E+01 0. -1.
</event>
<event>
 5   0  0.5824956E-05  0.1892105E+04  0.7818609E-02  0.8658796E-01
        1   -1    0    0  501    0  0.00000000000E+00  0.00000000000E+00  0.77941368029E+03  0.77941368030E+03  0.50400001928E-02 0. -1.
       -1   -1    0    0    0  501  0.00000000000E+00  0.00000000000E+00 -0.11483189575E+04  0.11483189575E+04  0.50400001928E-02 0.  1.
    10030    2    1    2    0    0  0.00000000000E+00  0.00000000000E+00 -0.36890527721E+03  0.19277326378E+04  0.18921051819E+04 0.  0.
        2    1    3    3  502    0 -0.19235203221E+02 -0.94515147303E+03 -0.22166718896E+03  0.97098797247E+03  0.25500000920E-02 0.  1.
       -2    1    3    3    0  502  0.19235203221E+02  0.94515147303E+03 -0.14723808825E+03  0.95674466534E+03  0.25500000920E-02 0. -1.
</event>
<event>
 5   0  0.1182630E-04  0.1903086E+04  0.7818609E-02  0.8653322E-01
       -2   -1    0    0    0  501  0.00000000000E+00  0.00000000000E+00  0.43319538835E+03  0.43319538835E+03  0.25500000920E-02 0. -1.
        2   -1    0    0  501    0  0.00000000000E+00  0.00000000000E+00 -0.20901279025E+04  0.20901279025E+04  0.25500000920E-02 0.  1.
    10030    2    1    2    0    0  0.00000000000E+00  0.00000000000E+00 -0.16569325141E+04  0.25233232908E+04  0.19030856717E+04 0.  0.
        5    1    3    3  502    0  0.79746686682E+03 -0.51888899631E+03 -0.84779385709E+03  0.12743530548E+04  0.46999998093E+01 0.  1.
       -5    1    3    3    0  502 -0.79746686682E+03  0.51888899631E+03 -0.80913865706E+03  0.12489702360E+04  0.46999998093E+01 0. -1.
</event>
<event>
 5   0  0.5614989E-05  0.1925586E+04  0.7818609E-02  0.8642225E-01
       -1   -1    0    0    0  501  0.00000000000E+00  0.00000000000E+00  0.46863263853E+03  0.46863263856E+03  0.50400001928E-02 0.  1.
        1   -1    0    0  501    0  0.00000000000E+00  0.00000000000E+00 -0.19780313552E+04  0.19780313552E+04  0.50400001928E-02 0. -1.
    10030    2    1    2    0    0  0.00000000000E+00  0.00000000000E+00 -0.15093987167E+04  0.24466639938E+04  0.19255856804E+04 0.  0.
        4    1    3    3  502    0 -0.59234848988E+03 -0.68863321795E+03 -0.11602521740E+04  0.14735260984E+04  0.12699999809E+01 0. -1.
       -4    1    3    3    0  502  0.59234848988E+03  0.68863321795E+03 -0.34914654264E+03  0.97313789541E+03  0.12699999809E+01 0.  1.
</event>
<event>
 5   0  0.1118206E-04  0.1893812E+04  0.7818609E-02  0.8657942E-01
       -2   -1    0    0    0  501  0.00000000000E+00  0.00000000000E+00  0.57744452648E+03  0.57744452648E+03  0.25500000920E-02 0.  1.
        2   -1    0    0  501    0  0.00000000000E+00  0.00000000000E+00 -0.15527575173E+04  0.15527575173E+04  0.25500000920E-02 0. -1.
    10030    2    1    2    0    0  0.00000000000E+00  0.00000000000E+00 -0.97531299082E+03  0.21302020438E+04  0.18938123765E+04 0.  0.
        1    1    3    3  502    0  0.30872458763E+02  0.45354035995E+03  0.44667695424E+03  0.63731645851E+03  0.50400001928E-02 0.  1.
       -1    1    3    3    0  502 -0.30872458763E+02 -0.45354035995E+03 -0.14219899451E+04  0.14928855853E+04  0.50400001928E-02 0. -1.
</event>
<event>
 5   0  0.1182630E-04  0.1910735E+04  0.7818609E-02  0.8649531E-01
       -2   -1    0    0    0  501  0.00000000000E+00  0.00000000000E+00  0.88430808072E+03  0.88430808073E+03  0.25500000920E-02 0. -1.
        2   -1    0    0  501    0  0.00000000000E+00  0.00000000000E+00 -0.10321372827E+04  0.10321372827E+04  0.25500000920E-02 0.  1.
    10030    2    1    2    0    0  0.00000000000E+00  0.00000000000E+00 -0.14782920202E+03  0.19164453635E+04  0.19107352926E+04 0.  0.
        5    1    3    3  502    0  0.38576339887E+02 -0.66295079797E+03 -0.76278100221E+03  0.10113598973E+04  0.46999998093E+01 0.  1.
       -5    1    3    3    0  502 -0.38576339887E+02  0.66295079797E+03  0.61495180019E+03  0.90508546618E+03  0.46999998093E+01 0. -1.
</event>
<event>
 5   0  0.1141890E-04  0.1900937E+04  0.7818609E-02  0.8654390E-01
       -2   -1    0    0    0  501  0.00000000000E+00  0.00000000000E+00  0.78769513591E+03  0.78769513591E+03  0.25500000920E-02 0.  1.
        2   -1    0    0  501    0  0.00000000000E+00  0.00000000000E+00 -0.11468781542E+04  0.11468781542E+04  0.25500000920E-02 0. -1.
    10030    2    1    2    0    0  0.00000000000E+00  0.00000000000E+00 -0.35918301832E+03  0.19345732901E+04  0.19009369727E+04 0.  0.
        2    1    3    3  502    0  0.76503581254E+03  0.14883840439E+03  0.37405462995E+03  0.86449380060E+03  0.25500000920E-02 0.  1.
       -2    1    3    3    0  502 -0.76503581254E+03 -0.14883840439E+03 -0.73323764826E+03  0.10700794895E+04  0.25500000920E-02 0. -1.
</event>
<event>
 5   0  0.5841424E-05  0.1892839E+04  0.7818609E-02  0.8658429E-01
       -1   -1    0    0    0  501  0.00000000000E+00  0.00000000000E+00  0.68003193145E+03  0.68003193147E+03  0.50400001928E-02 0. -1.
        1   -1    0    0  501    0  0.00000000000E+00  0.00000000000E+00 -0.13171580652E+04  0.13171580652E+04  0.50400001928E-02 0.  1.
    10030    2    1    2    0    0  0.00000000000E+00  0.00000000000E+00 -0.63712613375E+03  0.19971899967E+04  0.18928386547E+04 0.  0.
        1    1    3    3  502    0  0.73183071180E+03  0.21708000157E+03 -0.90887917233E+03  0.11869124937E+04  0.50400001928E-02 0.  1.
       -1    1    3    3    0  502 -0.73183071180E+03 -0.21708000157E+03  0.27175303858E+03  0.81027750297E+03  0.50400001928E-02 0. -1.
</event>
<event>
 5   0  0.5614989E-05  0.1900461E+04  0.7818609E-02  0.8654627E-01
        1   -1    0    0  501    0  0.00000000000E+00  0.00000000000E+00  0.13447914031E+04  0.13447914031E+04  0.50400001928E-02 0.  1.
       -1   -1    0    0    0  501  0.00000000000E+00  0.00000000000E+00 -0.67143356292E+03  0.67143356294E+03  0.50400001928E-02 0. -1.
    10030    2    1    2    0    0  0.00000000000E+00  0.00000000000E+00  0.67335784019E+03  0.20162249661E+04  0.19004610843E+04 0.  0.
        4    1    3    3  502    0  0.25807092937E+03  0.18141638318E+03 -0.61425950651E+03  0.69052795954E+03  0.12699999809E+01 0. -1.
       -4    1    3    3    0  502 -0.25807092937E+03 -0.18141638318E+03  0.12876173467E+04  0.13256970065E+04  0.12699999809E+01 0.  1.
</event>
<event>
 5   0  0.1141890E-04  0.1907764E+04  0.7818609E-02  0.8651001E-01
       -2   -1    0    0    0  501  0.00000000000E+00  0.00000000000E+00  0.70165068653E+03  0.70165068654E+03  0.25500000920E-02 0.  1.
        2   -1    0    0  501    0  0.00000000000E+00  0.00000000000E+00 -0.12967859999E+04  0.12967859999E+04  0.25500000920E-02 0. -1.
    10030    2    1    2    0    0  0.00000000000E+00  0.00000000000E+00 -0.59513531338E+03  0.19984366865E+04  0.19077639132E+04 0.  0.
        2    1    3    3  502    0  0.40256515246E+03  0.54809882604E+03 -0.99825350379E+03  0.12078828929E+04  0.25500000920E-02 0. -1.
       -2    1    3    3    0  502 -0.40256515246E+03 -0.54809882604E+03  0.40311819041E+03  0.79055379357E+03  0.25500000920E-02 0.  1.
</event>
<event>
 5   0  0.1182630E-04  0.1887579E+04  0.7818609E-02  0.8661064E-01
        2   -1    0    0  501    0  0.00000000000E+00  0.00000000000E+00  0.72014103487E+03  0.72014103487E+03  0.25500000920E-02 0.  1.
       -2   -1    0    0    0  501  0.00000000000E+00  0.00000000000E+00 -0.12368946020E+04  0.12368946020E+04  0.25500000920E-02 0. -1.
    10030    2    1    2    0    0  0.00000000000E+00  0.00000000000E+00 -0.51675356717E+03  0.19570356369E+04  0.18875789348E+04 0.  0.
        5    1    3    3  502    0 -0.56247185578E+03 -0.55827273364E+03  0.27299891490E+03  0.83820852489E+03  0.46999998093E+01 0. -1.
       -5    1    3    3    0  502  0.56247185578E+03  0.55827273364E+03 -0.78975248206E+03  0.11188271120E+04  0.46999998093E+01 0.  1.
</event>
<event>
 5   0  0.5841424E-05  0.1901384E+04  0.7818609E-02  0.8654168E-01
        1   -1    0    0  501    0  0.00000000000E+00  0.00000000000E+00  0.81118776654E+03  0.81118776655E+03  0.50400001928E-02 0.  1.
       -1   -1    0    0    0  501  0.00000000000E+00  0.00000000000E+00 -0.11141874435E+04  0.11141874436E+04  0.50400001928E-02 0. -1.
    10030    2    1    2    0    0  0.00000000000E+00  0.00000000000E+00 -0.30299967700E+03  0.19253752101E+04  0.19013839421E+04 0.  0.
        1    1    3    3  502    0 -0.18930340514E+03  0.62725788013E+03 -0.84905092020E+03  0.10724624434E+04  0.50400001928E-02 0. -1.
       -1    1    3    3    0  502  0.18930340514E+03 -0.62725788013E+03  0.54605124319E+03  0.85291276670E+03  0.50400001928E-02 0.  1.
</event>
<event>
 5   0  0.5824956E-05  0.1953957E+04  0.7818609E-02  0.8628455E-01
        1   -1    0    0  501    0  0.00000000000E+00  0.00000000000E+00  0.79401012997E+03  0.79401012999E+03  0.50400001928E-02 0. -1.
       -1   -1    0    0    0  501  0.00000000000E+00  0.00000000000E+00 -0.12021095789E+04  0.12021095789E+04  0.50400001928E-02 0.  1.
    10030    2    1    2    0    0  0.00000000000E+00  0.00000000000E+00 -0.40809944890E+03  0.19961197089E+04  0.19539571981E+04 0.  0.
        2    1    3    3  502    0 -0.85135225512E+03 -0.10471041513E+02 -0.69353046605E+03  0.10981324202E+04  0.25500000920E-02 0.  1.
       -2    1    3    3    0  502  0.85135225512E+03  0.10471041513E+02  0.28543101716E+03  0.89798728864E+03  0.25500000920E-02 0. -1.
</event>
<event>
 5   0  0.1101678E-04  0.1896015E+04  0.7818609E-02  0.8656842E-01
       -2   -1    0    0    0  501  0.00000000000E+00  0.00000000000E+00  0.84315642880E+03  0.84315642880E+03  0.25500000920E-02 0.  1.
        2   -1    0    0  501    0  0.00000000000E+00  0.00000000000E+00 -0.10658978691E+04  0.10658978692E+04  0.25500000920E-02 0. -1.
    10030    2    1    2    0    0  0.00000000000E+00  0.00000000000E+00 -0.22274144035E+03  0.19090542980E+04  0.18960154438E+04 0.  0.
        4    1    3    3  502    0 -0.85786974977E+03  0.15801203738E+03  0.26240815621E+03  0.91091600319E+03  0.12699999809E+01 0.  1.
       -4    1    3    3    0  502  0.85786974977E+03 -0.15801203738E+03 -0.48514959656E+03  0.99813829476E+03  0.12699999809E+01 0. -1.
</event>
<event>
 5   0  0.4061125E-05  0.1900879E+04  0.7818609E-02  0.8654419E-01
       -3   -1    0    0    0  501  0.00000000000E+00  0.00000000000E+00  0.17322903133E+04  0.17322903163E+04  0.10100000352E+00 0. -1.
        3   -1    0    0  501    0  0.00000000000E+00  0.00000000000E+00 -0.52146881300E+03  0.52146882278E+03  0.10100000352E+00 0.  1.
    10030    2    1    2    0    0  0.00000000000E+00  0.00000000000E+00  0.12108215003E+04  0.22537591391E+04  0.19008791522E+04 0.  0.
        3    1    3    3  502    0  0.19712766399E+03  0.64108645270E+03  0.14038356708E+04  0.15558296040E+04  0.10100000352E+00 0. -1.
       -3    1    3    3    0  502 -0.19712766399E+03 -0.64108645270E+03 -0.19301417048E+03  0.69792953509E+03  0.10100000352E+00 0.  1.
</event>
<event>
 5   0  0.1101678E-04  0.1932441E+04  0.7818609E-02  0.8638875E-01
       -2   -1    0    0    0  501  0.00000000000E+00  0.00000000000E+00  0.15106104198E+04  0.15106104198E+04  0.25500000920E-02 0. -1.
        2   -1    0    0  501    0  0.00000000000E+00  0.00000000000E+00 -0.61801667479E+03  0.61801667480E+03  0.25500000920E-02 0.  1.
    10030    2    1    2    0    0  0.00000000000E+00  0.00000000000E+00  0.89259374497E+03  0.21286270946E+04  0.19324413870E+04 0.  0.
        4    1    3    3  502    0 -0.83455210744E+03  0.29107310498E+03  0.16307915844E+02  0.88400697593E+03  0.12699999809E+01 0. -1.
       -4    1    3    3    0  502  0.83455210744E+03 -0.29107310498E+03  0.87628582913E+03  0.12446201186E+04  0.12699999809E+01 0.  1.
</event>
<event>
 5   0  0.1101678E-04  0.1913028E+04  0.7818609E-02  0.8648398E-01
        2   -1    0    0  501    0  0.00000000000E+00  0.00000000000E+00  0.82971775498E+03  0.82971775499E+03  0.25500000920E-02 0.  1.
       -2   -1    0    0    0  501  0.00000000000E+00  0.00000000000E+00 -0.11026875596E+04  0.11026875596E+04  0.25500000920E-02 0. -1.
    10030    2    1    2    0    0  0.00000000000E+00  0.00000000000E+00 -0.27296980465E+03  0.19324053146E+04  0.19130284331E+04 0.  0.
        4    1    3    3  502    0 -0.72032220935E+03  0.54159676667E+03 -0.46024136541E+03  0.10119361987E+04  0.12699999809E+01 0. -1.
       -4    1    3    3    0  502  0.72032220935E+03 -0.54159676667E+03  0.18727156076E+03  0.92046911590E+03  0.12699999809E+01 0.  1.
</event>
<event>
 5   0  0.1133638E-04  0.1919901E+04  0.7818609E-02  0.8645013E-01
       -2   -1    0    0    0  501  0.00000000000E+00  0.00000000000E+00  0.57762124252E+03  0.57762124252E+03  0.25500000920E-02 0.  1.
        2   -1    0    0  501    0  0.00000000000E+00  0.00000000000E+00 -0.15953454111E+04  0.15953454111E+04  0.25500000920E-02 0. -1.
    10030    2    1    2    0    0  0.00000000000E+00  0.00000000000E+00 -0.10177241686E+04  0.21729666536E+04  0.19199014544E+04 0.  0.
        3    1    3    3  502    0  0.67213255251E+03  0.58935241061E+02 -0.12817077838E+04  0.14484510292E+04  0.10100000352E+00 0. -1.
       -3    1    3    3    0  502 -0.67213255251E+03 -0.58935241061E+02  0.26398361517E+03  0.72451562445E+03  0.10100000352E+00 0.  1.
</event>
<event>
 5   0  0.5824956E-05  0.1911940E+04  0.7818609E-02  0.8648936E-01
       -1   -1    0    0    0  501  0.00000000000E+00  0.00000000000E+00  0.10810126613E+04  0.10810126613E+04  0.50400001928E-02 0.  1.
        1   -1    0    0  501    0  0.00000000000E+00  0.00000000000E+00 -0.84539090228E+03  0.84539090229E+03  0.50400001928E-02 0. -1.
    10030    2    1    2    0    0  0.00000000000E+00  0.00000000000E+00  0.23562175900E+03  0.19264035636E+04  0.19119396111E+04 0.  0.
        2    1    3    3  502    0 -0.47434285712E+03  0.74915851523E+03  0.47777912364E+03  0.10072301217E+04  0.25500000920E-02 0. -1.
       -2    1    3    3    0  502  0.47434285712E+03 -0.74915851523E+03 -0.24215736464E+03  0.91917344190E+03  0.25500000920E-02 0.  1.
</event>
<event>
 5   0  0.5841424E-05  0.1898027E+04  0.7818609E-02  0.8655839E-01
       -1   -1    0    0    0  501  0.00000000000E+00  0.00000000000E+00  0.98017719209E+03  0.98017719210E+03  0.50400001928E-02 0. -1.
        1   -1    0    0  501    0  0.00000000000E+00  0.00000000000E+00 -0.91884019536E+03  0.91884019538E+03  0.50400001928E-02 0.  1.
    10030    2    1    2    0    0  0.00000000000E+00  0.00000000000E+00  0.61336996722E+02  0.18990173875E+04  0.18980265569E+04 0.  0.
        1    1    3    3  502    0  0.41041149731E+03  0.56819227190E+03 -0.60946714570E+03  0.92883273882E+03  0.50400001928E-02 0.  1.
       -1    1    3    3    0  502 -0.41041149731E+03 -0.56819227190E+03  0.67080414242E+03  0.97018464866E+03  0.50400001928E-02 0. -1.
</event>
<event>
 5   0  0.4061125E-05  0.1903748E+04  0.7818609E-02  0.8652993E-01
       -3   -1    0    0    0  501  0.00000000000E+00  0.00000000000E+00  0.10772956276E+04  0.10772956323E+04  0.10100000352E+00 0. -1.
        3   -1    0    0  501    0  0.00000000000E+00  0.00000000000E+00 -0.84105392083E+03  0.84105392690E+03  0.10100000352E+00 0.  1.
    10030    2    1    2    0    0  0.00000000000E+00  0.00000000000E+00  0.23624170677E+03  0.19183495592E+04  0.19037475903E+04 0.  0.
        4    1    3    3  502    0  0.22278876678E+03 -0.81366141377E+03 -0.32614898058E+03  0.90446365393E+03  0.12699999809E+01 0.  1.
       -4    1    3    3    0  502 -0.22278876678E+03  0.81366141377E+03  0.56239068734E+03  0.10138859053E+04  0.12699999809E+01 0. -1.
</event>
<event>
 5   0  0.1118206E-04  0.1900283E+04  0.7818609E-02  0.8654716E-01
        2   -1    0    0  501    0  0.00000000000E+00  0.00000000000E+00  0.56824737799E+03  0.56824737799E+03  0.25500000920E-02 0.  1.
       -2   -1    0    0    0  501  0.00000000000E+00  0.00000000000E+00 -0.15886899026E+04  0.15886899026E+04  0.25500000920E-02 0. -1.
    10030    2    1    2    0    0  0.00000000000E+00  0.00000000000E+00 -0.10204425246E+04  0.21569372806E+04  0.19002830017E+04 0.  0.
        1    1    3    3  502    0 -0.72880887671E+03 -0.43218444876E+03 -0.99819601503E+03  0.13093284771E+04  0.50400001928E-02 0. -1.
       -1    1    3    3    0  502  0.72880887671E+03  0.43218444876E+03 -0.22246509577E+02  0.84760880348E+03  0.50400001928E-02 0.  1.
</event>
<event>
 5   0  0.1182630E-04  0.1900911E+04  0.7818609E-02  0.8654403E-01
        2   -1    0    0  501    0  0.00000000000E+00  0.00000000000E+00  0.60344793091E+03  0.60344793092E+03  0.25500000920E-02 0. -1.
       -2   -1    0    0    0  501  0.00000000000E+00  0.00000000000E+00 -0.14970074848E+04  0.14970074848E+04  0.25500000920E-02 0.  1.
    10030    2    1    2    0    0  0.00000000000E+00  0.00000000000E+00 -0.89355955390E+03  0.21004554157E+04  0.19009114333E+04 0.  0.
        5    1    3    3  502    0  0.67908760082E+03  0.60477082688E+03 -0.75227279556E+03  0.11801881933E+04  0.46999998093E+01 0.  1.
       -5    1    3    3    0  502 -0.67908760082E+03 -0.60477082688E+03 -0.14128675833E+03  0.92026722245E+03  0.46999998093E+01 0. -1.
</event>
<event>
 5   0  0.1101678E-04  0.1897652E+04  0.7818609E-02  0.8656026E-01
        2   -1    0    0  501    0  0.00000000000E+00  0.00000000000E+00  0.79457369100E+03  0.79457369100E+03  0.25500000920E-02 0.  1.
       -2   -1    0    0    0  501  0.00000000000E+00  0.00000000000E+00 -0.11330242325E+04  0.11330242325E+04  0.25500000920E-02 0. -1.
    10030    2    1    2    0    0  0.00000000000E+00  0.00000000000E+00 -0.33845054153E+03  0.19275979235E+04  0.18976524934E+04 0.  0.
        4    1    3    3  502    0  0.84145818307E+03 -0.42318512492E+03 -0.52821508863E+02  0.94336061424E+03  0.12699999809E+01 0. -1.
       -4    1    3    3    0  502 -0.84145818307E+03  0.42318512492E+03 -0.28562903267E+03  0.98423730929E+03  0.12699999809E+01 0.  1.
</event>
<event>
 5   0  0.4061125E-05  0.1891461E+04  0.7818609E-02  0.8659119E-01
       -3   -1    0    0    0  501  0.00000000000E+00  0.00000000000E+00  0.61372942431E+03  0.61372943262E+03  0.10100000352E+00 0. -1.
        3   -1    0    0  501    0  0.00000000000E+00  0.00000000000E+00 -0.14573291750E+04  0.14573291785E+04  0.10100000352E+00 0.  1.
    10030    2    1    2    0    0  0.00000000000E+00  0.00000000000E+00 -0.84359975066E+03  0.20710586111E+04  0.18914606079E+04 0.  0.
        2    1    3    3  502    0 -0.18949600531E+03  0.27805338464E+03  0.54596886080E+03  0.64133019398E+03  0.25500000920E-02 0. -1.
       -2    1    3    3    0  502  0.18949600531E+03 -0.27805338464E+03 -0.13895686115E+04  0.14297284171E+04  0.25500000920E-02 0.  1.
</event>
<event>
 5   0  0.5579109E-05  0.1904763E+04  0.7818609E-02  0.8652489E-01
        1   -1    0    0  501    0  0.00000000000E+00  0.00000000000E+00  0.11135876334E+04  0.11135876334E+04  0.50400001928E-02 0.  1.
       -1   -1    0    0    0  501  0.00000000000E+00  0.00000000000E+00 -0.81451160214E+03  0.81451160215E+03  0.50400001928E-02 0. -1.
    10030    2    1    2    0    0  0.00000000000E+00  0.00000000000E+00  0.29907603128E+03  0.19280992356E+04  0.19047625022E+04 0.  0.
        3    1    3    3  502    0 -0.39846139664E+03  0.72420944025E+03 -0.32931083156E+03  0.88977324749E+03  0.10100000352E+00 0. -1.
       -3    1    3    3    0  502  0.39846139664E+03 -0.72420944025E+03  0.62838686284E+03  0.10383259881E+04  0.10100000352E+00 0.  1.
</event>
<event>
 5   0  0.5824956E-05  0.1867093E+04  0.7818609E-02  0.8671412E-01
        1   -1    0    0  501    0  0.00000000000E+00  0.00000000000E+00  0.72416118319E+03  0.72416118321E+03  0.50400001928E-02 0.  1.
       -1   -1    0    0    0  501  0.00000000000E+00  0.00000000000E+00 -0.12034741636E+04  0.12034741636E+04  0.50400001928E-02 0. -1.
    10030    2    1    2    0    0  0.00000000000E+00  0.00000000000E+00 -0.47931298036E+03  0.19276353468E+04  0.18670932213E+04 0.  0.
        2    1    3    3  502    0 -0.90004734042E+02  0.84673361984E+03 -0.63475414828E+03  0.10620600284E+04  0.25500000920E-02 0. -1.
       -2    1    3    3    0  502  0.90004734042E+02 -0.84673361984E+03  0.15544116792E+03  0.86557531839E+03  0.25500000920E-02 0.  1.
</event>
<event>
 5   0  0.5824956E-05  0.1907118E+04  0.7818609E-02  0.8651321E-01
       -1   -1    0    0    0  501  0.00000000000E+00  0.00000000000E+00  0.33698536550E+03  0.33698536553E+03  0.50400001928E-02 0.  1.
        1   -1    0    0  501    0  0.00000000000E+00  0.00000000000E+00 -0.26982628853E+04  0.26982628853E+04  0.50400001928E-02 0. -1.
    10030    2    1    2    0    0  0.00000000000E+00  0.00000000000E+00 -0.23612775198E+04  0.30352482508E+04  0.19071183546E+04 0.  0.
        2    1    3    3  502    0 -0.54862631308E+03  0.77953346575E+03 -0.12200063388E+04  0.15482502131E+04  0.25500000920E-02 0.  1.
       -2    1    3    3    0  502  0.54862631308E+03 -0.77953346575E+03 -0.11412711810E+04  0.14869980377E+04  0.25500000920E-02 0. -1.
</event>
<event>
 5   0  0.5628936E-05  0.1888653E+04  0.7818609E-02  0.8660525E-01
       -1   -1    0    0    0  501  0.00000000000E+00  0.00000000000E+00  0.93358527496E+03  0.93358527497E+03  0.50400001928E-02 0. -1.
        1   -1    0    0  501    0  0.00000000000E+00  0.00000000000E+00 -0.95519138043E+03  0.95519138044E+03  0.50400001928E-02 0.  1.
    10030    2    1    2    0    0  0.00000000000E+00  0.00000000000E+00 -0.21606105468E+02  0.18887766554E+04  0.18886530730E+04 0.  0.
        5    1    3    3  502    0  0.29894467180E+03 -0.61478077042E+02 -0.90449626599E+03  0.95461146858E+03  0.46999998093E+01 0.  1.
       -5    1    3    3    0  502 -0.29894467180E+03  0.61478077042E+02  0.88289016052E+03  0.93416518683E+03  0.46999998093E+01 0. -1.
</event>
<event>
 5   0  0.1118206E-04  0.1900009E+04  0.7818609E-02  0.8654852E-01
        2   -1    0    0  501    0  0.00000000000E+00  0.00000000000E+00  0.14245999610E+04  0.14245999610E+04  0.25500000920E-02 0. -1.
       -2   -1    0    0    0  501  0.00000000000E+00  0.00000000000E+00 -0.63351711525E+03  0.63351711526E+03  0.25500000920E-02 0.  1.
    10030    2    1    2    0    0  0.00000000000E+00  0.00000000000E+00  0.79108284572E+03  0.20581170762E+04  0.19000089028E+04 0.  0.
        1    1    3    3  502    0 -0.81427196774E+01  0.92017393420E+03  0.13984295977E+03  0.93077517505E+03  0.50400001928E-02 0.  1.
       -1    1    3    3    0  502  0.81427196774E+01 -0.92017393420E+03  0.65123988595E+03  0.11273419012E+04  0.50400001928E-02 0. -1.
</event>
<event>
 5   0  0.5614989E-05  0.1836294E+04  0.7818609E-02  0.8687233E-01
       -1   -1    0    0    0  501  0.00000000000E+00  0.00000000000E+00  0.48125362168E+03  0.48125362170E+03  0.50400001928E-02 0.  1.
        1   -1    0    0  501    0  0.00000000000E+00  0.00000000000E+00 -0.17516631204E+04  0.17516631204E+04  0.50400001928E-02 0. -1.
    10030    2    1    2    0    0  0.00000000000E+00  0.00000000000E+00 -0.12704094987E+04  0.22329167421E+04  0.18362943344E+04 0.  0.
        4    1    3    3  502    0  0.43700853192E+03  0.56979619789E+02 -0.16146393429E+04  0.16737039627E+04  0.12699999809E+01 0. -1.
       -4    1    3    3    0  502 -0.43700853192E+03 -0.56979619789E+02  0.34422984426E+03  0.55921277938E+03  0.12699999809E+01 0.  1.
</event>
<event>
 5   0  0.5841424E-05  0.1897690E+04  0.7818609E-02  0.8656007E-01
       -1   -1    0    0    0  501  0.00000000000E+00  0.00000000000E+00  0.12040012691E+04  0.12040012691E+04  0.50400001928E-02 0.  1.
        1   -1    0    0  501    0  0.00000000000E+00  0.00000000000E+00 -0.74776232756E+03  0.74776232757E+03  0.50400001928E-02 0. -1.
    10030    2    1    2    0    0  0.00000000000E+00  0.00000000000E+00  0.45623894156E+03  0.19517635967E+04  0.18976899551E+04 0.  0.
        1    1    3    3  502    0  0.30847229642E+03 -0.31007342064E+03  0.10941375187E+04  0.11783198181E+04  0.50400001928E-02 0.  1.
       -1    1    3    3    0  502 -0.30847229642E+03  0.31007342064E+03 -0.63789857717E+03  0.77344377858E+03  0.50400001928E-02 0. -1.
</event>
<event>
 5   0  0.1101678E-04  0.1845714E+04  0.7818609E-02  0.8682360E-01
        2   -1    0    0  501    0  0.00000000000E+00  0.00000000000E+00  0.17125923838E+04  0.17125923838E+04  0.25500000920E-02 0.  1.
       -2   -1    0    0    0  501  0.00000000000E+00  0.00000000000E+00 -0.49729574677E+03  0.49729574677E+03  0.25500000920E-02 0. -1.
    10030    2    1    2    0    0  0.00000000000E+00  0.00000000000E+00  0.12152966370E+04  0.22098881306E+04  0.18457138548E+04 0.  0.
        4    1    3    3  502    0 -0.46679848774E+02 -0.30033103322E+03  0.16509465872E+04  0.16786911522E+04  0.12699999809E+01 0.  1.
       -4    1    3    3    0  502  0.46679848774E+02  0.30033103322E+03 -0.43564995019E+03  0.53119697834E+03  0.12699999809E+01 0. -1.
</event>
<event>
 5   0  0.5628936E-05  0.1898892E+04  0.7818609E-02  0.8655408E-01
       -1   -1    0    0    0  501  0.00000000000E+00  0.00000000000E+00  0.48670308445E+03  0.48670308447E+03  0.50400001928E-02 0. -1.
        1   -1    0    0  501    0  0.00000000000E+00  0.00000000000E+00 -0.18521515753E+04  0.18521515753E+04  0.50400001928E-02 0.  1.
    10030    2    1    2    0    0  0.00000000000E+00  0.00000000000E+00 -0.13654484908E+04  0.23388546598E+04  0.18988921871E+04 0.  0.
        5    1    3    3  502    0 -0.66038366989E+03 -0.36512594292E+03  0.26973523685E+02  0.75509814370E+03  0.46999998093E+01 0. -1.
       -5    1    3    3    0  502  0.66038366989E+03  0.36512594292E+03 -0.13924220145E+04  0.15837565161E+04  0.46999998093E+01 0.  1.
</event>
<event>
 5   0  0.4061125E-05  0.1901213E+04  0.7818609E-02  0.8654253E-01
        3   -1    0    0  501    0  0.00000000000E+00  0.00000000000E+00  0.74963385560E+03  0.74963386240E+03  0.10100000352E+00 0.  1.
       -3   -1    0    0    0  501  0.00000000000E+00  0.00000000000E+00 -0.12054584896E+04  0.12054584938E+04  0.10100000352E+00 0. -1.
    10030    2    1    2    0    0  0.00000000000E+00  0.00000000000E+00 -0.45582463397E+03  0.19550923562E+04  0.19012127772E+04 0.  0.
        4    1    3    3  502    0  0.71476949591E+02 -0.44933584757E+03  0.63039046192E+03  0.77743514560E+03  0.12699999809E+01 0.  1.
       -4    1    3    3    0  502 -0.71476949591E+02  0.44933584757E+03 -0.10862150959E+04  0.11776572106E+04  0.12699999809E+01 0. -1.
</event>
<event>
 5   0  0.5614989E-05  0.1906106E+04  0.7818609E-02  0.8651823E-01
       -1   -1    0    0    0  501  0.00000000000E+00  0.00000000000E+00  0.61247635937E+03  0.61247635939E+03  0.50400001928E-02 0. -1.
        1   -1    0    0  501    0  0.00000000000E+00  0.00000000000E+00 -0.14830130128E+04  0.14830130128E+04  0.50400001928E-02 0.  1.
    10030    2    1    2    0    0  0.00000000000E+00  0.00000000000E+00 -0.87053665339E+03  0.20954893722E+04  0.19061064094E+04 0.  0.
        4    1    3    3  502    0 -0.18502045418E+03 -0.55948087050E+03  0.38819063912E+03  0.70565217928E+03  0.12699999809E+01 0. -1.
       -4    1    3    3    0  502  0.18502045418E+03  0.55948087050E+03 -0.12587272925E+04  0.13898371929E+04  0.12699999809E+01 0.  1.
</event>
<event>
 5   0  0.1118206E-04  0.1692183E+04  0.7818609E-02  0.8765835E-01
        2   -1    0    0  501    0  0.00000000000E+00  0.00000000000E+00  0.20350025831E+04  0.20350025831E+04  0.25500000920E-02 0.  1.
       -2   -1    0    0    0  501  0.00000000000E+00  0.00000000000E+00 -0.35177884981E+03  0.35177884982E+03  0.25500000920E-02 0. -1.
    10030    2    1    2    0    0  0.00000000000E+00  0.00000000000E+00  0.16832237332E+04  0.23867814329E+04  0.16921830493E+04 0.  0.
        1    1    3    3  502    0 -0.27354737078E+03 -0.26743396170E+03 -0.22282639995E+03  0.44271965449E+03  0.50400001928E-02 0. -1.
       -1    1    3    3    0  502  0.27354737078E+03  0.26743396170E+03  0.19060501332E+04  0.19440617784E+04  0.50400001928E-02 0.  1.
</event>
<event>
 5   0  0.5614989E-05  0.1876121E+04  0.7818609E-02  0.8666835E-01
       -1   -1    0    0    0  501  0.00000000000E+00  0.00000000000E+00  0.66736564279E+03  0.66736564281E+03  0.50400001928E-02 0.  1.
        1   -1    0    0  501    0  0.00000000000E+00  0.00000000000E+00 -0.13185535601E+04  0.13185535601E+04  0.50400001928E-02 0. -1.
    10030    2    1    2    0    0  0.00000000000E+00  0.00000000000E+00 -0.65118791735E+03  0.19859192030E+04  0.18761208322E+04 0.  0.
        4    1    3    3  502    0 -0.49969199230E+03  0.49935347840E+03 -0.97889268699E+03  0.12071779028E+04  0.12699999809E+01 0. -1.
       -4    1    3    3    0  502  0.49969199230E+03 -0.49935347840E+03  0.32770476964E+03  0.77874130011E+03  0.12699999809E+01 0.  1.
</event>
<event>
 5   0  0.1118206E-04  0.1889435E+04  0.7818609E-02  0.8660133E-01
       -2   -1    0    0    0  501  0.00000000000E+00  0.00000000000E+00  0.80956225880E+03  0.80956225880E+03  0.25500000920E-02 0.  1.
        2   -1    0    0  501    0  0.00000000000E+00  0.00000000000E+00 -0.11024368543E+04  0.11024368543E+04  0.25500000920E-02 0. -1.
    10030    2    1    2    0    0  0.00000000000E+00  0.00000000000E+00 -0.29287459551E+03  0.19119991131E+04  0.18894351219E+04 0.  0.
        1    1    3    3  502    0 -0.11351860363E+03 -0.28655441636E+03  0.75725107942E+03  0.81757513674E+03  0.50400001928E-02 0.  1.
       -1    1    3    3    0  502  0.11351860363E+03  0.28655441636E+03 -0.10501256749E+04  0.10944239764E+04  0.50400001928E-02 0. -1.
</event>
<event>
 5   0  0.1133638E-04  0.1898155E+04  0.7818609E-02  0.8655775E-01
        2   -1    0    0  501    0  0.00000000000E+00  0.00000000000E+00  0.15685351258E+04  0.15685351258E+04  0.25500000920E-02 0. -1.
       -2   -1    0    0    0  501  0.00000000000E+00  0.00000000000E+00 -0.57426082982E+03  0.57426082982E+03  0.25500000920E-02 0.  1.
    10030    2    1    2    0    0  0.00000000000E+00  0.00000000000E+00  0.99427429593E+03  0.21427959556E+04  0.18981551917E+04 0.  0.
        3    1    3    3  502    0 -0.35457138299E+03 -0.66109373310E+03 -0.15915347186E+03  0.76687393188E+03  0.10100000352E+00 0.  1.
       -3    1    3    3    0  502  0.35457138299E+03  0.66109373310E+03  0.11534277678E+04  0.13759220237E+04  0.10100000352E+00 0. -1.
</event>
<event>
 5   0  0.1133638E-04  0.1900171E+04  0.7818609E-02  0.8654771E-01
        2   -1    0    0  501    0  0.00000000000E+00  0.00000000000E+00  0.17538729542E+04  0.17538729542E+04  0.25500000920E-02 0. -1.
       -2   -1    0    0    0  501  0.00000000000E+00  0.00000000000E+00 -0.51466810023E+03  0.51466810024E+03  0.25500000920E-02 0.  1.
    10030    2    1    2    0    0  0.00000000000E+00  0.00000000000E+00  0.12392048540E+04  0.22685410545E+04  0.19001710043E+04 0.  0.
        3    1    3    3  502    0 -0.51008998012E+02 -0.13592144187E+03 -0.50134765494E+03  0.52194447746E+03  0.10100000352E+00 0.  1.
       -3    1    3    3    0  502  0.51008998012E+02  0.13592144187E+03  0.17405525089E+04  0.17465965770E+04  0.10100000352E+00 0. -1.
</event>
<event>
 5   0  0.5841424E-05  0.1896080E+04  0.7818609E-02  0.8656810E-01
       -1   -1    0    0    0  501  0.00000000000E+00  0.00000000000E+00  0.50950800918E+03  0.50950800920E+03  0.50400001928E-02 0. -1.
        1   -1    0    0  501    0  0.00000000000E+00  0.00000000000E+00 -0.17640151410E+04  0.17640151410E+04  0.50400001928E-02 0.  1.
    10030    2    1    2    0    0  0.00000000000E+00  0.00000000000E+00 -0.12545071318E+04  0.22735231502E+04  0.18960800012E+04 0.  0.
        1    1    3    3  502    0  0.28469636253E+03 -0.13136915138E+03 -0.17000448715E+04  0.17287169918E+04  0.50400001928E-02 0.  1.
       -1    1    3    3    0  502 -0.28469636253E+03  0.13136915138E+03  0.44553773963E+03  0.54480615841E+03  0.50400001928E-02 0. -1.
</event>
<event>
 5   0  0.5628936E-05  0.1893097E+04  0.7818609E-02  0.8658300E-01
       -1   -1    0    0    0  501  0.00000000000E+00  0.00000000000E+00  0.82816315229E+03  0.82816315230E+03  0.50400001928E-02 0.  1.
        1   -1    0    0  501    0  0.00000000000E+00  0.00000000000E+00 -0.10818569461E+04  0.10818569461E+04  0.50400001928E-02 0. -1.
    10030    2    1    2    0    0  0.00000000000E+00  0.00000000000E+00 -0.25369379377E+03  0.19100200984E+04  0.18930969957E+04 0.  0.
        5    1    3    3  502    0 -0.90907404982E+03 -0.26345840704E+03 -0.11645881339E+03  0.95363027715E+03  0.46999998093E+01 0.  1.
       -5    1    3    3    0  502  0.90907404982E+03  0.26345840704E+03 -0.13723498038E+03  0.95638982122E+03  0.46999998093E+01 0. -1.
</event>
<event>
 5   0  0.1133638E-04  0.1893163E+04  0.7818609E-02  0.8658267E-01
       -2   -1    0    0    0  501  0.00000000000E+00  0.00000000000E+00  0.69886397493E+03  0.69886397493E+03  0.25500000920E-02 0. -1.
        2   -1    0    0  501    0  0.00000000000E+00  0.00000000000E+00 -0.12821046931E+04  0.12821046931E+04  0.25500000920E-02 0.  1.
    10030    2    1    2    0    0  0.00000000000E+00  0.00000000000E+00 -0.58324071817E+03  0.19809686680E+04  0.18931632598E+04 0.  0.
        3    1    3    3  502    0 -0.45822255590E+03 -0.29759963535E+03  0.51720066409E+03  0.75234964666E+03  0.10100000352E+00 0. -1.
       -3    1    3    3    0  502  0.45822255590E+03  0.29759963535E+03 -0.11004413823E+04  0.12286190214E+04  0.10100000352E+00 0.  1.
</event>
<event>
 5   0  0.5628936E-05  0.1921979E+04  0.7818609E-02  0.8643993E-01
        1   -1    0    0  501    0  0.00000000000E+00  0.00000000000E+00  0.10993771542E+04  0.10993771542E+04  0.50400001928E-02 0. -1.
       -1   -1    0    0    0  501  0.00000000000E+00  0.00000000000E+00 -0.84002148023E+03  0.84002148025E+03  0.50400001928E-02 0.  1.
    10030    2    1    2    0    0  0.00000000000E+00  0.00000000000E+00  0.25935567399E+03  0.19393986345E+04  0.19219785893E+04 0.  0.
        5    1    3    3  502    0 -0.81470484343E+03 -0.11042529230E+03  0.63172181978E+03  0.10368376318E+04  0.46999998093E+01 0. -1.
       -5    1    3    3    0  502  0.81470484343E+03  0.11042529230E+03 -0.37236614579E+03  0.90256100271E+03  0.46999998093E+01 0.  1.
</event>
<event>
 5   0  0.1141890E-04  0.1901691E+04  0.7818609E-02  0.8654015E-01
       -2   -1    0    0    0  501  0.00000000000E+00  0.00000000000E+00  0.51643259712E+03  0.51643259713E+03  0.25500000920E-02 0. -1.
        2   -1    0    0  501    0  0.00000000000E+00  0.00000000000E+00 -0.17506775757E+04  0.17506775757E+04  0.25500000920E-02 0.  1.
    10030    2    1    2    0    0  0.00000000000E+00  0.00000000000E+00 -0.12342449786E+04  0.22671101728E+04  0.19016907920E+04 0.  0.
        2    1    3    3  502    0  0.16043087277E+03  0.73428968296E+03 -0.13114313093E+04  0.15115460570E+04  0.25500000920E-02 0.  1.
       -2    1    3    3    0  502 -0.16043087277E+03 -0.73428968296E+03  0.77186330733E+02  0.75556411581E+03  0.25500000920E-02 0. -1.
</event>
<event>
 5   0  0.5579109E-05  0.1787266E+04  0.7818609E-02  0.8713101E-01
        1   -1    0    0  501    0  0.00000000000E+00  0.00000000000E+00  0.34562962770E+03  0.34562962773E+03  0.50400001928E-02 0. -1.
       -1   -1    0    0    0  501  0.00000000000E+00  0.00000000000E+00 -0.23105079960E+04  0.23105079960E+04  0.50400001928E-02 0.  1.
    10030    2    1    2    0    0  0.00000000000E+00  0.00000000000E+00 -0.19648783683E+04  0.26561376237E+04  0.17872660893E+04 0.  0.
        3    1    3    3  502    0  0.44810093969E+03  0.18484745355E+02 -0.21311478915E+04  0.21778263208E+04  0.10100000352E+00 0.  1.
       -3    1    3    3    0  502 -0.44810093969E+03 -0.18484745355E+02  0.16626952320E+03  0.47831130293E+03  0.10100000352E+00 0. -1.
</event>
<event>
 5   0  0.5579109E-05  0.1896560E+04  0.7818609E-02  0.8656570E-01
        1   -1    0    0  501    0  0.00000000000E+00  0.00000000000E+00  0.15000818781E+04  0.15000818781E+04  0.50400001928E-02 0. -1.
       -1   -1    0    0    0  501  0.00000000000E+00  0.00000000000E+00 -0.59945745589E+03  0.59945745591E+03  0.50400001928E-02 0.  1.
    10030    2    1    2    0    0  0.00000000000E+00  0.00000000000E+00  0.90062442220E+03  0.20995393340E+04  0.18965603247E+04 0.  0.
        3    1    3    3  502    0 -0.49447090152E+03  0.64122256299E+03  0.99665717210E+03  0.12841313705E+04  0.10100000352E+00 0. -1.
       -3    1    3    3    0  502  0.49447090152E+03 -0.64122256299E+03 -0.96032749906E+02  0.81540796353E+03  0.10100000352E+00 0.  1.
</event>
<event>
 5   0  0.5614989E-05  0.1901298E+04  0.7818609E-02  0.8654210E-01
        1   -1    0    0  501    0  0.00000000000E+00  0.00000000000E+00  0.95441915794E+03  0.95441915795E+03  0.50400001928E-02 0.  1.
       -1   -1    0    0    0  501  0.00000000000E+00  0.00000000000E+00 -0.94689391762E+03  0.94689391763E+03  0.50400001928E-02 0. -1.
    10030    2    1    2    0    0  0.00000000000E+00  0.00000000000E+00  0.75252403175E+01  0.19013130756E+04  0.19012981834E+04 0.  0.
        4    1    3    3  502    0 -0.53404159458E+03 -0.66809867800E+03 -0.41118136586E+03  0.94901422372E+03  0.12699999809E+01 0. -1.
       -4    1    3    3    0  502  0.53404159458E+03  0.66809867800E+03  0.41870660618E+03  0.95229885186E+03  0.12699999809E+01 0.  1.
</event>
<event>
 5   0  0.1101678E-04  0.1871813E+04  0.7818609E-02  0.8669015E-01
       -2   -1    0    0    0  501  0.00000000000E+00  0.00000000000E+00  0.66444488114E+03  0.66444488115E+03  0.25500000920E-02 0. -1.
        2   -1    0    0  501    0  0.00000000000E+00  0.00000000000E+00 -0.13182750433E+04  0.13182750433E+04  0.25500000920E-02 0.  1.
    10030    2    1    2    0    0  0.00000000000E+00  0.00000000000E+00 -0.65383016216E+03  0.19827199245E+04  0.18718131365E+04 0.  0.
        4    1    3    3  502    0  0.25964835667E+03  0.57603083949E+03  0.40442136507E+03  0.75019134265E+03  0.12699999809E+01 0. -1.
       -4    1    3    3    0  502 -0.25964835667E+03 -0.57603083949E+03 -0.10582515272E+04  0.12325285818E+04  0.12699999809E+01 0.  1.
</event>
<event>
 5   0  0.5628936E-05  0.1916897E+04  0.7818609E-02  0.8646491E-01
       -1   -1    0    0    0  501  0.00000000000E+00  0.00000000000E+00  0.10033193336E+04  0.10033193336E+04  0.50400001928E-02 0.  1.
        1   -1    0    0  501    0  0.00000000000E+00  0.00000000000E+00 -0.91558444283E+03  0.91558444284E+03  0.50400001928E-02 0. -1.
    10030    2    1    2    0    0  0.00000000000E+00  0.00000000000E+00  0.87734890733E+02  0.19189037764E+04  0.19168970479E+04 0.  0.
        5    1    3    3  502    0 -0.25388141800E+02  0.41176299159E+03 -0.82214407063E+03  0.91985666376E+03  0.46999998093E+01 0. -1.
       -5    1    3    3    0  502  0.25388141800E+02 -0.41176299159E+03  0.90987896136E+03  0.99904711266E+03  0.46999998093E+01 0.  1.
</event>
<event>
 5   0  0.5628936E-05  0.1913524E+04  0.7818609E-02  0.8648154E-01
        1   -1    0    0  501    0  0.00000000000E+00  0.00000000000E+00  0.10895964262E+04  0.10895964262E+04  0.50400001928E-02 0.  1.
       -1   -1    0    0    0  501  0.00000000000E+00  0.00000000000E+00 -0.84012184500E+03  0.84012184501E+03  0.50400001928E-02 0. -1.
    10030    2    1    2    0    0  0.00000000000E+00  0.00000000000E+00  0.24947458123E+03  0.19297182713E+04  0.19135242459E+04 0.  0.
        5    1    3    3  502    0 -0.77546758181E+03  0.55379965093E+03  0.21106340296E+03  0.97601940241E+03  0.46999998093E+01 0.  1.
       -5    1    3    3    0  502  0.77546758181E+03 -0.55379965093E+03  0.38411178271E+02  0.95369886884E+03  0.46999998093E+01 0. -1.
</event>
<event>
 5   0  0.5614989E-05  0.1826799E+04  0.7818609E-02  0.8692176E-01
       -1   -1    0    0    0  501  0.00000000000E+00  0.00000000000E+00  0.10367419123E+04  0.10367419123E+04  0.50400001928E-02 0.  1.
        1   -1    0    0  501    0  0.00000000000E+00  0.00000000000E+00 -0.80473162888E+03  0.80473162889E+03  0.50400001928E-02 0. -1.
    10030    2    1    2    0    0  0.00000000000E+00  0.00000000000E+00  0.23201028339E+03  0.18414735412E+04  0.18267993955E+04 0.  0.
        4    1    3    3  502    0 -0.52654855596E+03  0.54864810612E+03  0.62606298696E+03  0.98499979831E+03  0.12699999809E+01 0.  1.
       -4    1    3    3    0  502  0.52654855596E+03 -0.54864810612E+03 -0.39405270357E+03  0.85647374287E+03  0.12699999809E+01 0. -1.
</event>
<event>
 5   0  0.1141890E-04  0.1902851E+04  0.7818609E-02  0.8653439E-01
       -2   -1    0    0    0  501  0.00000000000E+00  0.00000000000E+00  0.28542417345E+03  0.28542417346E+03  0.25500000920E-02 0. -1.
        2   -1    0    0  501    0  0.00000000000E+00  0.00000000000E+00 -0.31714561752E+04  0.31714561752E+04  0.25500000920E-02 0.  1.
    10030    2    1    2    0    0  0.00000000000E+00  0.00000000000E+00 -0.28860320018E+04  0.34568803487E+04  0.19028507640E+04 0.  0.
        2    1    3    3  502    0 -0.20345791009E+03 -0.13637567165E+03 -0.31131975531E+04  0.31228180301E+04  0.25500000920E-02 0.  1.
       -2    1    3    3    0  502  0.20345791009E+03  0.13637567165E+03  0.22716555127E+03  0.33406231857E+03  0.25500000920E-02 0. -1.
</event>
<event>
 5   0  0.1101678E-04  0.1898864E+04  0.7818609E-02  0.8655422E-01
       -2   -1    0    0    0  501  0.00000000000E+00  0.00000000000E+00  0.60168948645E+03  0.60168948646E+03  0.25500000920E-02 0.  1.
        2   -1    0    0  501    0  0.00000000000E+00  0.00000000000E+00 -0.14981503940E+04  0.14981503940E+04  0.25500000920E-02 0. -1.
    10030    2    1    2    0    0  0.00000000000E+00  0.00000000000E+00 -0.89646090752E+03  0.20998398804E+04  0.18988642302E+04 0.  0.
        4    1    3    3  502    0  0.16021480325E+03 -0.85499062267E+03 -0.27513976806E+02  0.87030820969E+03  0.12699999809E+01 0. -1.
       -4    1    3    3    0  502 -0.16021480325E+03  0.85499062267E+03 -0.86894693071E+03  0.12295316707E+04  0.12699999809E+01 0.  1.
</event>
<event>
 5   0  0.1101678E-04  0.1909122E+04  0.7818609E-02  0.8650329E-01
       -2   -1    0    0    0  501  0.00000000000E+00  0.00000000000E+00  0.48799635745E+03  0.48799635746E+03  0.25500000920E-02 0. -1.
        2   -1    0    0  501    0  0.00000000000E+00  0.00000000000E+00 -0.18671994595E+04  0.18671994595E+04  0.25500000920E-02 0.  1.
    10030    2    1    2    0    0  0.00000000000E+00  0.00000000000E+00 -0.13792031020E+04  0.23551958169E+04  0.19091218242E+04 0.  0.
        4    1    3    3  502    0 -0.56314184188E+03 -0.50181657771E+03 -0.14113010794E+04  0.16002252845E+04  0.12699999809E+01 0.  1.
       -4    1    3    3    0  502  0.56314184188E+03  0.50181657771E+03  0.32097977344E+02  0.75497053240E+03  0.12699999809E+01 0. -1.
</event>
<event>
 5   0  0.5614989E-05  0.1866117E+04  0.7818609E-02  0.8671908E-01
        1   -1    0    0  501    0  0.00000000000E+00  0.00000000000E+00  0.10566168534E+04  0.10566168534E+04  0.50400001928E-02 0. -1.
       -1   -1    0    0    0  501  0.00000000000E+00  0.00000000000E+00 -0.82394869739E+03  0.82394869741E+03  0.50400001928E-02 0.  1.
    10030    2    1    2    0    0  0.00000000000E+00  0.00000000000E+00  0.23266815596E+03  0.18805655508E+04  0.18661169095E+04 0.  0.
        4    1    3    3  502    0 -0.69366277698E+03 -0.60302469752E+03  0.27816898767E+03  0.96030538507E+03  0.12699999809E+01 0. -1.
       -4    1    3    3    0  502  0.69366277698E+03  0.60302469752E+03 -0.45500831710E+02  0.92026016570E+03  0.12699999809E+01 0.  1.
</event>
<event>
 5   0  0.1141890E-04  0.1894931E+04  0.7818609E-02  0.8657384E-01
        2   -1    0    0  501    0  0.00000000000E+00  0.00000000000E+00  0.49298660236E+03  0.49298660236E+03  0.25500000920E-02 0.  1.
       -2   -1    0    0    0  501  0.00000000000E+00  0.00000000000E+00 -0.18209239866E+04  0.18209239866E+04  0.25500000920E-02 0. -1.
    10030    2    1    2    0    0  0.00000000000E+00  0.00000000000E+00 -0.13279373843E+04  0.23139105890E+04  0.18949312698E+04 0.  0.
        2    1    3    3  502    0 -0.68724887239E+03 -0.39415840872E+03 -0.29441136634E+02  0.79280429129E+03  0.25500000920E-02 0.  1.
       -2    1    3    3    0  502  0.68724887239E+03  0.39415840872E+03 -0.12984962476E+04  0.15211062977E+04  0.25500000920E-02 0. -1.
</event>
<event>
 5   0  0.1101678E-04  0.1891501E+04  0.7818609E-02  0.8659098E-01
       -2   -1    0    0    0  501  0.00000000000E+00  0.00000000000E+00  0.43412769624E+03  0.43412769625E+03  0.25500000920E-02 0.  1.
        2   -1    0    0  501    0  0.00000000000E+00  0.00000000000E+00 -0.20603248841E+04  0.20603248841E+04  0.25500000920E-02 0. -1.
    10030    2    1    2    0    0  0.00000000000E+00  0.00000000000E+00 -0.16261971878E+04  0.24944525803E+04  0.18915010922E+04 0.  0.
        4    1    3    3  502    0 -0.75995401238E+03  0.26250090738E+03 -0.14698476360E+04  0.16753777226E+04  0.12699999809E+01 0.  1.
       -4    1    3    3    0  502  0.75995401238E+03 -0.26250090738E+03 -0.15634955180E+03  0.81907485773E+03  0.12699999809E+01 0. -1.
</event>
<event>
 5   0  0.1182630E-04  0.1900513E+04  0.7818609E-02  0.8654601E-01
       -2   -1    0    0    0  501  0.00000000000E+00  0.00000000000E+00  0.82097847876E+03  0.82097847877E+03  0.25500000920E-02 0. -1.
        2   -1    0    0  501    0  0.00000000000E+00  0.00000000000E+00 -0.10998916442E+04  0.10998916442E+04  0.25500000920E-02 0.  1.
    10030    2    1    2    0    0  0.00000000000E+00  0.00000000000E+00 -0.27891316543E+03  0.19208701230E+04  0.19005129506E+04 0.  0.
        5    1    3    3  502    0 -0.74519084415E+03  0.44832063884E+03 -0.52652671033E+03  0.10166382130E+04  0.46999998093E+01 0. -1.
       -5    1    3    3    0  502  0.74519084415E+03 -0.44832063884E+03  0.24761354490E+03  0.90423190998E+03  0.46999998093E+01 0.  1.
</event>
<event>
 5   0  0.5824956E-05  0.1893117E+04  0.7818609E-02  0.8658290E-01
       -1   -1    0    0    0  501  0.00000000000E+00  0.00000000000E+00  0.85802591566E+03  0.85802591567E+03  0.50400001928E-02 0. -1.
        1   -1    0    0  501    0  0.00000000000E+00  0.00000000000E+00 -0.10442261849E+04  0.10442261850E+04  0.50400001928E-02 0.  1.
    10030    2    1    2    0    0  0.00000000000E+00  0.00000000000E+00 -0.18620026928E+03  0.19022521006E+04  0.18931171422E+04 0.  0.
        2    1    3    3  502    0  0.44397199454E+03 -0.68876706141E+03 -0.56916039782E+03  0.99772478934E+03  0.25500000920E-02 0.  1.
       -2    1    3    3    0  502 -0.44397199454E+03  0.68876706141E+03  0.38296012853E+03  0.90452731129E+03  0.25500000920E-02 0. -1.
</event>
<event>
 5   0  0.1182630E-04  0.1903266E+04  0.7818609E-02  0.8653232E-01
        2   -1    0    0  501    0  0.00000000000E+00  0.00000000000E+00  0.18234456782E+04  0.18234456782E+04  0.25500000920E-02 0. -1.
       -2   -1    0    0    0  501  0.00000000000E+00  0.00000000000E+00 -0.49664522661E+03  0.49664522662E+03  0.25500000920E-02 0.  1.
    10030    2    1    2    0    0  0.00000000000E+00  0.00000000000E+00  0.13268004516E+04  0.23200909048E+04  0.19032662368E+04 0.  0.
        5    1    3    3  502    0  0.91790566531E+03 -0.45834592744E+02  0.96430408204E+03  0.13321246462E+04  0.46999998093E+01 0.  1.
       -5    1    3    3    0  502 -0.91790566531E+03  0.45834592744E+02  0.36249636956E+03  0.98796625866E+03  0.46999998093E+01 0. -1.
</event>
<event>
 5   0  0.4061125E-05  0.1878307E+04  0.7818609E-02  0.8665730E-01
        3   -1    0    0  501    0  0.00000000000E+00  0.00000000000E+00  0.91060567005E+03  0.91060567565E+03  0.10100000352E+00 0. -1.
       -3   -1    0    0    0  501  0.00000000000E+00  0.00000000000E+00 -0.96859628486E+03  0.96859629012E+03  0.10100000352E+00 0.  1.
    10030    2    1    2    0    0  0.00000000000E+00  0.00000000000E+00 -0.57990614804E+02  0.18792019658E+04  0.18783069815E+04 0.  0.
        1    1    3    3  502    0  0.24866865694E+03 -0.31026153188E+03 -0.88023028624E+03  0.96586938866E+03  0.50400001928E-02 0.  1.
       -1    1    3    3    0  502 -0.24866865694E+03  0.31026153188E+03  0.82223967144E+03  0.91333257712E+03  0.50400001928E-02 0. -1.
</event>
<event>
 5   0  0.5824956E-05  0.1851397E+04  0.7818609E-02  0.8679435E-01
        1   -1    0    0  501    0  0.00000000000E+00  0.00000000000E+00  0.62274362203E+03  0.62274362205E+03  0.50400001928E-02 0.  1.
       -1   -1    0    0    0  501  0.00000000000E+00  0.00000000000E+00 -0.13760354928E+04  0.13760354928E+04  0.50400001928E-02 0. -1.
    10030    2    1    2    0    0  0.00000000000E+00  0.00000000000E+00 -0.75329187073E+03  0.19987791148E+04  0.18513965829E+04 0.  0.
        2    1    3    3  502    0  0.13734858549E+03 -0.39155464720E+03  0.51671601116E+03  0.66270288356E+03  0.25500000920E-02 0.  1.
       -2    1    3    3    0  502 -0.13734858549E+03  0.39155464720E+03 -0.12700078819E+04  0.13360762313E+04  0.25500000920E-02 0. -1.
</event>
<event>
 5   0  0.1118206E-04  0.1893952E+04  0.7818609E-02  0.8657873E-01
        2   -1    0    0  501    0  0.00000000000E+00  0.00000000000E+00  0.11517728412E+04  0.11517728412E+04  0.25500000920E-02 0.  1.
       -2   -1    0    0    0  501  0.00000000000E+00  0.00000000000E+00 -0.77859375312E+03  0.77859375312E+03  0.25500000920E-02 0. -1.
    10030    2    1    2    0    0  0.00000000000E+00  0.00000000000E+00  0.37317908808E+03  0.19303665943E+04  0.18939515719E+04 0.  0.
        1    1    3    3  502    0 -0.59666236424E+03  0.23968388654E+03 -0.52198129204E+03  0.82820215626E+03  0.50400001928E-02 0. -1.
       -1    1    3    3    0  502  0.59666236424E+03 -0.23968388654E+03  0.89516038012E+03  0.11021644381E+04  0.50400001928E-02 0.  1.
</event>
<event>
 5   0  0.5614989E-05  0.1901910E+04  0.7818609E-02  0.8653906E-01
        1   -1    0    0  501    0  0.00000000000E+00  0.00000000000E+00  0.23138785171E+04  0.23138785171E+04  0.50400001928E-02 0.  1.
       -1   -1    0    0    0  501  0.00000000000E+00  0.00000000000E+00 -0.39082248065E+03  0.39082248068E+03  0.50400001928E-02 0. -1.
    10030    2    1    2    0    0  0.00000000000E+00  0.00000000000E+00  0.19230560364E+04  0.27047009977E+04  0.19019103470E+04 0.  0.
        4    1    3    3  502    0  0.17989352752E+03 -0.59785959069E+02 -0.36367875819E+03  0.41012180411E+03  0.12699999809E+01 0. -1.
       -4    1    3    3    0  502 -0.17989352752E+03  0.59785959069E+02  0.22867347946E+04  0.22945791936E+04  0.12699999809E+01 0.  1.
</event>
<event>
 5   0  0.1133638E-04  0.1900729E+04  0.7818609E-02  0.8654494E-01
        2   -1    0    0  501    0  0.00000000000E+00  0.00000000000E+00  0.13325857849E+04  0.13325857849E+04  0.25500000920E-02 0.  1.
       -2   -1    0    0    0  501  0.00000000000E+00  0.00000000000E+00 -0.67777462482E+03  0.67777462483E+03  0.25500000920E-02 0. -1.
    10030    2    1    2    0    0  0.00000000000E+00  0.00000000000E+00  0.65481116008E+03  0.20103604097E+04  0.19007291553E+04 0.  0.
        3    1    3    3  502    0 -0.55882030173E+03 -0.38203813296E+02  0.11394472890E+04  0.12696770438E+04  0.10100000352E+00 0.  1.
       -3    1    3    3    0  502  0.55882030173E+03  0.38203813296E+02 -0.48463612888E+03  0.74068336595E+03  0.10100000352E+00 0. -1.
</event>
<event>
 5   0  0.5628936E-05  0.1901515E+04  0.7818609E-02  0.8654102E-01
        1   -1    0    0  501    0  0.00000000000E+00  0.00000000000E+00  0.82673497188E+03  0.82673497190E+03  0.50400001928E-02 0. -1.
       -1   -1    0    0    0  501  0.00000000000E+00  0.00000000000E+00 -0.10933857181E+04  0.10933857181E+04  0.50400001928E-02 0.  1.
    10030    2    1    2    0    0  0.00000000000E+00  0.00000000000E+00 -0.26665074624E+03  0.19201206900E+04  0.19015154072E+04 0.  0.
        5    1    3    3  502    0 -0.37055831741E+03 -0.59670236194E+03 -0.78033718173E+03  0.10499120832E+04  0.46999998093E+01 0.  1.
       -5    1    3    3    0  502  0.37055831741E+03  0.59670236194E+03  0.51368643548E+03  0.87020860680E+03  0.46999998093E+01 0. -1.
</event>
<event>
 5   0  0.5579109E-05  0.1912096E+04  0.7818609E-02  0.8648859E-01
        1   -1    0    0  501    0  0.00000000000E+00  0.00000000000E+00  0.12176249099E+04  0.12176249100E+04  0.50400001928E-02 0. -1.
       -1   -1    0    0    0  501  0.00000000000E+00  0.00000000000E+00 -0.75066409637E+03  0.75066409639E+03  0.50400001928E-02 0.  1.
    10030    2    1    2    0    0  0.00000000000E+00  0.00000000000E+00  0.46696081357E+03  0.19682890063E+04  0.19120955026E+04 0.  0.
        3    1    3    3  502    0  0.66937906962E+03 -0.66006975261E+03  0.54393810935E+02  0.94165764162E+03  0.10100000352E+00 0.  1.
       -3    1    3    3    0  502 -0.66937906962E+03  0.66006975261E+03  0.41256700263E+03  0.10266313647E+04  0.10100000352E+00 0. -1.
</event>
<event>
 5   0  0.1141890E-04  0.1901050E+04  0.7818609E-02  0.8654334E-01
       -2   -1    0    0    0  501  0.00000000000E+00  0.00000000000E+00  0.39226666172E+03  0.39226666173E+03  0.25500000920E-02 0.  1.
        2   -1    0    0  501    0  0.00000000000E+00  0.00000000000E+00 -0.23032735918E+04  0.23032735918E+04  0.25500000920E-02 0. -1.
    10030    2    1    2    0    0  0.00000000000E+00  0.00000000000E+00 -0.19110069301E+04  0.26955402536E+04  0.19010496500E+04 0.  0.
        2    1    3    3  502    0 -0.23182284791E+03  0.55388488566E+03 -0.20003178352E+04  0.20884926960E+04  0.25500000920E-02 0. -1.
       -2    1    3    3    0  502  0.23182284791E+03 -0.55388488566E+03  0.89310905088E+02  0.60704755757E+03  0.25500000920E-02 0.  1.
</event>
<event>
 5   0  0.1182630E-04  0.1903706E+04  0.7818609E-02  0.8653014E-01
       -2   -1    0    0    0  501  0.00000000000E+00  0.00000000000E+00  0.42887970608E+03  0.42887970609E+03  0.25500000920E-02 0. -1.
        2   -1    0    0  501    0  0.00000000000E+00  0.00000000000E+00 -0.21125357938E+04  0.21125357938E+04  0.25500000920E-02 0.  1.
    10030    2    1    2    0    0  0.00000000000E+00  0.00000000000E+00 -0.16836560878E+04  0.25414154999E+04  0.19037055763E+04 0.  0.
        5    1    3    3  502    0  0.76772321381E+03  0.31267898054E+02 -0.15918286387E+04  0.17675737946E+04  0.46999998093E+01 0.  1.
       -5    1    3    3    0  502 -0.76772321381E+03 -0.31267898054E+02 -0.91827449075E+02  0.77384170531E+03  0.46999998093E+01 0. -1.
</event>
<event>
 5   0  0.5614989E-05  0.1931453E+04  0.7818609E-02  0.8639357E-01
        1   -1    0    0  501    0  0.00000000000E+00  0.00000000000E+00  0.14283265085E+04  0.14283265085E+04  0.50400001928E-02 0. -1.
       -1   -1    0    0    0  501  0.00000000000E+00  0.00000000000E+00 -0.65295137488E+03  0.65295137490E+03  0.50400001928E-02 0.  1.
    10030    2    1    2    0    0  0.00000000000E+00  0.00000000000E+00  0.77537513366E+03  0.20812778834E+04  0.19314530878E+04 0.  0.
        4    1    3    3  502    0 -0.14187114974E+03  0.34172443506E+03 -0.57354150367E+03  0.68253533387E+03  0.12699999809E+01 0.  1.
       -4    1    3    3    0  502  0.14187114974E+03 -0.34172443506E+03  0.13489166373E+04  0.13987425496E+04  0.12699999809E+01 0. -1.
</event>
<event>
 5   0  0.1101678E-04  0.1858331E+04  0.7818609E-02  0.8675880E-01
        2   -1    0    0  501    0  0.00000000000E+00  0.00000000000E+00  0.13825446842E+04  0.13825446842E+04  0.25500000920E-02 0.  1.
       -2   -1    0    0    0  501  0.00000000000E+00  0.00000000000E+00 -0.62446358611E+03  0.62446358612E+03  0.25500000920E-02 0. -1.
    10030    2    1    2    0    0  0.00000000000E+00  0.00000000000E+00  0.75808109813E+03  0.20070082704E+04  0.18583313068E+04 0.  0.
        4    1    3    3  502    0  0.49507359380E+03  0.52053971198E+03  0.10155000105E+04  0.12439056794E+04  0.12699999809E+01 0.  1.
       -4    1    3    3    0  502 -0.49507359380E+03 -0.52053971198E+03 -0.25741891234E+03  0.76310259098E+03  0.12699999809E+01 0. -1.
</event>
<event>
 5   0  0.5628936E-05  0.1923417E+04  0.7818609E-02  0.8643287E-01
        1   -1    0    0  501    0  0.00000000000E+00  0.00000000000E+00  0.11069367889E+04  0.11069367889E+04  0.50400001928E-02 0. -1.
       -1   -1    0    0    0  501  0.00000000000E+00  0.00000000000E+00 -0.83553372953E+03  0.83553372954E+03  0.50400001928E-02 0.  1.
    10030    2    1    2    0    0  0.00000000000E+00  0.00000000000E+00  0.27140305936E+03  0.19424705184E+04  0.19234167760E+04 0.  0.
        5    1    3    3  502    0  0.34609706691E+03 -0.30932479097E+03  0.98630153664E+03  0.10900815645E+04  0.46999998093E+01 0. -1.
       -5    1    3    3    0  502 -0.34609706691E+03  0.30932479097E+03 -0.71489847728E+03  0.85238895397E+03  0.46999998093E+01 0.  1.
</event>
<event>
 5   0  0.1141890E-04  0.1888246E+04  0.7818609E-02  0.8660729E-01
       -2   -1    0    0    0  501  0.00000000000E+00  0.00000000000E+00  0.43731684975E+03  0.43731684976E+03  0.25500000920E-02 0.  1.
        2   -1    0    0  501    0  0.00000000000E+00  0.00000000000E+00 -0.20382660373E+04  0.20382660373E+04  0.25500000920E-02 0. -1.
    10030    2    1    2    0    0  0.00000000000E+00  0.00000000000E+00 -0.16009491876E+04  0.24755828871E+04  0.18882458340E+04 0.  0.
        2    1    3    3  502    0  0.46495058533E+03 -0.31867254960E+03  0.19249844050E+03  0.59563989983E+03  0.25500000920E-02 0.  1.
       -2    1    3    3    0  502 -0.46495058533E+03  0.31867254960E+03 -0.17934476281E+04  0.18799429873E+04  0.25500000920E-02 0. -1.
</event>
<event>
 5   0  0.1133638E-04  0.1887672E+04  0.7818609E-02  0.8661017E-01
       -2   -1    0    0    0  501  0.00000000000E+00  0.00000000000E+00  0.78830631893E+03  0.78830631894E+03  0.25500000920E-02 0.  1.
        2   -1    0    0  501    0  0.00000000000E+00  0.00000000000E+00 -0.11300506676E+04  0.11300506676E+04  0.25500000920E-02 0. -1.
    10030    2    1    2    0    0  0.00000000000E+00  0.00000000000E+00 -0.34174434862E+03  0.19183569865E+04  0.18876716684E+04 0.  0.
        3    1    3    3  502    0 -0.92861045866E+03 -0.13901789538E+03 -0.26825636648E+03  0.97652693129E+03  0.10100000352E+00 0. -1.
       -3    1    3    3    0  502  0.92861045866E+03  0.13901789538E+03 -0.73487982136E+02  0.94183005521E+03  0.10100000352E+00 0.  1.
</event>
<event>
 5   0  0.5824956E-05  0.1802054E+04  0.7818609E-02  0.8705208E-01
       -1   -1    0    0    0  501  0.00000000000E+00  0.00000000000E+00  0.63241797381E+03  0.63241797383E+03  0.50400001928E-02 0. -1.
        1   -1    0    0  501    0  0.00000000000E+00  0.00000000000E+00 -0.12837226156E+04  0.12837226156E+04  0.50400001928E-02 0.  1.
    10030    2    1    2    0    0  0.00000000000E+00  0.00000000000E+00 -0.65130464180E+03  0.19161405894E+04  0.18020535569E+04 0.  0.
        2    1    3    3  502    0 -0.76049360268E+03 -0.53705419281E+02 -0.83627834814E+03  0.11316343346E+04  0.25500000920E-02 0.  1.
       -2    1    3    3    0  502  0.76049360268E+03  0.53705419281E+02  0.18497370634E+03  0.78450625480E+03  0.25500000920E-02 0. -1.
</event>
<event>
 5   0  0.5628936E-05  0.1879901E+04  0.7818609E-02  0.8664926E-01
        1   -1    0    0  501    0  0.00000000000E+00  0.00000000000E+00  0.20628534994E+04  0.20628534994E+04  0.50400001928E-02 0. -1.
       -1   -1    0    0    0  501  0.00000000000E+00  0.00000000000E+00 -0.42829344734E+03  0.42829344737E+03  0.50400001928E-02 0.  1.
    10030    2    1    2    0    0  0.00000000000E+00  0.00000000000E+00  0.16345600520E+04  0.24911469467E+04  0.18799006747E+04 0.  0.
        5    1    3    3  502    0 -0.56634803286E+03  0.58654666760E+02  0.18083048991E+04  0.18958320501E+04  0.46999998093E+01 0. -1.
       -5    1    3    3    0  502  0.56634803286E+03 -0.58654666760E+02 -0.17374484706E+03  0.59531489661E+03  0.46999998093E+01 0.  1.
</event>
<event>
 5   0  0.1133638E-04  0.1905113E+04  0.7818609E-02  0.8652315E-01
       -2   -1    0    0    0  501  0.00000000000E+00  0.00000000000E+00  0.74339437003E+03  0.74339437004E+03  0.25500000920E-02 0.  1.
        2   -1    0    0  501    0  0.00000000000E+00  0.00000000000E+00 -0.12205691959E+04  0.12205691959E+04  0.25500000920E-02 0. -1.
    10030    2    1    2    0    0  0.00000000000E+00  0.00000000000E+00 -0.47717482589E+03  0.19639635660E+04  0.19051134019E+04 0.  0.
        3    1    3    3  502    0  0.90027080383E+03 -0.29460291141E+03 -0.13505672034E+03  0.95682742621E+03  0.10100000352E+00 0. -1.
       -3    1    3    3    0  502 -0.90027080383E+03  0.29460291141E+03 -0.34211810555E+03  0.10071361397E+04  0.10100000352E+00 0.  1.
</event>
<event>
 5   0  0.1133638E-04  0.1903036E+04  0.7818609E-02  0.8653347E-01
        2   -1    0    0  501    0  0.00000000000E+00  0.00000000000E+00  0.15595753864E+04  0.15595753864E+04  0.25500000920E-02 0.  1.
       -2   -1    0    0    0  501  0.00000000000E+00  0.00000000000E+00 -0.58053394609E+03  0.58053394609E+03  0.25500000920E-02 0. -1.
    10030    2    1    2    0    0  0.00000000000E+00  0.00000000000E+00  0.97904144034E+03  0.21401093325E+04  0.19030359464E+04 0.  0.
        3    1    3    3  502    0 -0.54321599724E+03 -0.45012753465E+03  0.12075678445E+04  0.13985415712E+04  0.10100000352E+00 0.  1.
       -3    1    3    3    0  502  0.54321599724E+03  0.45012753465E+03 -0.22852640412E+03  0.74156776136E+03  0.10100000352E+00 0. -1.
</event>
<event>
 5   0  0.1141890E-04  0.1909538E+04  0.7818609E-02  0.8650123E-01
        2   -1    0    0  501    0  0.00000000000E+00  0.00000000000E+00  0.11710315734E+04  0.11710315734E+04  0.25500000920E-02 0.  1.
       -2   -1    0    0    0  501  0.00000000000E+00  0.00000000000E+00 -0.77844491673E+03  0.77844491673E+03  0.25500000920E-02 0. -1.
    10030    2    1    2    0    0  0.00000000000E+00  0.00000000000E+00  0.39258665668E+03  0.19494764902E+04  0.19095377196E+04 0.  0.
        2    1    3    3  502    0  0.25297242603E+03 -0.66976814570E+03  0.84116863946E+03  0.11046035928E+04  0.25500000920E-02 0.  1.
       -2    1    3    3    0  502 -0.25297242603E+03  0.66976814570E+03 -0.44858198277E+03  0.84487289730E+03  0.25500000920E-02 0. -1.
</event>
<event>
 5   0  0.5841424E-05  0.1908744E+04  0.7818609E-02  0.8650516E-01
       -1   -1    0    0    0  501  0.00000000000E+00  0.00000000000E+00  0.13553345661E+04  0.13553345661E+04  0.50400001928E-02 0.  1.
        1   -1    0    0  501    0  0.00000000000E+00  0.00000000000E+00 -0.67203006551E+03  0.67203006553E+03  0.50400001928E-02 0. -1.
    10030    2    1    2    0    0  0.00000000000E+00  0.00000000000E+00  0.68330450055E+03  0.20273646316E+04  0.19087436467E+04 0.  0.
        1    1    3    3  502    0  0.55140439317E+03  0.52841358801E+03 -0.26624232627E+03  0.80879707043E+03  0.50400001928E-02 0. -1.
       -1    1    3    3    0  502 -0.55140439317E+03 -0.52841358801E+03  0.94954682682E+03  0.12185675612E+04  0.50400001928E-02 0.  1.
</event>
<event>
 5   0  0.1101678E-04  0.1818577E+04  0.7818609E-02  0.8696482E-01
       -2   -1    0    0    0  501  0.00000000000E+00  0.00000000000E+00  0.46550157160E+03  0.46550157161E+03  0.25500000920E-02 0. -1.
        2   -1    0    0  501    0  0.00000000000E+00  0.00000000000E+00 -0.17761610397E+04  0.17761610397E+04  0.25500000920E-02 0.  1.
    10030    2    1    2    0    0  0.00000000000E+00  0.00000000000E+00 -0.13106594681E+04  0.22416626113E+04  0.18185771971E+04 0.  0.
        4    1    3    3  502    0 -0.18610656798E+03  0.52674507545E+03 -0.15396692146E+04  0.16378885592E+04  0.12699999809E+01 0.  1.
       -4    1    3    3    0  502  0.18610656798E+03 -0.52674507545E+03  0.22900974646E+03  0.60377405213E+03  0.12699999809E+01 0. -1.
</event>
<event>
 5   0  0.1133638E-04  0.1896996E+04  0.7818609E-02  0.8656353E-01
        2   -1    0    0  501    0  0.00000000000E+00  0.00000000000E+00  0.36299668460E+03  0.36299668461E+03  0.25500000920E-02 0.  1.
       -2   -1    0    0    0  501  0.00000000000E+00  0.00000000000E+00 -0.24783918770E+04  0.24783918770E+04  0.25500000920E-02 0. -1.
    10030    2    1    2    0    0  0.00000000000E+00  0.00000000000E+00 -0.21153951924E+04  0.28413885616E+04  0.18969955556E+04 0.  0.
        3    1    3    3  502    0 -0.90352235915E+03  0.16674245814E+03 -0.14105399975E+04  0.16833831398E+04  0.10100000352E+00 0.  1.
       -3    1    3    3    0  502  0.90352235915E+03 -0.16674245814E+03 -0.70485519492E+03  0.11580054218E+04  0.10100000352E+00 0. -1.
</event>
<event>
 5   0  0.5824956E-05  0.1903722E+04  0.7818609E-02  0.8653006E-01
       -1   -1    0    0    0  501  0.00000000000E+00  0.00000000000E+00  0.38970520360E+03  0.38970520364E+03  0.50400001928E-02 0.  1.
        1   -1    0    0  501    0  0.00000000000E+00  0.00000000000E+00 -0.23249357130E+04  0.23249357130E+04  0.50400001928E-02 0. -1.
    10030    2    1    2    0    0  0.00000000000E+00  0.00000000000E+00 -0.19352305094E+04  0.27146409167E+04  0.19037221913E+04 0.  0.
        2    1    3    3  502    0 -0.78211390216E+03 -0.24685531826E+03 -0.16565198736E+04  0.18484311715E+04  0.25500000920E-02 0. -1.
       -2    1    3    3    0  502  0.78211390216E+03  0.24685531826E+03 -0.27871063582E+03  0.86620974517E+03  0.25500000920E-02 0.  1.
</event>
<event>
 5   0  0.5841424E-05  0.1884124E+04  0.7818609E-02  0.8662799E-01
       -1   -1    0    0    0  501  0.00000000000E+00  0.00000000000E+00  0.10302236816E+04  0.10302236816E+04  0.50400001928E-02 0.  1.
        1   -1    0    0  501    0  0.00000000000E+00  0.00000000000E+00 -0.86144521101E+03  0.86144521102E+03  0.50400001928E-02 0. -1.
    10030    2    1    2    0    0  0.00000000000E+00  0.00000000000E+00  0.16877847057E+03  0.18916688926E+04  0.18841244723E+04 0.  0.
        1    1    3    3  502    0 -0.71421207313E+03 -0.30662282021E+03  0.61884097530E+03  0.99351929624E+03  0.50400001928E-02 0.  1.
       -1    1    3    3    0  502  0.71421207313E+03  0.30662282021E+03 -0.45006250473E+03  0.89814959637E+03  0.50400001928E-02 0. -1.
</event>
<event>
 5   0  0.1118206E-04  0.1887543E+04  0.7818609E-02  0.8661082E-01
       -2   -1    0    0    0  501  0.00000000000E+00  0.00000000000E+00  0.67110026676E+03  0.67110026677E+03  0.25500000920E-02 0. -1.
        2   -1    0    0  501    0  0.00000000000E+00  0.00000000000E+00 -0.13272307428E+04  0.13272307428E+04  0.25500000920E-02 0.  1.
    10030    2    1    2    0    0  0.00000000000E+00  0.00000000000E+00 -0.65613047607E+03  0.19983310096E+04  0.18875432769E+04 0.  0.
        1    1    3    3  502    0  0.67809955896E+03  0.65350936537E+03 -0.26270510169E+03  0.97770520760E+03  0.50400001928E-02 0.  1.
       -1    1    3    3    0  502 -0.67809955896E+03 -0.65350936537E+03 -0.39342537437E+03  0.10206258020E+04  0.50400001928E-02 0. -1.
</event>
<event>
 5   0  0.5628936E-05  0.1841856E+04  0.7818609E-02  0.8684352E-01
        1   -1    0    0  501    0  0.00000000000E+00  0.00000000000E+00  0.94626674352E+03  0.94626674353E+03  0.50400001928E-02 0.  1.
       -1   -1    0    0    0  501  0.00000000000E+00  0.00000000000E+00 -0.89626802781E+03  0.89626802782E+03  0.50400001928E-02 0. -1.
    10030    2    1    2    0    0  0.00000000000E+00  0.00000000000E+00  0.49998715714E+02  0.18425347714E+04  0.18418562680E+04 0.  0.
        5    1    3    3  502    0 -0.64158384461E+03  0.39580328391E+03  0.55415212381E+03  0.93562638673E+03  0.46999998093E+01 0.  1.
       -5    1    3    3    0  502  0.64158384461E+03 -0.39580328391E+03 -0.50415340810E+03  0.90690838463E+03  0.46999998093E+01 0. -1.
</event>
<event>
 5   0  0.5841424E-05  0.1920914E+04  0.7818609E-02  0.8644516E-01
       -1   -1    0    0    0  501  0.00000000000E+00  0.00000000000E+00  0.15313237987E+04  0.15313237987E+04  0.50400001928E-02 0. -1.
        1   -1    0    0  501    0  0.00000000000E+00  0.00000000000E+00 -0.60240548241E+03  0.60240548243E+03  0.50400001928E-02 0.  1.
    10030    2    1    2    0    0  0.00000000000E+00  0.00000000000E+00  0.92891831624E+03  0.21337292811E+04  0.19209142112E+04 0.  0.
        1    1    3    3  502    0 -0.33726861208E+03 -0.87003412076E+03  0.21172521893E+03  0.95683700614E+03  0.50400001928E-02 0.  1.
       -1    1    3    3    0  502  0.33726861208E+03  0.87003412076E+03  0.71719309731E+03  0.11768922749E+04  0.50400001928E-02 0. -1.
</event>
<event>
 5   0  0.1133638E-04  0.1946579E+04  0.7818609E-02  0.8632012E-01
       -2   -1    0    0    0  501  0.00000000000E+00  0.00000000000E+00  0.78104101184E+03  0.78104101184E+03  0.25500000920E-02 0.  1.
        2   -1    0    0  501    0  0.00000000000E+00  0.00000000000E+00 -0.12128593551E+04  0.12128593551E+04  0.25500000920E-02 0. -1.
    10030    2    1    2    0    0  0.00000000000E+00  0.00000000000E+00 -0.43181834322E+03  0.19939003669E+04  0.19465794594E+04 0.  0.
        3    1    3    3  502    0  0.17898306572E+03 -0.91176980947E+03 -0.51266528042E+03  0.10612185558E+04  0.10100000352E+00 0. -1.
       -3    1    3    3    0  502 -0.17898306572E+03  0.91176980947E+03  0.80846937198E+02  0.93268181108E+03  0.10100000352E+00 0.  1.
</event>
<event>
 5   0  0.5841424E-05  0.1914222E+04  0.7818609E-02  0.8647809E-01
        1   -1    0    0  501    0  0.00000000000E+00  0.00000000000E+00  0.92295945702E+03  0.92295945703E+03  0.50400001928E-02 0.  1.
       -1   -1    0    0    0  501  0.00000000000E+00  0.00000000000E+00 -0.99252640512E+03  0.99252640513E+03  0.50400001928E-02 0. -1.
    10030    2    1    2    0    0  0.00000000000E+00  0.00000000000E+00 -0.69566948100E+02  0.19154858622E+04  0.19142221731E+04 0.  0.
        1    1    3    3  502    0 -0.11803084668E+02  0.33285226415E+03 -0.93266713496E+03  0.99035242577E+03  0.50400001928E-02 0. -1.
       -1    1    3    3    0  502  0.11803084668E+02 -0.33285226415E+03  0.86310018686E+03  0.92513343640E+03  0.50400001928E-02 0.  1.
</event>
<event>
 5   0  0.5841424E-05  0.1887520E+04  0.7818609E-02  0.8661094E-01
        1   -1    0    0  501    0  0.00000000000E+00  0.00000000000E+00  0.70786117692E+03  0.70786117694E+03  0.50400001928E-02 0.  1.
       -1   -1    0    0    0  501  0.00000000000E+00  0.00000000000E+00 -0.12582732521E+04  0.12582732521E+04  0.50400001928E-02 0. -1.
    10030    2    1    2    0    0  0.00000000000E+00  0.00000000000E+00 -0.55041207520E+03  0.19661344291E+04  0.18875198385E+04 0.  0.
        1    1    3    3  502    0 -0.17048587047E+02 -0.90019639796E+03  0.19488007235E+02  0.90056870458E+03  0.50400001928E-02 0.  1.
       -1    1    3    3    0  502  0.17048587047E+02  0.90019639796E+03 -0.56990008244E+03  0.10655657245E+04  0.50400001928E-02 0. -1.
</event>
<event>
 5   0  0.5824956E-05  0.1686261E+04  0.7818609E-02  0.8769239E-01
        1   -1    0    0  501    0  0.00000000000E+00  0.00000000000E+00  0.86492079162E+03  0.86492079164E+03  0.50400001928E-02 0. -1.
       -1   -1    0    0    0  501  0.00000000000E+00  0.00000000000E+00 -0.82188961940E+03  0.82188961941E+03  0.50400001928E-02 0.  1.
    10030    2    1    2    0    0  0.00000000000E+00  0.00000000000E+00  0.43031172225E+02  0.16868104110E+04  0.16862614510E+04 0.  0.
        2    1    3    3  502    0 -0.62457603235E+02  0.12317569678E+03  0.85352923725E+03  0.86463018877E+03  0.25500000920E-02 0. -1.
       -2    1    3    3    0  502  0.62457603235E+02 -0.12317569678E+03 -0.81049806503E+03  0.82218022228E+03  0.25500000920E-02 0.  1.
</event>
<event>
 5   0  0.1118206E-04  0.1906990E+04  0.7818609E-02  0.8651385E-01
       -2   -1    0    0    0  501  0.00000000000E+00  0.00000000000E+00  0.73973651883E+03  0.73973651884E+03  0.25500000920E-02 0. -1.
        2   -1    0    0  501    0  0.00000000000E+00  0.00000000000E+00 -0.12290228951E+04  0.12290228951E+04  0.25500000920E-02 0.  1.
    10030    2    1    2    0    0  0.00000000000E+00  0.00000000000E+00 -0.48928637628E+03  0.19687594140E+04  0.19069904226E+04 0.  0.
        1    1    3    3  502    0  0.46544999996E+03  0.70159100257E+03  0.21737850162E+03  0.86955566259E+03  0.50400001928E-02 0. -1.
       -1    1    3    3    0  502 -0.46544999996E+03 -0.70159100257E+03 -0.70666487789E+03  0.10992037514E+04  0.50400001928E-02 0.  1.
</event>
<event>
 5   0  0.1133638E-04  0.1903653E+04  0.7818609E-02  0.8653040E-01
       -2   -1    0    0    0  501  0.00000000000E+00  0.00000000000E+00  0.54628536732E+03  0.54628536732E+03  0.25500000920E-02 0.  1.
        2   -1    0    0  501    0  0.00000000000E+00  0.00000000000E+00 -0.16584264752E+04  0.16584264752E+04  0.25500000920E-02 0. -1.
    10030    2    1    2    0    0  0.00000000000E+00  0.00000000000E+00 -0.11121411079E+04  0.22047118426E+04  0.19036534519E+04 0.  0.
        3    1    3    3  502    0 -0.75161346814E+03  0.14368911829E+03 -0.12116320066E+04  0.14330462302E+04  0.10100000352E+00 0. -1.
       -3    1    3    3    0  502  0.75161346814E+03 -0.14368911829E+03  0.99490898683E+02  0.77166561238E+03  0.10100000352E+00 0.  1.
</event>
<event>
 5   0  0.1141890E-04  0.1788234E+04  0.7818609E-02  0.8712581E-01
       -2   -1    0    0    0  501  0.00000000000E+00  0.00000000000E+00  0.87986856813E+03  0.87986856813E+03  0.25500000920E-02 0.  1.
        2   -1    0    0  501    0  0.00000000000E+00  0.00000000000E+00 -0.90859667052E+03  0.90859667052E+03  0.25500000920E-02 0. -1.
    10030    2    1    2    0    0  0.00000000000E+00  0.00000000000E+00 -0.28728102387E+02  0.17884652387E+04  0.17882344941E+04 0.  0.
        2    1    3    3  502    0 -0.63382245551E+03 -0.32200451456E+03 -0.55667735875E+03  0.90294379352E+03  0.25500000920E-02 0. -1.
       -2    1    3    3    0  502  0.63382245551E+03  0.32200451456E+03  0.52794925636E+03  0.88552144514E+03  0.25500000920E-02 0.  1.
</event>
<event>
 5   0  0.1101678E-04  0.1887827E+04  0.7818609E-02  0.8660939E-01
        2   -1    0    0  501    0  0.00000000000E+00  0.00000000000E+00  0.19554619040E+04  0.19554619040E+04  0.25500000920E-02 0.  1.
       -2   -1    0    0    0  501  0.00000000000E+00  0.00000000000E+00 -0.45563289936E+03  0.45563289937E+03  0.25500000920E-02 0. -1.
    10030    2    1    2    0    0  0.00000000000E+00  0.00000000000E+00  0.14998290046E+04  0.24110948033E+04  0.18878270863E+04 0.  0.
        4    1    3    3  502    0 -0.25026076370E+02 -0.34382452659E+03 -0.37235500239E+03  0.50743617361E+03  0.12699999809E+01 0. -1.
       -4    1    3    3    0  502  0.25026076370E+02  0.34382452659E+03  0.18721840070E+04  0.19036586297E+04  0.12699999809E+01 0.  1.
</event>
<event>
 5   0  0.1133638E-04  0.1911465E+04  0.7818609E-02  0.8649170E-01
       -2   -1    0    0    0  501  0.00000000000E+00  0.00000000000E+00  0.10124671233E+04  0.10124671233E+04  0.25500000920E-02 0. -1.
        2   -1    0    0  501    0  0.00000000000E+00  0.00000000000E+00 -0.90217730293E+03  0.90217730294E+03  0.25500000920E-02 0.  1.
    10030    2    1    2    0    0  0.00000000000E+00  0.00000000000E+00  0.11028982035E+03  0.19146444262E+04  0.19114652585E+04 0.  0.
        3    1    3    3  502    0 -0.81133035301E+03  0.13564125951E+03 -0.43225390454E+03  0.92924643728E+03  0.10100000352E+00 0.  1.
       -3    1    3    3    0  502  0.81133035301E+03 -0.13564125951E+03  0.54254372488E+03  0.98539798895E+03  0.10100000352E+00 0. -1.
</event>
<event>
 5   0  0.5579109E-05  0.1889893E+04  0.7818609E-02  0.8659903E-01
       -1   -1    0    0    0  501  0.00000000000E+00  0.00000000000E+00  0.19898718346E+04  0.19898718346E+04  0.50400001928E-02 0.  1.
        1   -1    0    0  501    0  0.00000000000E+00  0.00000000000E+00 -0.44873458034E+03  0.44873458036E+03  0.50400001928E-02 0. -1.
    10030    2    1    2    0    0  0.00000000000E+00  0.00000000000E+00  0.15411372543E+04  0.24386064150E+04  0.18898934390E+04 0.  0.
        3    1    3    3  502    0 -0.49892453828E+03  0.37283494587E+03 -0.14638409682E+03  0.63981239888E+03  0.10100000352E+00 0. -1.
       -3    1    3    3    0  502  0.49892453828E+03 -0.37283494587E+03  0.16875213511E+04  0.17987940161E+04  0.10100000352E+00 0.  1.
</event>
<event>
 5   0  0.4061125E-05  0.1954334E+04  0.7818609E-02  0.8628274E-01
       -3   -1    0    0    0  501  0.00000000000E+00  0.00000000000E+00  0.91375292657E+03  0.91375293215E+03  0.10100000352E+00 0. -1.
        3   -1    0    0  501    0  0.00000000000E+00  0.00000000000E+00 -0.10449817164E+04  0.10449817213E+04  0.10100000352E+00 0.  1.
    10030    2    1    2    0    0  0.00000000000E+00  0.00000000000E+00 -0.13122878984E+03  0.19587346534E+04  0.19543337605E+04 0.  0.
        5    1    3    3  502    0  0.54323403149E+03  0.80134837599E+03  0.67238197794E+02  0.97046663926E+03  0.46999998093E+01 0.  1.
       -5    1    3    3    0  502 -0.54323403149E+03 -0.80134837599E+03 -0.19846698763E+03  0.98826801418E+03  0.46999998093E+01 0. -1.
</event>
<event>
 5   0  0.1101678E-04  0.1893135E+04  0.7818609E-02  0.8658281E-01
       -2   -1    0    0    0  501  0.00000000000E+00  0.00000000000E+00  0.48099368983E+03  0.48099368984E+03  0.25500000920E-02 0.  1.
        2   -1    0    0  501    0  0.00000000000E+00  0.00000000000E+00 -0.18627894784E+04  0.18627894784E+04  0.25500000920E-02 0. -1.
    10030    2    1    2    0    0  0.00000000000E+00  0.00000000000E+00 -0.13817957886E+04  0.23437831683E+04  0.18931349499E+04 0.  0.
        4    1    3    3  502    0 -0.22286034790E+03 -0.87729139172E+03 -0.34806615728E+03  0.96977243897E+03  0.12699999809E+01 0.  1.
       -4    1    3    3    0  502  0.22286034790E+03  0.87729139172E+03 -0.10337296313E+04  0.13740107293E+04  0.12699999809E+01 0. -1.
</event>
<event>
 5   0  0.1141890E-04  0.1927414E+04  0.7818609E-02  0.8641330E-01
       -2   -1    0    0    0  501  0.00000000000E+00  0.00000000000E+00  0.10325712023E+04  0.10325712023E+04  0.25500000920E-02 0. -1.
        2   -1    0    0  501    0  0.00000000000E+00  0.00000000000E+00 -0.89943570966E+03  0.89943570966E+03  0.25500000920E-02 0.  1.
    10030    2    1    2    0    0  0.00000000000E+00  0.00000000000E+00  0.13313549268E+03  0.19320069120E+04  0.19274142390E+04 0.  0.
        2    1    3    3  502    0 -0.62672718166E+03  0.73132835150E+03  0.99862766530E+02  0.96829783129E+03  0.25500000920E-02 0.  1.
       -2    1    3    3    0  502  0.62672718166E+03 -0.73132835150E+03  0.33272726152E+02  0.96370908071E+03  0.25500000920E-02 0. -1.
</event>
<event>
 5   0  0.5824956E-05  0.2061331E+04  0.7818609E-02  0.8578471E-01
       -1   -1    0    0    0  501  0.00000000000E+00  0.00000000000E+00  0.66479622981E+03  0.66479622983E+03  0.50400001928E-02 0. -1.
        1   -1    0    0  501    0  0.00000000000E+00  0.00000000000E+00 -0.15978909310E+04  0.15978909311E+04  0.50400001928E-02 0.  1.
    10030    2    1    2    0    0  0.00000000000E+00  0.00000000000E+00 -0.93309470124E+03  0.22626871609E+04  0.20613314791E+04 0.  0.
        2    1    3    3  502    0  0.30573995140E+03 -0.18696494528E+03 -0.15272965050E+04  0.15687789592E+04  0.25500000920E-02 0.  1.
       -2    1    3    3    0  502 -0.30573995140E+03  0.18696494528E+03  0.59420180380E+03  0.69390820164E+03  0.25500000920E-02 0. -1.
</event>
<event>
 5   0  0.5824956E-05  0.1889257E+04  0.7818609E-02  0.8660223E-01
       -1   -1    0    0    0  501  0.00000000000E+00  0.00000000000E+00  0.20803336027E+04  0.20803336027E+04  0.50400001928E-02 0.  1.
        1   -1    0    0  501    0  0.00000000000E+00  0.00000000000E+00 -0.42893255212E+03  0.42893255214E+03  0.50400001928E-02 0. -1.
    10030    2    1    2    0    0  0.00000000000E+00  0.00000000000E+00  0.16514010505E+04  0.25092661548E+04  0.18892567867E+04 0.  0.
        2    1    3    3  502    0 -0.51736871060E+03  0.12148176133E+03 -0.21154873096E+03  0.57199743585E+03  0.25500000920E-02 0. -1.
       -2    1    3    3    0  502  0.51736871060E+03 -0.12148176133E+03  0.18629497815E+04  0.19372687190E+04  0.25500000920E-02 0.  1.
</event>
<event>
 5   0  0.1118206E-04  0.1875410E+04  0.7818609E-02  0.8667194E-01
        2   -1    0    0  501    0  0.00000000000E+00  0.00000000000E+00  0.69627276639E+03  0.69627276640E+03  0.25500000920E-02 0.  1.
       -2   -1    0    0    0  501  0.00000000000E+00  0.00000000000E+00 -0.12628531320E+04  0.12628531320E+04  0.25500000920E-02 0. -1.
    10030    2    1    2    0    0  0.00000000000E+00  0.00000000000E+00 -0.56658036563E+03  0.19591258984E+04  0.18754095486E+04 0.  0.
        1    1    3    3  502    0 -0.24990732731E+03 -0.11865183261E+03  0.65267270558E+03  0.70888192971E+03  0.50400001928E-02 0.  1.
       -1    1    3    3    0  502  0.24990732731E+03  0.11865183261E+03 -0.12192530712E+04  0.12502439687E+04  0.50400001928E-02 0. -1.
</event>
<event>
 5   0  0.5841424E-05  0.1768291E+04  0.7818609E-02  0.8723346E-01
        1   -1    0    0  501    0  0.00000000000E+00  0.00000000000E+00  0.28736772634E+04  0.28736772634E+04  0.50400001928E-02 0.  1.
       -1   -1    0    0    0  501  0.00000000000E+00  0.00000000000E+00 -0.27202539881E+03  0.27202539885E+03  0.50400001928E-02 0. -1.
    10030    2    1    2    0    0  0.00000000000E+00  0.00000000000E+00  0.26016518646E+04  0.31457026622E+04  0.17682909305E+04 0.  0.
        1    1    3    3  502    0 -0.10912783420E+03  0.59653678189E+03  0.24453816599E+04  0.25194555918E+04  0.50400001928E-02 0.  1.
       -1    1    3    3    0  502  0.10912783420E+03 -0.59653678189E+03  0.15627020466E+03  0.62624707044E+03  0.50400001928E-02 0. -1.
</event>
<event>
 5   0  0.5628936E-05  0.1903542E+04  0.7818609E-02  0.8653095E-01
       -1   -1    0    0    0  501  0.00000000000E+00  0.00000000000E+00  0.11093243288E+04  0.11093243289E+04  0.50400001928E-02 0. -1.
        1   -1    0    0  501    0  0.00000000000E+00  0.00000000000E+00 -0.81659461237E+03  0.81659461239E+03  0.50400001928E-02 0.  1.
    10030    2    1    2    0    0  0.00000000000E+00  0.00000000000E+00  0.29272971647E+03  0.19259189412E+04  0.19035422457E+04 0.  0.
        5    1    3    3  502    0 -0.42125789501E+02  0.10149150651E+03 -0.81014319722E+03  0.81757519412E+03  0.46999998093E+01 0.  1.
       -5    1    3    3    0  502  0.42125789501E+02 -0.10149150651E+03  0.11028729137E+04  0.11083437471E+04  0.46999998093E+01 0. -1.
</event>
<event>
 5   0  0.5841424E-05  0.1883320E+04  0.7818609E-02  0.8663204E-01
        1   -1    0    0  501    0  0.00000000000E+00  0.00000000000E+00  0.80393915335E+03  0.80393915337E+03  0.50400001928E-02 0.  1.
       -1   -1    0    0    0  501  0.00000000000E+00  0.00000000000E+00 -0.11029729416E+04  0.11029729416E+04  0.50400001928E-02 0. -1.
    10030    2    1    2    0    0  0.00000000000E+00  0.00000000000E+00 -0.29903378823E+03  0.19069120950E+04  0.18833195511E+04 0.  0.
        1    1    3    3  502    0 -0.26020961743E+03 -0.81374200148E+03  0.25147201945E+03  0.89057468332E+03  0.50400001928E-02 0.  1.
       -1    1    3    3    0  502  0.26020961743E+03  0.81374200148E+03 -0.55050580768E+03  0.10163374116E+04  0.50400001928E-02 0. -1.
</event>
<event>
 5   0  0.5579109E-05  0.1922374E+04  0.7818609E-02  0.8643799E-01
        1   -1    0    0  501    0  0.00000000000E+00  0.00000000000E+00  0.71563619850E+03  0.71563619852E+03  0.50400001928E-02 0.  1.
       -1   -1    0    0    0  501  0.00000000000E+00  0.00000000000E+00 -0.12909920624E+04  0.12909920624E+04  0.50400001928E-02 0. -1.
    10030    2    1    2    0    0  0.00000000000E+00  0.00000000000E+00 -0.57535586393E+03  0.20066282610E+04  0.19223742111E+04 0.  0.
        3    1    3    3  502    0  0.51300587765E+03  0.52360369875E+03 -0.93665432293E+03  0.11893936248E+04  0.10100000352E+00 0. -1.
       -3    1    3    3    0  502 -0.51300587765E+03 -0.52360369875E+03  0.36129845900E+03  0.81723463616E+03  0.10100000352E+00 0.  1.
</event>
<event>
 5   0  0.1133638E-04  0.1897056E+04  0.7818609E-02  0.8656323E-01
       -2   -1    0    0    0  501  0.00000000000E+00  0.00000000000E+00  0.44259625557E+03  0.44259625558E+03  0.25500000920E-02 0. -1.
        2   -1    0    0  501    0  0.00000000000E+00  0.00000000000E+00 -0.20327903295E+04  0.20327903295E+04  0.25500000920E-02 0.  1.
    10030    2    1    2    0    0  0.00000000000E+00  0.00000000000E+00 -0.15901940739E+04  0.24753865851E+04  0.18970560226E+04 0.  0.
        3    1    3    3  502    0 -0.13495248584E+03 -0.91551475661E+03 -0.10667014665E+04  0.14121726070E+04  0.10100000352E+00 0.  1.
       -3    1    3    3    0  502  0.13495248584E+03  0.91551475661E+03 -0.52349260739E+03  0.10632139781E+04  0.10100000352E+00 0. -1.
</event>
<event>
 5   0  0.1118206E-04  0.1893149E+04  0.7818609E-02  0.8658274E-01
       -2   -1    0    0    0  501  0.00000000000E+00  0.00000000000E+00  0.60908397618E+03  0.60908397618E+03  0.25500000920E-02 0. -1.
        2   -1    0    0  501    0  0.00000000000E+00  0.00000000000E+00 -0.14710669192E+04  0.14710669192E+04  0.25500000920E-02 0.  1.
    10030    2    1    2    0    0  0.00000000000E+00  0.00000000000E+00 -0.86198294298E+03  0.20801508953E+04  0.18931490045E+04 0.  0.
        1    1    3    3  502    0  0.77118229519E+03  0.35709321016E+03  0.27036434446E+02  0.85027563882E+03  0.50400001928E-02 0. -1.
       -1    1    3    3    0  502 -0.77118229519E+03 -0.35709321016E+03 -0.88901937743E+03  0.12298752565E+04  0.50400001928E-02 0.  1.
</event>
<event>
 5   0  0.1101678E-04  0.1892719E+04  0.7818609E-02  0.8658489E-01
        2   -1    0    0  501    0  0.00000000000E+00  0.00000000000E+00  0.14964652221E+04  0.14964652221E+04  0.25500000920E-02 0. -1.
       -2   -1    0    0    0  501  0.00000000000E+00  0.00000000000E+00 -0.59847448019E+03  0.59847448020E+03  0.25500000920E-02 0.  1.
    10030    2    1    2    0    0  0.00000000000E+00  0.00000000000E+00  0.89799074188E+03  0.20949397023E+04  0.18927189394E+04 0.  0.
        4    1    3    3  502    0 -0.32073715495E+03  0.62756459837E+03  0.11480469869E+04  0.13471166040E+04  0.12699999809E+01 0. -1.
       -4    1    3    3    0  502  0.32073715495E+03 -0.62756459837E+03 -0.25005624505E+03  0.74782309826E+03  0.12699999809E+01 0.  1.
</event>
<event>
 5   0  0.5824956E-05  0.1825582E+04  0.7818609E-02  0.8692812E-01
        1   -1    0    0  501    0  0.00000000000E+00  0.00000000000E+00  0.11618693312E+04  0.11618693312E+04  0.50400001928E-02 0. -1.
       -1   -1    0    0    0  501  0.00000000000E+00  0.00000000000E+00 -0.71710966731E+03  0.71710966733E+03  0.50400001928E-02 0.  1.
    10030    2    1    2    0    0  0.00000000000E+00  0.00000000000E+00  0.44475966385E+03  0.18789789985E+04  0.18255823504E+04 0.  0.
        2    1    3    3  502    0  0.66611830333E+03  0.60007356912E+03  0.45942856075E+02  0.89772636612E+03  0.25500000920E-02 0.  1.
       -2    1    3    3    0  502 -0.66611830333E+03 -0.60007356912E+03  0.39881680778E+03  0.98125263239E+03  0.25500000920E-02 0. -1.
</event>
<event>
 5   0  0.1182630E-04  0.1895556E+04  0.7818609E-02  0.8657071E-01
       -2   -1    0    0    0  501  0.00000000000E+00  0.00000000000E+00  0.69588646937E+03  0.69588646938E+03  0.25500000920E-02 0. -1.
        2   -1    0    0  501    0  0.00000000000E+00  0.00000000000E+00 -0.12908478590E+04  0.12908478590E+04  0.25500000920E-02 0.  1.
    10030    2    1    2    0    0  0.00000000000E+00  0.00000000000E+00 -0.59496138960E+03  0.19867343283E+04  0.18955564450E+04 0.  0.
        5    1    3    3  502    0  0.74082344317E+03 -0.56442337334E+03 -0.11333575550E+03  0.93822182974E+03  0.46999998093E+01 0. -1.
       -5    1    3    3    0  502 -0.74082344317E+03  0.56442337334E+03 -0.48162563410E+03  0.10485124986E+04  0.46999998093E+01 0.  1.
</event>
<event>
 5   0  0.1182630E-04  0.1901832E+04  0.7818609E-02  0.8653945E-01
       -2   -1    0    0    0  501  0.00000000000E+00  0.00000000000E+00  0.68585559155E+03  0.68585559156E+03  0.25500000920E-02 0.  1.
        2   -1    0    0  501    0  0.00000000000E+00  0.00000000000E+00 -0.13184140582E+04  0.13184140582E+04  0.25500000920E-02 0. -1.
    10030    2    1    2    0    0  0.00000000000E+00  0.00000000000E+00 -0.63255846665E+03  0.20042696498E+04  0.19018324362E+04 0.  0.
        5    1    3    3  502    0 -0.61393349758E+03  0.14533219546E+03 -0.10660664144E+04  0.12387717613E+04  0.46999998093E+01 0. -1.
       -5    1    3    3    0  502  0.61393349758E+03 -0.14533219546E+03  0.43350794780E+03  0.76549788850E+03  0.46999998093E+01 0.  1.
</event>
<event>
 5   0  0.1133638E-04  0.1919475E+04  0.7818609E-02  0.8645223E-01
       -2   -1    0    0    0  501  0.00000000000E+00  0.00000000000E+00  0.40913031802E+03  0.40913031803E+03  0.25500000920E-02 0.  1.
        2   -1    0    0  501    0  0.00000000000E+00  0.00000000000E+00 -0.22513501201E+04  0.22513501201E+04  0.25500000920E-02 0. -1.
    10030    2    1    2    0    0  0.00000000000E+00  0.00000000000E+00 -0.18422198021E+04  0.26604804382E+04  0.19194745017E+04 0.  0.
        3    1    3    3  502    0  0.24193606710E+03  0.74840761763E+03 -0.16833705173E+04  0.18580590226E+04  0.10100000352E+00 0. -1.
       -3    1    3    3    0  502 -0.24193606710E+03 -0.74840761763E+03 -0.15884928481E+03  0.80242141558E+03  0.10100000352E+00 0.  1.
</event>
<event>
 5   0  0.1182630E-04  0.1887278E+04  0.7818609E-02  0.8661215E-01
        2   -1    0    0  501    0  0.00000000000E+00  0.00000000000E+00  0.67024708245E+03  0.67024708245E+03  0.25500000920E-02 0.  1.
       -2   -1    0    0    0  501  0.00000000000E+00  0.00000000000E+00 -0.13285464166E+04  0.13285464166E+04  0.25500000920E-02 0. -1.
    10030    2    1    2    0    0  0.00000000000E+00  0.00000000000E+00 -0.65829933419E+03  0.19987934991E+04  0.18872777852E+04 0.  0.
        5    1    3    3  502    0 -0.16504906387E+03  0.20213722377E+03  0.63125794816E+03  0.68308808937E+03  0.46999998093E+01 0.  1.
       -5    1    3    3    0  502  0.16504906387E+03 -0.20213722377E+03 -0.12895572824E+04  0.13157054097E+04  0.46999998093E+01 0. -1.
</event>
<event>
 5   0  0.1141890E-04  0.1903035E+04  0.7818609E-02  0.8653347E-01
        2   -1    0    0  501    0  0.00000000000E+00  0.00000000000E+00  0.15026905458E+04  0.15026905458E+04  0.25500000920E-02 0.  1.
       -2   -1    0    0    0  501  0.00000000000E+00  0.00000000000E+00 -0.60250975001E+03  0.60250975002E+03  0.25500000920E-02 0. -1.
    10030    2    1    2    0    0  0.00000000000E+00  0.00000000000E+00  0.90018079579E+03  0.21052002958E+04  0.19030351601E+04 0.  0.
        2    1    3    3  502    0  0.38614541689E+03 -0.81007350188E+03  0.80001402294E+03  0.12022270161E+04  0.25500000920E-02 0.  1.
       -2    1    3    3    0  502 -0.38614541689E+03  0.81007350188E+03  0.10016677286E+03  0.90297327968E+03  0.25500000920E-02 0. -1.
</event>
<event>
 5   0  0.1182630E-04  0.1903161E+04  0.7818609E-02  0.8653285E-01
        2   -1    0    0  501    0  0.00000000000E+00  0.00000000000E+00  0.88855619586E+03  0.88855619586E+03  0.25500000920E-02 0. -1.
       -2   -1    0    0    0  501  0.00000000000E+00  0.00000000000E+00 -0.10190745707E+04  0.10190745707E+04  0.25500000920E-02 0.  1.
    10030    2    1    2    0    0  0.00000000000E+00  0.00000000000E+00 -0.13051837481E+03  0.19076307665E+04  0.19031605542E+04 0.  0.
        5    1    3    3  502    0  0.20263331761E+03  0.22319642356E+03 -0.96993441934E+03  0.10157124459E+04  0.46999998093E+01 0.  1.
       -5    1    3    3    0  502 -0.20263331761E+03 -0.22319642356E+03  0.83941604453E+03  0.89191832065E+03  0.46999998093E+01 0. -1.
</event>
<event>
 5   0  0.1141890E-04  0.1899189E+04  0.7818609E-02  0.8655260E-01
       -2   -1    0    0    0  501  0.00000000000E+00  0.00000000000E+00  0.94751058022E+03  0.94751058023E+03  0.25500000920E-02 0. -1.
        2   -1    0    0  501    0  0.00000000000E+00  0.00000000000E+00 -0.95168272794E+03  0.95168272794E+03  0.25500000920E-02 0.  1.
    10030    2    1    2    0    0  0.00000000000E+00  0.00000000000E+00 -0.41721477132E+01  0.18991933082E+04  0.18991887255E+04 0.  0.
        2    1    3    3  502    0  0.64469775588E+03 -0.99549771143E+02 -0.69214867856E+03  0.95111258356E+03  0.25500000920E-02 0.  1.
       -2    1    3    3    0  502 -0.64469775588E+03  0.99549771143E+02  0.68797653084E+03  0.94808072461E+03  0.25500000920E-02 0. -1.
</event>
<event>
 5   0  0.1101678E-04  0.1930606E+04  0.7818609E-02  0.8639770E-01
        2   -1    0    0  501    0  0.00000000000E+00  0.00000000000E+00  0.98712792660E+03  0.98712792660E+03  0.25500000920E-02 0. -1.
       -2   -1    0    0    0  501  0.00000000000E+00  0.00000000000E+00 -0.94396099486E+03  0.94396099487E+03  0.25500000920E-02 0.  1.
    10030    2    1    2    0    0  0.00000000000E+00  0.00000000000E+00  0.43166931734E+02  0.19310889215E+04  0.19306063914E+04 0.  0.
        4    1    3    3  502    0  0.36833590386E+03  0.47193458924E+03  0.77901446820E+03  0.98247582625E+03  0.12699999809E+01 0. -1.
       -4    1    3    3    0  502 -0.36833590386E+03 -0.47193458924E+03 -0.73584753647E+03  0.94861309522E+03  0.12699999809E+01 0.  1.
</event>
<event>
 5   0  0.1118206E-04  0.1894112E+04  0.7818609E-02  0.8657793E-01
       -2   -1    0    0    0  501  0.00000000000E+00  0.00000000000E+00  0.79361868591E+03  0.79361868592E+03  0.25500000920E-02 0. -1.
        2   -1    0    0  501    0  0.00000000000E+00  0.00000000000E+00 -0.11301583936E+04  0.11301583936E+04  0.25500000920E-02 0.  1.
    10030    2    1    2    0    0  0.00000000000E+00  0.00000000000E+00 -0.33653970764E+03  0.19237770795E+04  0.18941117382E+04 0.  0.
        1    1    3    3  502    0  0.33766762523E+03 -0.83386560696E+03 -0.46881575872E+03  0.10144651257E+04  0.50400001928E-02 0.  1.
       -1    1    3    3    0  502 -0.33766762523E+03  0.83386560696E+03  0.13227605108E+03  0.90931195379E+03  0.50400001928E-02 0. -1.
</event>
<event>
 5   0  0.5841424E-05  0.1924051E+04  0.7818609E-02  0.8642976E-01
       -1   -1    0    0    0  501  0.00000000000E+00  0.00000000000E+00  0.10417029488E+04  0.10417029488E+04  0.50400001928E-02 0. -1.
        1   -1    0    0  501    0  0.00000000000E+00  0.00000000000E+00 -0.88844238752E+03  0.88844238754E+03  0.50400001928E-02 0.  1.
    10030    2    1    2    0    0  0.00000000000E+00  0.00000000000E+00  0.15326056124E+03  0.19301453363E+04  0.19240509920E+04 0.  0.
        1    1    3    3  502    0  0.78368657855E+03 -0.35833569773E+03  0.50568105964E+03  0.99914086082E+03  0.50400001928E-02 0. -1.
       -1    1    3    3    0  502 -0.78368657855E+03  0.35833569773E+03 -0.35242049840E+03  0.93100447549E+03  0.50400001928E-02 0.  1.
</event>
<event>
 5   0  0.5628936E-05  0.1871563E+04  0.7818609E-02  0.8669142E-01
        1   -1    0    0  501    0  0.00000000000E+00  0.00000000000E+00  0.31216991496E+04  0.31216991497E+04  0.50400001928E-02 0. -1.
       -1   -1    0    0    0  501  0.00000000000E+00  0.00000000000E+00 -0.28051618891E+03  0.28051618895E+03  0.50400001928E-02 0.  1.
    10030    2    1    2    0    0  0.00000000000E+00  0.00000000000E+00  0.28411829607E+04  0.34022153386E+04  0.18715631418E+04 0.  0.
        5    1    3    3  502    0  0.68323223920E+03  0.40597704456E+03  0.23186178158E+04  0.24510475962E+04  0.46999998093E+01 0. -1.
       -5    1    3    3    0  502 -0.68323223920E+03 -0.40597704456E+03  0.52256514497E+03  0.95116774237E+03  0.46999998093E+01 0.  1.
</event>
<event>
 5   0  0.5824956E-05  0.1899823E+04  0.7818609E-02  0.8654944E-01
        1   -1    0    0  501    0  0.00000000000E+00  0.00000000000E+00  0.11541072005E+04  0.11541072005E+04  0.50400001928E-02 0. -1.
       -1   -1    0    0    0  501  0.00000000000E+00  0.00000000000E+00 -0.78184444609E+03  0.78184444610E+03  0.50400001928E-02 0.  1.
    10030    2    1    2    0    0  0.00000000000E+00  0.00000000000E+00  0.37226275439E+03  0.19359516466E+04  0.18998234706E+04 0.  0.
        2    1    3    3  502    0  0.49058470185E+03  0.67741874531E+03  0.64498630043E+03  0.10562087076E+04  0.25500000920E-02 0. -1.
       -2    1    3    3    0  502 -0.49058470185E+03 -0.67741874531E+03 -0.27272354604E+03  0.87974293902E+03  0.25500000920E-02 0.  1.
</event>
<event>
 5   0  0.4061125E-05  0.1888340E+04  0.7818609E-02  0.8660682E-01
       -3   -1    0    0    0  501  0.00000000000E+00  0.00000000000E+00  0.88332378183E+03  0.88332378760E+03  0.10100000352E+00 0. -1.
        3   -1    0    0  501    0  0.00000000000E+00  0.00000000000E+00 -0.10092077864E+04  0.10092077915E+04  0.10100000352E+00 0.  1.
    10030    2    1    2    0    0  0.00000000000E+00  0.00000000000E+00 -0.12588400457E+03  0.18925315791E+04  0.18883402753E+04 0.  0.
        4    1    3    3  502    0 -0.63738234458E+03 -0.55111364586E+03 -0.48988416556E+03  0.97466435885E+03  0.12699999809E+01 0.  1.
       -4    1    3    3    0  502  0.63738234458E+03  0.55111364586E+03  0.36400016099E+03  0.91786722021E+03  0.12699999809E+01 0. -1.
</event>
<event>
 5   0  0.1118206E-04  0.1890158E+04  0.7818609E-02  0.8659771E-01
        2   -1    0    0  501    0  0.00000000000E+00  0.00000000000E+00  0.11984172327E+04  0.11984172327E+04  0.25500000920E-02 0.  1.
       -2   -1    0    0    0  501  0.00000000000E+00  0.00000000000E+00 -0.74529457513E+03  0.74529457513E+03  0.25500000920E-02 0. -1.
    10030    2    1    2    0    0  0.00000000000E+00  0.00000000000E+00  0.45312265761E+03  0.19437118079E+04  0.18901575197E+04 0.  0.
        1    1    3    3  502    0 -0.53645435632E+03  0.39263857202E+03 -0.46420428465E+03  0.81082300323E+03  0.50400001928E-02 0. -1.
       -1    1    3    3    0  502  0.53645435632E+03 -0.39263857202E+03  0.91732694226E+03  0.11328888046E+04  0.50400001928E-02 0.  1.
</event>
<event>
 5   0  0.1101678E-04  0.1940239E+04  0.7818609E-02  0.8635082E-01
        2   -1    0    0  501    0  0.00000000000E+00  0.00000000000E+00  0.18209750184E+04  0.18209750184E+04  0.25500000920E-02 0.  1.
       -2   -1    0    0    0  501  0.00000000000E+00  0.00000000000E+00 -0.51682855248E+03  0.51682855249E+03  0.25500000920E-02 0. -1.
    10030    2    1    2    0    0  0.00000000000E+00  0.00000000000E+00  0.13041464659E+04  0.23378035709E+04  0.19402390398E+04 0.  0.
        4    1    3    3  502    0 -0.21480216072E+03 -0.65512270884E+03  0.14744193318E+04  0.16276485219E+04  0.12699999809E+01 0.  1.
       -4    1    3    3    0  502  0.21480216072E+03  0.65512270884E+03 -0.17027286588E+03  0.71015504901E+03  0.12699999809E+01 0. -1.
</event>
<event>
 5   0  0.5614989E-05  0.1915057E+04  0.7818609E-02  0.8647398E-01
       -1   -1    0    0    0  501  0.00000000000E+00  0.00000000000E+00  0.74710567923E+03  0.74710567924E+03  0.50400001928E-02 0. -1.
        1   -1    0    0  501    0  0.00000000000E+00  0.00000000000E+00 -0.12272168260E+04  0.12272168260E+04  0.50400001928E-02 0.  1.
    10030    2    1    2    0    0  0.00000000000E+00  0.00000000000E+00 -0.48011114678E+03  0.19743225053E+04  0.19150568246E+04 0.  0.
        4    1    3    3  502    0 -0.61060601223E+02  0.17009638766E+03 -0.12094737600E+04  0.12229021086E+04  0.12699999809E+01 0.  1.
       -4    1    3    3    0  502  0.61060601223E+02 -0.17009638766E+03  0.72936261321E+03  0.75142039670E+03  0.12699999809E+01 0. -1.
</event>
<event>
 5   0  0.5824956E-05  0.1899991E+04  0.7818609E-02  0.8654861E-01
        1   -1    0    0  501    0  0.00000000000E+00  0.00000000000E+00  0.15758348001E+04  0.15758348001E+04  0.50400001928E-02 0. -1.
       -1   -1    0    0    0  501  0.00000000000E+00  0.00000000000E+00 -0.57270673919E+03  0.57270673921E+03  0.50400001928E-02 0.  1.
    10030    2    1    2    0    0  0.00000000000E+00  0.00000000000E+00  0.10031280609E+04  0.21485415393E+04  0.18999907473E+04 0.  0.
        2    1    3    3  502    0 -0.62881961730E+02  0.58276737945E+03  0.13469729052E+04  0.14689819492E+04  0.25500000920E-02 0. -1.
       -2    1    3    3    0  502  0.62881961730E+02 -0.58276737945E+03 -0.34384484426E+03  0.67955959017E+03  0.25500000920E-02 0.  1.
</event>
<event>
 5   0  0.5824956E-05  0.1896414E+04  0.7818609E-02  0.8656644E-01
       -1   -1    0    0    0  501  0.00000000000E+00  0.00000000000E+00  0.90507273035E+03  0.90507273036E+03  0.50400001928E-02 0.  1.
        1   -1    0    0  501    0  0.00000000000E+00  0.00000000000E+00 -0.99339649087E+03  0.99339649089E+03  0.50400001928E-02 0. -1.
    10030    2    1    2    0    0  0.00000000000E+00  0.00000000000E+00 -0.88323760525E+02  0.18984692212E+04  0.18964135354E+04 0.  0.
        2    1    3    3  502    0 -0.72806778430E+03  0.73686908116E+02  0.55947069153E+03  0.92115140647E+03  0.25500000920E-02 0.  1.
       -2    1    3    3    0  502  0.72806778430E+03 -0.73686908116E+02 -0.64779445205E+03  0.97731781478E+03  0.25500000920E-02 0. -1.
</event>
<event>
 5   0  0.1141890E-04  0.1896089E+04  0.7818609E-02  0.8656805E-01
       -2   -1    0    0    0  501  0.00000000000E+00  0.00000000000E+00  0.88009976505E+03  0.88009976505E+03  0.25500000920E-02 0. -1.
        2   -1    0    0  501    0  0.00000000000E+00  0.00000000000E+00 -0.10212349110E+04  0.10212349110E+04  0.25500000920E-02 0.  1.
    10030    2    1    2    0    0  0.00000000000E+00  0.00000000000E+00 -0.14113514594E+03  0.19013346760E+04  0.18960892439E+04 0.  0.
        2    1    3    3  502    0 -0.17667917583E+02  0.27329400200E+03 -0.98070551293E+03  0.10182264335E+04  0.25500000920E-02 0.  1.
       -2    1    3    3    0  502  0.17667917583E+02 -0.27329400200E+03  0.83957036699E+03  0.88310824251E+03  0.25500000920E-02 0. -1.
</event>
<event>
 5   0  0.5841424E-05  0.1891706E+04  0.7818609E-02  0.8658996E-01
       -1   -1    0    0    0  501  0.00000000000E+00  0.00000000000E+00  0.70226507445E+03  0.70226507447E+03  0.50400001928E-02 0. -1.
        1   -1    0    0  501    0  0.00000000000E+00  0.00000000000E+00 -0.12739325075E+04  0.12739325075E+04  0.50400001928E-02 0.  1.
    10030    2    1    2    0    0  0.00000000000E+00  0.00000000000E+00 -0.57166743301E+03  0.19761975819E+04  0.18917064331E+04 0.  0.
        1    1    3    3  502    0  0.12050804957E+03  0.19226789800E+03  0.67340971033E+03  0.71061225194E+03  0.50400001928E-02 0. -1.
       -1    1    3    3    0  502 -0.12050804957E+03 -0.19226789800E+03 -0.12450771433E+04  0.12655853300E+04  0.50400001928E-02 0.  1.
</event>
<event>
 5   0  0.5614989E-05  0.1756312E+04  0.7818609E-02  0.8729883E-01
        1   -1    0    0  501    0  0.00000000000E+00  0.00000000000E+00  0.81270740041E+03  0.81270740042E+03  0.50400001928E-02 0.  1.
       -1   -1    0    0    0  501  0.00000000000E+00  0.00000000000E+00 -0.94887551245E+03  0.94887551246E+03  0.50400001928E-02 0. -1.
    10030    2    1    2    0    0  0.00000000000E+00  0.00000000000E+00 -0.13616811204E+03  0.17615829129E+04  0.17563122172E+04 0.  0.
        4    1    3    3  502    0  0.50606322060E+03  0.48146673080E+03 -0.60189014291E+03  0.92205398602E+03  0.12699999809E+01 0. -1.
       -4    1    3    3    0  502 -0.50606322060E+03 -0.48146673080E+03  0.46572203087E+03  0.83952892687E+03  0.12699999809E+01 0.  1.
</event>
<event>
 5   0  0.5579109E-05  0.1844586E+04  0.7818609E-02  0.8682942E-01
       -1   -1    0    0    0  501  0.00000000000E+00  0.00000000000E+00  0.87505993970E+03  0.87505993971E+03  0.50400001928E-02 0. -1.
        1   -1    0    0  501    0  0.00000000000E+00  0.00000000000E+00 -0.97207504883E+03  0.97207504884E+03  0.50400001928E-02 0.  1.
    10030    2    1    2    0    0  0.00000000000E+00  0.00000000000E+00 -0.97015109132E+02  0.18471349886E+04  0.18445855184E+04 0.  0.
        3    1    3    3  502    0  0.41615870106E+03 -0.58834275206E+03  0.52786478228E+03  0.89329530220E+03  0.10100000352E+00 0. -1.
       -3    1    3    3    0  502 -0.41615870106E+03  0.58834275206E+03 -0.62487989142E+03  0.95383968635E+03  0.10100000352E+00 0.  1.
</event>
<event>
 5   0  0.5614989E-05  0.1904297E+04  0.7818609E-02  0.8652720E-01
        1   -1    0    0  501    0  0.00000000000E+00  0.00000000000E+00  0.14782473174E+04  0.14782473174E+04  0.50400001928E-02 0. -1.
       -1   -1    0    0    0  501  0.00000000000E+00  0.00000000000E+00 -0.61328521990E+03  0.61328521992E+03  0.50400001928E-02 0.  1.
    10030    2    1    2    0    0  0.00000000000E+00  0.00000000000E+00  0.86496209748E+03  0.20915325373E+04  0.19042974885E+04 0.  0.
        4    1    3    3  502    0  0.54131882856E+03  0.12970671946E+03  0.12809204812E+04  0.13966419725E+04  0.12699999809E+01 0. -1.
       -4    1    3    3    0  502 -0.54131882856E+03 -0.12970671946E+03 -0.41595838372E+03  0.69489056484E+03  0.12699999809E+01 0.  1.
</event>
<event>
 5   0  0.1101678E-04  0.1896649E+04  0.7818609E-02  0.8656526E-01
       -2   -1    0    0    0  501  0.00000000000E+00  0.00000000000E+00  0.37050995223E+03  0.37050995224E+03  0.25500000920E-02 0.  1.
        2   -1    0    0  501    0  0.00000000000E+00  0.00000000000E+00 -0.24272473525E+04  0.24272473525E+04  0.25500000920E-02 0. -1.
    10030    2    1    2    0    0  0.00000000000E+00  0.00000000000E+00 -0.20567374003E+04  0.27977573047E+04  0.18966489403E+04 0.  0.
        4    1    3    3  502    0 -0.53965302036E+03 -0.52282339993E+03 -0.17491084550E+03  0.77146944636E+03  0.12699999809E+01 0.  1.
       -4    1    3    3    0  502  0.53965302036E+03  0.52282339993E+03 -0.18818265548E+04  0.20262878584E+04  0.12699999809E+01 0. -1.
</event>
<event>
 5   0  0.1141890E-04  0.1899750E+04  0.7818609E-02  0.8654981E-01
        2   -1    0    0  501    0  0.00000000000E+00  0.00000000000E+00  0.15882353466E+04  0.15882353466E+04  0.25500000920E-02 0.  1.
       -2   -1    0    0    0  501  0.00000000000E+00  0.00000000000E+00 -0.56809092612E+03  0.56809092613E+03  0.25500000920E-02 0. -1.
    10030    2    1    2    0    0  0.00000000000E+00  0.00000000000E+00  0.10201444205E+04  0.21563262728E+04  0.18997495508E+04 0.  0.
        2    1    3    3  502    0  0.33630361481E+03  0.13459583744E+03 -0.48661353718E+03  0.60663736726E+03  0.25500000920E-02 0. -1.
       -2    1    3    3    0  502 -0.33630361481E+03 -0.13459583744E+03  0.15067579577E+04  0.15496889055E+04  0.25500000920E-02 0.  1.
</event>
<event>
 5   0  0.1182630E-04  0.1906209E+04  0.7818609E-02  0.8651772E-01
       -2   -1    0    0    0  501  0.00000000000E+00  0.00000000000E+00  0.14245964469E+04  0.14245964469E+04  0.25500000920E-02 0. -1.
        2   -1    0    0  501    0  0.00000000000E+00  0.00000000000E+00 -0.63765973930E+03  0.63765973930E+03  0.25500000920E-02 0.  1.
    10030    2    1    2    0    0  0.00000000000E+00  0.00000000000E+00  0.78693670762E+03  0.20622561862E+04  0.19062085919E+04 0.  0.
        5    1    3    3  502    0 -0.76622418794E+03  0.53680247457E+02  0.10039349178E+04  0.12640761386E+04  0.46999998093E+01 0. -1.
       -5    1    3    3    0  502  0.76622418794E+03 -0.53680247457E+02 -0.21699821016E+03  0.79818004758E+03  0.46999998093E+01 0.  1.
</event>
<event>
 5   0  0.1133638E-04  0.1865641E+04  0.7818609E-02  0.8672151E-01
       -2   -1    0    0    0  501  0.00000000000E+00  0.00000000000E+00  0.38951656541E+03  0.38951656542E+03  0.25500000920E-02 0. -1.
        2   -1    0    0  501    0  0.00000000000E+00  0.00000000000E+00 -0.22339330548E+04  0.22339330548E+04  0.25500000920E-02 0.  1.
    10030    2    1    2    0    0  0.00000000000E+00  0.00000000000E+00 -0.18444164894E+04  0.26234496202E+04  0.18656408346E+04 0.  0.
        3    1    3    3  502    0  0.47134711386E+01  0.77027209537E+02 -0.22294365620E+04  0.22307717951E+04  0.10100000352E+00 0.  1.
       -3    1    3    3    0  502 -0.47134711386E+01 -0.77027209537E+02  0.38502007260E+03  0.39267782510E+03  0.10100000352E+00 0. -1.
</event>
<event>
 5   0  0.1118206E-04  0.1815795E+04  0.7818609E-02  0.8697945E-01
       -2   -1    0    0    0  501  0.00000000000E+00  0.00000000000E+00  0.62720780010E+03  0.62720780011E+03  0.25500000920E-02 0.  1.
        2   -1    0    0  501    0  0.00000000000E+00  0.00000000000E+00 -0.13142024226E+04  0.13142024226E+04  0.25500000920E-02 0. -1.
    10030    2    1    2    0    0  0.00000000000E+00  0.00000000000E+00 -0.68699462246E+03  0.19414102227E+04  0.18157951540E+04 0.  0.
        1    1    3    3  502    0 -0.35274232005E+03 -0.38943256981E+03  0.44812359926E+03  0.69057919968E+03  0.50400001928E-02 0.  1.
       -1    1    3    3    0  502  0.35274232005E+03  0.38943256981E+03 -0.11351182217E+04  0.12508310230E+04  0.50400001928E-02 0. -1.
</event>
<event>
 5   0  0.5579109E-05  0.1904109E+04  0.7818609E-02  0.8652814E-01
       -1   -1    0    0    0  501  0.00000000000E+00  0.00000000000E+00  0.37123170717E+03  0.37123170720E+03  0.50400001928E-02 0. -1.
        1   -1    0    0  501    0  0.00000000000E+00  0.00000000000E+00 -0.24416231861E+04  0.24416231861E+04  0.50400001928E-02 0.  1.
    10030    2    1    2    0    0  0.00000000000E+00  0.00000000000E+00 -0.20703914790E+04  0.28128548933E+04  0.19041091814E+04 0.  0.
        3    1    3    3  502    0  0.43823095831E+03 -0.70588349840E+03 -0.34848654231E+03  0.90097767260E+03  0.10100000352E+00 0. -1.
       -3    1    3    3    0  502 -0.43823095831E+03  0.70588349840E+03 -0.17219049367E+04  0.19118772207E+04  0.10100000352E+00 0.  1.
</event>
<event>
 5   0  0.5579109E-05  0.1928913E+04  0.7818609E-02  0.8640597E-01
        1   -1    0    0  501    0  0.00000000000E+00  0.00000000000E+00  0.27132701235E+04  0.27132701235E+04  0.50400001928E-02 0. -1.
       -1   -1    0    0    0  501  0.00000000000E+00  0.00000000000E+00 -0.34282493093E+03  0.34282493097E+03  0.50400001928E-02 0.  1.
    10030    2    1    2    0    0  0.00000000000E+00  0.00000000000E+00  0.23704451926E+04  0.30560950545E+04  0.19289133135E+04 0.  0.
        3    1    3    3  502    0 -0.68430875019E+03 -0.36801440288E+03  0.20904787958E+04  0.22302050740E+04  0.10100000352E+00 0. -1.
       -3    1    3    3    0  502  0.68430875019E+03  0.36801440288E+03  0.27996639678E+03  0.82588998047E+03  0.10100000352E+00 0.  1.
</event>
<event>
 5   0  0.1182630E-04  0.1886523E+04  0.7818609E-02  0.8661594E-01
       -2   -1    0    0    0  501  0.00000000000E+00  0.00000000000E+00  0.11683424862E+04  0.11683424862E+04  0.25500000920E-02 0. -1.
        2   -1    0    0  501    0  0.00000000000E+00  0.00000000000E+00 -0.76154196732E+03  0.76154196733E+03  0.25500000920E-02 0.  1.
    10030    2    1    2    0    0  0.00000000000E+00  0.00000000000E+00  0.40680051884E+03  0.19298844535E+04  0.18865225527E+04 0.  0.
        5    1    3    3  502    0 -0.85509032130E+03 -0.28820375993E+03 -0.77648732309E+02  0.90569988431E+03  0.46999998093E+01 0.  1.
       -5    1    3    3    0  502  0.85509032130E+03  0.28820375993E+03  0.48444925115E+03  0.10241845692E+04  0.46999998093E+01 0. -1.
</event>
<event>
 5   0  0.5614989E-05  0.1901267E+04  0.7818609E-02  0.8654226E-01
       -1   -1    0    0    0  501  0.00000000000E+00  0.00000000000E+00  0.13695425932E+04  0.13695425932E+04  0.50400001928E-02 0.  1.
        1   -1    0    0  501    0  0.00000000000E+00  0.00000000000E+00 -0.65985829238E+03  0.65985829240E+03  0.50400001928E-02 0. -1.
    10030    2    1    2    0    0  0.00000000000E+00  0.00000000000E+00  0.70968430078E+03  0.20294008856E+04  0.19012669848E+04 0.  0.
        4    1    3    3  502    0 -0.69451252975E+03 -0.26519756404E+03  0.98724493911E+03  0.12358525740E+04  0.12699999809E+01 0.  1.
       -4    1    3    3    0  502  0.69451252975E+03  0.26519756404E+03 -0.27756063833E+03  0.79354831157E+03  0.12699999809E+01 0. -1.
</event>
<event>
 5   0  0.1118206E-04  0.1895471E+04  0.7818609E-02  0.8657114E-01
        2   -1    0    0  501    0  0.00000000000E+00  0.00000000000E+00  0.99581537871E+03  0.99581537871E+03  0.25500000920E-02 0.  1.
       -2   -1    0    0    0  501  0.00000000000E+00  0.00000000000E+00 -0.90197654358E+03  0.90197654358E+03  0.25500000920E-02 0. -1.
    10030    2    1    2    0    0  0.00000000000E+00  0.00000000000E+00  0.93838835134E+02  0.18977919223E+04  0.18954705098E+04 0.  0.
        1    1    3    3  502    0 -0.16481620351E+03  0.76994061669E+02 -0.88433241262E+03  0.90284898100E+03  0.50400001928E-02 0. -1.
       -1    1    3    3    0  502  0.16481620351E+03 -0.76994061669E+02  0.97817124775E+03  0.99494294129E+03  0.50400001928E-02 0.  1.
</event>
<event>
 5   0  0.1133638E-04  0.1900940E+04  0.7818609E-02  0.8654388E-01
       -2   -1    0    0    0  501  0.00000000000E+00  0.00000000000E+00  0.10494946845E+04  0.10494946845E+04  0.25500000920E-02 0. -1.
        2   -1    0    0  501    0  0.00000000000E+00  0.00000000000E+00 -0.86078918147E+03  0.86078918148E+03  0.25500000920E-02 0.  1.
    10030    2    1    2    0    0  0.00000000000E+00  0.00000000000E+00  0.18870550298E+03  0.19102838659E+04  0.19009404729E+04 0.  0.
        3    1    3    3  502    0 -0.68706464646E+03 -0.12159485090E+03 -0.55422677142E+03  0.89107264605E+03  0.10100000352E+00 0.  1.
       -3    1    3    3    0  502  0.68706464646E+03  0.12159485090E+03  0.74293227440E+03  0.10192112199E+04  0.10100000352E+00 0. -1.
</event>
<event>
 5   0  0.5579109E-05  0.1900750E+04  0.7818609E-02  0.8654483E-01
       -1   -1    0    0    0  501  0.00000000000E+00  0.00000000000E+00  0.94122640652E+03  0.94122640653E+03  0.50400001928E-02 0.  1.
        1   -1    0    0  501    0  0.00000000000E+00  0.00000000000E+00 -0.95961202587E+03  0.95961202588E+03  0.50400001928E-02 0. -1.
    10030    2    1    2    0    0  0.00000000000E+00  0.00000000000E+00 -0.18385619355E+02  0.19008384324E+04  0.19007495140E+04 0.  0.
        3    1    3    3  502    0 -0.44773379497E+03 -0.45844930342E+03  0.69267394428E+03  0.94363049879E+03  0.10100000352E+00 0.  1.
       -3    1    3    3    0  502  0.44773379497E+03  0.45844930342E+03 -0.71105956363E+03  0.95720793363E+03  0.10100000352E+00 0. -1.
</event>
<event>
 5   0  0.1133638E-04  0.1884175E+04  0.7818609E-02  0.8662774E-01
        2   -1    0    0  501    0  0.00000000000E+00  0.00000000000E+00  0.16180729118E+04  0.16180729118E+04  0.25500000920E-02 0.  1.
       -2   -1    0    0    0  501  0.00000000000E+00  0.00000000000E+00 -0.54850983424E+03  0.54850983424E+03  0.25500000920E-02 0. -1.
    10030    2    1    2    0    0  0.00000000000E+00  0.00000000000E+00  0.10695630775E+04  0.21665827460E+04  0.18841750498E+04 0.  0.
        3    1    3    3  502    0 -0.63213421246E+03 -0.66269657387E+02  0.13343797896E+04  0.14780239386E+04  0.10100000352E+00 0. -1.
       -3    1    3    3    0  502  0.63213421246E+03  0.66269657387E+02 -0.26481671206E+03  0.68855880739E+03  0.10100000352E+00 0.  1.
</event>
<event>
 5   0  0.1118206E-04  0.1899225E+04  0.7818609E-02  0.8655242E-01
       -2   -1    0    0    0  501  0.00000000000E+00  0.00000000000E+00  0.12017460935E+04  0.12017460935E+04  0.25500000920E-02 0.  1.
        2   -1    0    0  501    0  0.00000000000E+00  0.00000000000E+00 -0.75037821802E+03  0.75037821803E+03  0.25500000920E-02 0. -1.
    10030    2    1    2    0    0  0.00000000000E+00  0.00000000000E+00  0.45136787545E+03  0.19521243115E+04  0.18992252022E+04 0.  0.
        1    1    3    3  502    0  0.90519241477E+03  0.50433626657E+02  0.51612695697E+03  0.10432180473E+04  0.50400001928E-02 0.  1.
       -1    1    3    3    0  502 -0.90519241477E+03 -0.50433626657E+02 -0.64759081516E+02  0.90890626421E+03  0.50400001928E-02 0. -1.
</event>
<event>
 5   0  0.5824956E-05  0.1824011E+04  0.7818609E-02  0.8693634E-01
       -1   -1    0    0    0  501  0.00000000000E+00  0.00000000000E+00  0.40706095632E+03  0.40706095635E+03  0.50400001928E-02 0.  1.
        1   -1    0    0  501    0  0.00000000000E+00  0.00000000000E+00 -0.20433146369E+04  0.20433146370E+04  0.50400001928E-02 0. -1.
    10030    2    1    2    0    0  0.00000000000E+00  0.00000000000E+00 -0.16362536806E+04  0.24503755933E+04  0.18240105375E+04 0.  0.
        2    1    3    3  502    0  0.20510520696E+02 -0.33095614229E+03  0.32321054462E+03  0.46305259500E+03  0.25500000920E-02 0.  1.
       -2    1    3    3    0  502 -0.20510520696E+02  0.33095614229E+03 -0.19594642252E+04  0.19873229983E+04  0.25500000920E-02 0. -1.
</event>
<event>
 5   0  0.1101678E-04  0.1901201E+04  0.7818609E-02  0.8654259E-01
        2   -1    0    0  501    0  0.00000000000E+00  0.00000000000E+00  0.11061502906E+04  0.11061502906E+04  0.25500000920E-02 0.  1.
       -2   -1    0    0    0  501  0.00000000000E+00  0.00000000000E+00 -0.81692427766E+03  0.81692427767E+03  0.25500000920E-02 0. -1.
    10030    2    1    2    0    0  0.00000000000E+00  0.00000000000E+00  0.28922601293E+03  0.19230745683E+04  0.19012007018E+04 0.  0.
        4    1    3    3  502    0  0.37783084926E+03  0.83309544550E+03  0.40611254208E+03  0.10008662157E+04  0.12699999809E+01 0.  1.
       -4    1    3    3    0  502 -0.37783084926E+03 -0.83309544550E+03 -0.11688652915E+03  0.92220835258E+03  0.12699999809E+01 0. -1.
</event>
<event>
 5   0  0.1141890E-04  0.1912888E+04  0.7818609E-02  0.8648468E-01
       -2   -1    0    0    0  501  0.00000000000E+00  0.00000000000E+00  0.61800424009E+03  0.61800424010E+03  0.25500000920E-02 0.  1.
        2   -1    0    0  501    0  0.00000000000E+00  0.00000000000E+00 -0.14802242712E+04  0.14802242712E+04  0.25500000920E-02 0. -1.
    10030    2    1    2    0    0  0.00000000000E+00  0.00000000000E+00 -0.86222003107E+03  0.20982285113E+04  0.19128877394E+04 0.  0.
        2    1    3    3  502    0  0.99973012457E+02  0.65124924376E+03  0.32936405832E+03  0.73661446065E+03  0.25500000920E-02 0.  1.
       -2    1    3    3    0  502 -0.99973012457E+02 -0.65124924376E+03 -0.11915840894E+04  0.13616140506E+04  0.25500000920E-02 0. -1.
</event>
<event>
 5   0  0.5579109E-05  0.1885938E+04  0.7818609E-02  0.8661888E-01
       -1   -1    0    0    0  501  0.00000000000E+00  0.00000000000E+00  0.43486732940E+03  0.43486732943E+03  0.50400001928E-02 0.  1.
        1   -1    0    0  501    0  0.00000000000E+00  0.00000000000E+00 -0.20447390210E+04  0.20447390210E+04  0.50400001928E-02 0. -1.
    10030    2    1    2    0    0  0.00000000000E+00  0.00000000000E+00 -0.16098716916E+04  0.24796063504E+04  0.18859376420E+04 0.  0.
        3    1    3    3  502    0 -0.45986875408E+03 -0.35129140759E+03  0.17394518414E+03  0.60426969254E+03  0.10100000352E+00 0.  1.
       -3    1    3    3    0  502  0.45986875408E+03  0.35129140759E+03 -0.17838168758E+04  0.18753366579E+04  0.10100000352E+00 0. -1.
</event>
<event>
 5   0  0.5614989E-05  0.1877446E+04  0.7818609E-02  0.8666165E-01
       -1   -1    0    0    0  501  0.00000000000E+00  0.00000000000E+00  0.61450910614E+03  0.61450910617E+03  0.50400001928E-02 0. -1.
        1   -1    0    0  501    0  0.00000000000E+00  0.00000000000E+00 -0.14339912907E+04  0.14339912907E+04  0.50400001928E-02 0.  1.
    10030    2    1    2    0    0  0.00000000000E+00  0.00000000000E+00 -0.81948218454E+03  0.20485003969E+04  0.18774458248E+04 0.  0.
        4    1    3    3  502    0 -0.45954592479E+03  0.23379560822E+03 -0.12656586720E+04  0.13666515029E+04  0.12699999809E+01 0.  1.
       -4    1    3    3    0  502  0.45954592479E+03 -0.23379560822E+03  0.44617648743E+03  0.68184889400E+03  0.12699999809E+01 0. -1.
</event>
<event>
 5   0  0.5628936E-05  0.1931381E+04  0.7818609E-02  0.8639392E-01
       -1   -1    0    0    0  501  0.00000000000E+00  0.00000000000E+00  0.39709435805E+03  0.39709435808E+03  0.50400001928E-02 0.  1.
        1   -1    0    0  501    0  0.00000000000E+00  0.00000000000E+00 -0.23484552367E+04  0.23484552367E+04  0.50400001928E-02 0. -1.
    10030    2    1    2    0    0  0.00000000000E+00  0.00000000000E+00 -0.19513608786E+04  0.27455495948E+04  0.19313811894E+04 0.  0.
        5    1    3    3  502    0 -0.75610847245E+02  0.84454368713E+03 -0.16326216916E+04  0.18396865814E+04  0.46999998093E+01 0. -1.
       -5    1    3    3    0  502  0.75610847245E+02 -0.84454368713E+03 -0.31873918700E+03  0.90586301339E+03  0.46999998093E+01 0.  1.
</event>
<event>
 5   0  0.5614989E-05  0.1947141E+04  0.7818609E-02  0.8631741E-01
       -1   -1    0    0    0  501  0.00000000000E+00  0.00000000000E+00  0.62102521951E+03  0.62102521953E+03  0.50400001928E-02 0.  1.
        1   -1    0    0  501    0  0.00000000000E+00  0.00000000000E+00 -0.15262499800E+04  0.15262499800E+04  0.50400001928E-02 0. -1.
    10030    2    1    2    0    0  0.00000000000E+00  0.00000000000E+00 -0.90522476050E+03  0.21472751996E+04  0.19471412161E+04 0.  0.
        4    1    3    3  502    0 -0.12442775216E+03 -0.89282237830E+03 -0.85813700393E+03  0.12445942291E+04  0.12699999809E+01 0. -1.
       -4    1    3    3    0  502  0.12442775216E+03  0.89282237830E+03 -0.47087756568E+02  0.90268097045E+03  0.12699999809E+01 0.  1.
</event>
<event>
 5   0  0.5841424E-05  0.1883484E+04  0.7818609E-02  0.8663122E-01
        1   -1    0    0  501    0  0.00000000000E+00  0.00000000000E+00  0.72253558362E+03  0.72253558364E+03  0.50400001928E-02 0.  1.
       -1   -1    0    0    0  501  0.00000000000E+00  0.00000000000E+00 -0.12274519072E+04  0.12274519072E+04  0.50400001928E-02 0. -1.
    10030    2    1    2    0    0  0.00000000000E+00  0.00000000000E+00 -0.50491632360E+03  0.19499874909E+04  0.18834836662E+04 0.  0.
        1    1    3    3  502    0 -0.68730375321E+03  0.11120975034E+03  0.40406455821E+03  0.80499827638E+03  0.50400001928E-02 0.  1.
       -1    1    3    3    0  502  0.68730375321E+03 -0.11120975034E+03 -0.90898088181E+03  0.11449892145E+04  0.50400001928E-02 0. -1.
</event>
<event>
 5   0  0.1182630E-04  0.1900650E+04  0.7818609E-02  0.8654533E-01
       -2   -1    0    0    0  501  0.00000000000E+00  0.00000000000E+00  0.56731885177E+03  0.56731885177E+03  0.25500000920E-02 0.  1.
        2   -1    0    0  501    0  0.00000000000E+00  0.00000000000E+00 -0.15919041473E+04  0.15919041473E+04  0.25500000920E-02 0. -1.
    10030    2    1    2    0    0  0.00000000000E+00  0.00000000000E+00 -0.10245852955E+04  0.21592229990E+04  0.19006496078E+04 0.  0.
        5    1    3    3  502    0  0.51837329809E+03  0.78731638075E+03 -0.37541371237E+03  0.10146602904E+04  0.46999998093E+01 0.  1.
       -5    1    3    3    0  502 -0.51837329809E+03 -0.78731638075E+03 -0.64917158311E+03  0.11445627086E+04  0.46999998093E+01 0. -1.
</event>
<event>
 5   0  0.5614989E-05  0.1950579E+04  0.7818609E-02  0.8630082E-01
        1   -1    0    0  501    0  0.00000000000E+00  0.00000000000E+00  0.14248291214E+04  0.14248291214E+04  0.50400001928E-02 0. -1.
       -1   -1    0    0    0  501  0.00000000000E+00  0.00000000000E+00 -0.66758125482E+03  0.66758125484E+03  0.50400001928E-02 0.  1.
    10030    2    1    2    0    0  0.00000000000E+00  0.00000000000E+00  0.75724786658E+03  0.20924103762E+04  0.19505785940E+04 0.  0.
        4    1    3    3  502    0  0.12315148326E+03  0.68572785028E+02  0.14138439543E+04  0.14208535655E+04  0.12699999809E+01 0. -1.
       -4    1    3    3    0  502 -0.12315148326E+03 -0.68572785028E+02 -0.65659608773E+03  0.67155681070E+03  0.12699999809E+01 0.  1.
</event>
<event>
 5   0  0.4061125E-05  0.1904430E+04  0.7818609E-02  0.8652654E-01
       -4   -1    0    0    0  501  0.00000000000E+00  0.00000000000E+00  0.11297902718E+04  0.11297909856E+04  0.12699999809E+01 0. -1.
        4   -1    0    0  501    0  0.00000000000E+00  0.00000000000E+00 -0.80254890495E+03  0.80254990981E+03  0.12699999809E+01 0.  1.
    10030    2    1    2    0    0  0.00000000000E+00  0.00000000000E+00  0.32724136683E+03  0.19323408954E+04  0.19044302098E+04 0.  0.
        1    1    3    3  502    0 -0.51706238918E+03  0.73321963438E+03  0.48727684908E+03  0.10209815249E+04  0.50400001928E-02 0. -1.
       -1    1    3    3    0  502  0.51706238918E+03 -0.73321963438E+03 -0.16003548225E+03  0.91135937047E+03  0.50400001928E-02 0.  1.
</event>
<event>
 5   0  0.1133638E-04  0.1890609E+04  0.7818609E-02  0.8659545E-01
        2   -1    0    0  501    0  0.00000000000E+00  0.00000000000E+00  0.27510776286E+04  0.27510776286E+04  0.25500000920E-02 0.  1.
       -2   -1    0    0    0  501  0.00000000000E+00  0.00000000000E+00 -0.32481842989E+03  0.32481842990E+03  0.25500000920E-02 0. -1.
    10030    2    1    2    0    0  0.00000000000E+00  0.00000000000E+00  0.24262591987E+04  0.30758960585E+04  0.18906091250E+04 0.  0.
        3    1    3    3  502    0  0.34505831491E+03  0.51276527219E+03  0.23768221308E+04  0.24558658182E+04  0.10100000352E+00 0.  1.
       -3    1    3    3    0  502 -0.34505831491E+03 -0.51276527219E+03  0.49437067895E+02  0.62003024034E+03  0.10100000352E+00 0. -1.
</event>
<event>
 5   0  0.1133638E-04  0.1886129E+04  0.7818609E-02  0.8661792E-01
       -2   -1    0    0    0  501  0.00000000000E+00  0.00000000000E+00  0.17235614654E+04  0.17235614654E+04  0.25500000920E-02 0.  1.
        2   -1    0    0  501    0  0.00000000000E+00  0.00000000000E+00 -0.51600777359E+03  0.51600777359E+03  0.25500000920E-02 0. -1.
    10030    2    1    2    0    0  0.00000000000E+00  0.00000000000E+00  0.12075536918E+04  0.22395692390E+04  0.18861294912E+04 0.  0.
        3    1    3    3  502    0  0.76461331534E+03  0.86801902181E+02 -0.43543997451E+02  0.77075559170E+03  0.10100000352E+00 0. -1.
       -3    1    3    3    0  502 -0.76461331534E+03 -0.86801902181E+02  0.12510976893E+04  0.14688136473E+04  0.10100000352E+00 0.  1.
</event>
<event>
 5   0  0.5628936E-05  0.1905927E+04  0.7818609E-02  0.8651912E-01
        1   -1    0    0  501    0  0.00000000000E+00  0.00000000000E+00  0.20609730373E+04  0.20609730373E+04  0.50400001928E-02 0. -1.
       -1   -1    0    0    0  501  0.00000000000E+00  0.00000000000E+00 -0.44063617923E+03  0.44063617926E+03  0.50400001928E-02 0.  1.
    10030    2    1    2    0    0  0.00000000000E+00  0.00000000000E+00  0.16203368581E+04  0.25016092166E+04  0.19059268451E+04 0.  0.
        5    1    3    3  502    0  0.12384027840E+03  0.45837902867E+03 -0.27430389714E+03  0.54837256174E+03  0.46999998093E+01 0.  1.
       -5    1    3    3    0  502 -0.12384027840E+03 -0.45837902867E+03  0.18946407552E+04  0.19532366548E+04  0.46999998093E+01 0. -1.
</event>
<event>
 5   0  0.1182630E-04  0.1901384E+04  0.7818609E-02  0.8654168E-01
        2   -1    0    0  501    0  0.00000000000E+00  0.00000000000E+00  0.12011561303E+04  0.12011561303E+04  0.25500000920E-02 0.  1.
       -2   -1    0    0    0  501  0.00000000000E+00  0.00000000000E+00 -0.75245475316E+03  0.75245475316E+03  0.25500000920E-02 0. -1.
    10030    2    1    2    0    0  0.00000000000E+00  0.00000000000E+00  0.44870137715E+03  0.19536108835E+04  0.19013843794E+04 0.  0.
        5    1    3    3  502    0 -0.52288263596E+03 -0.34879523573E+03  0.95719457580E+03  0.11451235363E+04  0.46999998093E+01 0.  1.
       -5    1    3    3    0  502  0.52288263596E+03  0.34879523573E+03 -0.50849319865E+03  0.80848734716E+03  0.46999998093E+01 0. -1.
</event>
<event>
 5   0  0.1133638E-04  0.1925650E+04  0.7818609E-02  0.8642193E-01
       -2   -1    0    0    0  501  0.00000000000E+00  0.00000000000E+00  0.66532718637E+03  0.66532718638E+03  0.25500000920E-02 0. -1.
        2   -1    0    0  501    0  0.00000000000E+00  0.00000000000E+00 -0.13933472168E+04  0.13933472168E+04  0.25500000920E-02 0.  1.
    10030    2    1    2    0    0  0.00000000000E+00  0.00000000000E+00 -0.72802003041E+03  0.20586744032E+04  0.19256497952E+04 0.  0.
        3    1    3    3  502    0 -0.37094408354E+03 -0.43039731403E+03 -0.11950028355E+04  0.13232056333E+04  0.10100000352E+00 0.  1.
       -3    1    3    3    0  502  0.37094408354E+03  0.43039731403E+03  0.46698280505E+03  0.73546876987E+03  0.10100000352E+00 0. -1.
</event>
<event>
 5   0  0.5579109E-05  0.1895605E+04  0.7818609E-02  0.8657047E-01
       -1   -1    0    0    0  501  0.00000000000E+00  0.00000000000E+00  0.12934104874E+04  0.12934104874E+04  0.50400001928E-02 0. -1.
        1   -1    0    0  501    0  0.00000000000E+00  0.00000000000E+00 -0.69454301613E+03  0.69454301615E+03  0.50400001928E-02 0.  1.
    10030    2    1    2    0    0  0.00000000000E+00  0.00000000000E+00  0.59886747131E+03  0.19879535036E+04  0.18956046223E+04 0.  0.
        3    1    3    3  502    0 -0.25192298905E+03 -0.56770312151E+03 -0.45139018237E+03  0.76779237657E+03  0.10100000352E+00 0.  1.
       -3    1    3    3    0  502  0.25192298905E+03  0.56770312151E+03  0.10502576537E+04  0.12201611270E+04  0.10100000352E+00 0. -1.
</event>
<event>
 5   0  0.5579109E-05  0.1905917E+04  0.7818609E-02  0.8651917E-01
        1   -1    0    0  501    0  0.00000000000E+00  0.00000000000E+00  0.14929264587E+04  0.14929264587E+04  0.50400001928E-02 0.  1.
       -1   -1    0    0    0  501  0.00000000000E+00  0.00000000000E+00 -0.60828814652E+03  0.60828814654E+03  0.50400001928E-02 0. -1.
    10030    2    1    2    0    0  0.00000000000E+00  0.00000000000E+00  0.88463831214E+03  0.21012146052E+04  0.19059165443E+04 0.  0.
        3    1    3    3  502    0  0.67241568566E+03 -0.27016403241E+03  0.11246025226E+04  0.13378573552E+04  0.10100000352E+00 0.  1.
       -3    1    3    3    0  502 -0.67241568566E+03  0.27016403241E+03 -0.23996421045E+03  0.76335725006E+03  0.10100000352E+00 0. -1.
</event>
<event>
 5   0  0.5614989E-05  0.1886063E+04  0.7818609E-02  0.8661825E-01
       -1   -1    0    0    0  501  0.00000000000E+00  0.00000000000E+00  0.55812123425E+03  0.55812123427E+03  0.50400001928E-02 0.  1.
        1   -1    0    0  501    0  0.00000000000E+00  0.00000000000E+00 -0.15933966951E+04  0.15933966951E+04  0.50400001928E-02 0. -1.
    10030    2    1    2    0    0  0.00000000000E+00  0.00000000000E+00 -0.10352754609E+04  0.21515179294E+04  0.18860631274E+04 0.  0.
        4    1    3    3  502    0  0.62518748025E+03 -0.20083720213E+03  0.25446405231E+03  0.70423613514E+03  0.12699999809E+01 0.  1.
       -4    1    3    3    0  502 -0.62518748025E+03  0.20083720213E+03 -0.12897395132E+04  0.14472817942E+04  0.12699999809E+01 0. -1.
</event>
<event>
 5   0  0.1118206E-04  0.1905741E+04  0.7818609E-02  0.8652004E-01
       -2   -1    0    0    0  501  0.00000000000E+00  0.00000000000E+00  0.60813956571E+03  0.60813956571E+03  0.25500000920E-02 0.  1.
        2   -1    0    0  501    0  0.00000000000E+00  0.00000000000E+00 -0.14930167578E+04  0.14930167578E+04  0.25500000920E-02 0. -1.
    10030    2    1    2    0    0  0.00000000000E+00  0.00000000000E+00 -0.88487719207E+03  0.21011563235E+04  0.19057413913E+04 0.  0.
        1    1    3    3  502    0  0.41984335028E+03 -0.61424245950E+03  0.21392041743E+03  0.77416030824E+03  0.50400001928E-02 0.  1.
       -1    1    3    3    0  502 -0.41984335028E+03  0.61424245950E+03 -0.10987976095E+04  0.13269960153E+04  0.50400001928E-02 0. -1.
</event>
<event>
 5   0  0.4061125E-05  0.1893845E+04  0.7818609E-02  0.8657926E-01
       -4   -1    0    0    0  501  0.00000000000E+00  0.00000000000E+00  0.74681644115E+03  0.74681752100E+03  0.12699999809E+01 0.  1.
        4   -1    0    0  501    0  0.00000000000E+00  0.00000000000E+00 -0.12006437321E+04  0.12006444038E+04  0.12699999809E+01 0. -1.
    10030    2    1    2    0    0  0.00000000000E+00  0.00000000000E+00 -0.45382729100E+03  0.19474619248E+04  0.18938449616E+04 0.  0.
        4    1    3    3  502    0 -0.46993786925E+03  0.30814475781E+03 -0.10106363856E+04  0.11563659929E+04  0.12699999809E+01 0. -1.
       -4    1    3    3    0  502  0.46993786925E+03 -0.30814475781E+03  0.55680909463E+03  0.79109593191E+03  0.12699999809E+01 0.  1.
</event>
<event>
 5   0  0.1141890E-04  0.1897046E+04  0.7818609E-02  0.8656328E-01
       -2   -1    0    0    0  501  0.00000000000E+00  0.00000000000E+00  0.66535300720E+03  0.66535300720E+03  0.25500000920E-02 0. -1.
        2   -1    0    0  501    0  0.00000000000E+00  0.00000000000E+00 -0.13522086533E+04  0.13522086533E+04  0.25500000920E-02 0.  1.
    10030    2    1    2    0    0  0.00000000000E+00  0.00000000000E+00 -0.68685564611E+03  0.20175616605E+04  0.18970462238E+04 0.  0.
        2    1    3    3  502    0 -0.18164049267E+03 -0.88731126814E+03 -0.43781702248E+02  0.90676975722E+03  0.25500000920E-02 0. -1.
       -2    1    3    3    0  502  0.18164049267E+03  0.88731126814E+03 -0.64307394386E+03  0.11107919033E+04  0.25500000920E-02 0.  1.
</event>
<event>
 5   0  0.1133638E-04  0.1899685E+04  0.7818609E-02  0.8655013E-01
       -2   -1    0    0    0  501  0.00000000000E+00  0.00000000000E+00  0.41655285726E+03  0.41655285727E+03  0.25500000920E-02 0. -1.
        2   -1    0    0  501    0  0.00000000000E+00  0.00000000000E+00 -0.21658726024E+04  0.21658726024E+04  0.25500000920E-02 0.  1.
    10030    2    1    2    0    0  0.00000000000E+00  0.00000000000E+00 -0.17493197451E+04  0.25824254596E+04  0.18996846275E+04 0.  0.
        3    1    3    3  502    0  0.65733982249E+03  0.10493791013E+03 -0.17957381262E+04  0.19151456956E+04  0.10100000352E+00 0.  1.
       -3    1    3    3    0  502 -0.65733982249E+03 -0.10493791013E+03  0.46418381091E+02  0.66727976405E+03  0.10100000352E+00 0. -1.
</event>
<event>
 5   0  0.5614989E-05  0.1890774E+04  0.7818609E-02  0.8659463E-01
       -1   -1    0    0    0  501  0.00000000000E+00  0.00000000000E+00  0.56009656343E+03  0.56009656346E+03  0.50400001928E-02 0. -1.
        1   -1    0    0  501    0  0.00000000000E+00  0.00000000000E+00 -0.15957180236E+04  0.15957180236E+04  0.50400001928E-02 0.  1.
    10030    2    1    2    0    0  0.00000000000E+00  0.00000000000E+00 -0.10356214602E+04  0.21558145871E+04  0.18907735785E+04 0.  0.
        4    1    3    3  502    0  0.73662314860E+03 -0.59240728689E+03 -0.53371247574E+03  0.10855462571E+04  0.12699999809E+01 0. -1.
       -4    1    3    3    0  502 -0.73662314860E+03  0.59240728689E+03 -0.50190898445E+03  0.10702683300E+04  0.12699999809E+01 0.  1.
</event>
<event>
 5   0  0.5841424E-05  0.1914459E+04  0.7818609E-02  0.8647693E-01
        1   -1    0    0  501    0  0.00000000000E+00  0.00000000000E+00  0.20874654954E+04  0.20874654954E+04  0.50400001928E-02 0.  1.
       -1   -1    0    0    0  501  0.00000000000E+00  0.00000000000E+00 -0.43894761302E+03  0.43894761305E+03  0.50400001928E-02 0. -1.
    10030    2    1    2    0    0  0.00000000000E+00  0.00000000000E+00  0.16485178824E+04  0.25264131084E+04  0.19144586666E+04 0.  0.
        1    1    3    3  502    0 -0.18874547945E+03 -0.89941923816E+03  0.47087834016E+03  0.10326210502E+04  0.50400001928E-02 0. -1.
       -1    1    3    3    0  502  0.18874547945E+03  0.89941923816E+03  0.11776395422E+04  0.14937920583E+04  0.50400001928E-02 0.  1.
</event>
<event>
 5   0  0.1133638E-04  0.1891171E+04  0.7818609E-02  0.8659264E-01
       -2   -1    0    0    0  501  0.00000000000E+00  0.00000000000E+00  0.47081507821E+03  0.47081507822E+03  0.25500000920E-02 0.  1.
        2   -1    0    0  501    0  0.00000000000E+00  0.00000000000E+00 -0.18991147703E+04  0.18991147703E+04  0.25500000920E-02 0. -1.
    10030    2    1    2    0    0  0.00000000000E+00  0.00000000000E+00 -0.14282996921E+04  0.23699298485E+04  0.18911709274E+04 0.  0.
        3    1    3    3  502    0  0.46295634938E+03  0.43761772813E+03  0.16153009685E+03  0.65721369416E+03  0.10100000352E+00 0.  1.
       -3    1    3    3    0  502 -0.46295634938E+03 -0.43761772813E+03 -0.15898297889E+04  0.17127161544E+04  0.10100000352E+00 0. -1.
</event>
<event>
 5   0  0.1182630E-04  0.1898216E+04  0.7818609E-02  0.8655745E-01
       -2   -1    0    0    0  501  0.00000000000E+00  0.00000000000E+00  0.61045675929E+03  0.61045675929E+03  0.25500000920E-02 0. -1.
        2   -1    0    0  501    0  0.00000000000E+00  0.00000000000E+00 -0.14756263528E+04  0.14756263528E+04  0.25500000920E-02 0.  1.
    10030    2    1    2    0    0  0.00000000000E+00  0.00000000000E+00 -0.86516959354E+03  0.20860831121E+04  0.18982160902E+04 0.  0.
        5    1    3    3  502    0 -0.60644264838E+03 -0.70696560631E+03 -0.23230989784E+03  0.95998074611E+03  0.46999998093E+01 0.  1.
       -5    1    3    3    0  502  0.60644264838E+03  0.70696560631E+03 -0.63285969570E+03  0.11261023660E+04  0.46999998093E+01 0. -1.
</event>
<event>
 5   0  0.5579109E-05  0.1896486E+04  0.7818609E-02  0.8656607E-01
       -1   -1    0    0    0  501  0.00000000000E+00  0.00000000000E+00  0.72375305098E+03  0.72375305099E+03  0.50400001928E-02 0.  1.
        1   -1    0    0  501    0  0.00000000000E+00  0.00000000000E+00 -0.12423645280E+04  0.12423645280E+04  0.50400001928E-02 0. -1.
    10030    2    1    2    0    0  0.00000000000E+00  0.00000000000E+00 -0.51861147704E+03  0.19661175790E+04  0.18964863486E+04 0.  0.
        3    1    3    3  502    0  0.91803627342E+03  0.22802452038E+03 -0.19069953104E+03  0.96496222857E+03  0.10100000352E+00 0. -1.
       -3    1    3    3    0  502 -0.91803627342E+03 -0.22802452038E+03 -0.32791194600E+03  0.10011553505E+04  0.10100000352E+00 0.  1.
</event>
<event>
 5   0  0.5614989E-05  0.1906503E+04  0.7818609E-02  0.8651626E-01
       -1   -1    0    0    0  501  0.00000000000E+00  0.00000000000E+00  0.86287118605E+03  0.86287118606E+03  0.50400001928E-02 0.  1.
        1   -1    0    0  501    0  0.00000000000E+00  0.00000000000E+00 -0.10530986822E+04  0.10530986822E+04  0.50400001928E-02 0. -1.
    10030    2    1    2    0    0  0.00000000000E+00  0.00000000000E+00 -0.19022749618E+03  0.19159698683E+04  0.19065030910E+04 0.  0.
        4    1    3    3  502    0 -0.61984344134E+02 -0.60057070929E+03  0.64622095875E+03  0.88438135225E+03  0.12699999809E+01 0.  1.
       -4    1    3    3    0  502  0.61984344134E+02  0.60057070929E+03 -0.83644845493E+03  0.10315885160E+04  0.12699999809E+01 0. -1.
</event>
<event>
 5   0  0.5824956E-05  0.1905692E+04  0.7818609E-02  0.8652028E-01
        1   -1    0    0  501    0  0.00000000000E+00  0.00000000000E+00  0.65956693698E+03  0.65956693700E+03  0.50400001928E-02 0. -1.
       -1   -1    0    0    0  501  0.00000000000E+00  0.00000000000E+00 -0.13765329883E+04  0.13765329883E+04  0.50400001928E-02 0.  1.
    10030    2    1    2    0    0  0.00000000000E+00  0.00000000000E+00 -0.71696605134E+03  0.20360999253E+04  0.19056921544E+04 0.  0.
        2    1    3    3  502    0 -0.70569212296E+02  0.86760875237E+03  0.55581326165E+02  0.87224666508E+03  0.25500000920E-02 0. -1.
       -2    1    3    3    0  502  0.70569212296E+02 -0.86760875237E+03 -0.77254737751E+03  0.11638532603E+04  0.25500000920E-02 0.  1.
</event>
<event>
 5   0  0.1101678E-04  0.1898416E+04  0.7818609E-02  0.8655645E-01
        2   -1    0    0  501    0  0.00000000000E+00  0.00000000000E+00  0.88140638692E+03  0.88140638692E+03  0.25500000920E-02 0.  1.
       -2   -1    0    0    0  501  0.00000000000E+00  0.00000000000E+00 -0.10222249542E+04  0.10222249542E+04  0.25500000920E-02 0. -1.
    10030    2    1    2    0    0  0.00000000000E+00  0.00000000000E+00 -0.14081856725E+03  0.19036313411E+04  0.18984157642E+04 0.  0.
        4    1    3    3  502    0  0.45846645899E+03  0.30514384110E+03 -0.84563721615E+03  0.10091621138E+04  0.12699999809E+01 0. -1.
       -4    1    3    3    0  502 -0.45846645899E+03 -0.30514384110E+03  0.70481864890E+03  0.89446922726E+03  0.12699999809E+01 0.  1.
</event>
<event>
 5   0  0.5628936E-05  0.1903015E+04  0.7818609E-02  0.8653357E-01
        1   -1    0    0  501    0  0.00000000000E+00  0.00000000000E+00  0.19254514403E+04  0.19254514403E+04  0.50400001928E-02 0.  1.
       -1   -1    0    0    0  501  0.00000000000E+00  0.00000000000E+00 -0.47020996673E+03  0.47020996675E+03  0.50400001928E-02 0. -1.
    10030    2    1    2    0    0  0.00000000000E+00  0.00000000000E+00  0.14552414736E+04  0.23956614071E+04  0.19030149319E+04 0.  0.
        5    1    3    3  502    0 -0.23925269142E+03 -0.34473801139E+03  0.18026589638E+04  0.18508613067E+04  0.46999998093E+01 0.  1.
       -5    1    3    3    0  502  0.23925269142E+03  0.34473801139E+03 -0.34741749022E+03  0.54480010037E+03  0.46999998093E+01 0. -1.
</event>
<event>
 5   0  0.1182630E-04  0.1877437E+04  0.7818609E-02  0.8666170E-01
       -2   -1    0    0    0  501  0.00000000000E+00  0.00000000000E+00  0.52513632230E+03  0.52513632231E+03  0.25500000920E-02 0.  1.
        2   -1    0    0  501    0  0.00000000000E+00  0.00000000000E+00 -0.16780255957E+04  0.16780255957E+04  0.25500000920E-02 0. -1.
    10030    2    1    2    0    0  0.00000000000E+00  0.00000000000E+00 -0.11528892733E+04  0.22031619180E+04  0.18774367526E+04 0.  0.
        5    1    3    3  502    0  0.54829161914E+03  0.59953436734E+03 -0.24646376966E+02  0.81283128085E+03  0.46999998093E+01 0.  1.
       -5    1    3    3    0  502 -0.54829161914E+03 -0.59953436734E+03 -0.11282428964E+04  0.13903306371E+04  0.46999998093E+01 0. -1.
</event>
<event>
 5   0  0.5824956E-05  0.1883890E+04  0.7818609E-02  0.8662917E-01
        1   -1    0    0  501    0  0.00000000000E+00  0.00000000000E+00  0.89620442660E+03  0.89620442662E+03  0.50400001928E-02 0.  1.
       -1   -1    0    0    0  501  0.00000000000E+00  0.00000000000E+00 -0.99002016391E+03  0.99002016392E+03  0.50400001928E-02 0. -1.
    10030    2    1    2    0    0  0.00000000000E+00  0.00000000000E+00 -0.93815737305E+02  0.18862245905E+04  0.18838900747E+04 0.  0.
        2    1    3    3  502    0 -0.71726458407E+01 -0.64769290493E+03 -0.73164342355E+03  0.97716919987E+03  0.25500000920E-02 0. -1.
       -2    1    3    3    0  502  0.71726458407E+01  0.64769290493E+03  0.63782768625E+03  0.90905539066E+03  0.25500000920E-02 0.  1.
</event>
<event>
 5   0  0.1118206E-04  0.1899958E+04  0.7818609E-02  0.8654878E-01
       -2   -1    0    0    0  501  0.00000000000E+00  0.00000000000E+00  0.49197249413E+03  0.49197249414E+03  0.25500000920E-02 0.  1.
        2   -1    0    0  501    0  0.00000000000E+00  0.00000000000E+00 -0.18343701864E+04  0.18343701864E+04  0.25500000920E-02 0. -1.
    10030    2    1    2    0    0  0.00000000000E+00  0.00000000000E+00 -0.13423976922E+04  0.23263426805E+04  0.18999575529E+04 0.  0.
        1    1    3    3  502    0  0.53703479465E+03 -0.13929160509E+03  0.27299447284E+03  0.61833203390E+03  0.50400001928E-02 0.  1.
       -1    1    3    3    0  502 -0.53703479465E+03  0.13929160509E+03 -0.16153921651E+04  0.17080106466E+04  0.50400001928E-02 0. -1.
</event>
<event>
 5   0  0.5628936E-05  0.1884738E+04  0.7818609E-02  0.8662491E-01
       -1   -1    0    0    0  501  0.00000000000E+00  0.00000000000E+00  0.14693920097E+04  0.14693920097E+04  0.50400001928E-02 0.  1.
        1   -1    0    0  501    0  0.00000000000E+00  0.00000000000E+00 -0.60437202472E+03  0.60437202474E+03  0.50400001928E-02 0. -1.
    10030    2    1    2    0    0  0.00000000000E+00  0.00000000000E+00  0.86501998497E+03  0.20737640344E+04  0.18847380975E+04 0.  0.
        5    1    3    3  502    0 -0.56646506458E+03 -0.58755428135E+03 -0.85837338529E+02  0.82066609630E+03  0.46999998093E+01 0. -1.
       -5    1    3    3    0  502  0.56646506458E+03  0.58755428135E+03  0.95085732350E+03  0.12530979381E+04  0.46999998093E+01 0.  1.
</event>
<event>
 5   0  0.5824956E-05  0.1899345E+04  0.7818609E-02  0.8655183E-01
        1   -1    0    0  501    0  0.00000000000E+00  0.00000000000E+00  0.90110854929E+03  0.90110854931E+03  0.50400001928E-02 0. -1.
       -1   -1    0    0    0  501  0.00000000000E+00  0.00000000000E+00 -0.10008533471E+04  0.10008533471E+04  0.50400001928E-02 0.  1.
    10030    2    1    2    0    0  0.00000000000E+00  0.00000000000E+00 -0.99744797779E+02  0.19019618964E+04  0.18993446319E+04 0.  0.
        2    1    3    3  502    0  0.57117353241E+03  0.61765808003E+03  0.39134433101E+03  0.92784217050E+03  0.25500000920E-02 0. -1.
       -2    1    3    3    0  502 -0.57117353241E+03 -0.61765808003E+03 -0.49108912878E+03  0.97411972589E+03  0.25500000920E-02 0.  1.
</event>
<event>
 5   0  0.1141890E-04  0.1836601E+04  0.7818609E-02  0.8687074E-01
       -2   -1    0    0    0  501  0.00000000000E+00  0.00000000000E+00  0.97698508251E+03  0.97698508251E+03  0.25500000920E-02 0. -1.
        2   -1    0    0  501    0  0.00000000000E+00  0.00000000000E+00 -0.86314073750E+03  0.86314073750E+03  0.25500000920E-02 0.  1.
    10030    2    1    2    0    0  0.00000000000E+00  0.00000000000E+00  0.11384434501E+03  0.18401258200E+04  0.18366008000E+04 0.  0.
        2    1    3    3  502    0 -0.22208430486E+03 -0.78440709736E+03 -0.36657063648E+03  0.89386238560E+03  0.25500000920E-02 0.  1.
       -2    1    3    3    0  502  0.22208430486E+03  0.78440709736E+03  0.48041498149E+03  0.94626343441E+03  0.25500000920E-02 0. -1.
</event>
<event>
 5   0  0.1141890E-04  0.1921562E+04  0.7818609E-02  0.8644197E-01
        2   -1    0    0  501    0  0.00000000000E+00  0.00000000000E+00  0.15241626717E+04  0.15241626717E+04  0.25500000920E-02 0.  1.
       -2   -1    0    0    0  501  0.00000000000E+00  0.00000000000E+00 -0.60564409856E+03  0.60564409856E+03  0.25500000920E-02 0. -1.
    10030    2    1    2    0    0  0.00000000000E+00  0.00000000000E+00  0.91851857315E+03  0.21298067703E+04  0.19215619973E+04 0.  0.
        2    1    3    3  502    0  0.23394142683E+03 -0.41500979235E+03 -0.46551043141E+03  0.66607933513E+03  0.25500000920E-02 0. -1.
       -2    1    3    3    0  502 -0.23394142683E+03  0.41500979235E+03  0.13840290046E+04  0.14637274351E+04  0.25500000920E-02 0.  1.
</event>
<event>
 5   0  0.1101678E-04  0.1883688E+04  0.7818609E-02  0.8663019E-01
       -2   -1    0    0    0  501  0.00000000000E+00  0.00000000000E+00  0.88227370839E+03  0.88227370840E+03  0.25500000920E-02 0. -1.
        2   -1    0    0  501    0  0.00000000000E+00  0.00000000000E+00 -0.10054361913E+04  0.10054361913E+04  0.25500000920E-02 0.  1.
    10030    2    1    2    0    0  0.00000000000E+00  0.00000000000E+00 -0.12316248294E+03  0.18877098997E+04  0.18836877842E+04 0.  0.
        4    1    3    3  502    0  0.44167472268E+03  0.11739303150E+03 -0.88687512217E+03  0.99770074658E+03  0.12699999809E+01 0.  1.
       -4    1    3    3    0  502 -0.44167472268E+03 -0.11739303150E+03  0.76371263923E+03  0.89000915316E+03  0.12699999809E+01 0. -1.
</event>
<event>
 5   0  0.1141890E-04  0.1892018E+04  0.7818609E-02  0.8658840E-01
       -2   -1    0    0    0  501  0.00000000000E+00  0.00000000000E+00  0.63440604264E+03  0.63440604264E+03  0.25500000920E-02 0.  1.
        2   -1    0    0  501    0  0.00000000000E+00  0.00000000000E+00 -0.14106634618E+04  0.14106634618E+04  0.25500000920E-02 0. -1.
    10030    2    1    2    0    0  0.00000000000E+00  0.00000000000E+00 -0.77625741916E+03  0.20450695044E+04  0.18920184188E+04 0.  0.
        2    1    3    3  502    0 -0.33203424500E+03 -0.44669528261E+03 -0.12149588903E+04  0.13363788836E+04  0.25500000920E-02 0. -1.
       -2    1    3    3    0  502  0.33203424500E+03  0.44669528261E+03  0.43870147112E+03  0.70869062088E+03  0.25500000920E-02 0.  1.
</event>
<event>
 5   0  0.1141890E-04  0.1895468E+04  0.7818609E-02  0.8657116E-01
       -2   -1    0    0    0  501  0.00000000000E+00  0.00000000000E+00  0.88954516791E+03  0.88954516791E+03  0.25500000920E-02 0.  1.
        2   -1    0    0  501    0  0.00000000000E+00  0.00000000000E+00 -0.10097290772E+04  0.10097290772E+04  0.25500000920E-02 0. -1.
    10030    2    1    2    0    0  0.00000000000E+00  0.00000000000E+00 -0.12018390925E+03  0.18992742451E+04  0.18954678805E+04 0.  0.
        2    1    3    3  502    0  0.25446011414E+03 -0.44499202861E+03 -0.85883246345E+03  0.10001805115E+04  0.25500000920E-02 0. -1.
       -2    1    3    3    0  502 -0.25446011414E+03  0.44499202861E+03  0.73864855420E+03  0.89909373362E+03  0.25500000920E-02 0.  1.
</event>
<event>
 5   0  0.1133638E-04  0.1908656E+04  0.7818609E-02  0.8650560E-01
       -2   -1    0    0    0  501  0.00000000000E+00  0.00000000000E+00  0.67201828419E+03  0.67201828420E+03  0.25500000920E-02 0. -1.
        2   -1    0    0  501    0  0.00000000000E+00  0.00000000000E+00 -0.13552331870E+04  0.13552331870E+04  0.25500000920E-02 0.  1.
    10030    2    1    2    0    0  0.00000000000E+00  0.00000000000E+00 -0.68321490282E+03  0.20272514712E+04  0.19086555279E+04 0.  0.
        3    1    3    3  502    0  0.78278878001E+03 -0.51364764578E+03 -0.14532976676E+03  0.94747713927E+03  0.10100000352E+00 0. -1.
       -3    1    3    3    0  502 -0.78278878001E+03  0.51364764578E+03 -0.53788513606E+03  0.10797743319E+04  0.10100000352E+00 0.  1.
</event>
<event>
 5   0  0.5614989E-05  0.1901478E+04  0.7818609E-02  0.8654121E-01
       -1   -1    0    0    0  501  0.00000000000E+00  0.00000000000E+00  0.13316751087E+04  0.13316751087E+04  0.50400001928E-02 0.  1.
        1   -1    0    0  501    0  0.00000000000E+00  0.00000000000E+00 -0.67877282333E+03  0.67877282335E+03  0.50400001928E-02 0. -1.
    10030    2    1    2    0    0  0.00000000000E+00  0.00000000000E+00  0.65290228539E+03  0.20104479321E+04  0.19014782390E+04 0.  0.
        4    1    3    3  502    0  0.31743730080E+03 -0.53339247991E+03  0.10878811491E+04  0.12525018902E+04  0.12699999809E+01 0.  1.
       -4    1    3    3    0  502 -0.31743730080E+03  0.53339247991E+03 -0.43497886371E+03  0.75794604184E+03  0.12699999809E+01 0. -1.
</event>
<event>
 5   0  0.5841424E-05  0.1904718E+04  0.7818609E-02  0.8652511E-01
       -1   -1    0    0    0  501  0.00000000000E+00  0.00000000000E+00  0.93038988572E+03  0.93038988574E+03  0.50400001928E-02 0. -1.
        1   -1    0    0  501    0  0.00000000000E+00  0.00000000000E+00 -0.97484714166E+03  0.97484714168E+03  0.50400001928E-02 0.  1.
    10030    2    1    2    0    0  0.00000000000E+00  0.00000000000E+00 -0.44457255941E+02  0.19052370274E+04  0.19047182687E+04 0.  0.
        1    1    3    3  502    0  0.17968286402E+03 -0.68145874014E+03  0.61850494216E+03  0.93766748351E+03  0.50400001928E-02 0. -1.
       -1    1    3    3    0  502 -0.17968286402E+03  0.68145874014E+03 -0.66296219810E+03  0.96756954390E+03  0.50400001928E-02 0.  1.
</event>
<event>
 5   0  0.5579109E-05  0.1903619E+04  0.7818609E-02  0.8653057E-01
        1   -1    0    0  501    0  0.00000000000E+00  0.00000000000E+00  0.22768003878E+04  0.22768003878E+04  0.50400001928E-02 0.  1.
       -1   -1    0    0    0  501  0.00000000000E+00  0.00000000000E+00 -0.39790117868E+03  0.39790117872E+03  0.50400001928E-02 0. -1.
    10030    2    1    2    0    0  0.00000000000E+00  0.00000000000E+00  0.18788992091E+04  0.26747015665E+04  0.19036192455E+04 0.  0.
        3    1    3    3  502    0  0.76277423247E+02  0.37641291160E+03  0.21630930634E+04  0.21969243356E+04  0.10100000352E+00 0.  1.
       -3    1    3    3    0  502 -0.76277423247E+02 -0.37641291160E+03 -0.28419385431E+03  0.47777723088E+03  0.10100000352E+00 0. -1.
</event>
<event>
 5   0  0.5824956E-05  0.1925063E+04  0.7818609E-02  0.8642480E-01
       -1   -1    0    0    0  501  0.00000000000E+00  0.00000000000E+00  0.87680325010E+03  0.87680325012E+03  0.50400001928E-02 0. -1.
        1   -1    0    0  501    0  0.00000000000E+00  0.00000000000E+00 -0.10566419790E+04  0.10566419790E+04  0.50400001928E-02 0.  1.
    10030    2    1    2    0    0  0.00000000000E+00  0.00000000000E+00 -0.17983872889E+03  0.19334452291E+04  0.19250632420E+04 0.  0.
        2    1    3    3  502    0 -0.93463702346E+03 -0.14316595733E+03  0.90932062075E+02  0.94990078265E+03  0.25500000920E-02 0.  1.
       -2    1    3    3    0  502  0.93463702346E+03  0.14316595733E+03 -0.27077079096E+03  0.98354444648E+03  0.25500000920E-02 0. -1.
</event>
<event>
 5   0  0.5579109E-05  0.1887413E+04  0.7818609E-02  0.8661147E-01
       -1   -1    0    0    0  501  0.00000000000E+00  0.00000000000E+00  0.60151884215E+03  0.60151884217E+03  0.50400001928E-02 0.  1.
        1   -1    0    0  501    0  0.00000000000E+00  0.00000000000E+00 -0.14805549369E+04  0.14805549369E+04  0.50400001928E-02 0. -1.
    10030    2    1    2    0    0  0.00000000000E+00  0.00000000000E+00 -0.87903609472E+03  0.20820737790E+04  0.18874127173E+04 0.  0.
        3    1    3    3  502    0  0.41043534096E+03 -0.34670697454E+03 -0.12953690953E+04  0.14023708492E+04  0.10100000352E+00 0. -1.
       -3    1    3    3    0  502 -0.41043534096E+03  0.34670697454E+03  0.41633300059E+03  0.67970292988E+03  0.10100000352E+00 0.  1.
</event>
<event>
 5   0  0.1101678E-04  0.1899972E+04  0.7818609E-02  0.8654870E-01
       -2   -1    0    0    0  501  0.00000000000E+00  0.00000000000E+00  0.74342866399E+03  0.74342866399E+03  0.25500000920E-02 0.  1.
        2   -1    0    0  501    0  0.00000000000E+00  0.00000000000E+00 -0.12139344726E+04  0.12139344726E+04  0.25500000920E-02 0. -1.
    10030    2    1    2    0    0  0.00000000000E+00  0.00000000000E+00 -0.47050580863E+03  0.19573631366E+04  0.18999722979E+04 0.  0.
        4    1    3    3  502    0 -0.62757110213E+03 -0.25723011783E+03  0.45001560491E+03  0.81395852432E+03  0.12699999809E+01 0.  1.
       -4    1    3    3    0  502  0.62757110213E+03  0.25723011783E+03 -0.92052141354E+03  0.11434046123E+04  0.12699999809E+01 0. -1.
</event>
<event>
 5   0  0.1101678E-04  0.1895163E+04  0.7818609E-02  0.8657268E-01
        2   -1    0    0  501    0  0.00000000000E+00  0.00000000000E+00  0.13765482748E+04  0.13765482748E+04  0.25500000920E-02 0. -1.
       -2   -1    0    0    0  501  0.00000000000E+00  0.00000000000E+00 -0.65229139024E+03  0.65229139024E+03  0.25500000920E-02 0.  1.
    10030    2    1    2    0    0  0.00000000000E+00  0.00000000000E+00  0.72425688459E+03  0.20288396651E+04  0.18951628826E+04 0.  0.
        4    1    3    3  502    0  0.97500761431E+02 -0.58312249609E+03  0.11548822164E+04  0.12974177395E+04  0.12699999809E+01 0. -1.
       -4    1    3    3    0  502 -0.97500761431E+02  0.58312249609E+03 -0.43062533185E+03  0.73142192561E+03  0.12699999809E+01 0.  1.
</event>
<event>
 5   0  0.1141890E-04  0.1933152E+04  0.7818609E-02  0.8638528E-01
       -2   -1    0    0    0  501  0.00000000000E+00  0.00000000000E+00  0.79203171527E+03  0.79203171527E+03  0.25500000920E-02 0.  1.
        2   -1    0    0  501    0  0.00000000000E+00  0.00000000000E+00 -0.11795859738E+04  0.11795859738E+04  0.25500000920E-02 0. -1.
    10030    2    1    2    0    0  0.00000000000E+00  0.00000000000E+00 -0.38755425855E+03  0.19716176891E+04  0.19331523501E+04 0.  0.
        2    1    3    3  502    0 -0.26470170075E+02 -0.61934079260E+03 -0.95014377380E+03  0.11344852922E+04  0.25500000920E-02 0. -1.
       -2    1    3    3    0  502  0.26470170075E+02  0.61934079260E+03  0.56258951525E+03  0.83713239691E+03  0.25500000920E-02 0.  1.
</event>
<event>
 5   0  0.4061125E-05  0.1891162E+04  0.7818609E-02  0.8659268E-01
       -3   -1    0    0    0  501  0.00000000000E+00  0.00000000000E+00  0.14103592246E+04  0.14103592282E+04  0.10100000352E+00 0. -1.
        3   -1    0    0  501    0  0.00000000000E+00  0.00000000000E+00 -0.63396885552E+03  0.63396886356E+03  0.10100000352E+00 0.  1.
    10030    2    1    2    0    0  0.00000000000E+00  0.00000000000E+00  0.77639036906E+03  0.20443280918E+04  0.18911624313E+04 0.  0.
        5    1    3    3  502    0  0.67829945860E+03 -0.58512319295E+03  0.60952396583E+02  0.89788450879E+03  0.46999998093E+01 0.  1.
       -5    1    3    3    0  502 -0.67829945860E+03  0.58512319295E+03  0.71543797248E+03  0.11464435830E+04  0.46999998093E+01 0. -1.
</event>
<event>
 5   0  0.5614989E-05  0.1895875E+04  0.7818609E-02  0.8656912E-01
       -1   -1    0    0    0  501  0.00000000000E+00  0.00000000000E+00  0.27024178979E+03  0.27024178984E+03  0.50400001928E-02 0. -1.
        1   -1    0    0  501    0  0.00000000000E+00  0.00000000000E+00 -0.33251177518E+04  0.33251177518E+04  0.50400001928E-02 0.  1.
    10030    2    1    2    0    0  0.00000000000E+00  0.00000000000E+00 -0.30548759620E+04  0.35953595416E+04  0.18958752835E+04 0.  0.
        4    1    3    3  502    0 -0.45035882942E+03 -0.40583017315E+03 -0.29094300992E+04  0.29719196355E+04  0.12699999809E+01 0.  1.
       -4    1    3    3    0  502  0.45035882942E+03  0.40583017315E+03 -0.14544586278E+03  0.62343990615E+03  0.12699999809E+01 0. -1.
</event>
<event>
 5   0  0.5579109E-05  0.1907697E+04  0.7818609E-02  0.8651035E-01
       -1   -1    0    0    0  501  0.00000000000E+00  0.00000000000E+00  0.10037447076E+04  0.10037447076E+04  0.50400001928E-02 0. -1.
        1   -1    0    0  501    0  0.00000000000E+00  0.00000000000E+00 -0.90643259710E+03  0.90643259712E+03  0.50400001928E-02 0.  1.
    10030    2    1    2    0    0  0.00000000000E+00  0.00000000000E+00  0.97312110471E+02  0.19101773047E+04  0.19076969593E+04 0.  0.
        3    1    3    3  502    0  0.17301307139E+02  0.37018338454E+03 -0.83140183945E+03  0.91025496552E+03  0.10100000352E+00 0.  1.
       -3    1    3    3    0  502 -0.17301307139E+02 -0.37018338454E+03  0.92871394992E+03  0.99992233918E+03  0.10100000352E+00 0. -1.
</event>
<event>
 5   0  0.5614989E-05  0.1898081E+04  0.7818609E-02  0.8655812E-01
       -1   -1    0    0    0  501  0.00000000000E+00  0.00000000000E+00  0.72356496890E+03  0.72356496892E+03  0.50400001928E-02 0.  1.
        1   -1    0    0  501    0  0.00000000000E+00  0.00000000000E+00 -0.12447781983E+04  0.12447781983E+04  0.50400001928E-02 0. -1.
    10030    2    1    2    0    0  0.00000000000E+00  0.00000000000E+00 -0.52121322935E+03  0.19683431672E+04  0.18980810292E+04 0.  0.
        4    1    3    3  502    0 -0.79778693459E+03  0.31075141526E+03 -0.68520904188E+03  0.10966054345E+04  0.12699999809E+01 0. -1.
       -4    1    3    3    0  502  0.79778693459E+03 -0.31075141526E+03  0.16399581253E+03  0.87173773265E+03  0.12699999809E+01 0.  1.
</event>
<event>
 5   0  0.5614989E-05  0.1729530E+04  0.7818609E-02  0.8744699E-01
        1   -1    0    0  501    0  0.00000000000E+00  0.00000000000E+00  0.12064364448E+04  0.12064364448E+04  0.50400001928E-02 0.  1.
       -1   -1    0    0    0  501  0.00000000000E+00  0.00000000000E+00 -0.61985733574E+03  0.61985733576E+03  0.50400001928E-02 0. -1.
    10030    2    1    2    0    0  0.00000000000E+00  0.00000000000E+00  0.58657910905E+03  0.18262937806E+04  0.17295299713E+04 0.  0.
        4    1    3    3  502    0 -0.53776601245E+03  0.39690008214E+03  0.87271058392E+03  0.10992485322E+04  0.12699999809E+01 0.  1.
       -4    1    3    3    0  502  0.53776601245E+03 -0.39690008214E+03 -0.28613147487E+03  0.72704524836E+03  0.12699999809E+01 0. -1.
</event>
<event>
 5   0  0.1118206E-04  0.1935941E+04  0.7818609E-02  0.8637170E-01
       -2   -1    0    0    0  501  0.00000000000E+00  0.00000000000E+00  0.80670997840E+03  0.80670997841E+03  0.25500000920E-02 0. -1.
        2   -1    0    0  501    0  0.00000000000E+00  0.00000000000E+00 -0.11614668064E+04  0.11614668064E+04  0.25500000920E-02 0.  1.
    10030    2    1    2    0    0  0.00000000000E+00  0.00000000000E+00 -0.35475682800E+03  0.19681767848E+04  0.19359409726E+04 0.  0.
        1    1    3    3  502    0 -0.20933077926E+03 -0.72654094767E+03  0.43707413738E+03  0.87333551707E+03  0.50400001928E-02 0. -1.
       -1    1    3    3    0  502  0.20933077926E+03  0.72654094767E+03 -0.79183096538E+03  0.10948412677E+04  0.50400001928E-02 0.  1.
</event>
<event>
 5   0  0.1141890E-04  0.1889500E+04  0.7818609E-02  0.8660101E-01
       -2   -1    0    0    0  501  0.00000000000E+00  0.00000000000E+00  0.41515549089E+03  0.41515549090E+03  0.25500000920E-02 0.  1.
        2   -1    0    0  501    0  0.00000000000E+00  0.00000000000E+00 -0.21499236297E+04  0.21499236297E+04  0.25500000920E-02 0. -1.
    10030    2    1    2    0    0  0.00000000000E+00  0.00000000000E+00 -0.17347681388E+04  0.25650791206E+04  0.18895000396E+04 0.  0.
        2    1    3    3  502    0  0.36173909335E+03 -0.27294659279E+02  0.31683653813E+03  0.48164879527E+03  0.25500000920E-02 0.  1.
       -2    1    3    3    0  502 -0.36173909335E+03  0.27294659279E+02 -0.20516046770E+04  0.20834303254E+04  0.25500000920E-02 0. -1.
</event>
<event>
 5   0  0.1133638E-04  0.1908432E+04  0.7818609E-02  0.8650671E-01
       -2   -1    0    0    0  501  0.00000000000E+00  0.00000000000E+00  0.45321837655E+03  0.45321837656E+03  0.25500000920E-02 0. -1.
        2   -1    0    0  501    0  0.00000000000E+00  0.00000000000E+00 -0.20090267359E+04  0.20090267359E+04  0.25500000920E-02 0.  1.
    10030    2    1    2    0    0  0.00000000000E+00  0.00000000000E+00 -0.15558083594E+04  0.24622451125E+04  0.19084316448E+04 0.  0.
        3    1    3    3  502    0 -0.73447094286E+03 -0.52471801254E+03 -0.37867071351E+03  0.97886060196E+03  0.10100000352E+00 0. -1.
       -3    1    3    3    0  502  0.73447094286E+03  0.52471801254E+03 -0.11771376459E+04  0.14833845105E+04  0.10100000352E+00 0.  1.
</event>
<event>
 5   0  0.1182630E-04  0.1893493E+04  0.7818609E-02  0.8658102E-01
        2   -1    0    0  501    0  0.00000000000E+00  0.00000000000E+00  0.19214408770E+04  0.19214408770E+04  0.25500000920E-02 0.  1.
       -2   -1    0    0    0  501  0.00000000000E+00  0.00000000000E+00 -0.46648814997E+03  0.46648814998E+03  0.25500000920E-02 0. -1.
    10030    2    1    2    0    0  0.00000000000E+00  0.00000000000E+00  0.14549527270E+04  0.23879290269E+04  0.18934934909E+04 0.  0.
        5    1    3    3  502    0  0.63734941961E+02 -0.49864851883E+03  0.17392045950E+04  0.18104052589E+04  0.46999998093E+01 0.  1.
       -5    1    3    3    0  502 -0.63734941961E+02  0.49864851883E+03 -0.28425186803E+03  0.57752376803E+03  0.46999998093E+01 0. -1.
</event>
<event>
 5   0  0.5628936E-05  0.1885088E+04  0.7818609E-02  0.8662315E-01
        1   -1    0    0  501    0  0.00000000000E+00  0.00000000000E+00  0.98413272392E+03  0.98413272393E+03  0.50400001928E-02 0. -1.
       -1   -1    0    0    0  501  0.00000000000E+00  0.00000000000E+00 -0.90271313014E+03  0.90271313015E+03  0.50400001928E-02 0.  1.
    10030    2    1    2    0    0  0.00000000000E+00  0.00000000000E+00  0.81419593786E+02  0.18868458541E+04  0.18850883605E+04 0.  0.
        5    1    3    3  502    0 -0.14679020681E+03 -0.69585405383E+03 -0.57841940212E+03  0.91670678180E+03  0.46999998093E+01 0.  1.
       -5    1    3    3    0  502  0.14679020681E+03  0.69585405383E+03  0.65983899591E+03  0.97013907228E+03  0.46999998093E+01 0. -1.
</event>
<event>
 5   0  0.5824956E-05  0.1903565E+04  0.7818609E-02  0.8653084E-01
        1   -1    0    0  501    0  0.00000000000E+00  0.00000000000E+00  0.12889489708E+04  0.12889489708E+04  0.50400001928E-02 0.  1.
       -1   -1    0    0    0  501  0.00000000000E+00  0.00000000000E+00 -0.70281259021E+03  0.70281259023E+03  0.50400001928E-02 0. -1.
    10030    2    1    2    0    0  0.00000000000E+00  0.00000000000E+00  0.58613638060E+03  0.19917615610E+04  0.19035646192E+04 0.  0.
        2    1    3    3  502    0  0.15103616834E+03  0.85942942963E+03 -0.10461896848E+03  0.87884924602E+03  0.25500000920E-02 0. -1.
       -2    1    3    3    0  502 -0.15103616834E+03 -0.85942942963E+03  0.69075534907E+03  0.11129123150E+04  0.25500000920E-02 0.  1.
</event>
<event>
 5   0  0.5628936E-05  0.1892975E+04  0.7818609E-02  0.8658361E-01
       -1   -1    0    0    0  501  0.00000000000E+00  0.00000000000E+00  0.14325336923E+04  0.14325336923E+04  0.50400001928E-02 0. -1.
        1   -1    0    0  501    0  0.00000000000E+00  0.00000000000E+00 -0.62535277564E+03  0.62535277566E+03  0.50400001928E-02 0.  1.
    10030    2    1    2    0    0  0.00000000000E+00  0.00000000000E+00  0.80718091669E+03  0.20578864680E+04  0.18929753519E+04 0.  0.
        5    1    3    3  502    0 -0.80921029159E+02 -0.67155445553E+03 -0.31611348058E+03  0.74664812482E+03  0.46999998093E+01 0.  1.
       -5    1    3    3    0  502  0.80921029159E+02  0.67155445553E+03  0.11232943973E+04  0.13112383432E+04  0.46999998093E+01 0. -1.
</event>
<event>
 5   0  0.1141890E-04  0.1895581E+04  0.7818609E-02  0.8657059E-01
        2   -1    0    0  501    0  0.00000000000E+00  0.00000000000E+00  0.26084788723E+04  0.26084788723E+04  0.25500000920E-02 0.  1.
       -2   -1    0    0    0  501  0.00000000000E+00  0.00000000000E+00 -0.34437970671E+03  0.34437970672E+03  0.25500000920E-02 0. -1.
    10030    2    1    2    0    0  0.00000000000E+00  0.00000000000E+00  0.22640991656E+04  0.29528585790E+04  0.18955813768E+04 0.  0.
        2    1    3    3  502    0  0.88606501537E+03 -0.16588638423E+03  0.15880172800E+04  0.18260417261E+04  0.25500000920E-02 0.  1.
       -2    1    3    3    0  502 -0.88606501537E+03  0.16588638423E+03  0.67608188555E+03  0.11268168529E+04  0.25500000920E-02 0. -1.
</event>
<event>
 5   0  0.1118206E-04  0.1892968E+04  0.7818609E-02  0.8658365E-01
        2   -1    0    0  501    0  0.00000000000E+00  0.00000000000E+00  0.13009614326E+04  0.13009614326E+04  0.25500000920E-02 0. -1.
       -2   -1    0    0    0  501  0.00000000000E+00  0.00000000000E+00 -0.68859229374E+03  0.68859229374E+03  0.25500000920E-02 0.  1.
    10030    2    1    2    0    0  0.00000000000E+00  0.00000000000E+00  0.61236913888E+03  0.19895537264E+04  0.18929680578E+04 0.  0.
        1    1    3    3  502    0 -0.33858506886E+03 -0.91276651525E+02  0.12301655022E+04  0.12791709967E+04  0.50400001928E-02 0. -1.
       -1    1    3    3    0  502  0.33858506886E+03  0.91276651525E+02 -0.61779636335E+03  0.71038272964E+03  0.50400001928E-02 0.  1.
</event>
<event>
 5   0  0.1118206E-04  0.1902115E+04  0.7818609E-02  0.8653804E-01
       -2   -1    0    0    0  501  0.00000000000E+00  0.00000000000E+00  0.48709627308E+03  0.48709627309E+03  0.25500000920E-02 0. -1.
        2   -1    0    0  501    0  0.00000000000E+00  0.00000000000E+00 -0.18569437982E+04  0.18569437983E+04  0.25500000920E-02 0.  1.
    10030    2    1    2    0    0  0.00000000000E+00  0.00000000000E+00 -0.13698475252E+04  0.23440400713E+04  0.19021150370E+04 0.  0.
        1    1    3    3  502    0  0.20134263104E+02  0.85214352953E+03 -0.16506534208E+03  0.86821687996E+03  0.50400001928E-02 0. -1.
       -1    1    3    3    0  502 -0.20134263104E+02 -0.85214352953E+03 -0.12047821831E+04  0.14758231914E+04  0.50400001928E-02 0.  1.
</event>
<event>
 5   0  0.1133638E-04  0.1899290E+04  0.7818609E-02  0.8655210E-01
       -2   -1    0    0    0  501  0.00000000000E+00  0.00000000000E+00  0.38984172429E+03  0.38984172430E+03  0.25500000920E-02 0. -1.
        2   -1    0    0  501    0  0.00000000000E+00  0.00000000000E+00 -0.23133115214E+04  0.23133115214E+04  0.25500000920E-02 0.  1.
    10030    2    1    2    0    0  0.00000000000E+00  0.00000000000E+00 -0.19234697971E+04  0.27031532457E+04  0.18992897118E+04 0.  0.
        3    1    3    3  502    0  0.64101220612E+03 -0.71402445401E+02 -0.19537580047E+04  0.20574657491E+04  0.10100000352E+00 0.  1.
       -3    1    3    3    0  502 -0.64101220612E+03  0.71402445401E+02  0.30288207549E+02  0.64568749665E+03  0.10100000352E+00 0. -1.
</event>
<event>
 5   0  0.5614989E-05  0.1897685E+04  0.7818609E-02  0.8656010E-01
        1   -1    0    0  501    0  0.00000000000E+00  0.00000000000E+00  0.63924980720E+03  0.63924980722E+03  0.50400001928E-02 0.  1.
       -1   -1    0    0    0  501  0.00000000000E+00  0.00000000000E+00 -0.14083729637E+04  0.14083729637E+04  0.50400001928E-02 0. -1.
    10030    2    1    2    0    0  0.00000000000E+00  0.00000000000E+00 -0.76912315651E+03  0.20476227709E+04  0.18976850587E+04 0.  0.
        4    1    3    3  502    0 -0.25216262891E+03 -0.33106805464E+03  0.53551805745E+03  0.67821327838E+03  0.12699999809E+01 0.  1.
       -4    1    3    3    0  502  0.25216262891E+03  0.33106805464E+03 -0.13046412140E+04  0.13694094926E+04  0.12699999809E+01 0. -1.
</event>
<event>
 5   0  0.1133638E-04  0.1892274E+04  0.7818609E-02  0.8658712E-01
        2   -1    0    0  501    0  0.00000000000E+00  0.00000000000E+00  0.22985426158E+04  0.22985426158E+04  0.25500000920E-02 0. -1.
       -2   -1    0    0    0  501  0.00000000000E+00  0.00000000000E+00 -0.38945323421E+03  0.38945323421E+03  0.25500000920E-02 0.  1.
    10030    2    1    2    0    0  0.00000000000E+00  0.00000000000E+00  0.19090893816E+04  0.26879958500E+04  0.18922736120E+04 0.  0.
        3    1    3    3  502    0 -0.26887512450E+03 -0.37888284958E+03 -0.21626059349E+03  0.51245946257E+03  0.10100000352E+00 0.  1.
       -3    1    3    3    0  502  0.26887512450E+03  0.37888284958E+03  0.21253499751E+04  0.21755363874E+04  0.10100000352E+00 0. -1.
</event>
<event>
 5   0  0.5824956E-05  0.1907621E+04  0.7818609E-02  0.8651072E-01
       -1   -1    0    0    0  501  0.00000000000E+00  0.00000000000E+00  0.82286888835E+03  0.82286888836E+03  0.50400001928E-02 0. -1.
        1   -1    0    0  501    0  0.00000000000E+00  0.00000000000E+00 -0.11055884507E+04  0.11055884507E+04  0.50400001928E-02 0.  1.
    10030    2    1    2    0    0  0.00000000000E+00  0.00000000000E+00 -0.28271956237E+03  0.19284573391E+04  0.19076208632E+04 0.  0.
        2    1    3    3  502    0 -0.27811105185E+03 -0.43901093657E+03  0.66717493651E+03  0.84569424469E+03  0.25500000920E-02 0. -1.
       -2    1    3    3    0  502  0.27811105185E+03  0.43901093657E+03 -0.94989449888E+03  0.10827630944E+04  0.25500000920E-02 0.  1.
</event>
<event>
 5   0  0.4061125E-05  0.1811690E+04  0.7818609E-02  0.8700107E-01
       -4   -1    0    0    0  501  0.00000000000E+00  0.00000000000E+00  0.12962963713E+04  0.12962969934E+04  0.12699999809E+01 0. -1.
        4   -1    0    0  501    0  0.00000000000E+00  0.00000000000E+00 -0.63299826295E+03  0.63299953696E+03  0.12699999809E+01 0.  1.
    10030    2    1    2    0    0  0.00000000000E+00  0.00000000000E+00  0.66329810831E+03  0.19292965303E+04  0.18116900180E+04 0.  0.
        2    1    3    3  502    0  0.86813505822E+03 -0.88631450458E+01  0.60692122094E+03  0.10592876867E+04  0.25500000920E-02 0. -1.
       -2    1    3    3    0  502 -0.86813505822E+03  0.88631450458E+01  0.56376887377E+02  0.87000884369E+03  0.25500000920E-02 0.  1.
</event>
<event>
 5   0  0.1133638E-04  0.1892324E+04  0.7818609E-02  0.8658687E-01
        2   -1    0    0  501    0  0.00000000000E+00  0.00000000000E+00  0.11419148000E+04  0.11419148000E+04  0.25500000920E-02 0.  1.
       -2   -1    0    0    0  501  0.00000000000E+00  0.00000000000E+00 -0.78396605955E+03  0.78396605955E+03  0.25500000920E-02 0. -1.
    10030    2    1    2    0    0  0.00000000000E+00  0.00000000000E+00  0.35794874043E+03  0.19258808595E+04  0.18923239111E+04 0.  0.
        3    1    3    3  502    0  0.30864836174E+03  0.87609815622E+03 -0.42476971566E+01  0.92888634594E+03  0.10100000352E+00 0. -1.
       -3    1    3    3    0  502 -0.30864836174E+03 -0.87609815622E+03  0.36219643759E+03  0.99699451360E+03  0.10100000352E+00 0.  1.
</event>
<event>
 5   0  0.5824956E-05  0.1811947E+04  0.7818609E-02  0.8699972E-01
        1   -1    0    0  501    0  0.00000000000E+00  0.00000000000E+00  0.32000928168E+03  0.32000928172E+03  0.50400001928E-02 0.  1.
       -1   -1    0    0    0  501  0.00000000000E+00  0.00000000000E+00 -0.25648868216E+04  0.25648868216E+04  0.50400001928E-02 0. -1.
    10030    2    1    2    0    0  0.00000000000E+00  0.00000000000E+00 -0.22448775399E+04  0.28848961033E+04  0.18119465659E+04 0.  0.
        2    1    3    3  502    0 -0.54133182962E+03 -0.56341407878E+03 -0.18525967458E+04  0.20106193763E+04  0.25500000920E-02 0. -1.
       -2    1    3    3    0  502  0.54133182962E+03  0.56341407878E+03 -0.39228079414E+03  0.87427672701E+03  0.25500000920E-02 0.  1.
</event>
<event>
 5   0  0.5824956E-05  0.1893239E+04  0.7818609E-02  0.8658229E-01
       -1   -1    0    0    0  501  0.00000000000E+00  0.00000000000E+00  0.10435912636E+04  0.10435912636E+04  0.50400001928E-02 0. -1.
        1   -1    0    0  501    0  0.00000000000E+00  0.00000000000E+00 -0.85865805094E+03  0.85865805096E+03  0.50400001928E-02 0.  1.
    10030    2    1    2    0    0  0.00000000000E+00  0.00000000000E+00  0.18493321268E+03  0.19022493146E+04  0.18932385380E+04 0.  0.
        2    1    3    3  502    0 -0.71056777326E+03 -0.27011593958E+03 -0.47432714975E+03  0.89602200096E+03  0.25500000920E-02 0.  1.
       -2    1    3    3    0  502  0.71056777326E+03  0.27011593958E+03  0.65926036244E+03  0.10062273136E+04  0.25500000920E-02 0. -1.
</event>
<event>
 5   0  0.4061125E-05  0.1903371E+04  0.7818609E-02  0.8653180E-01
        3   -1    0    0  501    0  0.00000000000E+00  0.00000000000E+00  0.12920182727E+04  0.12920182766E+04  0.10100000352E+00 0.  1.
       -3   -1    0    0    0  501  0.00000000000E+00  0.00000000000E+00 -0.70100066019E+03  0.70100066747E+03  0.10100000352E+00 0. -1.
    10030    2    1    2    0    0  0.00000000000E+00  0.00000000000E+00  0.59101761246E+03  0.19930189441E+04  0.19033714018E+04 0.  0.
        1    1    3    3  502    0  0.32458610981E+03 -0.88615193472E+03  0.16690608215E+03  0.95837311856E+03  0.50400001928E-02 0. -1.
       -1    1    3    3    0  502 -0.32458610981E+03  0.88615193472E+03  0.42411153031E+03  0.10346458255E+04  0.50400001928E-02 0.  1.
</event>
<event>
 5   0  0.1141890E-04  0.1906848E+04  0.7818609E-02  0.8651455E-01
        2   -1    0    0  501    0  0.00000000000E+00  0.00000000000E+00  0.88407334313E+03  0.88407334313E+03  0.25500000920E-02 0.  1.
       -2   -1    0    0    0  501  0.00000000000E+00  0.00000000000E+00 -0.10282148952E+04  0.10282148952E+04  0.25500000920E-02 0. -1.
    10030    2    1    2    0    0  0.00000000000E+00  0.00000000000E+00 -0.14414155206E+03  0.19122882383E+04  0.19068480588E+04 0.  0.
        2    1    3    3  502    0  0.76400695253E+03 -0.49363817558E+03 -0.35859923921E+03  0.97774162552E+03  0.25500000920E-02 0. -1.
       -2    1    3    3    0  502 -0.76400695253E+03  0.49363817558E+03  0.21445768715E+03  0.93454661280E+03  0.25500000920E-02 0.  1.
</event>
<event>
 5   0  0.1141890E-04  0.1894290E+04  0.7818609E-02  0.8657704E-01
       -2   -1    0    0    0  501  0.00000000000E+00  0.00000000000E+00  0.48661766284E+03  0.48661766284E+03  0.25500000920E-02 0.  1.
        2   -1    0    0  501    0  0.00000000000E+00  0.00000000000E+00 -0.18435086787E+04  0.18435086787E+04  0.25500000920E-02 0. -1.
    10030    2    1    2    0    0  0.00000000000E+00  0.00000000000E+00 -0.13568910159E+04  0.23301263416E+04  0.18942902467E+04 0.  0.
        2    1    3    3  502    0  0.13442838760E+02  0.91018684834E+03 -0.10003011671E+04  0.13524877943E+04  0.25500000920E-02 0.  1.
       -2    1    3    3    0  502 -0.13442838760E+02 -0.91018684834E+03 -0.35658984872E+03  0.97763854723E+03  0.25500000920E-02 0. -1.
</event>
<event>
 5   0  0.5579109E-05  0.1882103E+04  0.7818609E-02  0.8663816E-01
       -1   -1    0    0    0  501  0.00000000000E+00  0.00000000000E+00  0.91251350232E+03  0.91251350233E+03  0.50400001928E-02 0.  1.
        1   -1    0    0  501    0  0.00000000000E+00  0.00000000000E+00 -0.97048214710E+03  0.97048214711E+03  0.50400001928E-02 0. -1.
    10030    2    1    2    0    0  0.00000000000E+00  0.00000000000E+00 -0.57968644781E+02  0.18829956494E+04  0.18821031460E+04 0.  0.
        3    1    3    3  502    0 -0.71783175156E+03 -0.12107586331E+03  0.56765093791E+03  0.92313021061E+03  0.10100000352E+00 0.  1.
       -3    1    3    3    0  502  0.71783175156E+03  0.12107586331E+03 -0.62561958269E+03  0.95986543884E+03  0.10100000352E+00 0. -1.
</event>
<event>
 5   0  0.1101678E-04  0.1903916E+04  0.7818609E-02  0.8652909E-01
        2   -1    0    0  501    0  0.00000000000E+00  0.00000000000E+00  0.18079163471E+04  0.18079163471E+04  0.25500000920E-02 0.  1.
       -2   -1    0    0    0  501  0.00000000000E+00  0.00000000000E+00 -0.50125354755E+03  0.50125354756E+03  0.25500000920E-02 0. -1.
    10030    2    1    2    0    0  0.00000000000E+00  0.00000000000E+00  0.13066627996E+04  0.23091698947E+04  0.19039164716E+04 0.  0.
        4    1    3    3  502    0  0.61106411411E+03 -0.72510190238E+03  0.55148970104E+03  0.10969569835E+04  0.12699999809E+01 0. -1.
       -4    1    3    3    0  502 -0.61106411411E+03  0.72510190238E+03  0.75517309852E+03  0.12122129112E+04  0.12699999809E+01 0.  1.
</event>
<event>
 5   0  0.5841424E-05  0.1912610E+04  0.7818609E-02  0.8648605E-01
        1   -1    0    0  501    0  0.00000000000E+00  0.00000000000E+00  0.98159004869E+03  0.98159004870E+03  0.50400001928E-02 0.  1.
       -1   -1    0    0    0  501  0.00000000000E+00  0.00000000000E+00 -0.93167125616E+03  0.93167125618E+03  0.50400001928E-02 0. -1.
    10030    2    1    2    0    0  0.00000000000E+00  0.00000000000E+00  0.49918792522E+02  0.19132613049E+04  0.19126099798E+04 0.  0.
        1    1    3    3  502    0 -0.83211029618E+03 -0.47023461225E+03  0.56451828115E+02  0.95745231970E+03  0.50400001928E-02 0. -1.
       -1    1    3    3    0  502  0.83211029618E+03  0.47023461225E+03 -0.65330355931E+01  0.95580898518E+03  0.50400001928E-02 0.  1.
</event>
<event>
 5   0  0.1141890E-04  0.1873141E+04  0.7818609E-02  0.8668342E-01
       -2   -1    0    0    0  501  0.00000000000E+00  0.00000000000E+00  0.67810610999E+03  0.67810611000E+03  0.25500000920E-02 0. -1.
        2   -1    0    0  501    0  0.00000000000E+00  0.00000000000E+00 -0.12935504472E+04  0.12935504472E+04  0.25500000920E-02 0.  1.
    10030    2    1    2    0    0  0.00000000000E+00  0.00000000000E+00 -0.61544433718E+03  0.19716565572E+04  0.18731411712E+04 0.  0.
        2    1    3    3  502    0 -0.47342465904E+03 -0.34638687224E+03  0.46077912849E+03  0.74594381713E+03  0.25500000920E-02 0. -1.
       -2    1    3    3    0  502  0.47342465904E+03  0.34638687224E+03 -0.10762234657E+04  0.12257127401E+04  0.25500000920E-02 0.  1.
</event>
<event>
 5   0  0.5628936E-05  0.1863067E+04  0.7818609E-02  0.8673462E-01
        1   -1    0    0  501    0  0.00000000000E+00  0.00000000000E+00  0.12384777154E+04  0.12384777154E+04  0.50400001928E-02 0.  1.
       -1   -1    0    0    0  501  0.00000000000E+00  0.00000000000E+00 -0.70066266581E+03  0.70066266583E+03  0.50400001928E-02 0. -1.
    10030    2    1    2    0    0  0.00000000000E+00  0.00000000000E+00  0.53781504956E+03  0.19391403812E+04  0.18630674681E+04 0.  0.
        5    1    3    3  502    0  0.48661689749E+03  0.54034498439E+03  0.87488662844E+03  0.11376367653E+04  0.46999998093E+01 0.  1.
       -5    1    3    3    0  502 -0.48661689749E+03 -0.54034498439E+03 -0.33707157888E+03  0.80150361594E+03  0.46999998093E+01 0. -1.
</event>
<event>
 5   0  0.1118206E-04  0.1883885E+04  0.7818609E-02  0.8662920E-01
       -2   -1    0    0    0  501  0.00000000000E+00  0.00000000000E+00  0.62652032660E+03  0.62652032660E+03  0.25500000920E-02 0.  1.
        2   -1    0    0  501    0  0.00000000000E+00  0.00000000000E+00 -0.14161641830E+04  0.14161641830E+04  0.25500000920E-02 0. -1.
    10030    2    1    2    0    0  0.00000000000E+00  0.00000000000E+00 -0.78964385644E+03  0.20426845096E+04  0.18838849715E+04 0.  0.
        1    1    3    3  502    0  0.39537710065E+03  0.82528774789E+03 -0.15277239760E+03  0.92777277608E+03  0.50400001928E-02 0.  1.
       -1    1    3    3    0  502 -0.39537710065E+03 -0.82528774789E+03 -0.63687145885E+03  0.11149117336E+04  0.50400001928E-02 0. -1.
</event>
<event>
 5   0  0.4061125E-05  0.1895007E+04  0.7818609E-02  0.8657346E-01
        4   -1    0    0  501    0  0.00000000000E+00  0.00000000000E+00  0.15883019186E+04  0.15883024264E+04  0.12699999809E+01 0.  1.
       -4   -1    0    0    0  501  0.00000000000E+00  0.00000000000E+00 -0.56523308513E+03  0.56523451189E+03  0.12699999809E+01 0. -1.
    10030    2    1    2    0    0  0.00000000000E+00  0.00000000000E+00  0.10230688335E+04  0.21535369383E+04  0.18950069938E+04 0.  0.
        4    1    3    3  502    0 -0.70689802157E+03 -0.23001022921E+03 -0.15611203473E+03  0.75959337723E+03  0.12699999809E+01 0. -1.
       -4    1    3    3    0  502  0.70689802157E+03  0.23001022921E+03  0.11791808682E+04  0.13939435610E+04  0.12699999809E+01 0.  1.
</event>
<event>
 5   0  0.5579109E-05  0.1896643E+04  0.7818609E-02  0.8656529E-01
        1   -1    0    0  501    0  0.00000000000E+00  0.00000000000E+00  0.10414387116E+04  0.10414387116E+04  0.50400001928E-02 0. -1.
       -1   -1    0    0    0  501  0.00000000000E+00  0.00000000000E+00 -0.86352983842E+03  0.86352983844E+03  0.50400001928E-02 0.  1.
    10030    2    1    2    0    0  0.00000000000E+00  0.00000000000E+00  0.17790887318E+03  0.19049685501E+04  0.18966427206E+04 0.  0.
        3    1    3    3  502    0 -0.76776827188E+03 -0.30162608897E+03  0.55884032193E+03  0.99636787005E+03  0.10100000352E+00 0.  1.
       -3    1    3    3    0  502  0.76776827188E+03  0.30162608897E+03 -0.38093144876E+03  0.90860068000E+03  0.10100000352E+00 0. -1.
</event>
<event>
 5   0  0.5614989E-05  0.1905281E+04  0.7818609E-02  0.8652232E-01
       -1   -1    0    0    0  501  0.00000000000E+00  0.00000000000E+00  0.54042310490E+03  0.54042310493E+03  0.50400001928E-02 0.  1.
        1   -1    0    0  501    0  0.00000000000E+00  0.00000000000E+00 -0.16792836172E+04  0.16792836172E+04  0.50400001928E-02 0. -1.
    10030    2    1    2    0    0  0.00000000000E+00  0.00000000000E+00 -0.11388605123E+04  0.22197067221E+04  0.19052807315E+04 0.  0.
        4    1    3    3  502    0  0.60691518713E+03 -0.67911849686E+03 -0.89475098866E+03  0.12767650221E+04  0.12699999809E+01 0. -1.
       -4    1    3    3    0  502 -0.60691518713E+03  0.67911849686E+03 -0.24410952363E+03  0.94294169999E+03  0.12699999809E+01 0.  1.
</event>
<event>
 5   0  0.5614989E-05  0.1911757E+04  0.7818609E-02  0.8649026E-01
        1   -1    0    0  501    0  0.00000000000E+00  0.00000000000E+00  0.42626404130E+03  0.42626404133E+03  0.50400001928E-02 0. -1.
       -1   -1    0    0    0  501  0.00000000000E+00  0.00000000000E+00 -0.21435157426E+04  0.21435157427E+04  0.50400001928E-02 0.  1.
    10030    2    1    2    0    0  0.00000000000E+00  0.00000000000E+00 -0.17172517013E+04  0.25697797840E+04  0.19117569752E+04 0.  0.
        4    1    3    3  502    0 -0.69550375459E+03 -0.46775481548E+03 -0.24090579047E+03  0.87209933657E+03  0.12699999809E+01 0. -1.
       -4    1    3    3    0  502  0.69550375459E+03  0.46775481548E+03 -0.14763459109E+04  0.16976804474E+04  0.12699999809E+01 0.  1.
</event>
<event>
 5   0  0.1141890E-04  0.1891837E+04  0.7818609E-02  0.8658930E-01
        2   -1    0    0  501    0  0.00000000000E+00  0.00000000000E+00  0.11249672049E+04  0.11249672049E+04  0.25500000920E-02 0. -1.
       -2   -1    0    0    0  501  0.00000000000E+00  0.00000000000E+00 -0.79536697776E+03  0.79536697777E+03  0.25500000920E-02 0.  1.
    10030    2    1    2    0    0  0.00000000000E+00  0.00000000000E+00  0.32960022715E+03  0.19203341827E+04  0.18918369548E+04 0.  0.
        2    1    3    3  502    0 -0.18450163595E+03 -0.61101478420E+03  0.87344357139E+03  0.10817964654E+04  0.25500000920E-02 0. -1.
       -2    1    3    3    0  502  0.18450163595E+03  0.61101478420E+03 -0.54384334424E+03  0.83853771726E+03  0.25500000920E-02 0.  1.
</event>
<event>
 5   0  0.1141890E-04  0.1893727E+04  0.7818609E-02  0.8657985E-01
        2   -1    0    0  501    0  0.00000000000E+00  0.00000000000E+00  0.11708648283E+04  0.11708648283E+04  0.25500000920E-02 0. -1.
       -2   -1    0    0    0  501  0.00000000000E+00  0.00000000000E+00 -0.76571675158E+03  0.76571675159E+03  0.25500000920E-02 0.  1.
    10030    2    1    2    0    0  0.00000000000E+00  0.00000000000E+00  0.40514807671E+03  0.19365815799E+04  0.18937273435E+04 0.  0.
        2    1    3    3  502    0 -0.20705426756E+03 -0.44683499976E+03  0.10295885678E+04  0.11413087250E+04  0.25500000920E-02 0. -1.
       -2    1    3    3    0  502  0.20705426756E+03  0.44683499976E+03 -0.62444049114E+03  0.79527285488E+03  0.25500000920E-02 0.  1.
</event>
<event>
 5   0  0.1101678E-04  0.1900101E+04  0.7818609E-02  0.8654806E-01
       -2   -1    0    0    0  501  0.00000000000E+00  0.00000000000E+00  0.17081032013E+04  0.17081032013E+04  0.25500000920E-02 0. -1.
        2   -1    0    0  501    0  0.00000000000E+00  0.00000000000E+00 -0.52842026065E+03  0.52842026066E+03  0.25500000920E-02 0.  1.
    10030    2    1    2    0    0  0.00000000000E+00  0.00000000000E+00  0.11796829406E+04  0.22365234619E+04  0.19001014066E+04 0.  0.
        4    1    3    3  502    0 -0.74086736608E+03 -0.56838871495E+03  0.79589176314E+03  0.12269455966E+04  0.12699999809E+01 0.  1.
       -4    1    3    3    0  502  0.74086736608E+03  0.56838871495E+03  0.38379117747E+03  0.10095778654E+04  0.12699999809E+01 0. -1.
</event>
<event>
 5   0  0.1182630E-04  0.1896367E+04  0.7818609E-02  0.8656667E-01
        2   -1    0    0  501    0  0.00000000000E+00  0.00000000000E+00  0.13295750164E+04  0.13295750164E+04  0.25500000920E-02 0.  1.
       -2   -1    0    0    0  501  0.00000000000E+00  0.00000000000E+00 -0.67619490732E+03  0.67619490733E+03  0.25500000920E-02 0. -1.
    10030    2    1    2    0    0  0.00000000000E+00  0.00000000000E+00  0.65338010905E+03  0.20057699237E+04  0.18963669001E+04 0.  0.
        5    1    3    3  502    0 -0.29724372097E+03 -0.78274374931E+03 -0.14393858955E+03  0.84957755049E+03  0.46999998093E+01 0. -1.
       -5    1    3    3    0  502  0.29724372097E+03  0.78274374931E+03  0.79731869860E+03  0.11561923732E+04  0.46999998093E+01 0.  1.
</event>
<event>
 5   0  0.1141890E-04  0.1915746E+04  0.7818609E-02  0.8647058E-01
       -2   -1    0    0    0  501  0.00000000000E+00  0.00000000000E+00  0.63560530288E+03  0.63560530288E+03  0.25500000920E-02 0.  1.
        2   -1    0    0  501    0  0.00000000000E+00  0.00000000000E+00 -0.14435378491E+04  0.14435378491E+04  0.25500000920E-02 0. -1.
    10030    2    1    2    0    0  0.00000000000E+00  0.00000000000E+00 -0.80793254627E+03  0.20791431520E+04  0.19157456113E+04 0.  0.
        2    1    3    3  502    0  0.38178057759E+02 -0.29654368164E+03  0.58366400054E+03  0.65578913131E+03  0.25500000920E-02 0.  1.
       -2    1    3    3    0  502 -0.38178057759E+02  0.29654368164E+03 -0.13915965468E+04  0.14233540207E+04  0.25500000920E-02 0. -1.
</event>
<event>
 5   0  0.1118206E-04  0.1948742E+04  0.7818609E-02  0.8630967E-01
       -2   -1    0    0    0  501  0.00000000000E+00  0.00000000000E+00  0.79556678197E+03  0.79556678197E+03  0.25500000920E-02 0. -1.
        2   -1    0    0  501    0  0.00000000000E+00  0.00000000000E+00 -0.11933621174E+04  0.11933621174E+04  0.25500000920E-02 0.  1.
    10030    2    1    2    0    0  0.00000000000E+00  0.00000000000E+00 -0.39779533547E+03  0.19889288994E+04  0.19487424247E+04 0.  0.
        1    1    3    3  502    0 -0.79509537013E+03  0.56178322405E+03 -0.15779028432E+03  0.98624277553E+03  0.50400001928E-02 0. -1.
       -1    1    3    3    0  502  0.79509537013E+03 -0.56178322405E+03 -0.24000505115E+03  0.10026861239E+04  0.50400001928E-02 0.  1.
</event>
<event>
 5   0  0.1101678E-04  0.1911942E+04  0.7818609E-02  0.8648935E-01
       -2   -1    0    0    0  501  0.00000000000E+00  0.00000000000E+00  0.72529231660E+03  0.72529231660E+03  0.25500000920E-02 0.  1.
        2   -1    0    0  501    0  0.00000000000E+00  0.00000000000E+00 -0.12600164087E+04  0.12600164087E+04  0.25500000920E-02 0. -1.
    10030    2    1    2    0    0  0.00000000000E+00  0.00000000000E+00 -0.53472409212E+03  0.19853087253E+04  0.19119416519E+04 0.  0.
        4    1    3    3  502    0  0.43317631623E+03  0.62147123617E+03  0.33811754683E+03  0.82957417192E+03  0.12699999809E+01 0.  1.
       -4    1    3    3    0  502 -0.43317631623E+03 -0.62147123617E+03 -0.87284163895E+03  0.11557345534E+04  0.12699999809E+01 0. -1.
</event>
<event>
 5   0  0.1101678E-04  0.1906215E+04  0.7818609E-02  0.8651769E-01
       -2   -1    0    0    0  501  0.00000000000E+00  0.00000000000E+00  0.63960949737E+03  0.63960949737E+03  0.25500000920E-02 0. -1.
        2   -1    0    0  501    0  0.00000000000E+00  0.00000000000E+00 -0.14202633449E+04  0.14202633449E+04  0.25500000920E-02 0.  1.
    10030    2    1    2    0    0  0.00000000000E+00  0.00000000000E+00 -0.78065384753E+03  0.20598728423E+04  0.19062150185E+04 0.  0.
        4    1    3    3  502    0 -0.53650570345E+03  0.65862713046E+03  0.76696480211E+02  0.85294315742E+03  0.12699999809E+01 0. -1.
       -4    1    3    3    0  502  0.53650570345E+03 -0.65862713046E+03 -0.85735032775E+03  0.12069296849E+04  0.12699999809E+01 0.  1.
</event>
<event>
 5   0  0.1182630E-04  0.1901942E+04  0.7818609E-02  0.8653890E-01
        2   -1    0    0  501    0  0.00000000000E+00  0.00000000000E+00  0.83632624784E+03  0.83632624784E+03  0.25500000920E-02 0. -1.
       -2   -1    0    0    0  501  0.00000000000E+00  0.00000000000E+00 -0.10813317287E+04  0.10813317288E+04  0.25500000920E-02 0.  1.
    10030    2    1    2    0    0  0.00000000000E+00  0.00000000000E+00 -0.24500548091E+03  0.19176579766E+04  0.19019422782E+04 0.  0.
        5    1    3    3  502    0  0.21647901019E+03 -0.11557315786E+03  0.80384003960E+03  0.84047677894E+03  0.46999998093E+01 0. -1.
       -5    1    3    3    0  502 -0.21647901019E+03  0.11557315786E+03 -0.10488455205E+04  0.10771811977E+04  0.46999998093E+01 0.  1.
</event>
<event>
 5   0  0.5614989E-05  0.1731482E+04  0.7818609E-02  0.8743610E-01
        1   -1    0    0  501    0  0.00000000000E+00  0.00000000000E+00  0.20811075703E+04  0.20811075703E+04  0.50400001928E-02 0. -1.
       -1   -1    0    0    0  501  0.00000000000E+00  0.00000000000E+00 -0.36014856412E+03  0.36014856415E+03  0.50400001928E-02 0.  1.
    10030    2    1    2    0    0  0.00000000000E+00  0.00000000000E+00  0.17209590062E+04  0.24412561345E+04  0.17314824900E+04 0.  0.
        4    1    3    3  502    0  0.45151280218E+03  0.23919962710E+03 -0.12487983998E+03  0.52600081699E+03  0.12699999809E+01 0.  1.
       -4    1    3    3    0  502 -0.45151280218E+03 -0.23919962710E+03  0.18458388462E+04  0.19152553175E+04  0.12699999809E+01 0. -1.
</event>
<event>
 5   0  0.1182630E-04  0.1937332E+04  0.7818609E-02  0.8636494E-01
       -2   -1    0    0    0  501  0.00000000000E+00  0.00000000000E+00  0.10205866839E+04  0.10205866839E+04  0.25500000920E-02 0. -1.
        2   -1    0    0  501    0  0.00000000000E+00  0.00000000000E+00 -0.91938669079E+03  0.91938669079E+03  0.25500000920E-02 0.  1.
    10030    2    1    2    0    0  0.00000000000E+00  0.00000000000E+00  0.10119999312E+03  0.19399733747E+04  0.19373319942E+04 0.  0.
        5    1    3    3  502    0  0.64232702713E+03 -0.18848048930E+03 -0.65048514250E+03  0.93341411776E+03  0.46999998093E+01 0.  1.
       -5    1    3    3    0  502 -0.64232702713E+03  0.18848048930E+03  0.75168513561E+03  0.10065592569E+04  0.46999998093E+01 0. -1.
</event>
<event>
 5   0  0.1133638E-04  0.1902768E+04  0.7818609E-02  0.8653480E-01
       -2   -1    0    0    0  501  0.00000000000E+00  0.00000000000E+00  0.45315831124E+03  0.45315831124E+03  0.25500000920E-02 0.  1.
        2   -1    0    0  501    0  0.00000000000E+00  0.00000000000E+00 -0.19973845319E+04  0.19973845319E+04  0.25500000920E-02 0. -1.
    10030    2    1    2    0    0  0.00000000000E+00  0.00000000000E+00 -0.15442262207E+04  0.24505428432E+04  0.19027678801E+04 0.  0.
        3    1    3    3  502    0  0.82438761735E+03  0.29538252793E+03 -0.12510006914E+04  0.15270456842E+04  0.10100000352E+00 0. -1.
       -3    1    3    3    0  502 -0.82438761735E+03 -0.29538252793E+03 -0.29322552927E+03  0.92349715899E+03  0.10100000352E+00 0.  1.
</event>
<event>
 5   0  0.4061125E-05  0.1903208E+04  0.7818609E-02  0.8653261E-01
       -4   -1    0    0    0  501  0.00000000000E+00  0.00000000000E+00  0.15767480955E+04  0.15767486070E+04  0.12699999809E+01 0.  1.
        4   -1    0    0  501    0  0.00000000000E+00  0.00000000000E+00 -0.57431363377E+03  0.57431503796E+03  0.12699999809E+01 0. -1.
    10030    2    1    2    0    0  0.00000000000E+00  0.00000000000E+00  0.10024344617E+04  0.21510636449E+04  0.19032078064E+04 0.  0.
        3    1    3    3  502    0 -0.45569949848E+02 -0.64576480300E+03  0.12895165350E+04  0.14428935184E+04  0.10100000352E+00 0.  1.
       -3    1    3    3    0  502  0.45569949848E+02  0.64576480300E+03 -0.28708207328E+03  0.70817012654E+03  0.10100000352E+00 0. -1.
</event>
<event>
 5   0  0.5841424E-05  0.1906469E+04  0.7818609E-02  0.8651643E-01
       -1   -1    0    0    0  501  0.00000000000E+00  0.00000000000E+00  0.42639303926E+03  0.42639303929E+03  0.50400001928E-02 0.  1.
        1   -1    0    0  501    0  0.00000000000E+00  0.00000000000E+00 -0.21310284019E+04  0.21310284019E+04  0.50400001928E-02 0. -1.
    10030    2    1    2    0    0  0.00000000000E+00  0.00000000000E+00 -0.17046353626E+04  0.25574214411E+04  0.19064686486E+04 0.  0.
        1    1    3    3  502    0 -0.80068179850E+03 -0.51473958627E+03 -0.92081667684E+03  0.13243683538E+04  0.50400001928E-02 0.  1.
       -1    1    3    3    0  502  0.80068179850E+03  0.51473958627E+03 -0.78381868575E+03  0.12330530874E+04  0.50400001928E-02 0. -1.
</event>
<event>
 5   0  0.5628936E-05  0.1894570E+04  0.7818609E-02  0.8657564E-01
        1   -1    0    0  501    0  0.00000000000E+00  0.00000000000E+00  0.11848575674E+04  0.11848575674E+04  0.50400001928E-02 0.  1.
       -1   -1    0    0    0  501  0.00000000000E+00  0.00000000000E+00 -0.75734772632E+03  0.75734772634E+03  0.50400001928E-02 0. -1.
    10030    2    1    2    0    0  0.00000000000E+00  0.00000000000E+00  0.42750984106E+03  0.19422052937E+04  0.18945703309E+04 0.  0.
        5    1    3    3  502    0 -0.94090729553E+03  0.46593254922E+02  0.31549550753E+03  0.99349734547E+03  0.46999998093E+01 0.  1.
       -5    1    3    3    0  502  0.94090729553E+03 -0.46593254922E+02  0.11201433353E+03  0.94870794826E+03  0.46999998093E+01 0. -1.
</event>
<event>
 5   0  0.5628936E-05  0.1905922E+04  0.7818609E-02  0.8651914E-01
       -1   -1    0    0    0  501  0.00000000000E+00  0.00000000000E+00  0.68118945766E+03  0.68118945768E+03  0.50400001928E-02 0.  1.
        1   -1    0    0  501    0  0.00000000000E+00  0.00000000000E+00 -0.13331607112E+04  0.13331607112E+04  0.50400001928E-02 0. -1.
    10030    2    1    2    0    0  0.00000000000E+00  0.00000000000E+00 -0.65197125357E+03  0.20143501689E+04  0.19059223719E+04 0.  0.
        5    1    3    3  502    0 -0.82016723367E+03  0.18252412826E+03  0.14917260324E+03  0.85338379651E+03  0.46999998093E+01 0.  1.
       -5    1    3    3    0  502  0.82016723367E+03 -0.18252412826E+03 -0.80114385681E+03  0.11609663724E+04  0.46999998093E+01 0. -1.
</event>
<event>
 5   0  0.1118206E-04  0.1892409E+04  0.7818609E-02  0.8658644E-01
        2   -1    0    0  501    0  0.00000000000E+00  0.00000000000E+00  0.15055569620E+04  0.15055569620E+04  0.25500000920E-02 0.  1.
       -2   -1    0    0    0  501  0.00000000000E+00  0.00000000000E+00 -0.59466592743E+03  0.59466592744E+03  0.25500000920E-02 0. -1.
    10030    2    1    2    0    0  0.00000000000E+00  0.00000000000E+00  0.91089103453E+03  0.21002228894E+04  0.18924094981E+04 0.  0.
        1    1    3    3  502    0 -0.35267389002E+03  0.16870295424E+03 -0.50084077368E+03  0.63535898520E+03  0.50400001928E-02 0. -1.
       -1    1    3    3    0  502  0.35267389002E+03 -0.16870295424E+03  0.14117318082E+04  0.14648639042E+04  0.50400001928E-02 0.  1.
</event>
<event>
 5   0  0.1118206E-04  0.1901330E+04  0.7818609E-02  0.8654194E-01
        2   -1    0    0  501    0  0.00000000000E+00  0.00000000000E+00  0.54031958023E+03  0.54031958024E+03  0.25500000920E-02 0. -1.
       -2   -1    0    0    0  501  0.00000000000E+00  0.00000000000E+00 -0.16726478506E+04  0.16726478506E+04  0.25500000920E-02 0.  1.
    10030    2    1    2    0    0  0.00000000000E+00  0.00000000000E+00 -0.11323282704E+04  0.22129674309E+04  0.19013304653E+04 0.  0.
        1    1    3    3  502    0 -0.54010071046E+03 -0.75419695028E+02 -0.14724920677E+04  0.15702324024E+04  0.50400001928E-02 0.  1.
       -1    1    3    3    0  502  0.54010071046E+03  0.75419695028E+02  0.34016379734E+03  0.64273502852E+03  0.50400001928E-02 0. -1.
</event>
<event>
 5   0  0.5841424E-05  0.1958865E+04  0.7818609E-02  0.8626098E-01
       -1   -1    0    0    0  501  0.00000000000E+00  0.00000000000E+00  0.52999465096E+03  0.52999465098E+03  0.50400001928E-02 0.  1.
        1   -1    0    0  501    0  0.00000000000E+00  0.00000000000E+00 -0.18099951790E+04  0.18099951790E+04  0.50400001928E-02 0. -1.
    10030    2    1    2    0    0  0.00000000000E+00  0.00000000000E+00 -0.12800005281E+04  0.23399898300E+04  0.19588647357E+04 0.  0.
        1    1    3    3  502    0  0.19360025961E+03 -0.65658173220E+03  0.19679787716E+03  0.71225700141E+03  0.50400001928E-02 0.  1.
       -1    1    3    3    0  502 -0.19360025961E+03  0.65658173220E+03 -0.14767984052E+04  0.16277328286E+04  0.50400001928E-02 0. -1.
</event>
<event>
 5   0  0.1141890E-04  0.1877147E+04  0.7818609E-02  0.8666316E-01
       -2   -1    0    0    0  501  0.00000000000E+00  0.00000000000E+00  0.47619976875E+03  0.47619976876E+03  0.25500000920E-02 0. -1.
        2   -1    0    0  501    0  0.00000000000E+00  0.00000000000E+00 -0.18498972038E+04  0.18498972038E+04  0.25500000920E-02 0.  1.
    10030    2    1    2    0    0  0.00000000000E+00  0.00000000000E+00 -0.13736974351E+04  0.23260969726E+04  0.18771474323E+04 0.  0.
        2    1    3    3  502    0 -0.79197365647E+03 -0.50333630237E+03 -0.66363576903E+03  0.11493398713E+04  0.25500000920E-02 0. -1.
       -2    1    3    3    0  502  0.79197365647E+03  0.50333630237E+03 -0.71006166604E+03  0.11767571013E+04  0.25500000920E-02 0.  1.
</event>
<event>
 5   0  0.1182630E-04  0.1908372E+04  0.7818609E-02  0.8650700E-01
       -2   -1    0    0    0  501  0.00000000000E+00  0.00000000000E+00  0.98971757207E+03  0.98971757208E+03  0.25500000920E-02 0. -1.
        2   -1    0    0  501    0  0.00000000000E+00  0.00000000000E+00 -0.91993024720E+03  0.91993024720E+03  0.25500000920E-02 0.  1.
    10030    2    1    2    0    0  0.00000000000E+00  0.00000000000E+00  0.69787324873E+02  0.19096478193E+04  0.19083722181E+04 0.  0.
        5    1    3    3  502    0 -0.74774257688E+03 -0.18008056380E+03  0.59998439367E+03  0.97547492709E+03  0.46999998093E+01 0. -1.
       -5    1    3    3    0  502  0.74774257688E+03  0.18008056380E+03 -0.53019706880E+03  0.93417289219E+03  0.46999998093E+01 0.  1.
</event>
<event>
 5   0  0.1182630E-04  0.1923366E+04  0.7818609E-02  0.8643312E-01
       -2   -1    0    0    0  501  0.00000000000E+00  0.00000000000E+00  0.60235586300E+03  0.60235586301E+03  0.25500000920E-02 0. -1.
        2   -1    0    0  501    0  0.00000000000E+00  0.00000000000E+00 -0.15353613050E+04  0.15353613050E+04  0.25500000920E-02 0.  1.
    10030    2    1    2    0    0  0.00000000000E+00  0.00000000000E+00 -0.93300544197E+03  0.21377171680E+04  0.19233656791E+04 0.  0.
        5    1    3    3  502    0 -0.65025396231E+03  0.18002442186E+03  0.29511991417E+03  0.73644881812E+03  0.46999998093E+01 0. -1.
       -5    1    3    3    0  502  0.65025396231E+03 -0.18002442186E+03 -0.12281253561E+04  0.14012683499E+04  0.46999998093E+01 0.  1.
</event>
<event>
 5   0  0.5841424E-05  0.1893492E+04  0.7818609E-02  0.8658102E-01
       -1   -1    0    0    0  501  0.00000000000E+00  0.00000000000E+00  0.95775878353E+03  0.95775878355E+03  0.50400001928E-02 0.  1.
        1   -1    0    0  501    0  0.00000000000E+00  0.00000000000E+00 -0.93586028412E+03  0.93586028413E+03  0.50400001928E-02 0. -1.
    10030    2    1    2    0    0  0.00000000000E+00  0.00000000000E+00  0.21898499414E+02  0.18936190677E+04  0.18934924423E+04 0.  0.
        1    1    3    3  502    0 -0.66302963115E+03  0.43318246300E+03 -0.50780797521E+03  0.94081043667E+03  0.50400001928E-02 0. -1.
       -1    1    3    3    0  502  0.66302963115E+03 -0.43318246300E+03  0.52970647462E+03  0.95280863101E+03  0.50400001928E-02 0.  1.
</event>
<event>
 5   0  0.5614989E-05  0.1892781E+04  0.7818609E-02  0.8658458E-01
        1   -1    0    0  501    0  0.00000000000E+00  0.00000000000E+00  0.21814623116E+04  0.21814623116E+04  0.50400001928E-02 0. -1.
       -1   -1    0    0    0  501  0.00000000000E+00  0.00000000000E+00 -0.41057562972E+03  0.41057562975E+03  0.50400001928E-02 0.  1.
    10030    2    1    2    0    0  0.00000000000E+00  0.00000000000E+00  0.17708866819E+04  0.25920379414E+04  0.18927813000E+04 0.  0.
        4    1    3    3  502    0  0.57467532267E+03 -0.35995131252E+03  0.17895152054E+04  0.19136830869E+04  0.12699999809E+01 0. -1.
       -4    1    3    3    0  502 -0.57467532267E+03  0.35995131252E+03 -0.18628523452E+02  0.67835485452E+03  0.12699999809E+01 0.  1.
</event>
<event>
 5   0  0.1133638E-04  0.1882784E+04  0.7818609E-02  0.8663474E-01
        2   -1    0    0  501    0  0.00000000000E+00  0.00000000000E+00  0.20978974793E+04  0.20978974793E+04  0.25500000920E-02 0.  1.
       -2   -1    0    0    0  501  0.00000000000E+00  0.00000000000E+00 -0.42243191234E+03  0.42243191235E+03  0.25500000920E-02 0. -1.
    10030    2    1    2    0    0  0.00000000000E+00  0.00000000000E+00  0.16754655670E+04  0.25203293916E+04  0.18827839431E+04 0.  0.
        3    1    3    3  502    0 -0.20825327874E+02  0.77223122174E+03  0.11755593869E+03  0.78140524891E+03  0.10100000352E+00 0. -1.
       -3    1    3    3    0  502  0.20825327874E+02 -0.77223122174E+03  0.15579096283E+04  0.17389241427E+04  0.10100000352E+00 0.  1.
</event>
<event>
 5   0  0.1118206E-04  0.1910801E+04  0.7818609E-02  0.8649499E-01
        2   -1    0    0  501    0  0.00000000000E+00  0.00000000000E+00  0.63711065972E+03  0.63711065973E+03  0.25500000920E-02 0. -1.
       -2   -1    0    0    0  501  0.00000000000E+00  0.00000000000E+00 -0.14327022058E+04  0.14327022058E+04  0.25500000920E-02 0.  1.
    10030    2    1    2    0    0  0.00000000000E+00  0.00000000000E+00 -0.79559154610E+03  0.20698128656E+04  0.19108007196E+04 0.  0.
        1    1    3    3  502    0  0.68221274431E+03  0.64961019979E+03 -0.57037176555E+03  0.11012409324E+04  0.50400001928E-02 0. -1.
       -1    1    3    3    0  502 -0.68221274431E+03 -0.64961019979E+03 -0.22521978055E+03  0.96857193318E+03  0.50400001928E-02 0.  1.
</event>
<event>
 5   0  0.1182630E-04  0.1898201E+04  0.7818609E-02  0.8655752E-01
       -2   -1    0    0    0  501  0.00000000000E+00  0.00000000000E+00  0.77000550972E+03  0.77000550973E+03  0.25500000920E-02 0. -1.
        2   -1    0    0  501    0  0.00000000000E+00  0.00000000000E+00 -0.11698508467E+04  0.11698508467E+04  0.25500000920E-02 0.  1.
    10030    2    1    2    0    0  0.00000000000E+00  0.00000000000E+00 -0.39984533700E+03  0.19398563565E+04  0.18982008298E+04 0.  0.
        5    1    3    3  502    0  0.82446938807E+03  0.36565448875E+03 -0.50190090795E+03  0.10321722668E+04  0.46999998093E+01 0.  1.
       -5    1    3    3    0  502 -0.82446938807E+03 -0.36565448875E+03  0.10205557095E+03  0.90768408963E+03  0.46999998093E+01 0. -1.
</event>
<event>
 5   0  0.4061125E-05  0.1904794E+04  0.7818609E-02  0.8652474E-01
       -4   -1    0    0    0  501  0.00000000000E+00  0.00000000000E+00  0.60623852359E+03  0.60623985384E+03  0.12699999809E+01 0. -1.
        4   -1    0    0  501    0  0.00000000000E+00  0.00000000000E+00 -0.14962062395E+04  0.14962067785E+04  0.12699999809E+01 0.  1.
    10030    2    1    2    0    0  0.00000000000E+00  0.00000000000E+00 -0.88996771590E+03  0.21024466323E+04  0.19047937701E+04 0.  0.
        5    1    3    3  502    0 -0.73707899930E+03 -0.43357487282E+02  0.21899577400E+03  0.77016008851E+03  0.46999998093E+01 0.  1.
       -5    1    3    3    0  502  0.73707899930E+03  0.43357487282E+02 -0.11089634899E+04  0.13322865438E+04  0.46999998093E+01 0. -1.
</event>
<event>
 5   0  0.1133638E-04  0.1915392E+04  0.7818609E-02  0.8647233E-01
       -2   -1    0    0    0  501  0.00000000000E+00  0.00000000000E+00  0.64192547659E+03  0.64192547660E+03  0.25500000920E-02 0. -1.
        2   -1    0    0  501    0  0.00000000000E+00  0.00000000000E+00 -0.14287972864E+04  0.14287972864E+04  0.25500000920E-02 0.  1.
    10030    2    1    2    0    0  0.00000000000E+00  0.00000000000E+00 -0.78687180980E+03  0.20707227630E+04  0.19153917396E+04 0.  0.
        3    1    3    3  502    0  0.84464094531E+03  0.29710435293E+03 -0.76083694775E+03  0.11749732739E+04  0.10100000352E+00 0.  1.
       -3    1    3    3    0  502 -0.84464094531E+03 -0.29710435293E+03 -0.26034862049E+02  0.89574948913E+03  0.10100000352E+00 0. -1.
</event>
<event>
 5   0  0.1101678E-04  0.1902863E+04  0.7818609E-02  0.8653433E-01
        2   -1    0    0  501    0  0.00000000000E+00  0.00000000000E+00  0.91701106477E+03  0.91701106477E+03  0.25500000920E-02 0. -1.
       -2   -1    0    0    0  501  0.00000000000E+00  0.00000000000E+00 -0.98714372346E+03  0.98714372347E+03  0.25500000920E-02 0.  1.
    10030    2    1    2    0    0  0.00000000000E+00  0.00000000000E+00 -0.70132658697E+02  0.19041547882E+04  0.19028628084E+04 0.  0.
        4    1    3    3  502    0 -0.21007752159E+03  0.89489180213E+03  0.21057172365E+03  0.94303020434E+03  0.12699999809E+01 0. -1.
       -4    1    3    3    0  502  0.21007752159E+03 -0.89489180213E+03 -0.28070438235E+03  0.96112458390E+03  0.12699999809E+01 0.  1.
</event>
<event>
 5   0  0.4061125E-05  0.1869016E+04  0.7818609E-02  0.8670434E-01
       -3   -1    0    0    0  501  0.00000000000E+00  0.00000000000E+00  0.42420448127E+03  0.42420449329E+03  0.10100000352E+00 0. -1.
        3   -1    0    0  501    0  0.00000000000E+00  0.00000000000E+00 -0.20586902545E+04  0.20586902570E+04  0.10100000352E+00 0.  1.
    10030    2    1    2    0    0  0.00000000000E+00  0.00000000000E+00 -0.16344857732E+04  0.24828947502E+04  0.18690164788E+04 0.  0.
        5    1    3    3  502    0 -0.30890297509E+03 -0.63154413788E+03 -0.16350918357E+04  0.17798360732E+04  0.46999998093E+01 0.  1.
       -5    1    3    3    0  502  0.30890297509E+03  0.63154413788E+03  0.60606250431E+00  0.70305867708E+03  0.46999998093E+01 0. -1.
</event>
<event>
 5   0  0.1133638E-04  0.1868998E+04  0.7818609E-02  0.8670444E-01
        2   -1    0    0  501    0  0.00000000000E+00  0.00000000000E+00  0.15105089456E+04  0.15105089456E+04  0.25500000920E-02 0. -1.
       -2   -1    0    0    0  501  0.00000000000E+00  0.00000000000E+00 -0.57814210574E+03  0.57814210575E+03  0.25500000920E-02 0.  1.
    10030    2    1    2    0    0  0.00000000000E+00  0.00000000000E+00  0.93236683989E+03  0.20886510514E+04  0.18689984725E+04 0.  0.
        3    1    3    3  502    0  0.55950235440E+03 -0.47028175483E+03 -0.18455832783E+03  0.75383658712E+03  0.10100000352E+00 0. -1.
       -3    1    3    3    0  502 -0.55950235440E+03  0.47028175483E+03  0.11169251677E+04  0.13348144643E+04  0.10100000352E+00 0.  1.
</event>
<event>
 5   0  0.1101678E-04  0.1944072E+04  0.7818609E-02  0.8633225E-01
       -2   -1    0    0    0  501  0.00000000000E+00  0.00000000000E+00  0.43962063095E+03  0.43962063096E+03  0.25500000920E-02 0.  1.
        2   -1    0    0  501    0  0.00000000000E+00  0.00000000000E+00 -0.21492474725E+04  0.21492474725E+04  0.25500000920E-02 0. -1.
    10030    2    1    2    0    0  0.00000000000E+00  0.00000000000E+00 -0.17096268415E+04  0.25888681034E+04  0.19440715315E+04 0.  0.
        4    1    3    3  502    0  0.33397105194E+03  0.22565249379E+03  0.32309371270E+03  0.51657223268E+03  0.12699999809E+01 0.  1.
       -4    1    3    3    0  502 -0.33397105194E+03 -0.22565249379E+03 -0.20327205542E+04  0.20722958707E+04  0.12699999809E+01 0. -1.
</event>
<event>
 5   0  0.1118206E-04  0.1902218E+04  0.7818609E-02  0.8653753E-01
        2   -1    0    0  501    0  0.00000000000E+00  0.00000000000E+00  0.94428476189E+03  0.94428476189E+03  0.25500000920E-02 0.  1.
       -2   -1    0    0    0  501  0.00000000000E+00  0.00000000000E+00 -0.95798216020E+03  0.95798216020E+03  0.25500000920E-02 0. -1.
    10030    2    1    2    0    0  0.00000000000E+00  0.00000000000E+00 -0.13697398306E+02  0.19022669221E+04  0.19022176069E+04 0.  0.
        1    1    3    3  502    0  0.83446494326E+03 -0.45099412253E+03 -0.76711199794E+02  0.95163651059E+03  0.50400001928E-02 0. -1.
       -1    1    3    3    0  502 -0.83446494326E+03  0.45099412253E+03  0.63013801488E+02  0.95063041151E+03  0.50400001928E-02 0.  1.
</event>
<event>
 5   0  0.5614989E-05  0.1917000E+04  0.7818609E-02  0.8646440E-01
        1   -1    0    0  501    0  0.00000000000E+00  0.00000000000E+00  0.67318400209E+03  0.67318400211E+03  0.50400001928E-02 0.  1.
       -1   -1    0    0    0  501  0.00000000000E+00  0.00000000000E+00 -0.13647416809E+04  0.13647416809E+04  0.50400001928E-02 0. -1.
    10030    2    1    2    0    0  0.00000000000E+00  0.00000000000E+00 -0.69155767885E+03  0.20379256831E+04  0.19170000173E+04 0.  0.
        4    1    3    3  502    0 -0.92652519720E+03 -0.23296615941E+03 -0.26344338660E+03  0.99102280666E+03  0.12699999809E+01 0. -1.
       -4    1    3    3    0  502  0.92652519720E+03  0.23296615941E+03 -0.42811429224E+03  0.10469028764E+04  0.12699999809E+01 0.  1.
</event>
<event>
 5   0  0.1133638E-04  0.1895662E+04  0.7818609E-02  0.8657019E-01
       -2   -1    0    0    0  501  0.00000000000E+00  0.00000000000E+00  0.95057290148E+03  0.95057290148E+03  0.25500000920E-02 0.  1.
        2   -1    0    0  501    0  0.00000000000E+00  0.00000000000E+00 -0.94509718995E+03  0.94509718996E+03  0.25500000920E-02 0. -1.
    10030    2    1    2    0    0  0.00000000000E+00  0.00000000000E+00  0.54757115253E+01  0.18956700914E+04  0.18956621830E+04 0.  0.
        3    1    3    3  502    0 -0.42864389050E+03  0.66409274294E+03 -0.52035993130E+03  0.94632405887E+03  0.10100000352E+00 0.  1.
       -3    1    3    3    0  502  0.42864389050E+03 -0.66409274294E+03  0.52583564283E+03  0.94934603257E+03  0.10100000352E+00 0. -1.
</event>
<event>
 5   0  0.1182630E-04  0.1899524E+04  0.7818609E-02  0.8655093E-01
        2   -1    0    0  501    0  0.00000000000E+00  0.00000000000E+00  0.22168030982E+04  0.22168030982E+04  0.25500000920E-02 0. -1.
       -2   -1    0    0    0  501  0.00000000000E+00  0.00000000000E+00 -0.40691387449E+03  0.40691387450E+03  0.25500000920E-02 0.  1.
    10030    2    1    2    0    0  0.00000000000E+00  0.00000000000E+00  0.18098892237E+04  0.26237169727E+04  0.18995240853E+04 0.  0.
        5    1    3    3  502    0 -0.48936145601E+03  0.88402587825E+02  0.20225934098E+04  0.20828336092E+04  0.46999998093E+01 0. -1.
       -5    1    3    3    0  502  0.48936145601E+03 -0.88402587825E+02 -0.21270418609E+03  0.54088336353E+03  0.46999998093E+01 0.  1.
</event>
<event>
 5   0  0.5579109E-05  0.1885567E+04  0.7818609E-02  0.8662074E-01
       -1   -1    0    0    0  501  0.00000000000E+00  0.00000000000E+00  0.91572260447E+03  0.91572260449E+03  0.50400001928E-02 0.  1.
        1   -1    0    0  501    0  0.00000000000E+00  0.00000000000E+00 -0.97064426421E+03  0.97064426422E+03  0.50400001928E-02 0. -1.
    10030    2    1    2    0    0  0.00000000000E+00  0.00000000000E+00 -0.54921659733E+02  0.18863668687E+04  0.18855671758E+04 0.  0.
        3    1    3    3  502    0  0.93877946301E+03  0.67540341246E+02 -0.82002807448E+02  0.94477142658E+03  0.10100000352E+00 0. -1.
       -3    1    3    3    0  502 -0.93877946301E+03 -0.67540341246E+02  0.27081147715E+02  0.94159544212E+03  0.10100000352E+00 0.  1.
</event>
<event>
 5   0  0.5614989E-05  0.1919486E+04  0.7818609E-02  0.8645217E-01
        1   -1    0    0  501    0  0.00000000000E+00  0.00000000000E+00  0.18247000075E+04  0.18247000075E+04  0.50400001928E-02 0.  1.
       -1   -1    0    0    0  501  0.00000000000E+00  0.00000000000E+00 -0.50479872396E+03  0.50479872399E+03  0.50400001928E-02 0. -1.
    10030    2    1    2    0    0  0.00000000000E+00  0.00000000000E+00  0.13199012835E+04  0.23294987315E+04  0.19194855930E+04 0.  0.
        4    1    3    3  502    0 -0.23436485899E+03  0.49804581895E+03 -0.29419981857E+03  0.62412472395E+03  0.12699999809E+01 0. -1.
       -4    1    3    3    0  502  0.23436485899E+03 -0.49804581895E+03  0.16141011021E+04  0.17053740075E+04  0.12699999809E+01 0.  1.
</event>
<event>
 5   0  0.1101678E-04  0.1898337E+04  0.7818609E-02  0.8655685E-01
       -2   -1    0    0    0  501  0.00000000000E+00  0.00000000000E+00  0.47443956275E+03  0.47443956276E+03  0.25500000920E-02 0.  1.
        2   -1    0    0  501    0  0.00000000000E+00  0.00000000000E+00 -0.18989162482E+04  0.18989162482E+04  0.25500000920E-02 0. -1.
    10030    2    1    2    0    0  0.00000000000E+00  0.00000000000E+00 -0.14244766855E+04  0.23733558110E+04  0.18983371613E+04 0.  0.
        4    1    3    3  502    0 -0.27141390819E+03 -0.86841961980E+03 -0.10502657098E+04  0.13895602973E+04  0.12699999809E+01 0. -1.
       -4    1    3    3    0  502  0.27141390819E+03  0.86841961980E+03 -0.37421097565E+03  0.98379551372E+03  0.12699999809E+01 0.  1.
</event>
<event>
 5   0  0.5579109E-05  0.1872696E+04  0.7818609E-02  0.8668568E-01
        1   -1    0    0  501    0  0.00000000000E+00  0.00000000000E+00  0.10627749551E+04  0.10627749551E+04  0.50400001928E-02 0. -1.
       -1   -1    0    0    0  501  0.00000000000E+00  0.00000000000E+00 -0.82496048994E+03  0.82496048996E+03  0.50400001928E-02 0.  1.
    10030    2    1    2    0    0  0.00000000000E+00  0.00000000000E+00  0.23781446512E+03  0.18877354450E+04  0.18726957550E+04 0.  0.
        3    1    3    3  502    0 -0.14438533188E+02 -0.17042741203E+03  0.10468945853E+04  0.10607743667E+04  0.10100000352E+00 0. -1.
       -3    1    3    3    0  502  0.14438533188E+02  0.17042741203E+03 -0.80908012020E+03  0.82696107836E+03  0.10100000352E+00 0.  1.
</event>
<event>
 5   0  0.1182630E-04  0.1895266E+04  0.7818609E-02  0.8657216E-01
       -2   -1    0    0    0  501  0.00000000000E+00  0.00000000000E+00  0.53153869571E+03  0.53153869572E+03  0.25500000920E-02 0. -1.
        2   -1    0    0  501    0  0.00000000000E+00  0.00000000000E+00 -0.16894508232E+04  0.16894508232E+04  0.25500000920E-02 0.  1.
    10030    2    1    2    0    0  0.00000000000E+00  0.00000000000E+00 -0.11579121275E+04  0.22209895189E+04  0.18952661946E+04 0.  0.
        5    1    3    3  502    0 -0.45293775301E+03 -0.78957709135E+03 -0.27023825850E+03  0.94954483709E+03  0.46999998093E+01 0.  1.
       -5    1    3    3    0  502  0.45293775301E+03  0.78957709135E+03 -0.88767386901E+03  0.12714446819E+04  0.46999998093E+01 0. -1.
</event>
<event>
 5   0  0.1141890E-04  0.1884907E+04  0.7818609E-02  0.8662406E-01
        2   -1    0    0  501    0  0.00000000000E+00  0.00000000000E+00  0.14903755398E+04  0.14903755398E+04  0.25500000920E-02 0.  1.
       -2   -1    0    0    0  501  0.00000000000E+00  0.00000000000E+00 -0.59596946521E+03  0.59596946522E+03  0.25500000920E-02 0. -1.
    10030    2    1    2    0    0  0.00000000000E+00  0.00000000000E+00  0.89440607459E+03  0.20863450050E+04  0.18849066963E+04 0.  0.
        2    1    3    3  502    0 -0.11231331245E+03 -0.36699995912E+02  0.14821446848E+04  0.14868470118E+04  0.25500000920E-02 0.  1.
       -2    1    3    3    0  502  0.11231331245E+03  0.36699995912E+02 -0.58773861024E+03  0.59949799318E+03  0.25500000920E-02 0. -1.
</event>
<event>
 5   0  0.1182630E-04  0.1917799E+04  0.7818609E-02  0.8646047E-01
        2   -1    0    0  501    0  0.00000000000E+00  0.00000000000E+00  0.59292239102E+03  0.59292239102E+03  0.25500000920E-02 0. -1.
       -2   -1    0    0    0  501  0.00000000000E+00  0.00000000000E+00 -0.15507731480E+04  0.15507731480E+04  0.25500000920E-02 0.  1.
    10030    2    1    2    0    0  0.00000000000E+00  0.00000000000E+00 -0.95785075700E+03  0.21436955390E+04  0.19177988663E+04 0.  0.
        5    1    3    3  502    0  0.90268379522E+03 -0.76768090316E+02 -0.83015801359E+03  0.12287863083E+04  0.46999998093E+01 0.  1.
       -5    1    3    3    0  502 -0.90268379522E+03  0.76768090316E+02 -0.12769274341E+03  0.91490923078E+03  0.46999998093E+01 0. -1.
</event>
<event>
 5   0  0.5628936E-05  0.1892290E+04  0.7818609E-02  0.8658704E-01
        1   -1    0    0  501    0  0.00000000000E+00  0.00000000000E+00  0.87048105309E+03  0.87048105311E+03  0.50400001928E-02 0. -1.
       -1   -1    0    0    0  501  0.00000000000E+00  0.00000000000E+00 -0.10283856720E+04  0.10283856720E+04  0.50400001928E-02 0.  1.
    10030    2    1    2    0    0  0.00000000000E+00  0.00000000000E+00 -0.15790461887E+03  0.18988667251E+04  0.18922898750E+04 0.  0.
        5    1    3    3  502    0 -0.42828332750E+03  0.49592438159E+03  0.60591560127E+03  0.89248160022E+03  0.46999998093E+01 0.  1.
       -5    1    3    3    0  502  0.42828332750E+03 -0.49592438159E+03 -0.76382022014E+03  0.10063851249E+04  0.46999998093E+01 0. -1.
</event>
<event>
 5   0  0.5614989E-05  0.1898660E+04  0.7818609E-02  0.8655524E-01
       -1   -1    0    0    0  501  0.00000000000E+00  0.00000000000E+00  0.61453179467E+03  0.61453179469E+03  0.50400001928E-02 0.  1.
        1   -1    0    0  501    0  0.00000000000E+00  0.00000000000E+00 -0.14665266843E+04  0.14665266843E+04  0.50400001928E-02 0. -1.
    10030    2    1    2    0    0  0.00000000000E+00  0.00000000000E+00 -0.85199488967E+03  0.20810584790E+04  0.18986598171E+04 0.  0.
        4    1    3    3  502    0 -0.30858394149E+03  0.88092461766E+03 -0.61575774455E+03  0.11182179769E+04  0.12699999809E+01 0. -1.
       -4    1    3    3    0  502  0.30858394149E+03 -0.88092461766E+03 -0.23623714511E+03  0.96284050215E+03  0.12699999809E+01 0.  1.
</event>
<event>
 5   0  0.1133638E-04  0.1900552E+04  0.7818609E-02  0.8654582E-01
       -2   -1    0    0    0  501  0.00000000000E+00  0.00000000000E+00  0.10532603923E+04  0.10532603923E+04  0.25500000920E-02 0.  1.
        2   -1    0    0  501    0  0.00000000000E+00  0.00000000000E+00 -0.85736112636E+03  0.85736112636E+03  0.25500000920E-02 0. -1.
    10030    2    1    2    0    0  0.00000000000E+00  0.00000000000E+00  0.19589926590E+03  0.19106215186E+04  0.19005520422E+04 0.  0.
        3    1    3    3  502    0  0.12683012742E+03 -0.50275404610E+03 -0.70262189412E+03  0.87322680238E+03  0.10100000352E+00 0. -1.
       -3    1    3    3    0  502 -0.12683012742E+03  0.50275404610E+03  0.89852116002E+03  0.10373947162E+04  0.10100000352E+00 0.  1.
</event>
<event>
 5   0  0.5824956E-05  0.1894814E+04  0.7818609E-02  0.8657442E-01
       -1   -1    0    0    0  501  0.00000000000E+00  0.00000000000E+00  0.81114689102E+03  0.81114689104E+03  0.50400001928E-02 0. -1.
        1   -1    0    0  501    0  0.00000000000E+00  0.00000000000E+00 -0.11065564015E+04  0.11065564015E+04  0.50400001928E-02 0.  1.
    10030    2    1    2    0    0  0.00000000000E+00  0.00000000000E+00 -0.29540951046E+03  0.19177032925E+04  0.18948137479E+04 0.  0.
        2    1    3    3  502    0 -0.16888853867E+03  0.90608779642E+03 -0.36958205729E+03  0.99303037738E+03  0.25500000920E-02 0.  1.
       -2    1    3    3    0  502  0.16888853867E+03 -0.90608779642E+03  0.74172546832E+02  0.92467291516E+03  0.25500000920E-02 0. -1.
</event>
<event>
 5   0  0.1101678E-04  0.1910571E+04  0.7818609E-02  0.8649612E-01
        2   -1    0    0  501    0  0.00000000000E+00  0.00000000000E+00  0.15870844503E+04  0.15870844503E+04  0.25500000920E-02 0.  1.
       -2   -1    0    0    0  501  0.00000000000E+00  0.00000000000E+00 -0.57499810152E+03  0.57499810153E+03  0.25500000920E-02 0. -1.
    10030    2    1    2    0    0  0.00000000000E+00  0.00000000000E+00  0.10120863488E+04  0.21620825519E+04  0.19105711668E+04 0.  0.
        4    1    3    3  502    0 -0.84789365003E+03  0.67203519801E+01  0.10039658135E+04  0.13141224343E+04  0.12699999809E+01 0.  1.
       -4    1    3    3    0  502  0.84789365003E+03 -0.67203519801E+01  0.81205353136E+01  0.84796011751E+03  0.12699999809E+01 0. -1.
</event>
<event>
 5   0  0.5614989E-05  0.1886872E+04  0.7818609E-02  0.8661419E-01
        1   -1    0    0  501    0  0.00000000000E+00  0.00000000000E+00  0.13258112021E+04  0.13258112021E+04  0.50400001928E-02 0. -1.
       -1   -1    0    0    0  501  0.00000000000E+00  0.00000000000E+00 -0.67134099496E+03  0.67134099498E+03  0.50400001928E-02 0.  1.
    10030    2    1    2    0    0  0.00000000000E+00  0.00000000000E+00  0.65447020715E+03  0.19971521971E+04  0.18868719210E+04 0.  0.
        4    1    3    3  502    0  0.76015013058E+03  0.44795726514E+03  0.68078757256E+03  0.11144358502E+04  0.12699999809E+01 0. -1.
       -4    1    3    3    0  502 -0.76015013058E+03 -0.44795726514E+03 -0.26317365419E+02  0.88271634687E+03  0.12699999809E+01 0.  1.
</event>
<event>
 5   0  0.5841424E-05  0.1896230E+04  0.7818609E-02  0.8656735E-01
        1   -1    0    0  501    0  0.00000000000E+00  0.00000000000E+00  0.19530685486E+04  0.19530685486E+04  0.50400001928E-02 0. -1.
       -1   -1    0    0    0  501  0.00000000000E+00  0.00000000000E+00 -0.46026118056E+03  0.46026118059E+03  0.50400001928E-02 0.  1.
    10030    2    1    2    0    0  0.00000000000E+00  0.00000000000E+00  0.14928073680E+04  0.24133297292E+04  0.18962295599E+04 0.  0.
        1    1    3    3  502    0  0.12207435356E+03  0.24330470019E+02  0.19426241036E+04  0.19466079542E+04  0.50400001928E-02 0. -1.
       -1    1    3    3    0  502 -0.12207435356E+03 -0.24330470019E+02 -0.44981673558E+03  0.46672177494E+03  0.50400001928E-02 0.  1.
</event>
<event>
 5   0  0.5628936E-05  0.1902673E+04  0.7818609E-02  0.8653527E-01
       -1   -1    0    0    0  501  0.00000000000E+00  0.00000000000E+00  0.73555931655E+03  0.73555931657E+03  0.50400001928E-02 0. -1.
        1   -1    0    0  501    0  0.00000000000E+00  0.00000000000E+00 -0.12304120583E+04  0.12304120584E+04  0.50400001928E-02 0.  1.
    10030    2    1    2    0    0  0.00000000000E+00  0.00000000000E+00 -0.49485274179E+03  0.19659713749E+04  0.19026729122E+04 0.  0.
        5    1    3    3  502    0  0.67544145205E+03 -0.65687015037E+03 -0.11144492930E+03  0.94875793112E+03  0.46999998093E+01 0.  1.
       -5    1    3    3    0  502 -0.67544145205E+03  0.65687015037E+03 -0.38340781249E+03  0.10172134438E+04  0.46999998093E+01 0. -1.
</event>
<event>
 5   0  0.5579109E-05  0.1919620E+04  0.7818609E-02  0.8645152E-01
       -1   -1    0    0    0  501  0.00000000000E+00  0.00000000000E+00  0.10159938486E+04  0.10159938486E+04  0.50400001928E-02 0. -1.
        1   -1    0    0  501    0  0.00000000000E+00  0.00000000000E+00 -0.90673271226E+03  0.90673271227E+03  0.50400001928E-02 0.  1.
    10030    2    1    2    0    0  0.00000000000E+00  0.00000000000E+00  0.10926113630E+03  0.19227265608E+04  0.19196196060E+04 0.  0.
        3    1    3    3  502    0 -0.23891048998E+02 -0.29364997815E+03 -0.86032136924E+03  0.90937008993E+03  0.10100000352E+00 0.  1.
       -3    1    3    3    0  502  0.23891048998E+02  0.29364997815E+03  0.96958250554E+03  0.10133564709E+04  0.10100000352E+00 0. -1.
</event>
<event>
 5   0  0.1141890E-04  0.1896513E+04  0.7818609E-02  0.8656594E-01
       -2   -1    0    0    0  501  0.00000000000E+00  0.00000000000E+00  0.50756787338E+03  0.50756787339E+03  0.25500000920E-02 0. -1.
        2   -1    0    0  501    0  0.00000000000E+00  0.00000000000E+00 -0.17715661965E+04  0.17715661965E+04  0.25500000920E-02 0.  1.
    10030    2    1    2    0    0  0.00000000000E+00  0.00000000000E+00 -0.12639983231E+04  0.22791340699E+04  0.18965126806E+04 0.  0.
        2    1    3    3  502    0  0.66761944628E+03  0.60662434928E+03 -0.28064137560E+03  0.94470546092E+03  0.25500000920E-02 0. -1.
       -2    1    3    3    0  502 -0.66761944628E+03 -0.60662434928E+03 -0.98335694751E+03  0.13344286090E+04  0.25500000920E-02 0.  1.
</event>
<event>
 5   0  0.5614989E-05  0.1910297E+04  0.7818609E-02  0.8649748E-01
        1   -1    0    0  501    0  0.00000000000E+00  0.00000000000E+00  0.13162595787E+04  0.13162595787E+04  0.50400001928E-02 0.  1.
       -1   -1    0    0    0  501  0.00000000000E+00  0.00000000000E+00 -0.69310686841E+03  0.69310686843E+03  0.50400001928E-02 0. -1.
    10030    2    1    2    0    0  0.00000000000E+00  0.00000000000E+00  0.62315271033E+03  0.20093664472E+04  0.19102968928E+04 0.  0.
        4    1    3    3  502    0 -0.15331261414E+03 -0.24250153916E+03 -0.64671167597E+03  0.70749512994E+03  0.12699999809E+01 0. -1.
       -4    1    3    3    0  502  0.15331261414E+03  0.24250153916E+03  0.12698643863E+04  0.13018713172E+04  0.12699999809E+01 0.  1.
</event>
<event>
 5   0  0.1133638E-04  0.1877236E+04  0.7818609E-02  0.8666271E-01
       -2   -1    0    0    0  501  0.00000000000E+00  0.00000000000E+00  0.69383297980E+03  0.69383297981E+03  0.25500000920E-02 0.  1.
        2   -1    0    0  501    0  0.00000000000E+00  0.00000000000E+00 -0.12697629863E+04  0.12697629863E+04  0.25500000920E-02 0. -1.
    10030    2    1    2    0    0  0.00000000000E+00  0.00000000000E+00 -0.57593000649E+03  0.19635959661E+04  0.18772356660E+04 0.  0.
        3    1    3    3  502    0 -0.13146736682E+03  0.58164586791E+03 -0.10461612141E+04  0.12041797541E+04  0.10100000352E+00 0. -1.
       -3    1    3    3    0  502  0.13146736682E+03 -0.58164586791E+03  0.47023120760E+03  0.75941621197E+03  0.10100000352E+00 0.  1.
</event>
<event>
 5   0  0.1101678E-04  0.1910636E+04  0.7818609E-02  0.8649580E-01
       -2   -1    0    0    0  501  0.00000000000E+00  0.00000000000E+00  0.52503038252E+03  0.52503038252E+03  0.25500000920E-02 0. -1.
        2   -1    0    0  501    0  0.00000000000E+00  0.00000000000E+00 -0.17382475636E+04  0.17382475636E+04  0.25500000920E-02 0.  1.
    10030    2    1    2    0    0  0.00000000000E+00  0.00000000000E+00 -0.12132171811E+04  0.22632779462E+04  0.19106363163E+04 0.  0.
        4    1    3    3  502    0  0.63615748216E+03  0.61932994890E+03 -0.10243517760E+04  0.13555678152E+04  0.12699999809E+01 0. -1.
       -4    1    3    3    0  502 -0.63615748216E+03 -0.61932994890E+03 -0.18886540513E+03  0.90771013097E+03  0.12699999809E+01 0.  1.
</event>
<event>
 5   0  0.5579109E-05  0.1914194E+04  0.7818609E-02  0.8647823E-01
       -1   -1    0    0    0  501  0.00000000000E+00  0.00000000000E+00  0.65965251218E+03  0.65965251220E+03  0.50400001928E-02 0. -1.
        1   -1    0    0  501    0  0.00000000000E+00  0.00000000000E+00 -0.13886627168E+04  0.13886627168E+04  0.50400001928E-02 0.  1.
    10030    2    1    2    0    0  0.00000000000E+00  0.00000000000E+00 -0.72901020466E+03  0.20483152290E+04  0.19141941905E+04 0.  0.
        3    1    3    3  502    0  0.56659497368E+03 -0.18671714184E+03  0.43636069500E+03  0.73912368491E+03  0.10100000352E+00 0. -1.
       -3    1    3    3    0  502 -0.56659497368E+03  0.18671714184E+03 -0.11653708997E+04  0.13091915441E+04  0.10100000352E+00 0.  1.
</event>
<event>
 5   0  0.1182630E-04  0.1910480E+04  0.7818609E-02  0.8649657E-01
       -2   -1    0    0    0  501  0.00000000000E+00  0.00000000000E+00  0.83688343991E+03  0.83688343991E+03  0.25500000920E-02 0.  1.
        2   -1    0    0  501    0  0.00000000000E+00  0.00000000000E+00 -0.10903349581E+04  0.10903349581E+04  0.25500000920E-02 0. -1.
    10030    2    1    2    0    0  0.00000000000E+00  0.00000000000E+00 -0.25345151824E+03  0.19272183981E+04  0.19104798041E+04 0.  0.
        5    1    3    3  502    0  0.17700408825E+03  0.71298809772E+03 -0.74263118484E+03  0.10446078888E+04  0.46999998093E+01 0. -1.
       -5    1    3    3    0  502 -0.17700408825E+03 -0.71298809772E+03  0.48917966660E+03  0.88261050921E+03  0.46999998093E+01 0.  1.
</event>
<event>
 5   0  0.1118206E-04  0.1898531E+04  0.7818609E-02  0.8655588E-01
        2   -1    0    0  501    0  0.00000000000E+00  0.00000000000E+00  0.93199072618E+03  0.93199072619E+03  0.25500000920E-02 0. -1.
       -2   -1    0    0    0  501  0.00000000000E+00  0.00000000000E+00 -0.96686064659E+03  0.96686064660E+03  0.25500000920E-02 0.  1.
    10030    2    1    2    0    0  0.00000000000E+00  0.00000000000E+00 -0.34869920410E+02  0.18988513728E+04  0.18985311756E+04 0.  0.
        1    1    3    3  502    0 -0.47154463406E+03  0.80603920891E+03 -0.18790902906E+03  0.95255621956E+03  0.50400001928E-02 0. -1.
       -1    1    3    3    0  502  0.47154463406E+03 -0.80603920891E+03  0.15303910865E+03  0.94629515322E+03  0.50400001928E-02 0.  1.
</event>
<event>
 5   0  0.1133638E-04  0.1913738E+04  0.7818609E-02  0.8648048E-01
        2   -1    0    0  501    0  0.00000000000E+00  0.00000000000E+00  0.59377558128E+03  0.59377558129E+03  0.25500000920E-02 0.  1.
       -2   -1    0    0    0  501  0.00000000000E+00  0.00000000000E+00 -0.15419940037E+04  0.15419940037E+04  0.25500000920E-02 0. -1.
    10030    2    1    2    0    0  0.00000000000E+00  0.00000000000E+00 -0.94821842245E+03  0.21357695850E+04  0.19137381074E+04 0.  0.
        3    1    3    3  502    0  0.81551111722E+03  0.33280931643E+03 -0.89135429630E+03  0.12531292492E+04  0.10100000352E+00 0. -1.
       -3    1    3    3    0  502 -0.81551111722E+03 -0.33280931643E+03 -0.56864126148E+02  0.88264033584E+03  0.10100000352E+00 0.  1.
</event>
<event>
 5   0  0.5841424E-05  0.1901527E+04  0.7818609E-02  0.8654097E-01
        1   -1    0    0  501    0  0.00000000000E+00  0.00000000000E+00  0.34332443729E+04  0.34332443729E+04  0.50400001928E-02 0. -1.
       -1   -1    0    0    0  501  0.00000000000E+00  0.00000000000E+00 -0.26329356424E+03  0.26329356429E+03  0.50400001928E-02 0.  1.
    10030    2    1    2    0    0  0.00000000000E+00  0.00000000000E+00  0.31699508087E+04  0.36965379372E+04  0.19015269106E+04 0.  0.
        1    1    3    3  502    0 -0.14704704539E+03 -0.49753286573E+03  0.36131996304E+02  0.52006471446E+03  0.50400001928E-02 0.  1.
       -1    1    3    3    0  502  0.14704704539E+03  0.49753286573E+03  0.31338188124E+04  0.31764732227E+04  0.50400001928E-02 0. -1.
</event>
<event>
 5   0  0.5824956E-05  0.1904113E+04  0.7818609E-02  0.8652812E-01
       -1   -1    0    0    0  501  0.00000000000E+00  0.00000000000E+00  0.78343861468E+03  0.78343861469E+03  0.50400001928E-02 0. -1.
        1   -1    0    0  501    0  0.00000000000E+00  0.00000000000E+00 -0.11569661334E+04  0.11569661334E+04  0.50400001928E-02 0.  1.
    10030    2    1    2    0    0  0.00000000000E+00  0.00000000000E+00 -0.37352751872E+03  0.19404047481E+04  0.19041133840E+04 0.  0.
        2    1    3    3  502    0 -0.43160658153E+03 -0.82587214193E+03  0.12051864337E+02  0.93193040699E+03  0.25500000920E-02 0. -1.
       -2    1    3    3    0  502  0.43160658153E+03  0.82587214193E+03 -0.38557938306E+03  0.10084743411E+04  0.25500000920E-02 0.  1.
</event>
<event>
 5   0  0.1118206E-04  0.1916797E+04  0.7818609E-02  0.8646540E-01
       -2   -1    0    0    0  501  0.00000000000E+00  0.00000000000E+00  0.17236474494E+04  0.17236474494E+04  0.25500000920E-02 0. -1.
        2   -1    0    0  501    0  0.00000000000E+00  0.00000000000E+00 -0.53289776898E+03  0.53289776898E+03  0.25500000920E-02 0.  1.
    10030    2    1    2    0    0  0.00000000000E+00  0.00000000000E+00  0.11907496804E+04  0.22565452183E+04  0.19167972040E+04 0.  0.
        1    1    3    3  502    0 -0.62536416356E+02 -0.50915290449E+03  0.15484224509E+04  0.16311834876E+04  0.50400001928E-02 0. -1.
       -1    1    3    3    0  502  0.62536416356E+02  0.50915290449E+03 -0.35767277054E+03  0.62536173079E+03  0.50400001928E-02 0.  1.
</event>
<event>
 5   0  0.1133638E-04  0.1855881E+04  0.7818609E-02  0.8677134E-01
       -2   -1    0    0    0  501  0.00000000000E+00  0.00000000000E+00  0.81696938204E+03  0.81696938204E+03  0.25500000920E-02 0.  1.
        2   -1    0    0  501    0  0.00000000000E+00  0.00000000000E+00 -0.10539853754E+04  0.10539853754E+04  0.25500000920E-02 0. -1.
    10030    2    1    2    0    0  0.00000000000E+00  0.00000000000E+00 -0.23701599332E+03  0.18709547574E+04  0.18558812255E+04 0.  0.
        3    1    3    3  502    0 -0.62045433400E+03  0.24086243644E+03 -0.77036275765E+03  0.10180555400E+04  0.10100000352E+00 0. -1.
       -3    1    3    3    0  502  0.62045433400E+03 -0.24086243644E+03  0.53334676433E+03  0.85289921743E+03  0.10100000352E+00 0.  1.
</event>
<event>
 5   0  0.5628936E-05  0.1891927E+04  0.7818609E-02  0.8658885E-01
        1   -1    0    0  501    0  0.00000000000E+00  0.00000000000E+00  0.17592693439E+04  0.17592693439E+04  0.50400001928E-02 0. -1.
       -1   -1    0    0    0  501  0.00000000000E+00  0.00000000000E+00 -0.50864674533E+03  0.50864674535E+03  0.50400001928E-02 0.  1.
    10030    2    1    2    0    0  0.00000000000E+00  0.00000000000E+00  0.12506225986E+04  0.22679160893E+04  0.18919266645E+04 0.  0.
        5    1    3    3  502    0 -0.65371552620E+02  0.85880692368E+03  0.15642137256E+03  0.87539277347E+03  0.46999998093E+01 0.  1.
       -5    1    3    3    0  502  0.65371552620E+02 -0.85880692368E+03  0.10942012260E+04  0.13925233158E+04  0.46999998093E+01 0. -1.
</event>
<event>
 5   0  0.1133638E-04  0.1898415E+04  0.7818609E-02  0.8655646E-01
        2   -1    0    0  501    0  0.00000000000E+00  0.00000000000E+00  0.15319304729E+04  0.15319304729E+04  0.25500000920E-02 0. -1.
       -2   -1    0    0    0  501  0.00000000000E+00  0.00000000000E+00 -0.58814362081E+03  0.58814362082E+03  0.25500000920E-02 0.  1.
    10030    2    1    2    0    0  0.00000000000E+00  0.00000000000E+00  0.94378685210E+03  0.21200740937E+04  0.18984152709E+04 0.  0.
        3    1    3    3  502    0 -0.28346602849E+03 -0.83157301149E+03  0.87319495099E+03  0.12386832103E+04  0.10100000352E+00 0. -1.
       -3    1    3    3    0  502  0.28346602849E+03  0.83157301149E+03  0.70591901107E+02  0.88139088347E+03  0.10100000352E+00 0.  1.
</event>
<event>
 5   0  0.5614989E-05  0.1905882E+04  0.7818609E-02  0.8651934E-01
        1   -1    0    0  501    0  0.00000000000E+00  0.00000000000E+00  0.11638509276E+04  0.11638509276E+04  0.50400001928E-02 0. -1.
       -1   -1    0    0    0  501  0.00000000000E+00  0.00000000000E+00 -0.78025186905E+03  0.78025186907E+03  0.50400001928E-02 0.  1.
    10030    2    1    2    0    0  0.00000000000E+00  0.00000000000E+00  0.38359905852E+03  0.19441027966E+04  0.19058823275E+04 0.  0.
        4    1    3    3  502    0 -0.64859082361E+03 -0.41579190273E+02 -0.51909564762E+03  0.83178169601E+03  0.12699999809E+01 0.  1.
       -4    1    3    3    0  502  0.64859082361E+03  0.41579190273E+02  0.90269470614E+03  0.11123211006E+04  0.12699999809E+01 0. -1.
</event>
<event>
 5   0  0.5614989E-05  0.1908299E+04  0.7818609E-02  0.8650737E-01
        1   -1    0    0  501    0  0.00000000000E+00  0.00000000000E+00  0.16529128114E+04  0.16529128114E+04  0.50400001928E-02 0. -1.
       -1   -1    0    0    0  501  0.00000000000E+00  0.00000000000E+00 -0.55078585833E+03  0.55078585835E+03  0.50400001928E-02 0.  1.
    10030    2    1    2    0    0  0.00000000000E+00  0.00000000000E+00  0.11021269531E+04  0.22036986698E+04  0.19082987204E+04 0.  0.
        4    1    3    3  502    0 -0.42633554054E+03  0.84912443366E+03  0.65190244334E+03  0.11522815218E+04  0.12699999809E+01 0.  1.
       -4    1    3    3    0  502  0.42633554054E+03 -0.84912443366E+03  0.45022450974E+03  0.10514171480E+04  0.12699999809E+01 0. -1.
</event>
<event>
 5   0  0.1133638E-04  0.1903840E+04  0.7818609E-02  0.8652947E-01
       -2   -1    0    0    0  501  0.00000000000E+00  0.00000000000E+00  0.19241442763E+04  0.19241442763E+04  0.25500000920E-02 0.  1.
        2   -1    0    0  501    0  0.00000000000E+00  0.00000000000E+00 -0.47093747905E+03  0.47093747905E+03  0.25500000920E-02 0. -1.
    10030    2    1    2    0    0  0.00000000000E+00  0.00000000000E+00  0.14532067973E+04  0.23950817554E+04  0.19038399668E+04 0.  0.
        3    1    3    3  502    0  0.97573427852E+02 -0.87711269882E+03  0.11754640997E+04  0.14698854105E+04  0.10100000352E+00 0.  1.
       -3    1    3    3    0  502 -0.97573427852E+02  0.87711269882E+03  0.27774269759E+03  0.92519634484E+03  0.10100000352E+00 0. -1.
</event>
<event>
 5   0  0.5628936E-05  0.1891866E+04  0.7818609E-02  0.8658916E-01
        1   -1    0    0  501    0  0.00000000000E+00  0.00000000000E+00  0.12012776427E+04  0.12012776428E+04  0.50400001928E-02 0. -1.
       -1   -1    0    0    0  501  0.00000000000E+00  0.00000000000E+00 -0.74486474808E+03  0.74486474810E+03  0.50400001928E-02 0.  1.
    10030    2    1    2    0    0  0.00000000000E+00  0.00000000000E+00  0.45641289466E+03  0.19461423909E+04  0.18918661356E+04 0.  0.
        5    1    3    3  502    0 -0.73508637448E+03  0.49291272644E+03  0.57162900184E+03  0.10536112849E+04  0.46999998093E+01 0. -1.
       -5    1    3    3    0  502  0.73508637448E+03 -0.49291272644E+03 -0.11521610718E+03  0.89253110600E+03  0.46999998093E+01 0.  1.
</event>
<event>
 5   0  0.5841424E-05  0.1880028E+04  0.7818609E-02  0.8664862E-01
        1   -1    0    0  501    0  0.00000000000E+00  0.00000000000E+00  0.18831960290E+04  0.18831960291E+04  0.50400001928E-02 0. -1.
       -1   -1    0    0    0  501  0.00000000000E+00  0.00000000000E+00 -0.46921609583E+03  0.46921609585E+03  0.50400001928E-02 0.  1.
    10030    2    1    2    0    0  0.00000000000E+00  0.00000000000E+00  0.14139799332E+04  0.23524121249E+04  0.18800275407E+04 0.  0.
        1    1    3    3  502    0 -0.49293392484E+01 -0.73412660495E+03 -0.27599103124E+02  0.73466174598E+03  0.50400001928E-02 0.  1.
       -1    1    3    3    0  502  0.49293392484E+01  0.73412660495E+03  0.14415790363E+04  0.16177503789E+04  0.50400001928E-02 0. -1.
</event>
<event>
 5   0  0.5614989E-05  0.1899621E+04  0.7818609E-02  0.8655045E-01
        1   -1    0    0  501    0  0.00000000000E+00  0.00000000000E+00  0.19670126375E+04  0.19670126376E+04  0.50400001928E-02 0.  1.
       -1   -1    0    0    0  501  0.00000000000E+00  0.00000000000E+00 -0.45863456331E+03  0.45863456334E+03  0.50400001928E-02 0. -1.
    10030    2    1    2    0    0  0.00000000000E+00  0.00000000000E+00  0.15083780742E+04  0.24256472009E+04  0.18996209960E+04 0.  0.
        4    1    3    3  502    0 -0.78404444804E+03  0.39576389561E+03  0.12159713952E+04  0.14999809347E+04  0.12699999809E+01 0.  1.
       -4    1    3    3    0  502  0.78404444804E+03 -0.39576389561E+03  0.29240667905E+03  0.92566626622E+03  0.12699999809E+01 0. -1.
</event>
<event>
 5   0  0.1141890E-04  0.1889716E+04  0.7818609E-02  0.8659992E-01
        2   -1    0    0  501    0  0.00000000000E+00  0.00000000000E+00  0.14364291344E+04  0.14364291344E+04  0.25500000920E-02 0. -1.
       -2   -1    0    0    0  501  0.00000000000E+00  0.00000000000E+00 -0.62151137015E+03  0.62151137016E+03  0.25500000920E-02 0.  1.
    10030    2    1    2    0    0  0.00000000000E+00  0.00000000000E+00  0.81491776422E+03  0.20579405045E+04  0.18897164226E+04 0.  0.
        2    1    3    3  502    0  0.37996161991E+03  0.43421731513E+03  0.12222921158E+04  0.13516336507E+04  0.25500000920E-02 0. -1.
       -2    1    3    3    0  502 -0.37996161991E+03 -0.43421731513E+03 -0.40737435161E+03  0.70630685380E+03  0.25500000920E-02 0.  1.
</event>
<event>
 5   0  0.1141890E-04  0.1902400E+04  0.7818609E-02  0.8653663E-01
       -2   -1    0    0    0  501  0.00000000000E+00  0.00000000000E+00  0.57875215936E+03  0.57875215937E+03  0.25500000920E-02 0. -1.
        2   -1    0    0  501    0  0.00000000000E+00  0.00000000000E+00 -0.15633316372E+04  0.15633316372E+04  0.25500000920E-02 0.  1.
    10030    2    1    2    0    0  0.00000000000E+00  0.00000000000E+00 -0.98457947782E+03  0.21420837966E+04  0.19024001270E+04 0.  0.
        2    1    3    3  502    0  0.65075875301E+03 -0.24308480111E+03  0.23934776587E+03  0.73475474015E+03  0.25500000920E-02 0. -1.
       -2    1    3    3    0  502 -0.65075875301E+03  0.24308480111E+03 -0.12239272437E+04  0.14073290564E+04  0.25500000920E-02 0.  1.
</event>
<event>
 5   0  0.1141890E-04  0.1913095E+04  0.7818609E-02  0.8648365E-01
        2   -1    0    0  501    0  0.00000000000E+00  0.00000000000E+00  0.16051512142E+04  0.16051512142E+04  0.25500000920E-02 0.  1.
       -2   -1    0    0    0  501  0.00000000000E+00  0.00000000000E+00 -0.57002933184E+03  0.57002933184E+03  0.25500000920E-02 0. -1.
    10030    2    1    2    0    0  0.00000000000E+00  0.00000000000E+00  0.10351218824E+04  0.21751805460E+04  0.19130951614E+04 0.  0.
        2    1    3    3  502    0 -0.89367807457E+03 -0.33060577669E+03  0.42227967834E+03  0.10422479586E+04  0.25500000920E-02 0.  1.
       -2    1    3    3    0  502  0.89367807457E+03  0.33060577669E+03  0.61284220401E+03  0.11329325874E+04  0.25500000920E-02 0. -1.
</event>
<event>
 5   0  0.5824956E-05  0.1901187E+04  0.7818609E-02  0.8654266E-01
        1   -1    0    0  501    0  0.00000000000E+00  0.00000000000E+00  0.94702169198E+03  0.94702169199E+03  0.50400001928E-02 0.  1.
       -1   -1    0    0    0  501  0.00000000000E+00  0.00000000000E+00 -0.95417907072E+03  0.95417907073E+03  0.50400001928E-02 0. -1.
    10030    2    1    2    0    0  0.00000000000E+00  0.00000000000E+00 -0.71573787381E+01  0.19012007627E+04  0.19011872901E+04 0.  0.
        2    1    3    3  502    0  0.63924916359E+03 -0.26743030193E+03 -0.65432888742E+03  0.95305023607E+03  0.25500000920E-02 0. -1.
       -2    1    3    3    0  502 -0.63924916359E+03  0.26743030193E+03  0.64717150868E+03  0.94815052666E+03  0.25500000920E-02 0.  1.
</event>
<event>
 5   0  0.5614989E-05  0.1900844E+04  0.7818609E-02  0.8654436E-01
       -1   -1    0    0    0  501  0.00000000000E+00  0.00000000000E+00  0.66557183965E+03  0.66557183967E+03  0.50400001928E-02 0. -1.
        1   -1    0    0  501    0  0.00000000000E+00  0.00000000000E+00 -0.13571821153E+04  0.13571821153E+04  0.50400001928E-02 0.  1.
    10030    2    1    2    0    0  0.00000000000E+00  0.00000000000E+00 -0.69161027562E+03  0.20227539550E+04  0.19008442306E+04 0.  0.
        4    1    3    3  502    0  0.76108838829E+02 -0.89258612107E+03 -0.79561785249E+01  0.89586129091E+03  0.12699999809E+01 0. -1.
       -4    1    3    3    0  502 -0.76108838829E+02  0.89258612107E+03 -0.68365409710E+03  0.11268926640E+04  0.12699999809E+01 0.  1.
</event>
<event>
 5   0  0.5579109E-05  0.1898389E+04  0.7818609E-02  0.8655658E-01
        1   -1    0    0  501    0  0.00000000000E+00  0.00000000000E+00  0.15010368236E+04  0.15010368236E+04  0.50400001928E-02 0. -1.
       -1   -1    0    0    0  501  0.00000000000E+00  0.00000000000E+00 -0.60023219259E+03  0.60023219261E+03  0.50400001928E-02 0.  1.
    10030    2    1    2    0    0  0.00000000000E+00  0.00000000000E+00  0.90080463097E+03  0.21012690162E+04  0.18983894477E+04 0.  0.
        3    1    3    3  502    0  0.74444526660E+03  0.14661876279E+03  0.10816816214E+04  0.13212611236E+04  0.10100000352E+00 0. -1.
       -3    1    3    3    0  502 -0.74444526660E+03 -0.14661876279E+03 -0.18087699043E+03  0.78000789254E+03  0.10100000352E+00 0.  1.
</event>
<event>
 5   0  0.1182630E-04  0.1927324E+04  0.7818609E-02  0.8641374E-01
       -2   -1    0    0    0  501  0.00000000000E+00  0.00000000000E+00  0.90545779453E+03  0.90545779453E+03  0.25500000920E-02 0.  1.
        2   -1    0    0  501    0  0.00000000000E+00  0.00000000000E+00 -0.10256075574E+04  0.10256075574E+04  0.25500000920E-02 0. -1.
    10030    2    1    2    0    0  0.00000000000E+00  0.00000000000E+00 -0.12014976291E+03  0.19310653520E+04  0.19273239033E+04 0.  0.
        5    1    3    3  502    0 -0.76951519680E+03  0.56510200076E+03  0.71054534026E+02  0.95737388003E+03  0.46999998093E+01 0. -1.
       -5    1    3    3    0  502  0.76951519680E+03 -0.56510200076E+03 -0.19120429694E+03  0.97369147194E+03  0.46999998093E+01 0.  1.
</event>
<event>
 5   0  0.5614989E-05  0.1909345E+04  0.7818609E-02  0.8650219E-01
       -1   -1    0    0    0  501  0.00000000000E+00  0.00000000000E+00  0.59624902976E+03  0.59624902978E+03  0.50400001928E-02 0. -1.
        1   -1    0    0  501    0  0.00000000000E+00  0.00000000000E+00 -0.15285556033E+04  0.15285556033E+04  0.50400001928E-02 0.  1.
    10030    2    1    2    0    0  0.00000000000E+00  0.00000000000E+00 -0.93230657350E+03  0.21248046330E+04  0.19093452233E+04 0.  0.
        4    1    3    3  502    0 -0.53996321084E+03  0.24827325332E+02  0.40955118060E+03  0.67816697618E+03  0.12699999809E+01 0. -1.
       -4    1    3    3    0  502  0.53996321084E+03 -0.24827325332E+02 -0.13418577541E+04  0.14466376569E+04  0.12699999809E+01 0.  1.
</event>
<event>
 5   0  0.1182630E-04  0.1873561E+04  0.7818609E-02  0.8668130E-01
       -2   -1    0    0    0  501  0.00000000000E+00  0.00000000000E+00  0.12756490769E+04  0.12756490769E+04  0.25500000920E-02 0. -1.
        2   -1    0    0  501    0  0.00000000000E+00  0.00000000000E+00 -0.68793021416E+03  0.68793021417E+03  0.25500000920E-02 0.  1.
    10030    2    1    2    0    0  0.00000000000E+00  0.00000000000E+00  0.58771886278E+03  0.19635792911E+04  0.18735608266E+04 0.  0.
        5    1    3    3  502    0 -0.56269186526E+03  0.36930077879E+03 -0.38900574786E+03  0.77740128783E+03  0.46999998093E+01 0.  1.
       -5    1    3    3    0  502  0.56269186526E+03 -0.36930077879E+03  0.97672461064E+03  0.11861780033E+04  0.46999998093E+01 0. -1.
</event>
<event>
 5   0  0.5614989E-05  0.1912267E+04  0.7818609E-02  0.8648774E-01
       -1   -1    0    0    0  501  0.00000000000E+00  0.00000000000E+00  0.62718457240E+03  0.62718457242E+03  0.50400001928E-02 0.  1.
        1   -1    0    0  501    0  0.00000000000E+00  0.00000000000E+00 -0.14576117407E+04  0.14576117407E+04  0.50400001928E-02 0. -1.
    10030    2    1    2    0    0  0.00000000000E+00  0.00000000000E+00 -0.83042716832E+03  0.20847963131E+04  0.19122673415E+04 0.  0.
        4    1    3    3  502    0  0.18131677279E+03  0.49317262039E+03 -0.12860923180E+04  0.13892912110E+04  0.12699999809E+01 0. -1.
       -4    1    3    3    0  502 -0.18131677279E+03 -0.49317262039E+03  0.45566514968E+03  0.69550510216E+03  0.12699999809E+01 0.  1.
</event>
<event>
 5   0  0.4061125E-05  0.1898978E+04  0.7818609E-02  0.8655365E-01
       -3   -1    0    0    0  501  0.00000000000E+00  0.00000000000E+00  0.11149517627E+04  0.11149517673E+04  0.10100000352E+00 0.  1.
        3   -1    0    0  501    0  0.00000000000E+00  0.00000000000E+00 -0.80858124178E+03  0.80858124809E+03  0.10100000352E+00 0. -1.
    10030    2    1    2    0    0  0.00000000000E+00  0.00000000000E+00  0.30637052090E+03  0.19235330153E+04  0.18989777158E+04 0.  0.
        1    1    3    3  502    0 -0.32166413634E+03 -0.82196596198E+02  0.10542411504E+04  0.11052820908E+04  0.50400001928E-02 0.  1.
       -1    1    3    3    0  502  0.32166413634E+03  0.82196596198E+02 -0.74787062949E+03  0.81825092455E+03  0.50400001928E-02 0. -1.
</event>
<event>
 5   0  0.5579109E-05  0.1874551E+04  0.7818609E-02  0.8667629E-01
       -1   -1    0    0    0  501  0.00000000000E+00  0.00000000000E+00  0.65946626029E+03  0.65946626031E+03  0.50400001928E-02 0.  1.
        1   -1    0    0  501    0  0.00000000000E+00  0.00000000000E+00 -0.13321157619E+04  0.13321157619E+04  0.50400001928E-02 0. -1.
    10030    2    1    2    0    0  0.00000000000E+00  0.00000000000E+00 -0.67264950158E+03  0.19915820222E+04  0.18745510394E+04 0.  0.
        3    1    3    3  502    0 -0.84648275686E+03 -0.35347283912E+03 -0.54071316247E+03  0.10648224453E+04  0.10100000352E+00 0. -1.
       -3    1    3    3    0  502  0.84648275686E+03  0.35347283912E+03 -0.13193633911E+03  0.92675957693E+03  0.10100000352E+00 0.  1.
</event>
<event>
 5   0  0.5579109E-05  0.1916333E+04  0.7818609E-02  0.8646769E-01
        1   -1    0    0  501    0  0.00000000000E+00  0.00000000000E+00  0.12591143914E+04  0.12591143914E+04  0.50400001928E-02 0. -1.
       -1   -1    0    0    0  501  0.00000000000E+00  0.00000000000E+00 -0.72915009999E+03  0.72915010000E+03  0.50400001928E-02 0.  1.
    10030    2    1    2    0    0  0.00000000000E+00  0.00000000000E+00  0.52996429143E+03  0.19882644914E+04  0.19163333577E+04 0.  0.
        3    1    3    3  502    0  0.29561504904E+03  0.22713286143E+03  0.11807835608E+04  0.12382356083E+04  0.10100000352E+00 0. -1.
       -3    1    3    3    0  502 -0.29561504904E+03 -0.22713286143E+03 -0.65081926937E+03  0.75002888314E+03  0.10100000352E+00 0.  1.
</event>
<event>
 5   0  0.1101678E-04  0.1898154E+04  0.7818609E-02  0.8655776E-01
       -2   -1    0    0    0  501  0.00000000000E+00  0.00000000000E+00  0.34466114656E+03  0.34466114657E+03  0.25500000920E-02 0.  1.
        2   -1    0    0  501    0  0.00000000000E+00  0.00000000000E+00 -0.26134286949E+04  0.26134286949E+04  0.25500000920E-02 0. -1.
    10030    2    1    2    0    0  0.00000000000E+00  0.00000000000E+00 -0.22687675483E+04  0.29580898415E+04  0.18981541881E+04 0.  0.
        4    1    3    3  502    0 -0.41285544119E+02  0.68558324730E+03 -0.11363929770E+03  0.69616405252E+03  0.12699999809E+01 0.  1.
       -4    1    3    3    0  502  0.41285544119E+02 -0.68558324730E+03 -0.21551282506E+04  0.22619257890E+04  0.12699999809E+01 0. -1.
</event>
<event>
 5   0  0.1141890E-04  0.1907812E+04  0.7818609E-02  0.8650978E-01
        2   -1    0    0  501    0  0.00000000000E+00  0.00000000000E+00  0.15875083483E+04  0.15875083483E+04  0.25500000920E-02 0.  1.
       -2   -1    0    0    0  501  0.00000000000E+00  0.00000000000E+00 -0.57318532252E+03  0.57318532252E+03  0.25500000920E-02 0. -1.
    10030    2    1    2    0    0  0.00000000000E+00  0.00000000000E+00  0.10143230258E+04  0.21606936708E+04  0.19078118195E+04 0.  0.
        2    1    3    3  502    0  0.23434221355E+03 -0.38561315138E+03 -0.44466818165E+03  0.63351682483E+03  0.25500000920E-02 0. -1.
       -2    1    3    3    0  502 -0.23434221355E+03  0.38561315138E+03  0.14589912074E+04  0.15271768460E+04  0.25500000920E-02 0.  1.
</event>
<event>
 5   0  0.5579109E-05  0.1895803E+04  0.7818609E-02  0.8656948E-01
       -1   -1    0    0    0  501  0.00000000000E+00  0.00000000000E+00  0.19602745759E+04  0.19602745759E+04  0.50400001928E-02 0. -1.
        1   -1    0    0  501    0  0.00000000000E+00  0.00000000000E+00 -0.45836299915E+03  0.45836299918E+03  0.50400001928E-02 0.  1.
    10030    2    1    2    0    0  0.00000000000E+00  0.00000000000E+00  0.15019115768E+04  0.24186375751E+04  0.18958030845E+04 0.  0.
        3    1    3    3  502    0  0.19474213258E+03 -0.92082433017E+03  0.60732152997E+03  0.11201256163E+04  0.10100000352E+00 0. -1.
       -3    1    3    3    0  502 -0.19474213258E+03  0.92082433017E+03  0.89459004679E+03  0.12985119588E+04  0.10100000352E+00 0.  1.
</event>
<event>
 5   0  0.1133638E-04  0.1905186E+04  0.7818609E-02  0.8652279E-01
       -2   -1    0    0    0  501  0.00000000000E+00  0.00000000000E+00  0.11196244726E+04  0.11196244726E+04  0.25500000920E-02 0. -1.
        2   -1    0    0  501    0  0.00000000000E+00  0.00000000000E+00 -0.81047990814E+03  0.81047990815E+03  0.25500000920E-02 0.  1.
    10030    2    1    2    0    0  0.00000000000E+00  0.00000000000E+00  0.30914456447E+03  0.19301043808E+04  0.19051857020E+04 0.  0.
        3    1    3    3  502    0 -0.54463250872E+03  0.72617957940E+03 -0.13812137834E+03  0.91817148532E+03  0.10100000352E+00 0.  1.
       -3    1    3    3    0  502  0.54463250872E+03 -0.72617957940E+03  0.44726594282E+03  0.10119328955E+04  0.10100000352E+00 0. -1.
</event>
<event>
 5   0  0.5841424E-05  0.1904019E+04  0.7818609E-02  0.8652859E-01
       -1   -1    0    0    0  501  0.00000000000E+00  0.00000000000E+00  0.51051839599E+03  0.51051839602E+03  0.50400001928E-02 0. -1.
        1   -1    0    0  501    0  0.00000000000E+00  0.00000000000E+00 -0.17752968844E+04  0.17752968844E+04  0.50400001928E-02 0.  1.
    10030    2    1    2    0    0  0.00000000000E+00  0.00000000000E+00 -0.12647784884E+04  0.22858152805E+04  0.19040186111E+04 0.  0.
        1    1    3    3  502    0  0.81737956880E+02 -0.50560377705E+03  0.33102865791E+03  0.60983296512E+03  0.50400001928E-02 0. -1.
       -1    1    3    3    0  502 -0.81737956880E+02  0.50560377705E+03 -0.15958071464E+04  0.16759823153E+04  0.50400001928E-02 0.  1.
</event>
<event>
 5   0  0.5614989E-05  0.1887388E+04  0.7818609E-02  0.8661160E-01
        1   -1    0    0  501    0  0.00000000000E+00  0.00000000000E+00  0.92929318096E+03  0.92929318097E+03  0.50400001928E-02 0.  1.
       -1   -1    0    0    0  501  0.00000000000E+00  0.00000000000E+00 -0.95831809746E+03  0.95831809748E+03  0.50400001928E-02 0. -1.
    10030    2    1    2    0    0  0.00000000000E+00  0.00000000000E+00 -0.29024916506E+02  0.18876112784E+04  0.18873881140E+04 0.  0.
        4    1    3    3  502    0  0.12497500079E+02 -0.44269308264E+03  0.81890684445E+03  0.93099054008E+03  0.12699999809E+01 0.  1.
       -4    1    3    3    0  502 -0.12497500079E+02  0.44269308264E+03 -0.84793176096E+03  0.95662073837E+03  0.12699999809E+01 0. -1.
</event>
<event>
 5   0  0.5628936E-05  0.1887728E+04  0.7818609E-02  0.8660989E-01
        1   -1    0    0  501    0  0.00000000000E+00  0.00000000000E+00  0.12734360449E+04  0.12734360449E+04  0.50400001928E-02 0. -1.
       -1   -1    0    0    0  501  0.00000000000E+00  0.00000000000E+00 -0.69958670895E+03  0.69958670897E+03  0.50400001928E-02 0.  1.
    10030    2    1    2    0    0  0.00000000000E+00  0.00000000000E+00  0.57384933594E+03  0.19730227539E+04  0.18877276623E+04 0.  0.
        5    1    3    3  502    0  0.47760606240E+03  0.46687105739E+03  0.98397754511E+03  0.11892476758E+04  0.46999998093E+01 0. -1.
       -5    1    3    3    0  502 -0.47760606240E+03 -0.46687105739E+03 -0.41012820917E+03  0.78377507808E+03  0.46999998093E+01 0.  1.
</event>
<event>
 5   0  0.1133638E-04  0.1877007E+04  0.7818609E-02  0.8666387E-01
        2   -1    0    0  501    0  0.00000000000E+00  0.00000000000E+00  0.87258874731E+03  0.87258874732E+03  0.25500000920E-02 0.  1.
       -2   -1    0    0    0  501  0.00000000000E+00  0.00000000000E+00 -0.10093978365E+04  0.10093978365E+04  0.25500000920E-02 0. -1.
    10030    2    1    2    0    0  0.00000000000E+00  0.00000000000E+00 -0.13680908914E+03  0.18819865838E+04  0.18770073987E+04 0.  0.
        3    1    3    3  502    0  0.78252270221E+03 -0.45465608552E+03 -0.31752944422E+03  0.95910317157E+03  0.10100000352E+00 0.  1.
       -3    1    3    3    0  502 -0.78252270221E+03  0.45465608552E+03  0.18072035508E+03  0.92288341220E+03  0.10100000352E+00 0. -1.
</event>
<event>
 5   0  0.5841424E-05  0.1891697E+04  0.7818609E-02  0.8659000E-01
       -1   -1    0    0    0  501  0.00000000000E+00  0.00000000000E+00  0.45187038379E+03  0.45187038381E+03  0.50400001928E-02 0. -1.
        1   -1    0    0  501    0  0.00000000000E+00  0.00000000000E+00 -0.19798372164E+04  0.19798372164E+04  0.50400001928E-02 0.  1.
    10030    2    1    2    0    0  0.00000000000E+00  0.00000000000E+00 -0.15279668326E+04  0.24317076002E+04  0.18916974418E+04 0.  0.
        1    1    3    3  502    0  0.67687819989E+03  0.63415667505E+03 -0.52587405499E+03  0.10662374537E+04  0.50400001928E-02 0. -1.
       -1    1    3    3    0  502 -0.67687819989E+03 -0.63415667505E+03 -0.10020927776E+04  0.13654701465E+04  0.50400001928E-02 0.  1.
</event>
<event>
 5   0  0.1118206E-04  0.1891760E+04  0.7818609E-02  0.8658969E-01
        2   -1    0    0  501    0  0.00000000000E+00  0.00000000000E+00  0.11463070809E+04  0.11463070809E+04  0.25500000920E-02 0. -1.
       -2   -1    0    0    0  501  0.00000000000E+00  0.00000000000E+00 -0.78049686887E+03  0.78049686888E+03  0.25500000920E-02 0.  1.
    10030    2    1    2    0    0  0.00000000000E+00  0.00000000000E+00  0.36581021201E+03  0.19268039498E+04  0.18917601195E+04 0.  0.
        1    1    3    3  502    0 -0.89014417790E+03 -0.65957404031E+02  0.50172449463E+03  0.10239309084E+04  0.50400001928E-02 0. -1.
       -1    1    3    3    0  502  0.89014417790E+03  0.65957404031E+02 -0.13591428262E+03  0.90287304138E+03  0.50400001928E-02 0.  1.
</event>
<event>
 5   0  0.5614989E-05  0.1962103E+04  0.7818609E-02  0.8624547E-01
       -1   -1    0    0    0  501  0.00000000000E+00  0.00000000000E+00  0.10788834725E+04  0.10788834726E+04  0.50400001928E-02 0.  1.
        1   -1    0    0  501    0  0.00000000000E+00  0.00000000000E+00 -0.89209048206E+03  0.89209048207E+03  0.50400001928E-02 0. -1.
    10030    2    1    2    0    0  0.00000000000E+00  0.00000000000E+00  0.18679299049E+03  0.19709739546E+04  0.19621026244E+04 0.  0.
        4    1    3    3  502    0 -0.64929395660E+03 -0.70262371498E+03 -0.12483524492E+03  0.96480473579E+03  0.12699999809E+01 0. -1.
       -4    1    3    3    0  502  0.64929395660E+03  0.70262371498E+03  0.31162823540E+03  0.10061692188E+04  0.12699999809E+01 0.  1.
</event>
<event>
 5   0  0.5628936E-05  0.1920303E+04  0.7818609E-02  0.8644816E-01
        1   -1    0    0  501    0  0.00000000000E+00  0.00000000000E+00  0.15242819602E+04  0.15242819602E+04  0.50400001928E-02 0. -1.
       -1   -1    0    0    0  501  0.00000000000E+00  0.00000000000E+00 -0.60480352141E+03  0.60480352143E+03  0.50400001928E-02 0.  1.
    10030    2    1    2    0    0  0.00000000000E+00  0.00000000000E+00  0.91947843876E+03  0.21290854816E+04  0.19203032023E+04 0.  0.
        5    1    3    3  502    0  0.21977471867E+03  0.83336706162E+03 -0.94322359200E+01  0.86192380373E+03  0.46999998093E+01 0.  1.
       -5    1    3    3    0  502 -0.21977471867E+03 -0.83336706162E+03  0.92891067468E+03  0.12671616779E+04  0.46999998093E+01 0. -1.
</event>
<event>
 5   0  0.5824956E-05  0.1899779E+04  0.7818609E-02  0.8654966E-01
       -1   -1    0    0    0  501  0.00000000000E+00  0.00000000000E+00  0.80456562493E+03  0.80456562495E+03  0.50400001928E-02 0.  1.
        1   -1    0    0  501    0  0.00000000000E+00  0.00000000000E+00 -0.11214623632E+04  0.11214623632E+04  0.50400001928E-02 0. -1.
    10030    2    1    2    0    0  0.00000000000E+00  0.00000000000E+00 -0.31689673829E+03  0.19260279882E+04  0.18997790052E+04 0.  0.
        2    1    3    3  502    0 -0.57854942431E+02 -0.78286753510E+02  0.79949540593E+03  0.80539984744E+03  0.25500000920E-02 0.  1.
       -2    1    3    3    0  502  0.57854942431E+02  0.78286753510E+02 -0.11163921442E+04  0.11206281407E+04  0.25500000920E-02 0. -1.
</event>
<event>
 5   0  0.5614989E-05  0.1905877E+04  0.7818609E-02  0.8651937E-01
        1   -1    0    0  501    0  0.00000000000E+00  0.00000000000E+00  0.12972359977E+04  0.12972359977E+04  0.50400001928E-02 0. -1.
       -1   -1    0    0    0  501  0.00000000000E+00  0.00000000000E+00 -0.70002047763E+03  0.70002047765E+03  0.50400001928E-02 0.  1.
    10030    2    1    2    0    0  0.00000000000E+00  0.00000000000E+00  0.59721552009E+03  0.19972564754E+04  0.19058769769E+04 0.  0.
        4    1    3    3  502    0 -0.43309941547E+03 -0.79607296913E+03  0.60732152083E+03  0.10909391910E+04  0.12699999809E+01 0. -1.
       -4    1    3    3    0  502  0.43309941547E+03  0.79607296913E+03 -0.10106000738E+02  0.90631728440E+03  0.12699999809E+01 0.  1.
</event>
<event>
 5   0  0.5628936E-05  0.1893541E+04  0.7818609E-02  0.8658078E-01
        1   -1    0    0  501    0  0.00000000000E+00  0.00000000000E+00  0.16943093574E+04  0.16943093574E+04  0.50400001928E-02 0. -1.
       -1   -1    0    0    0  501  0.00000000000E+00  0.00000000000E+00 -0.52905018071E+03  0.52905018073E+03  0.50400001928E-02 0.  1.
    10030    2    1    2    0    0  0.00000000000E+00  0.00000000000E+00  0.11652591767E+04  0.22233595382E+04  0.18935413085E+04 0.  0.
        5    1    3    3  502    0  0.20750517387E+02 -0.86992600495E+03  0.14462598852E+03  0.88212278319E+03  0.46999998093E+01 0.  1.
       -5    1    3    3    0  502 -0.20750517387E+02  0.86992600495E+03  0.10206331882E+04  0.13412367550E+04  0.46999998093E+01 0. -1.
</event>
<event>
 5   0  0.1141890E-04  0.1908389E+04  0.7818609E-02  0.8650692E-01
       -2   -1    0    0    0  501  0.00000000000E+00  0.00000000000E+00  0.50264367154E+03  0.50264367154E+03  0.25500000920E-02 0. -1.
        2   -1    0    0  501    0  0.00000000000E+00  0.00000000000E+00 -0.18113967265E+04  0.18113967265E+04  0.25500000920E-02 0.  1.
    10030    2    1    2    0    0  0.00000000000E+00  0.00000000000E+00 -0.13087530550E+04  0.23140403980E+04  0.19083889554E+04 0.  0.
        2    1    3    3  502    0 -0.83017482988E+03 -0.28765790527E+03 -0.20303326236E+03  0.90175374924E+03  0.25500000920E-02 0.  1.
       -2    1    3    3    0  502  0.83017482988E+03  0.28765790527E+03 -0.11057197926E+04  0.14122866488E+04  0.25500000920E-02 0. -1.
</event>
<event>
 5   0  0.5841424E-05  0.1900926E+04  0.7818609E-02  0.8654396E-01
        1   -1    0    0  501    0  0.00000000000E+00  0.00000000000E+00  0.94584428588E+03  0.94584428589E+03  0.50400001928E-02 0.  1.
       -1   -1    0    0    0  501  0.00000000000E+00  0.00000000000E+00 -0.95510385507E+03  0.95510385508E+03  0.50400001928E-02 0. -1.
    10030    2    1    2    0    0  0.00000000000E+00  0.00000000000E+00 -0.92595691847E+01  0.19009481410E+04  0.19009255890E+04 0.  0.
        1    1    3    3  502    0  0.90839015795E+03 -0.74353645854E+01 -0.28418910633E+03  0.95183581141E+03  0.50400001928E-02 0. -1.
       -1    1    3    3    0  502 -0.90839015795E+03  0.74353645854E+01  0.27492953714E+03  0.94911232956E+03  0.50400001928E-02 0.  1.
</event>
<event>
 5   0  0.5841424E-05  0.1897801E+04  0.7818609E-02  0.8655952E-01
       -1   -1    0    0    0  501  0.00000000000E+00  0.00000000000E+00  0.79020964352E+03  0.79020964354E+03  0.50400001928E-02 0. -1.
        1   -1    0    0  501    0  0.00000000000E+00  0.00000000000E+00 -0.11394601418E+04  0.11394601418E+04  0.50400001928E-02 0.  1.
    10030    2    1    2    0    0  0.00000000000E+00  0.00000000000E+00 -0.34925049832E+03  0.19296697854E+04  0.18978012462E+04 0.  0.
        1    1    3    3  502    0  0.16327636173E+03  0.47722199575E+03  0.64262054208E+03  0.81692176165E+03  0.50400001928E-02 0. -1.
       -1    1    3    3    0  502 -0.16327636173E+03 -0.47722199575E+03 -0.99187104039E+03  0.11127480237E+04  0.50400001928E-02 0.  1.
</event>
<event>
 5   0  0.5579109E-05  0.1925406E+04  0.7818609E-02  0.8642313E-01
       -1   -1    0    0    0  501  0.00000000000E+00  0.00000000000E+00  0.10582190882E+04  0.10582190883E+04  0.50400001928E-02 0. -1.
        1   -1    0    0  501    0  0.00000000000E+00  0.00000000000E+00 -0.87580815822E+03  0.87580815824E+03  0.50400001928E-02 0.  1.
    10030    2    1    2    0    0  0.00000000000E+00  0.00000000000E+00  0.18241093002E+03  0.19340272465E+04  0.19254058385E+04 0.  0.
        3    1    3    3  502    0 -0.79212957917E+03 -0.46892379164E+03 -0.19190423494E+03  0.94031167075E+03  0.10100000352E+00 0.  1.
       -3    1    3    3    0  502  0.79212957917E+03  0.46892379164E+03  0.37431516497E+03  0.99371557575E+03  0.10100000352E+00 0. -1.
</event>
<event>
 5   0  0.1101678E-04  0.1908409E+04  0.7818609E-02  0.8650682E-01
        2   -1    0    0  501    0  0.00000000000E+00  0.00000000000E+00  0.16203529678E+04  0.16203529678E+04  0.25500000920E-02 0. -1.
       -2   -1    0    0    0  501  0.00000000000E+00  0.00000000000E+00 -0.56191844469E+03  0.56191844470E+03  0.25500000920E-02 0.  1.
    10030    2    1    2    0    0  0.00000000000E+00  0.00000000000E+00  0.10584345232E+04  0.21822714125E+04  0.19084089913E+04 0.  0.
        4    1    3    3  502    0 -0.78240812191E+03  0.49156876608E+03  0.25692356226E+03  0.95906915848E+03  0.12699999809E+01 0.  1.
       -4    1    3    3    0  502  0.78240812191E+03 -0.49156876608E+03  0.80151096089E+03  0.12232022541E+04  0.12699999809E+01 0. -1.
</event>
<event>
 5   0  0.5579109E-05  0.1896661E+04  0.7818609E-02  0.8656520E-01
        1   -1    0    0  501    0  0.00000000000E+00  0.00000000000E+00  0.13229654634E+04  0.13229654634E+04  0.50400001928E-02 0. -1.
       -1   -1    0    0    0  501  0.00000000000E+00  0.00000000000E+00 -0.67978385281E+03  0.67978385283E+03  0.50400001928E-02 0.  1.
    10030    2    1    2    0    0  0.00000000000E+00  0.00000000000E+00  0.64318161054E+03  0.20027493162E+04  0.18966608130E+04 0.  0.
        3    1    3    3  502    0 -0.73862620688E+01 -0.67082089220E+03  0.10293625216E+04  0.12286750739E+04  0.10100000352E+00 0. -1.
       -3    1    3    3    0  502  0.73862620688E+01  0.67082089220E+03 -0.38618091104E+03  0.77407424226E+03  0.10100000352E+00 0.  1.
</event>
<event>
 5   0  0.1101678E-04  0.1899452E+04  0.7818609E-02  0.8655129E-01
       -2   -1    0    0    0  501  0.00000000000E+00  0.00000000000E+00  0.73265828306E+03  0.73265828306E+03  0.25500000920E-02 0. -1.
        2   -1    0    0  501    0  0.00000000000E+00  0.00000000000E+00 -0.12311058971E+04  0.12311058971E+04  0.25500000920E-02 0.  1.
    10030    2    1    2    0    0  0.00000000000E+00  0.00000000000E+00 -0.49844761400E+03  0.19637641801E+04  0.18994524820E+04 0.  0.
        4    1    3    3  502    0  0.96989583925E+02 -0.41645205058E+03 -0.11259567607E+04  0.12044166761E+04  0.12699999809E+01 0.  1.
       -4    1    3    3    0  502 -0.96989583925E+02  0.41645205058E+03  0.62750914667E+03  0.75934750404E+03  0.12699999809E+01 0. -1.
</event>
<event>
 5   0  0.1133638E-04  0.1896628E+04  0.7818609E-02  0.8656536E-01
        2   -1    0    0  501    0  0.00000000000E+00  0.00000000000E+00  0.16523147423E+04  0.16523147423E+04  0.25500000920E-02 0.  1.
       -2   -1    0    0    0  501  0.00000000000E+00  0.00000000000E+00 -0.54426670374E+03  0.54426670374E+03  0.25500000920E-02 0. -1.
    10030    2    1    2    0    0  0.00000000000E+00  0.00000000000E+00  0.11080480386E+04  0.21965814460E+04  0.18966284806E+04 0.  0.
        3    1    3    3  502    0 -0.32898674788E+02 -0.55855379458E+03 -0.33272557370E+03  0.65097694416E+03  0.10100000352E+00 0. -1.
       -3    1    3    3    0  502  0.32898674788E+02  0.55855379458E+03  0.14407736123E+04  0.15456045019E+04  0.10100000352E+00 0.  1.
</event>
<event>
 5   0  0.1118206E-04  0.1828317E+04  0.7818609E-02  0.8691384E-01
       -2   -1    0    0    0  501  0.00000000000E+00  0.00000000000E+00  0.14839883550E+04  0.14839883550E+04  0.25500000920E-02 0. -1.
        2   -1    0    0  501    0  0.00000000000E+00  0.00000000000E+00 -0.56313472164E+03  0.56313472165E+03  0.25500000920E-02 0.  1.
    10030    2    1    2    0    0  0.00000000000E+00  0.00000000000E+00  0.92085363336E+03  0.20471230766E+04  0.18283165691E+04 0.  0.
        1    1    3    3  502    0  0.13054929544E+03 -0.52027689422E+03  0.12892553440E+04  0.13963919604E+04  0.50400001928E-02 0. -1.
       -1    1    3    3    0  502 -0.13054929544E+03  0.52027689422E+03 -0.36840171061E+03  0.65073111621E+03  0.50400001928E-02 0.  1.
</event>
<event>
 5   0  0.1101678E-04  0.1893430E+04  0.7818609E-02  0.8658134E-01
        2   -1    0    0  501    0  0.00000000000E+00  0.00000000000E+00  0.83182364888E+03  0.83182364888E+03  0.25500000920E-02 0.  1.
       -2   -1    0    0    0  501  0.00000000000E+00  0.00000000000E+00 -0.10774753433E+04  0.10774753433E+04  0.25500000920E-02 0. -1.
    10030    2    1    2    0    0  0.00000000000E+00  0.00000000000E+00 -0.24565169445E+03  0.19092989922E+04  0.18934301906E+04 0.  0.
        4    1    3    3  502    0 -0.71256171225E+03 -0.22527715111E+03  0.46322820164E+03  0.87924738741E+03  0.12699999809E+01 0.  1.
       -4    1    3    3    0  502  0.71256171225E+03  0.22527715111E+03 -0.70887989608E+03  0.10300516048E+04  0.12699999809E+01 0. -1.
</event>
<event>
 5   0  0.5579109E-05  0.1929568E+04  0.7818609E-02  0.8640277E-01
       -1   -1    0    0    0  501  0.00000000000E+00  0.00000000000E+00  0.50901223064E+03  0.50901223066E+03  0.50400001928E-02 0. -1.
        1   -1    0    0  501    0  0.00000000000E+00  0.00000000000E+00 -0.18286563742E+04  0.18286563742E+04  0.50400001928E-02 0.  1.
    10030    2    1    2    0    0  0.00000000000E+00  0.00000000000E+00 -0.13196441435E+04  0.23376686048E+04  0.19295683042E+04 0.  0.
        3    1    3    3  502    0 -0.62307575407E+03  0.32045062832E+03 -0.14633445231E+04  0.16224331123E+04  0.10100000352E+00 0.  1.
       -3    1    3    3    0  502  0.62307575407E+03 -0.32045062832E+03  0.14370037953E+03  0.71523549254E+03  0.10100000352E+00 0. -1.
</event>
<event>
 5   0  0.1133638E-04  0.1945614E+04  0.7818609E-02  0.8632478E-01
        2   -1    0    0  501    0  0.00000000000E+00  0.00000000000E+00  0.65970365986E+03  0.65970365987E+03  0.25500000920E-02 0.  1.
       -2   -1    0    0    0  501  0.00000000000E+00  0.00000000000E+00 -0.14345137065E+04  0.14345137065E+04  0.25500000920E-02 0. -1.
    10030    2    1    2    0    0  0.00000000000E+00  0.00000000000E+00 -0.77481004666E+03  0.20942173664E+04  0.19456144966E+04 0.  0.
        3    1    3    3  502    0 -0.43574286999E+03 -0.72055528868E+03 -0.91172632974E+03  0.12410949534E+04  0.10100000352E+00 0. -1.
       -3    1    3    3    0  502  0.43574286999E+03  0.72055528868E+03  0.13691628308E+03  0.85312241300E+03  0.10100000352E+00 0.  1.
</event>
<event>
 5   0  0.5579109E-05  0.1897656E+04  0.7818609E-02  0.8656024E-01
        1   -1    0    0  501    0  0.00000000000E+00  0.00000000000E+00  0.11147186096E+04  0.11147186096E+04  0.50400001928E-02 0. -1.
       -1   -1    0    0    0  501  0.00000000000E+00  0.00000000000E+00 -0.80762518766E+03  0.80762518768E+03  0.50400001928E-02 0.  1.
    10030    2    1    2    0    0  0.00000000000E+00  0.00000000000E+00  0.30709342189E+03  0.19223437972E+04  0.18976562663E+04 0.  0.
        3    1    3    3  502    0 -0.73922137805E+03  0.48026489601E+03 -0.20197805647E+03  0.90437700192E+03  0.10100000352E+00 0.  1.
       -3    1    3    3    0  502  0.73922137805E+03 -0.48026489601E+03  0.50907147836E+03  0.10179667953E+04  0.10100000352E+00 0. -1.
</event>
<event>
 5   0  0.1101678E-04  0.1856297E+04  0.7818609E-02  0.8676921E-01
       -2   -1    0    0    0  501  0.00000000000E+00  0.00000000000E+00  0.69435400696E+03  0.69435400697E+03  0.25500000920E-02 0. -1.
        2   -1    0    0  501    0  0.00000000000E+00  0.00000000000E+00 -0.12406639229E+04  0.12406639230E+04  0.25500000920E-02 0.  1.
    10030    2    1    2    0    0  0.00000000000E+00  0.00000000000E+00 -0.54630991598E+03  0.19350179299E+04  0.18562973536E+04 0.  0.
        4    1    3    3  502    0  0.24360279181E+03  0.50940052639E+02 -0.12052333174E+04  0.12306608678E+04  0.12699999809E+01 0. -1.
       -4    1    3    3    0  502 -0.24360279181E+03 -0.50940052639E+02  0.65892340144E+03  0.70435706215E+03  0.12699999809E+01 0.  1.
</event>
<event>
 5   0  0.1141890E-04  0.1892598E+04  0.7818609E-02  0.8658550E-01
       -2   -1    0    0    0  501  0.00000000000E+00  0.00000000000E+00  0.12131830631E+04  0.12131830631E+04  0.25500000920E-02 0.  1.
        2   -1    0    0  501    0  0.00000000000E+00  0.00000000000E+00 -0.73812588106E+03  0.73812588106E+03  0.25500000920E-02 0. -1.
    10030    2    1    2    0    0  0.00000000000E+00  0.00000000000E+00  0.47505718203E+03  0.19513089442E+04  0.18925980211E+04 0.  0.
        2    1    3    3  502    0  0.40996215660E+03 -0.12338505886E+02  0.11167792169E+04  0.11897130023E+04  0.25500000920E-02 0.  1.
       -2    1    3    3    0  502 -0.40996215660E+03  0.12338505886E+02 -0.64172203488E+03  0.76159594184E+03  0.25500000920E-02 0. -1.
</event>
<event>
 5   0  0.1118206E-04  0.1888438E+04  0.7818609E-02  0.8660633E-01
        2   -1    0    0  501    0  0.00000000000E+00  0.00000000000E+00  0.96233951599E+03  0.96233951599E+03  0.25500000920E-02 0. -1.
       -2   -1    0    0    0  501  0.00000000000E+00  0.00000000000E+00 -0.92643973881E+03  0.92643973882E+03  0.25500000920E-02 0.  1.
    10030    2    1    2    0    0  0.00000000000E+00  0.00000000000E+00  0.35899777172E+02  0.18887792548E+04  0.18884380528E+04 0.  0.
        1    1    3    3  502    0 -0.24562382796E+03 -0.79944691240E+03  0.45632480081E+03  0.95272176131E+03  0.50400001928E-02 0. -1.
       -1    1    3    3    0  502  0.24562382796E+03  0.79944691240E+03 -0.42042502364E+03  0.93605749350E+03  0.50400001928E-02 0.  1.
</event>
<event>
 5   0  0.1133638E-04  0.1894008E+04  0.7818609E-02  0.8657845E-01
       -2   -1    0    0    0  501  0.00000000000E+00  0.00000000000E+00  0.59229445541E+03  0.59229445541E+03  0.25500000920E-02 0.  1.
        2   -1    0    0  501    0  0.00000000000E+00  0.00000000000E+00 -0.15141398077E+04  0.15141398077E+04  0.25500000920E-02 0. -1.
    10030    2    1    2    0    0  0.00000000000E+00  0.00000000000E+00 -0.92184535231E+03  0.21064342631E+04  0.18940080389E+04 0.  0.
        3    1    3    3  502    0  0.34360882491E+03 -0.87954547423E+03 -0.38111553696E+03  0.10182908860E+04  0.10100000352E+00 0. -1.
       -3    1    3    3    0  502 -0.34360882491E+03  0.87954547423E+03 -0.54072981535E+03  0.10881433771E+04  0.10100000352E+00 0.  1.
</event>
<event>
 5   0  0.1141890E-04  0.1913682E+04  0.7818609E-02  0.8648076E-01
        2   -1    0    0  501    0  0.00000000000E+00  0.00000000000E+00  0.78000623587E+03  0.78000623588E+03  0.25500000920E-02 0.  1.
       -2   -1    0    0    0  501  0.00000000000E+00  0.00000000000E+00 -0.11737658614E+04  0.11737658614E+04  0.25500000920E-02 0. -1.
    10030    2    1    2    0    0  0.00000000000E+00  0.00000000000E+00 -0.39375962556E+03  0.19537720973E+04  0.19136819917E+04 0.  0.
        2    1    3    3  502    0 -0.33356577319E+03  0.55134752343E+03 -0.91901247084E+03  0.11224233329E+04  0.25500000920E-02 0. -1.
       -2    1    3    3    0  502  0.33356577319E+03 -0.55134752343E+03  0.52525284528E+03  0.83134876443E+03  0.25500000920E-02 0.  1.
</event>
<event>
 5   0  0.5824956E-05  0.1902060E+04  0.7818609E-02  0.8653832E-01
        1   -1    0    0  501    0  0.00000000000E+00  0.00000000000E+00  0.19761822482E+04  0.19761822482E+04  0.50400001928E-02 0. -1.
       -1   -1    0    0    0  501  0.00000000000E+00  0.00000000000E+00 -0.45767935297E+03  0.45767935300E+03  0.50400001928E-02 0.  1.
    10030    2    1    2    0    0  0.00000000000E+00  0.00000000000E+00  0.15185028952E+04  0.24338616012E+04  0.19020597390E+04 0.  0.
        2    1    3    3  502    0 -0.30795283220E+03  0.88994323345E+03  0.58937904728E+03  0.11109462485E+04  0.25500000920E-02 0.  1.
       -2    1    3    3    0  502  0.30795283220E+03 -0.88994323345E+03  0.92912384791E+03  0.13229153527E+04  0.25500000920E-02 0. -1.
</event>
<event>
 5   0  0.5824956E-05  0.1903889E+04  0.7818609E-02  0.8652923E-01
        1   -1    0    0  501    0  0.00000000000E+00  0.00000000000E+00  0.71524624569E+03  0.71524624571E+03  0.50400001928E-02 0.  1.
       -1   -1    0    0    0  501  0.00000000000E+00  0.00000000000E+00 -0.12669741738E+04  0.12669741738E+04  0.50400001928E-02 0. -1.
    10030    2    1    2    0    0  0.00000000000E+00  0.00000000000E+00 -0.55172792812E+03  0.19822204195E+04  0.19038891997E+04 0.  0.
        2    1    3    3  502    0  0.20723470044E+03  0.67679839430E+03  0.38687571837E+03  0.80664435104E+03  0.25500000920E-02 0.  1.
       -2    1    3    3    0  502 -0.20723470044E+03 -0.67679839430E+03 -0.93860364649E+03  0.11755760685E+04  0.25500000920E-02 0. -1.
</event>
<event>
 5   0  0.5614989E-05  0.1886040E+04  0.7818609E-02  0.8661836E-01
       -1   -1    0    0    0  501  0.00000000000E+00  0.00000000000E+00  0.74353053882E+03  0.74353053883E+03  0.50400001928E-02 0.  1.
        1   -1    0    0  501    0  0.00000000000E+00  0.00000000000E+00 -0.11960330052E+04  0.11960330052E+04  0.50400001928E-02 0. -1.
    10030    2    1    2    0    0  0.00000000000E+00  0.00000000000E+00 -0.45250246640E+03  0.19395635441E+04  0.18860403653E+04 0.  0.
        4    1    3    3  502    0 -0.22758115087E+03 -0.16274075628E+03  0.69986505571E+03  0.75371774763E+03  0.12699999809E+01 0.  1.
       -4    1    3    3    0  502  0.22758115087E+03  0.16274075628E+03 -0.11523675221E+04  0.11858457964E+04  0.12699999809E+01 0. -1.
</event>
<event>
 5   0  0.5628936E-05  0.1953341E+04  0.7818609E-02  0.8628751E-01
        1   -1    0    0  501    0  0.00000000000E+00  0.00000000000E+00  0.89382954684E+03  0.89382954686E+03  0.50400001928E-02 0.  1.
       -1   -1    0    0    0  501  0.00000000000E+00  0.00000000000E+00 -0.10671896753E+04  0.10671896753E+04  0.50400001928E-02 0. -1.
    10030    2    1    2    0    0  0.00000000000E+00  0.00000000000E+00 -0.17336012849E+03  0.19610192222E+04  0.19533414079E+04 0.  0.
        5    1    3    3  502    0  0.76693904877E+03  0.52286161851E+03  0.21829646835E+03  0.95354874796E+03  0.46999998093E+01 0. -1.
       -5    1    3    3    0  502 -0.76693904877E+03 -0.52286161851E+03 -0.39165659683E+03  0.10074704742E+04  0.46999998093E+01 0.  1.
</event>
<event>
 5   0  0.5628936E-05  0.1893268E+04  0.7818609E-02  0.8658215E-01
        1   -1    0    0  501    0  0.00000000000E+00  0.00000000000E+00  0.12597840058E+04  0.12597840058E+04  0.50400001928E-02 0. -1.
       -1   -1    0    0    0  501  0.00000000000E+00  0.00000000000E+00 -0.71132495477E+03  0.71132495479E+03  0.50400001928E-02 0.  1.
    10030    2    1    2    0    0  0.00000000000E+00  0.00000000000E+00  0.54845905100E+03  0.19711089606E+04  0.18932678637E+04 0.  0.
        5    1    3    3  502    0  0.16316844523E+03 -0.91967937695E+03  0.43437047075E+03  0.10301135344E+04  0.46999998093E+01 0. -1.
       -5    1    3    3    0  502 -0.16316844523E+03  0.91967937695E+03  0.11408858025E+03  0.94099542616E+03  0.46999998093E+01 0.  1.
</event>
<event>
 5   0  0.1133638E-04  0.1902918E+04  0.7818609E-02  0.8653405E-01
       -2   -1    0    0    0  501  0.00000000000E+00  0.00000000000E+00  0.85783217307E+03  0.85783217308E+03  0.25500000920E-02 0.  1.
        2   -1    0    0  501    0  0.00000000000E+00  0.00000000000E+00 -0.10553045186E+04  0.10553045186E+04  0.25500000920E-02 0. -1.
    10030    2    1    2    0    0  0.00000000000E+00  0.00000000000E+00 -0.19747234549E+03  0.19131366916E+04  0.19029179367E+04 0.  0.
        3    1    3    3  502    0  0.82129269372E+02  0.62441143895E+03 -0.81575555596E+03  0.10305784780E+04  0.10100000352E+00 0. -1.
       -3    1    3    3    0  502 -0.82129269372E+02 -0.62441143895E+03  0.61828321047E+03  0.88255821367E+03  0.10100000352E+00 0.  1.
</event>
<event>
 5   0  0.1133638E-04  0.1903171E+04  0.7818609E-02  0.8653279E-01
        2   -1    0    0  501    0  0.00000000000E+00  0.00000000000E+00  0.99611882794E+03  0.99611882794E+03  0.25500000920E-02 0.  1.
       -2   -1    0    0    0  501  0.00000000000E+00  0.00000000000E+00 -0.90904330667E+03  0.90904330667E+03  0.25500000920E-02 0. -1.
    10030    2    1    2    0    0  0.00000000000E+00  0.00000000000E+00  0.87075521270E+02  0.19051621346E+04  0.19031711990E+04 0.  0.
        3    1    3    3  502    0 -0.59977606952E+03  0.61697085979E+03  0.45032571496E+03  0.97117332910E+03  0.10100000352E+00 0.  1.
       -3    1    3    3    0  502  0.59977606952E+03 -0.61697085979E+03 -0.36325019369E+03  0.93398880551E+03  0.10100000352E+00 0. -1.
</event>
<event>
 5   0  0.4061125E-05  0.1843344E+04  0.7818609E-02  0.8683583E-01
       -3   -1    0    0    0  501  0.00000000000E+00  0.00000000000E+00  0.90575344524E+03  0.90575345087E+03  0.10100000352E+00 0. -1.
        3   -1    0    0  501    0  0.00000000000E+00  0.00000000000E+00 -0.93787051265E+03  0.93787051809E+03  0.10100000352E+00 0.  1.
    10030    2    1    2    0    0  0.00000000000E+00  0.00000000000E+00 -0.32117067406E+02  0.18436239690E+04  0.18433441982E+04 0.  0.
        1    1    3    3  502    0  0.31178738754E+03  0.33123597871E+03  0.78565579743E+03  0.90784562602E+03  0.50400001928E-02 0. -1.
       -1    1    3    3    0  502 -0.31178738754E+03 -0.33123597871E+03 -0.81777286484E+03  0.93577834294E+03  0.50400001928E-02 0.  1.
</event>
<event>
 5   0  0.1118206E-04  0.1892856E+04  0.7818609E-02  0.8658421E-01
       -2   -1    0    0    0  501  0.00000000000E+00  0.00000000000E+00  0.98455168312E+03  0.98455168312E+03  0.25500000920E-02 0. -1.
        2   -1    0    0  501    0  0.00000000000E+00  0.00000000000E+00 -0.90978059117E+03  0.90978059117E+03  0.25500000920E-02 0.  1.
    10030    2    1    2    0    0  0.00000000000E+00  0.00000000000E+00  0.74771091949E+02  0.18943322743E+04  0.18928560561E+04 0.  0.
        1    1    3    3  502    0  0.40386409215E+03 -0.59009762079E+03 -0.58310170221E+03  0.92267491683E+03  0.50400001928E-02 0.  1.
       -1    1    3    3    0  502 -0.40386409215E+03  0.59009762079E+03  0.65787279416E+03  0.97165735747E+03  0.50400001928E-02 0. -1.
</event>
<event>
 5   0  0.5824956E-05  0.1907962E+04  0.7818609E-02  0.8650903E-01
       -1   -1    0    0    0  501  0.00000000000E+00  0.00000000000E+00  0.50906035463E+03  0.50906035465E+03  0.50400001928E-02 0. -1.
        1   -1    0    0  501    0  0.00000000000E+00  0.00000000000E+00 -0.17877647046E+04  0.17877647046E+04  0.50400001928E-02 0.  1.
    10030    2    1    2    0    0  0.00000000000E+00  0.00000000000E+00 -0.12787043499E+04  0.22968250592E+04  0.19079624048E+04 0.  0.
        2    1    3    3  502    0 -0.26805076767E+03 -0.90544531365E+03 -0.80263478126E+03  0.12393163527E+04  0.25500000920E-02 0.  1.
       -2    1    3    3    0  502  0.26805076767E+03  0.90544531365E+03 -0.47606956866E+03  0.10575087065E+04  0.25500000920E-02 0. -1.
</event>
<event>
 5   0  0.1133638E-04  0.1847555E+04  0.7818609E-02  0.8681411E-01
        2   -1    0    0  501    0  0.00000000000E+00  0.00000000000E+00  0.15006180971E+04  0.15006180971E+04  0.25500000920E-02 0.  1.
       -2   -1    0    0    0  501  0.00000000000E+00  0.00000000000E+00 -0.56867574378E+03  0.56867574379E+03  0.25500000920E-02 0. -1.
    10030    2    1    2    0    0  0.00000000000E+00  0.00000000000E+00  0.93194235327E+03  0.20692938408E+04  0.18475552630E+04 0.  0.
        3    1    3    3  502    0  0.67676573363E+03  0.58334426457E+03  0.72878822322E+03  0.11530111334E+04  0.10100000352E+00 0.  1.
       -3    1    3    3    0  502 -0.67676573363E+03 -0.58334426457E+03  0.20315413005E+03  0.91628270745E+03  0.10100000352E+00 0. -1.
</event>
<event>
 5   0  0.1101678E-04  0.1910846E+04  0.7818609E-02  0.8649477E-01
        2   -1    0    0  501    0  0.00000000000E+00  0.00000000000E+00  0.11974428406E+04  0.11974428406E+04  0.25500000920E-02 0.  1.
       -2   -1    0    0    0  501  0.00000000000E+00  0.00000000000E+00 -0.76231852009E+03  0.76231852010E+03  0.25500000920E-02 0. -1.
    10030    2    1    2    0    0  0.00000000000E+00  0.00000000000E+00  0.43512432053E+03  0.19597613607E+04  0.19108457334E+04 0.  0.
        4    1    3    3  502    0 -0.29015510590E+03  0.47348560831E+03 -0.57980565360E+03  0.80284171267E+03  0.12699999809E+01 0. -1.
       -4    1    3    3    0  502  0.29015510590E+03 -0.47348560831E+03  0.10149299741E+04  0.11569196481E+04  0.12699999809E+01 0.  1.
</event>
<event>
 5   0  0.1182630E-04  0.1903005E+04  0.7818609E-02  0.8653362E-01
        2   -1    0    0  501    0  0.00000000000E+00  0.00000000000E+00  0.15563229195E+04  0.15563229195E+04  0.25500000920E-02 0. -1.
       -2   -1    0    0    0  501  0.00000000000E+00  0.00000000000E+00 -0.58172835692E+03  0.58172835692E+03  0.25500000920E-02 0.  1.
    10030    2    1    2    0    0  0.00000000000E+00  0.00000000000E+00  0.97459456263E+03  0.21380512765E+04  0.19030051758E+04 0.  0.
        5    1    3    3  502    0  0.10672833261E+03 -0.39326275908E+03  0.14533150997E+04  0.15093685447E+04  0.46999998093E+01 0. -1.
       -5    1    3    3    0  502 -0.10672833261E+03  0.39326275908E+03 -0.47872053706E+03  0.62868273180E+03  0.46999998093E+01 0.  1.
</event>
<event>
 5   0  0.5841424E-05  0.1909815E+04  0.7818609E-02  0.8649986E-01
        1   -1    0    0  501    0  0.00000000000E+00  0.00000000000E+00  0.13949985383E+04  0.13949985383E+04  0.50400001928E-02 0.  1.
       -1   -1    0    0    0  501  0.00000000000E+00  0.00000000000E+00 -0.65365513325E+03  0.65365513327E+03  0.50400001928E-02 0. -1.
    10030    2    1    2    0    0  0.00000000000E+00  0.00000000000E+00  0.74134340503E+03  0.20486536716E+04  0.19098146040E+04 0.  0.
        1    1    3    3  502    0  0.29607546735E+03  0.25058774637E+03 -0.56534110610E+03  0.68561320530E+03  0.50400001928E-02 0. -1.
       -1    1    3    3    0  502 -0.29607546735E+03 -0.25058774637E+03  0.13066845111E+04  0.13630404663E+04  0.50400001928E-02 0.  1.
</event>
<event>
 5   0  0.5579109E-05  0.1899786E+04  0.7818609E-02  0.8654963E-01
        1   -1    0    0  501    0  0.00000000000E+00  0.00000000000E+00  0.10360666106E+04  0.10360666106E+04  0.50400001928E-02 0.  1.
       -1   -1    0    0    0  501  0.00000000000E+00  0.00000000000E+00 -0.87088697139E+03  0.87088697141E+03  0.50400001928E-02 0. -1.
    10030    2    1    2    0    0  0.00000000000E+00  0.00000000000E+00  0.16517963923E+03  0.19069535820E+04  0.18997862119E+04 0.  0.
        3    1    3    3  502    0  0.88423072763E+03 -0.34268897572E+03  0.27636689211E+02  0.94871677046E+03  0.10100000352E+00 0. -1.
       -3    1    3    3    0  502 -0.88423072763E+03  0.34268897572E+03  0.13754295002E+03  0.95823681158E+03  0.10100000352E+00 0.  1.
</event>
<event>
 5   0  0.5614989E-05  0.1885131E+04  0.7818609E-02  0.8662293E-01
       -1   -1    0    0    0  501  0.00000000000E+00  0.00000000000E+00  0.77528557924E+03  0.77528557926E+03  0.50400001928E-02 0.  1.
        1   -1    0    0  501    0  0.00000000000E+00  0.00000000000E+00 -0.11459390792E+04  0.11459390792E+04  0.50400001928E-02 0. -1.
    10030    2    1    2    0    0  0.00000000000E+00  0.00000000000E+00 -0.37065349992E+03  0.19212246584E+04  0.18851313406E+04 0.  0.
        4    1    3    3  502    0 -0.77393219737E+02 -0.46618310000E+03 -0.10164854250E+04  0.11209641499E+04  0.12699999809E+01 0. -1.
       -4    1    3    3    0  502  0.77393219737E+02  0.46618310000E+03  0.64583192508E+03  0.80026050855E+03  0.12699999809E+01 0.  1.
</event>
<event>
 5   0  0.5628936E-05  0.1902316E+04  0.7818609E-02  0.8653704E-01
       -1   -1    0    0    0  501  0.00000000000E+00  0.00000000000E+00  0.77871285256E+03  0.77871285258E+03  0.50400001928E-02 0.  1.
        1   -1    0    0  501    0  0.00000000000E+00  0.00000000000E+00 -0.11617908051E+04  0.11617908051E+04  0.50400001928E-02 0. -1.
    10030    2    1    2    0    0  0.00000000000E+00  0.00000000000E+00 -0.38307795258E+03  0.19405036577E+04  0.19023158854E+04 0.  0.
        5    1    3    3  502    0  0.72017194749E+02  0.81641884616E+03  0.30080214369E+03  0.87305797537E+03  0.46999998093E+01 0.  1.
       -5    1    3    3    0  502 -0.72017194749E+02 -0.81641884616E+03 -0.68388009627E+03  0.10674456824E+04  0.46999998093E+01 0. -1.
</event>
<event>
 5   0  0.1133638E-04  0.1893387E+04  0.7818609E-02  0.8658155E-01
       -2   -1    0    0    0  501  0.00000000000E+00  0.00000000000E+00  0.13847837060E+04  0.13847837061E+04  0.25500000920E-02 0.  1.
        2   -1    0    0  501    0  0.00000000000E+00  0.00000000000E+00 -0.64719730392E+03  0.64719730393E+03  0.25500000920E-02 0. -1.
    10030    2    1    2    0    0  0.00000000000E+00  0.00000000000E+00  0.73758640213E+03  0.20319810100E+04  0.18933866811E+04 0.  0.
        3    1    3    3  502    0  0.41626969537E+03  0.80150941013E+03  0.64241897293E+02  0.90544178465E+03  0.10100000352E+00 0. -1.
       -3    1    3    3    0  502 -0.41626969537E+03 -0.80150941013E+03  0.67334450483E+03  0.11265392253E+04  0.10100000352E+00 0.  1.
</event>
<event>
 5   0  0.5824956E-05  0.1881749E+04  0.7818609E-02  0.8663995E-01
        1   -1    0    0  501    0  0.00000000000E+00  0.00000000000E+00  0.90475590726E+03  0.90475590727E+03  0.50400001928E-02 0. -1.
       -1   -1    0    0    0  501  0.00000000000E+00  0.00000000000E+00 -0.97843447101E+03  0.97843447102E+03  0.50400001928E-02 0.  1.
    10030    2    1    2    0    0  0.00000000000E+00  0.00000000000E+00 -0.73678563750E+02  0.18831903783E+04  0.18817485140E+04 0.  0.
        2    1    3    3  502    0  0.93577891132E+03 -0.68324220094E+02  0.33171434454E+02  0.93885606670E+03  0.25500000920E-02 0. -1.
       -2    1    3    3    0  502 -0.93577891132E+03  0.68324220094E+02 -0.10684999820E+03  0.94433431159E+03  0.25500000920E-02 0.  1.
</event>
<event>
 5   0  0.5614989E-05  0.1904165E+04  0.7818609E-02  0.8652786E-01
       -1   -1    0    0    0  501  0.00000000000E+00  0.00000000000E+00  0.55775902763E+03  0.55775902765E+03  0.50400001928E-02 0. -1.
        1   -1    0    0  501    0  0.00000000000E+00  0.00000000000E+00 -0.16251840195E+04  0.16251840195E+04  0.50400001928E-02 0.  1.
    10030    2    1    2    0    0  0.00000000000E+00  0.00000000000E+00 -0.10674249919E+04  0.21829430472E+04  0.19041649703E+04 0.  0.
        4    1    3    3  502    0 -0.80164313670E+03 -0.29876010487E+03 -0.54726520867E+02  0.85725487684E+03  0.12699999809E+01 0. -1.
       -4    1    3    3    0  502  0.80164313670E+03  0.29876010487E+03 -0.10126984710E+04  0.13256881704E+04  0.12699999809E+01 0.  1.
</event>
<event>
 5   0  0.5579109E-05  0.1932021E+04  0.7818609E-02  0.8639080E-01
       -1   -1    0    0    0  501  0.00000000000E+00  0.00000000000E+00  0.46525783197E+03  0.46525783200E+03  0.50400001928E-02 0.  1.
        1   -1    0    0  501    0  0.00000000000E+00  0.00000000000E+00 -0.20057181657E+04  0.20057181657E+04  0.50400001928E-02 0. -1.
    10030    2    1    2    0    0  0.00000000000E+00  0.00000000000E+00 -0.15404603337E+04  0.24709759977E+04  0.19320207922E+04 0.  0.
        3    1    3    3  502    0 -0.31811622473E+03  0.81254622834E+02  0.39170689413E+03  0.51111109094E+03  0.10100000352E+00 0.  1.
       -3    1    3    3    0  502  0.31811622473E+03 -0.81254622834E+02 -0.19321672279E+04  0.19598649068E+04  0.10100000352E+00 0. -1.
</event>
<event>
 5   0  0.5614989E-05  0.1900646E+04  0.7818609E-02  0.8654535E-01
       -1   -1    0    0    0  501  0.00000000000E+00  0.00000000000E+00  0.55084312826E+03  0.55084312829E+03  0.50400001928E-02 0. -1.
        1   -1    0    0  501    0  0.00000000000E+00  0.00000000000E+00 -0.16395125151E+04  0.16395125151E+04  0.50400001928E-02 0.  1.
    10030    2    1    2    0    0  0.00000000000E+00  0.00000000000E+00 -0.10886693868E+04  0.21903556434E+04  0.19006464192E+04 0.  0.
        4    1    3    3  502    0 -0.60916924991E+03 -0.35800872024E+03  0.18802785674E+03  0.73117269274E+03  0.12699999809E+01 0. -1.
       -4    1    3    3    0  502  0.60916924991E+03  0.35800872024E+03 -0.12766972436E+04  0.14591829506E+04  0.12699999809E+01 0.  1.
</event>
<event>
 5   0  0.1141890E-04  0.1886359E+04  0.7818609E-02  0.8661676E-01
        2   -1    0    0  501    0  0.00000000000E+00  0.00000000000E+00  0.14142182376E+04  0.14142182376E+04  0.25500000920E-02 0. -1.
       -2   -1    0    0    0  501  0.00000000000E+00  0.00000000000E+00 -0.62903108513E+03  0.62903108513E+03  0.25500000920E-02 0.  1.
    10030    2    1    2    0    0  0.00000000000E+00  0.00000000000E+00  0.78518715252E+03  0.20432493228E+04  0.18863586431E+04 0.  0.
        2    1    3    3  502    0  0.21897869167E+03 -0.53552563236E+03  0.11994273251E+04  0.13316776181E+04  0.25500000920E-02 0. -1.
       -2    1    3    3    0  502 -0.21897869167E+03  0.53552563236E+03 -0.41424017259E+03  0.71157170468E+03  0.25500000920E-02 0.  1.
</event>
<event>
 5   0  0.1182630E-04  0.1898502E+04  0.7818609E-02  0.8655602E-01
       -2   -1    0    0    0  501  0.00000000000E+00  0.00000000000E+00  0.44810947349E+03  0.44810947349E+03  0.25500000920E-02 0. -1.
        2   -1    0    0  501    0  0.00000000000E+00  0.00000000000E+00 -0.20108429553E+04  0.20108429553E+04  0.25500000920E-02 0.  1.
    10030    2    1    2    0    0  0.00000000000E+00  0.00000000000E+00 -0.15627334818E+04  0.24589524288E+04  0.18985023339E+04 0.  0.
        5    1    3    3  502    0 -0.91669115387E+03 -0.23159007375E+03 -0.89049550468E+03  0.12988306155E+04  0.46999998093E+01 0. -1.
       -5    1    3    3    0  502  0.91669115387E+03  0.23159007375E+03 -0.67223797714E+03  0.11601218133E+04  0.46999998093E+01 0.  1.
</event>
<event>
 5   0  0.1133638E-04  0.1903129E+04  0.7818609E-02  0.8653300E-01
        2   -1    0    0  501    0  0.00000000000E+00  0.00000000000E+00  0.93317210684E+03  0.93317210685E+03  0.25500000920E-02 0. -1.
       -2   -1    0    0    0  501  0.00000000000E+00  0.00000000000E+00 -0.97031958115E+03  0.97031958115E+03  0.25500000920E-02 0.  1.
    10030    2    1    2    0    0  0.00000000000E+00  0.00000000000E+00 -0.37147474307E+02  0.19034916880E+04  0.19031291789E+04 0.  0.
        3    1    3    3  502    0  0.22314937995E+03  0.91082254542E+03  0.14295564015E+03  0.94859352743E+03  0.10100000352E+00 0. -1.
       -3    1    3    3    0  502 -0.22314937995E+03 -0.91082254542E+03 -0.18010311446E+03  0.95489816057E+03  0.10100000352E+00 0.  1.
</event>
<event>
 5   0  0.1182630E-04  0.1719197E+04  0.7818609E-02  0.8750491E-01
       -2   -1    0    0    0  501  0.00000000000E+00  0.00000000000E+00  0.63961574487E+03  0.63961574487E+03  0.25500000920E-02 0.  1.
        2   -1    0    0  501    0  0.00000000000E+00  0.00000000000E+00 -0.11552394344E+04  0.11552394344E+04  0.25500000920E-02 0. -1.
    10030    2    1    2    0    0  0.00000000000E+00  0.00000000000E+00 -0.51562368955E+03  0.17948551793E+04  0.17191967093E+04 0.  0.
        5    1    3    3  502    0  0.60224881132E+03  0.20888736747E+03 -0.85986121637E+03  0.10703835595E+04  0.46999998093E+01 0. -1.
       -5    1    3    3    0  502 -0.60224881132E+03 -0.20888736747E+03  0.34423752682E+03  0.72447161980E+03  0.46999998093E+01 0.  1.
</event>
<event>
 5   0  0.5614989E-05  0.1776772E+04  0.7818609E-02  0.8718750E-01
       -1   -1    0    0    0  501  0.00000000000E+00  0.00000000000E+00  0.44296383772E+03  0.44296383775E+03  0.50400001928E-02 0. -1.
        1   -1    0    0  501    0  0.00000000000E+00  0.00000000000E+00 -0.17817024197E+04  0.17817024197E+04  0.50400001928E-02 0.  1.
    10030    2    1    2    0    0  0.00000000000E+00  0.00000000000E+00 -0.13387385820E+04  0.22246662575E+04  0.17767720637E+04 0.  0.
        4    1    3    3  502    0 -0.39518733558E+03 -0.77556204074E+03 -0.89179866955E+03  0.12461845727E+04  0.12699999809E+01 0. -1.
       -4    1    3    3    0  502  0.39518733558E+03  0.77556204074E+03 -0.44693991243E+03  0.97848168479E+03  0.12699999809E+01 0.  1.
</event>
<event>
 5   0  0.5628936E-05  0.1885194E+04  0.7818609E-02  0.8662262E-01
       -1   -1    0    0    0  501  0.00000000000E+00  0.00000000000E+00  0.86101642522E+03  0.86101642523E+03  0.50400001928E-02 0. -1.
        1   -1    0    0  501    0  0.00000000000E+00  0.00000000000E+00 -0.10319069930E+04  0.10319069931E+04  0.50400001928E-02 0.  1.
    10030    2    1    2    0    0  0.00000000000E+00  0.00000000000E+00 -0.17089056782E+03  0.18929234183E+04  0.18851937517E+04 0.  0.
        5    1    3    3  502    0 -0.39365045670E+03  0.49066452639E+03 -0.79028816403E+03  0.10100939717E+04  0.46999998093E+01 0.  1.
       -5    1    3    3    0  502  0.39365045670E+03 -0.49066452639E+03  0.61939759621E+03  0.88282944656E+03  0.46999998093E+01 0. -1.
</event>
<event>
 5   0  0.5579109E-05  0.1902462E+04  0.7818609E-02  0.8653632E-01
        1   -1    0    0  501    0  0.00000000000E+00  0.00000000000E+00  0.18261622349E+04  0.18261622349E+04  0.50400001928E-02 0. -1.
       -1   -1    0    0    0  501  0.00000000000E+00  0.00000000000E+00 -0.49548729574E+03  0.49548729576E+03  0.50400001928E-02 0.  1.
    10030    2    1    2    0    0  0.00000000000E+00  0.00000000000E+00  0.13306749392E+04  0.23216495307E+04  0.19024617603E+04 0.  0.
        3    1    3    3  502    0  0.69678775090E+03 -0.60912811300E+03  0.39716814433E+03  0.10071210319E+04  0.10100000352E+00 0. -1.
       -3    1    3    3    0  502 -0.69678775090E+03  0.60912811300E+03  0.93350679485E+03  0.13145284988E+04  0.10100000352E+00 0.  1.
</event>
<event>
 5   0  0.5628936E-05  0.1901186E+04  0.7818609E-02  0.8654266E-01
       -1   -1    0    0    0  501  0.00000000000E+00  0.00000000000E+00  0.44814357318E+03  0.44814357321E+03  0.50400001928E-02 0.  1.
        1   -1    0    0  501    0  0.00000000000E+00  0.00000000000E+00 -0.20163778376E+04  0.20163778376E+04  0.50400001928E-02 0. -1.
    10030    2    1    2    0    0  0.00000000000E+00  0.00000000000E+00 -0.15682342644E+04  0.24645214108E+04  0.19011857028E+04 0.  0.
        5    1    3    3  502    0  0.24388007125E+03 -0.78697349345E+03 -0.16949793241E+03  0.84116372225E+03  0.46999998093E+01 0.  1.
       -5    1    3    3    0  502 -0.24388007125E+03  0.78697349345E+03 -0.13987363320E+04  0.16233576886E+04  0.46999998093E+01 0. -1.
</event>
<event>
 5   0  0.1141890E-04  0.1905600E+04  0.7818609E-02  0.8652074E-01
       -2   -1    0    0    0  501  0.00000000000E+00  0.00000000000E+00  0.80283509153E+03  0.80283509153E+03  0.25500000920E-02 0. -1.
        2   -1    0    0  501    0  0.00000000000E+00  0.00000000000E+00 -0.11307779793E+04  0.11307779793E+04  0.25500000920E-02 0.  1.
    10030    2    1    2    0    0  0.00000000000E+00  0.00000000000E+00 -0.32794288775E+03  0.19336130708E+04  0.19056004224E+04 0.  0.
        2    1    3    3  502    0 -0.45660164757E+03 -0.13093994285E+03  0.67412292911E+03  0.82466481479E+03  0.25500000920E-02 0. -1.
       -2    1    3    3    0  502  0.45660164757E+03  0.13093994285E+03 -0.10020658169E+04  0.11089482560E+04  0.25500000920E-02 0.  1.
</event>
<event>
 5   0  0.1133638E-04  0.1871653E+04  0.7818609E-02  0.8669097E-01
       -2   -1    0    0    0  501  0.00000000000E+00  0.00000000000E+00  0.93703659242E+03  0.93703659242E+03  0.25500000920E-02 0.  1.
        2   -1    0    0  501    0  0.00000000000E+00  0.00000000000E+00 -0.93461799076E+03  0.93461799076E+03  0.25500000920E-02 0. -1.
    10030    2    1    2    0    0  0.00000000000E+00  0.00000000000E+00  0.24186016613E+01  0.18716545832E+04  0.18716530205E+04 0.  0.
        3    1    3    3  502    0 -0.86622723877E+03 -0.29256423099E+03 -0.19835987303E+03  0.93556940302E+03  0.10100000352E+00 0. -1.
       -3    1    3    3    0  502  0.86622723877E+03  0.29256423099E+03  0.20077847470E+03  0.93608518017E+03  0.10100000352E+00 0.  1.
</event>
<event>
 5   0  0.1133638E-04  0.1908206E+04  0.7818609E-02  0.8650782E-01
        2   -1    0    0  501    0  0.00000000000E+00  0.00000000000E+00  0.18709582842E+04  0.18709582842E+04  0.25500000920E-02 0.  1.
       -2   -1    0    0    0  501  0.00000000000E+00  0.00000000000E+00 -0.48654895160E+03  0.48654895161E+03  0.25500000920E-02 0. -1.
    10030    2    1    2    0    0  0.00000000000E+00  0.00000000000E+00  0.13844093326E+04  0.23575072358E+04  0.19082062694E+04 0.  0.
        3    1    3    3  502    0 -0.73258444077E+03 -0.32161966775E+03  0.13343971988E+04  0.15558711605E+04  0.10100000352E+00 0.  1.
       -3    1    3    3    0  502  0.73258444077E+03  0.32161966775E+03  0.50012133762E+02  0.80163607533E+03  0.10100000352E+00 0. -1.
</event>
<event>
 5   0  0.5824956E-05  0.1912909E+04  0.7818609E-02  0.8648457E-01
        1   -1    0    0  501    0  0.00000000000E+00  0.00000000000E+00  0.13863567011E+04  0.13863567011E+04  0.50400001928E-02 0. -1.
       -1   -1    0    0    0  501  0.00000000000E+00  0.00000000000E+00 -0.65986281928E+03  0.65986281930E+03  0.50400001928E-02 0.  1.
    10030    2    1    2    0    0  0.00000000000E+00  0.00000000000E+00  0.72649388183E+03  0.20462195204E+04  0.19129090322E+04 0.  0.
        2    1    3    3  502    0 -0.33454748675E+03 -0.25018589013E+03 -0.55711556461E+03  0.69634241064E+03  0.25500000920E-02 0.  1.
       -2    1    3    3    0  502  0.33454748675E+03  0.25018589013E+03  0.12836094464E+04  0.13498771098E+04  0.25500000920E-02 0. -1.
</event>
<event>
 5   0  0.1101678E-04  0.1892379E+04  0.7818609E-02  0.8658659E-01
        2   -1    0    0  501    0  0.00000000000E+00  0.00000000000E+00  0.11138930584E+04  0.11138930584E+04  0.25500000920E-02 0.  1.
       -2   -1    0    0    0  501  0.00000000000E+00  0.00000000000E+00 -0.80373444721E+03  0.80373444722E+03  0.25500000920E-02 0. -1.
    10030    2    1    2    0    0  0.00000000000E+00  0.00000000000E+00  0.31015861119E+03  0.19176275056E+04  0.18923786318E+04 0.  0.
        4    1    3    3  502    0  0.13964464644E+03 -0.44388046218E+03  0.98992961826E+03  0.10938431121E+04  0.12699999809E+01 0.  1.
       -4    1    3    3    0  502 -0.13964464644E+03  0.44388046218E+03 -0.67977100707E+03  0.82378439348E+03  0.12699999809E+01 0. -1.
</event>
<event>
 5   0  0.1133638E-04  0.1909840E+04  0.7818609E-02  0.8649974E-01
        2   -1    0    0  501    0  0.00000000000E+00  0.00000000000E+00  0.17115758908E+04  0.17115758908E+04  0.25500000920E-02 0.  1.
       -2   -1    0    0    0  501  0.00000000000E+00  0.00000000000E+00 -0.53276754465E+03  0.53276754466E+03  0.25500000920E-02 0. -1.
    10030    2    1    2    0    0  0.00000000000E+00  0.00000000000E+00  0.11788083462E+04  0.22443434355E+04  0.19098398727E+04 0.  0.
        3    1    3    3  502    0  0.51809783791E+02 -0.17492148673E+03 -0.51209850959E+03  0.54362365101E+03  0.10100000352E+00 0. -1.
       -3    1    3    3    0  502 -0.51809783791E+02  0.17492148673E+03  0.16909068558E+04  0.17007197845E+04  0.10100000352E+00 0.  1.
</event>
<event>
 5   0  0.1133638E-04  0.1900929E+04  0.7818609E-02  0.8654394E-01
       -2   -1    0    0    0  501  0.00000000000E+00  0.00000000000E+00  0.99812820650E+03  0.99812820650E+03  0.25500000920E-02 0. -1.
        2   -1    0    0  501    0  0.00000000000E+00  0.00000000000E+00 -0.90507662056E+03  0.90507662057E+03  0.25500000920E-02 0.  1.
    10030    2    1    2    0    0  0.00000000000E+00  0.00000000000E+00  0.93051585937E+02  0.19032048271E+04  0.19009287246E+04 0.  0.
        3    1    3    3  502    0  0.42948435907E+03 -0.71426087023E+03 -0.41092071088E+03  0.92923691611E+03  0.10100000352E+00 0.  1.
       -3    1    3    3    0  502 -0.42948435907E+03  0.71426087023E+03  0.50397229682E+03  0.97396791096E+03  0.10100000352E+00 0. -1.
</event>
<event>
 5   0  0.1133638E-04  0.1897137E+04  0.7818609E-02  0.8656283E-01
       -2   -1    0    0    0  501  0.00000000000E+00  0.00000000000E+00  0.32647631770E+03  0.32647631771E+03  0.25500000920E-02 0. -1.
        2   -1    0    0  501    0  0.00000000000E+00  0.00000000000E+00 -0.27560425288E+04  0.27560425288E+04  0.25500000920E-02 0.  1.
    10030    2    1    2    0    0  0.00000000000E+00  0.00000000000E+00 -0.24295662111E+04  0.30825188465E+04  0.18971374397E+04 0.  0.
        3    1    3    3  502    0  0.90869204261E+03  0.19729291020E+03 -0.91021208652E+03  0.13012039707E+04  0.10100000352E+00 0.  1.
       -3    1    3    3    0  502 -0.90869204261E+03 -0.19729291020E+03 -0.15193541246E+04  0.17813148758E+04  0.10100000352E+00 0. -1.
</event>
<event>
 5   0  0.1182630E-04  0.1910830E+04  0.7818609E-02  0.8649485E-01
        2   -1    0    0  501    0  0.00000000000E+00  0.00000000000E+00  0.17666532355E+04  0.17666532355E+04  0.25500000920E-02 0. -1.
       -2   -1    0    0    0  501  0.00000000000E+00  0.00000000000E+00 -0.51669304613E+03  0.51669304614E+03  0.25500000920E-02 0.  1.
    10030    2    1    2    0    0  0.00000000000E+00  0.00000000000E+00  0.12499601893E+04  0.22833462816E+04  0.19108296017E+04 0.  0.
        5    1    3    3  502    0  0.90902077341E+03  0.20519205823E+03  0.87669460864E+03  0.12794678871E+04  0.46999998093E+01 0.  1.
       -5    1    3    3    0  502 -0.90902077341E+03 -0.20519205823E+03  0.37326558068E+03  0.10038783945E+04  0.46999998093E+01 0. -1.
</event>
<event>
 5   0  0.5579109E-05  0.1902247E+04  0.7818609E-02  0.8653739E-01
       -1   -1    0    0    0  501  0.00000000000E+00  0.00000000000E+00  0.11018846211E+04  0.11018846211E+04  0.50400001928E-02 0.  1.
        1   -1    0    0  501    0  0.00000000000E+00  0.00000000000E+00 -0.82098965130E+03  0.82098965131E+03  0.50400001928E-02 0. -1.
    10030    2    1    2    0    0  0.00000000000E+00  0.00000000000E+00  0.28089496981E+03  0.19228742724E+04  0.19022469565E+04 0.  0.
        3    1    3    3  502    0  0.34629211935E+03  0.33274357679E+02  0.10352642228E+04  0.10921526615E+04  0.10100000352E+00 0.  1.
       -3    1    3    3    0  502 -0.34629211935E+03 -0.33274357679E+02 -0.75436925299E+03  0.83072161093E+03  0.10100000352E+00 0. -1.
</event>
<event>
 5   0  0.5824956E-05  0.1893748E+04  0.7818609E-02  0.8657975E-01
       -1   -1    0    0    0  501  0.00000000000E+00  0.00000000000E+00  0.71693904448E+03  0.71693904449E+03  0.50400001928E-02 0. -1.
        1   -1    0    0  501    0  0.00000000000E+00  0.00000000000E+00 -0.12505530001E+04  0.12505530001E+04  0.50400001928E-02 0.  1.
    10030    2    1    2    0    0  0.00000000000E+00  0.00000000000E+00 -0.53361395563E+03  0.19674920446E+04  0.18937478956E+04 0.  0.
        2    1    3    3  502    0  0.77746875730E+03  0.53592157607E+03 -0.33953779947E+03  0.10034717343E+04  0.25500000920E-02 0.  1.
       -2    1    3    3    0  502 -0.77746875730E+03 -0.53592157607E+03 -0.19407615616E+03  0.96402031030E+03  0.25500000920E-02 0. -1.
</event>
<event>
 5   0  0.5614989E-05  0.1897478E+04  0.7818609E-02  0.8656113E-01
        1   -1    0    0  501    0  0.00000000000E+00  0.00000000000E+00  0.27184848033E+04  0.27184848033E+04  0.50400001928E-02 0. -1.
       -1   -1    0    0    0  501  0.00000000000E+00  0.00000000000E+00 -0.33110568805E+03  0.33110568809E+03  0.50400001928E-02 0.  1.
    10030    2    1    2    0    0  0.00000000000E+00  0.00000000000E+00  0.23873791153E+04  0.30495904914E+04  0.18974780961E+04 0.  0.
        4    1    3    3  502    0 -0.13097128527E+03  0.70400950848E+03  0.21939208689E+04  0.23078286890E+04  0.12699999809E+01 0. -1.
       -4    1    3    3    0  502  0.13097128527E+03 -0.70400950848E+03  0.19345824633E+03  0.74176180244E+03  0.12699999809E+01 0.  1.
</event>
<event>
 5   0  0.1133638E-04  0.1939338E+04  0.7818609E-02  0.8635520E-01
       -2   -1    0    0    0  501  0.00000000000E+00  0.00000000000E+00  0.10111231742E+04  0.10111231742E+04  0.25500000920E-02 0. -1.
        2   -1    0    0  501    0  0.00000000000E+00  0.00000000000E+00 -0.92991399461E+03  0.92991399461E+03  0.25500000920E-02 0.  1.
    10030    2    1    2    0    0  0.00000000000E+00  0.00000000000E+00  0.81209179544E+02  0.19410371688E+04  0.19393376085E+04 0.  0.
        3    1    3    3  502    0 -0.27248044410E+03  0.80709693313E+01  0.97198274943E+03  0.10094856157E+04  0.10100000352E+00 0. -1.
       -3    1    3    3    0  502  0.27248044410E+03 -0.80709693313E+01 -0.89077356989E+03  0.93155155304E+03  0.10100000352E+00 0.  1.
</event>
<event>
 5   0  0.1133638E-04  0.1917988E+04  0.7818609E-02  0.8645954E-01
        2   -1    0    0  501    0  0.00000000000E+00  0.00000000000E+00  0.97673241183E+03  0.97673241183E+03  0.25500000920E-02 0.  1.
       -2   -1    0    0    0  501  0.00000000000E+00  0.00000000000E+00 -0.94157739701E+03  0.94157739701E+03  0.25500000920E-02 0. -1.
    10030    2    1    2    0    0  0.00000000000E+00  0.00000000000E+00  0.35155014818E+02  0.19183098088E+04  0.19179876558E+04 0.  0.
        3    1    3    3  502    0  0.57656066159E+03 -0.30750470507E+03  0.71961264415E+03  0.97202042569E+03  0.10100000352E+00 0.  1.
       -3    1    3    3    0  502 -0.57656066159E+03  0.30750470507E+03 -0.68445762933E+03  0.94628938316E+03  0.10100000352E+00 0. -1.
</event>
<event>
 5   0  0.1118206E-04  0.1903384E+04  0.7818609E-02  0.8653174E-01
        2   -1    0    0  501    0  0.00000000000E+00  0.00000000000E+00  0.76372723450E+03  0.76372723450E+03  0.25500000920E-02 0.  1.
       -2   -1    0    0    0  501  0.00000000000E+00  0.00000000000E+00 -0.11859179429E+04  0.11859179429E+04  0.25500000920E-02 0. -1.
    10030    2    1    2    0    0  0.00000000000E+00  0.00000000000E+00 -0.42219070842E+03  0.19496451774E+04  0.19033841766E+04 0.  0.
        1    1    3    3  502    0  0.84071308525E+03  0.16371201281E+03  0.21385863693E+03  0.88279988189E+03  0.50400001928E-02 0.  1.
       -1    1    3    3    0  502 -0.84071308525E+03 -0.16371201281E+03 -0.63604934535E+03  0.10668452955E+04  0.50400001928E-02 0. -1.
</event>
<event>
 5   0  0.5841424E-05  0.1893278E+04  0.7818609E-02  0.8658210E-01
        1   -1    0    0  501    0  0.00000000000E+00  0.00000000000E+00  0.12770317519E+04  0.12770317520E+04  0.50400001928E-02 0.  1.
       -1   -1    0    0    0  501  0.00000000000E+00  0.00000000000E+00 -0.70172489412E+03  0.70172489413E+03  0.50400001928E-02 0. -1.
    10030    2    1    2    0    0  0.00000000000E+00  0.00000000000E+00  0.57530685783E+03  0.19787566461E+04  0.18932775506E+04 0.  0.
        1    1    3    3  502    0  0.22768664098E+02  0.64500600311E+03 -0.43612532801E+03  0.77894573487E+03  0.50400001928E-02 0. -1.
       -1    1    3    3    0  502 -0.22768664098E+02 -0.64500600311E+03  0.10114321858E+04  0.11998109112E+04  0.50400001928E-02 0.  1.
</event>
<event>
 5   0  0.1141890E-04  0.1880368E+04  0.7818609E-02  0.8664691E-01
        2   -1    0    0  501    0  0.00000000000E+00  0.00000000000E+00  0.16173161323E+04  0.16173161323E+04  0.25500000920E-02 0.  1.
       -2   -1    0    0    0  501  0.00000000000E+00  0.00000000000E+00 -0.54655116403E+03  0.54655116403E+03  0.25500000920E-02 0. -1.
    10030    2    1    2    0    0  0.00000000000E+00  0.00000000000E+00  0.10707649683E+04  0.21638672964E+04  0.18803680647E+04 0.  0.
        2    1    3    3  502    0  0.27787937161E+03  0.87800586288E+03  0.31754124775E+03  0.97413740532E+03  0.25500000920E-02 0.  1.
       -2    1    3    3    0  502 -0.27787937161E+03 -0.87800586288E+03  0.75322372055E+03  0.11897298910E+04  0.25500000920E-02 0. -1.
</event>
<event>
 5   0  0.1133638E-04  0.1908094E+04  0.7818609E-02  0.8650838E-01
        2   -1    0    0  501    0  0.00000000000E+00  0.00000000000E+00  0.74882060805E+03  0.74882060806E+03  0.25500000920E-02 0. -1.
       -2   -1    0    0    0  501  0.00000000000E+00  0.00000000000E+00 -0.12155191928E+04  0.12155191928E+04  0.25500000920E-02 0.  1.
    10030    2    1    2    0    0  0.00000000000E+00  0.00000000000E+00 -0.46669858473E+03  0.19643398008E+04  0.19080941497E+04 0.  0.
        3    1    3    3  502    0 -0.29648525351E+03  0.83455204924E+02 -0.11629266442E+04  0.12030239677E+04  0.10100000352E+00 0.  1.
       -3    1    3    3    0  502  0.29648525351E+03 -0.83455204924E+02  0.69622805949E+03  0.76131583315E+03  0.10100000352E+00 0. -1.
</event>
<event>
 5   0  0.5841424E-05  0.1889604E+04  0.7818609E-02  0.8660048E-01
       -1   -1    0    0    0  501  0.00000000000E+00  0.00000000000E+00  0.10764877882E+04  0.10764877882E+04  0.50400001928E-02 0.  1.
        1   -1    0    0  501    0  0.00000000000E+00  0.00000000000E+00 -0.82922564102E+03  0.82922564103E+03  0.50400001928E-02 0. -1.
    10030    2    1    2    0    0  0.00000000000E+00  0.00000000000E+00  0.24726214721E+03  0.19057134293E+04  0.18896044838E+04 0.  0.
        1    1    3    3  502    0  0.30475003953E+03  0.88184784365E+03 -0.26375186419E+02  0.93339373066E+03  0.50400001928E-02 0. -1.
       -1    1    3    3    0  502 -0.30475003953E+03 -0.88184784365E+03  0.27363733363E+03  0.97231969862E+03  0.50400001928E-02 0.  1.
</event>
<event>
 5   0  0.1101678E-04  0.1862432E+04  0.7818609E-02  0.8673786E-01
       -2   -1    0    0    0  501  0.00000000000E+00  0.00000000000E+00  0.36162762012E+03  0.36162762013E+03  0.25500000920E-02 0.  1.
        2   -1    0    0  501    0  0.00000000000E+00  0.00000000000E+00 -0.23979452900E+04  0.23979452900E+04  0.25500000920E-02 0. -1.
    10030    2    1    2    0    0  0.00000000000E+00  0.00000000000E+00 -0.20363176698E+04  0.27595729101E+04  0.18624320105E+04 0.  0.
        4    1    3    3  502    0 -0.49737096931E+03 -0.74567467831E+03 -0.13922796360E+04  0.16558541013E+04  0.12699999809E+01 0. -1.
       -4    1    3    3    0  502  0.49737096931E+03  0.74567467831E+03 -0.64403803381E+03  0.11037188088E+04  0.12699999809E+01 0.  1.
</event>
<event>
 5   0  0.4061125E-05  0.1914905E+04  0.7818609E-02  0.8647473E-01
       -3   -1    0    0    0  501  0.00000000000E+00  0.00000000000E+00  0.99610146626E+03  0.99610147138E+03  0.10100000352E+00 0. -1.
        3   -1    0    0  501    0  0.00000000000E+00  0.00000000000E+00 -0.92030312315E+03  0.92030312869E+03  0.10100000352E+00 0.  1.
    10030    2    1    2    0    0  0.00000000000E+00  0.00000000000E+00  0.75798343106E+02  0.19164046001E+04  0.19149050113E+04 0.  0.
        3    1    3    3  502    0 -0.46380453600E+03  0.37170950916E+03 -0.71331018213E+03  0.92849019001E+03  0.10100000352E+00 0.  1.
       -3    1    3    3    0  502  0.46380453600E+03 -0.37170950916E+03  0.78910852523E+03  0.98791441006E+03  0.10100000352E+00 0. -1.
</event>
<event>
 5   0  0.1182630E-04  0.1901232E+04  0.7818609E-02  0.8654244E-01
       -2   -1    0    0    0  501  0.00000000000E+00  0.00000000000E+00  0.40257884138E+03  0.40257884139E+03  0.25500000920E-02 0. -1.
        2   -1    0    0  501    0  0.00000000000E+00  0.00000000000E+00 -0.22447043416E+04  0.22447043416E+04  0.25500000920E-02 0.  1.
    10030    2    1    2    0    0  0.00000000000E+00  0.00000000000E+00 -0.18421255002E+04  0.26472831830E+04  0.19012316777E+04 0.  0.
        5    1    3    3  502    0 -0.70938129515E+03 -0.23453949350E+03 -0.10271534841E+03  0.75419037963E+03  0.46999998093E+01 0. -1.
       -5    1    3    3    0  502  0.70938129515E+03  0.23453949350E+03 -0.17394101518E+04  0.18930928034E+04  0.46999998093E+01 0.  1.
</event>
<event>
 5   0  0.1101678E-04  0.1893575E+04  0.7818609E-02  0.8658061E-01
       -2   -1    0    0    0  501  0.00000000000E+00  0.00000000000E+00  0.54018094992E+03  0.54018094993E+03  0.25500000920E-02 0. -1.
        2   -1    0    0  501    0  0.00000000000E+00  0.00000000000E+00 -0.16594560511E+04  0.16594560511E+04  0.25500000920E-02 0.  1.
    10030    2    1    2    0    0  0.00000000000E+00  0.00000000000E+00 -0.11192751012E+04  0.21996370011E+04  0.18935749746E+04 0.  0.
        4    1    3    3  502    0 -0.80720252310E+03 -0.28501952960E+03 -0.89796758130E+02  0.86074218917E+03  0.12699999809E+01 0. -1.
       -4    1    3    3    0  502  0.80720252310E+03  0.28501952960E+03 -0.10294783431E+04  0.13388948119E+04  0.12699999809E+01 0.  1.
</event>
<event>
 5   0  0.1133638E-04  0.1888728E+04  0.7818609E-02  0.8660488E-01
        2   -1    0    0  501    0  0.00000000000E+00  0.00000000000E+00  0.10681799957E+04  0.10681799957E+04  0.25500000920E-02 0. -1.
       -2   -1    0    0    0  501  0.00000000000E+00  0.00000000000E+00 -0.83489949548E+03  0.83489949549E+03  0.25500000920E-02 0.  1.
    10030    2    1    2    0    0  0.00000000000E+00  0.00000000000E+00  0.23328050026E+03  0.19030794912E+04  0.18887275500E+04 0.  0.
        3    1    3    3  502    0  0.22696696063E+03 -0.55427123989E+03 -0.61903954236E+03  0.86135972381E+03  0.10100000352E+00 0.  1.
       -3    1    3    3    0  502 -0.22696696063E+03  0.55427123989E+03  0.85232004263E+03  0.10417197674E+04  0.10100000352E+00 0. -1.
</event>
<event>
 5   0  0.1133638E-04  0.1907404E+04  0.7818609E-02  0.8651180E-01
       -2   -1    0    0    0  501  0.00000000000E+00  0.00000000000E+00  0.50884145596E+03  0.50884145597E+03  0.25500000920E-02 0.  1.
        2   -1    0    0  501    0  0.00000000000E+00  0.00000000000E+00 -0.17874872546E+04  0.17874872546E+04  0.25500000920E-02 0. -1.
    10030    2    1    2    0    0  0.00000000000E+00  0.00000000000E+00 -0.12786457986E+04  0.22963287105E+04  0.19074041178E+04 0.  0.
        3    1    3    3  502    0 -0.90970347893E+03 -0.22303208871E+03 -0.42314317797E+03  0.10277907819E+04  0.10100000352E+00 0.  1.
       -3    1    3    3    0  502  0.90970347893E+03  0.22303208871E+03 -0.85550262064E+03  0.12685379286E+04  0.10100000352E+00 0. -1.
</event>
<event>
 5   0  0.1101678E-04  0.1904782E+04  0.7818609E-02  0.8652480E-01
        2   -1    0    0  501    0  0.00000000000E+00  0.00000000000E+00  0.89268209290E+03  0.89268209291E+03  0.25500000920E-02 0.  1.
       -2   -1    0    0    0  501  0.00000000000E+00  0.00000000000E+00 -0.10160940105E+04  0.10160940105E+04  0.25500000920E-02 0. -1.
    10030    2    1    2    0    0  0.00000000000E+00  0.00000000000E+00 -0.12341191760E+03  0.19087761034E+04  0.19047823266E+04 0.  0.
        4    1    3    3  502    0  0.61554243029E+03  0.60038300980E+03 -0.47207046295E+03  0.98092016843E+03  0.12699999809E+01 0. -1.
       -4    1    3    3    0  502 -0.61554243029E+03 -0.60038300980E+03  0.34865854535E+03  0.92785593499E+03  0.12699999809E+01 0.  1.
</event>
<event>
 5   0  0.1133638E-04  0.1898651E+04  0.7818609E-02  0.8655528E-01
        2   -1    0    0  501    0  0.00000000000E+00  0.00000000000E+00  0.78095351168E+03  0.78095351168E+03  0.25500000920E-02 0. -1.
       -2   -1    0    0    0  501  0.00000000000E+00  0.00000000000E+00 -0.11539983095E+04  0.11539983095E+04  0.25500000920E-02 0.  1.
    10030    2    1    2    0    0  0.00000000000E+00  0.00000000000E+00 -0.37304479782E+03  0.19349518212E+04  0.18986511341E+04 0.  0.
        3    1    3    3  502    0 -0.16769521204E+03 -0.73644423914E+02  0.76277706140E+03  0.78445780060E+03  0.10100000352E+00 0. -1.
       -3    1    3    3    0  502  0.16769521204E+03  0.73644423914E+02 -0.11358218592E+04  0.11504940206E+04  0.10100000352E+00 0.  1.
</event>
<event>
 5   0  0.5628936E-05  0.1900820E+04  0.7818609E-02  0.8654448E-01
        1   -1    0    0  501    0  0.00000000000E+00  0.00000000000E+00  0.12397648972E+04  0.12397648972E+04  0.50400001928E-02 0. -1.
       -1   -1    0    0    0  501  0.00000000000E+00  0.00000000000E+00 -0.72858904019E+03  0.72858904020E+03  0.50400001928E-02 0.  1.
    10030    2    1    2    0    0  0.00000000000E+00  0.00000000000E+00  0.51117585698E+03  0.19683539374E+04  0.19008199457E+04 0.  0.
        5    1    3    3  502    0 -0.38871218667E+03 -0.49887589445E+03  0.99021717770E+03  0.11749580721E+04  0.46999998093E+01 0. -1.
       -5    1    3    3    0  502  0.38871218667E+03  0.49887589445E+03 -0.47904132072E+03  0.79339586531E+03  0.46999998093E+01 0.  1.
</event>
<event>
 5   0  0.1118206E-04  0.1930382E+04  0.7818609E-02  0.8639880E-01
       -2   -1    0    0    0  501  0.00000000000E+00  0.00000000000E+00  0.58545467189E+03  0.58545467189E+03  0.25500000920E-02 0.  1.
        2   -1    0    0  501    0  0.00000000000E+00  0.00000000000E+00 -0.15912303842E+04  0.15912303842E+04  0.25500000920E-02 0. -1.
    10030    2    1    2    0    0  0.00000000000E+00  0.00000000000E+00 -0.10057757123E+04  0.21766850561E+04  0.19303815814E+04 0.  0.
        1    1    3    3  502    0  0.90385999200E+03  0.31180527927E+03 -0.65166113606E+03  0.11570858454E+04  0.50400001928E-02 0. -1.
       -1    1    3    3    0  502 -0.90385999200E+03 -0.31180527927E+03 -0.35411457624E+03  0.10195992107E+04  0.50400001928E-02 0.  1.
</event>
<event>
 5   0  0.5579109E-05  0.1901586E+04  0.7818609E-02  0.8654067E-01
        1   -1    0    0  501    0  0.00000000000E+00  0.00000000000E+00  0.12141006618E+04  0.12141006618E+04  0.50400001928E-02 0. -1.
       -1   -1    0    0    0  501  0.00000000000E+00  0.00000000000E+00 -0.74459033125E+03  0.74459033126E+03  0.50400001928E-02 0.  1.
    10030    2    1    2    0    0  0.00000000000E+00  0.00000000000E+00  0.46951033058E+03  0.19586909931E+04  0.19015862999E+04 0.  0.
        3    1    3    3  502    0  0.16434401755E+03  0.24245678722E+03 -0.69696000781E+03  0.75600761402E+03  0.10100000352E+00 0.  1.
       -3    1    3    3    0  502 -0.16434401755E+03 -0.24245678722E+03  0.11664703384E+04  0.12026833791E+04  0.10100000352E+00 0. -1.
</event>
<event>
 5   0  0.1101678E-04  0.1896914E+04  0.7818609E-02  0.8656394E-01
        2   -1    0    0  501    0  0.00000000000E+00  0.00000000000E+00  0.75875225068E+03  0.75875225068E+03  0.25500000920E-02 0. -1.
       -2   -1    0    0    0  501  0.00000000000E+00  0.00000000000E+00 -0.11855917795E+04  0.11855917795E+04  0.25500000920E-02 0.  1.
    10030    2    1    2    0    0  0.00000000000E+00  0.00000000000E+00 -0.42683952883E+03  0.19443440302E+04  0.18969137367E+04 0.  0.
        4    1    3    3  502    0  0.26374629077E+03  0.68098569295E+02  0.71779463795E+03  0.76774362662E+03  0.12699999809E+01 0. -1.
       -4    1    3    3    0  502 -0.26374629077E+03 -0.68098569295E+02 -0.11446341668E+04  0.11766004036E+04  0.12699999809E+01 0.  1.
</event>
<event>
 5   0  0.1101678E-04  0.1936232E+04  0.7818609E-02  0.8637028E-01
        2   -1    0    0  501    0  0.00000000000E+00  0.00000000000E+00  0.90378377696E+03  0.90378377696E+03  0.25500000920E-02 0.  1.
       -2   -1    0    0    0  501  0.00000000000E+00  0.00000000000E+00 -0.10370279388E+04  0.10370279388E+04  0.25500000920E-02 0. -1.
    10030    2    1    2    0    0  0.00000000000E+00  0.00000000000E+00 -0.13324416188E+03  0.19408117158E+04  0.19362324524E+04 0.  0.
        4    1    3    3  502    0 -0.29495841061E+03 -0.11496448727E+03 -0.98367933935E+03  0.10333653530E+04  0.12699999809E+01 0. -1.
       -4    1    3    3    0  502  0.29495841061E+03  0.11496448727E+03  0.85043517746E+03  0.90744636276E+03  0.12699999809E+01 0.  1.
</event>
<event>
 5   0  0.1101678E-04  0.1916797E+04  0.7818609E-02  0.8646540E-01
       -2   -1    0    0    0  501  0.00000000000E+00  0.00000000000E+00  0.74511181842E+03  0.74511181842E+03  0.25500000920E-02 0.  1.
        2   -1    0    0  501    0  0.00000000000E+00  0.00000000000E+00 -0.12327384483E+04  0.12327384483E+04  0.25500000920E-02 0. -1.
    10030    2    1    2    0    0  0.00000000000E+00  0.00000000000E+00 -0.48762662991E+03  0.19778502667E+04  0.19167973152E+04 0.  0.
        4    1    3    3  502    0  0.72201556819E+03 -0.61676231325E+03 -0.10997400675E+03  0.95592788788E+03  0.12699999809E+01 0. -1.
       -4    1    3    3    0  502 -0.72201556819E+03  0.61676231325E+03 -0.37765262316E+03  0.10219223789E+04  0.12699999809E+01 0.  1.
</event>
<event>
 5   0  0.1118206E-04  0.1943500E+04  0.7818609E-02  0.8633502E-01
        2   -1    0    0  501    0  0.00000000000E+00  0.00000000000E+00  0.13061675366E+04  0.13061675366E+04  0.25500000920E-02 0.  1.
       -2   -1    0    0    0  501  0.00000000000E+00  0.00000000000E+00 -0.72295331218E+03  0.72295331219E+03  0.25500000920E-02 0. -1.
    10030    2    1    2    0    0  0.00000000000E+00  0.00000000000E+00  0.58321422441E+03  0.20291208488E+04  0.19435000868E+04 0.  0.
        1    1    3    3  502    0  0.71556304934E+03 -0.60243112440E+03  0.16672716129E+02  0.93553819628E+03  0.50400001928E-02 0. -1.
       -1    1    3    3    0  502 -0.71556304934E+03  0.60243112440E+03  0.56654150828E+03  0.10935826525E+04  0.50400001928E-02 0.  1.
</event>
<event>
 5   0  0.5614989E-05  0.1896764E+04  0.7818609E-02  0.8656469E-01
        1   -1    0    0  501    0  0.00000000000E+00  0.00000000000E+00  0.12826679957E+04  0.12826679957E+04  0.50400001928E-02 0.  1.
       -1   -1    0    0    0  501  0.00000000000E+00  0.00000000000E+00 -0.70121650682E+03  0.70121650684E+03  0.50400001928E-02 0. -1.
    10030    2    1    2    0    0  0.00000000000E+00  0.00000000000E+00  0.58145148888E+03  0.19838845025E+04  0.18967635291E+04 0.  0.
        4    1    3    3  502    0 -0.15351310478E+02 -0.65626108400E+03 -0.42519276927E+03  0.78211557780E+03  0.12699999809E+01 0. -1.
       -4    1    3    3    0  502  0.15351310478E+02  0.65626108400E+03  0.10066442581E+04  0.12017689247E+04  0.12699999809E+01 0.  1.
</event>
<event>
 5   0  0.5628936E-05  0.1906809E+04  0.7818609E-02  0.8651475E-01
        1   -1    0    0  501    0  0.00000000000E+00  0.00000000000E+00  0.20689701165E+04  0.20689701165E+04  0.50400001928E-02 0. -1.
       -1   -1    0    0    0  501  0.00000000000E+00  0.00000000000E+00 -0.43933934263E+03  0.43933934266E+03  0.50400001928E-02 0.  1.
    10030    2    1    2    0    0  0.00000000000E+00  0.00000000000E+00  0.16296307739E+04  0.25083094592E+04  0.19068088220E+04 0.  0.
        5    1    3    3  502    0  0.86954899953E+03 -0.11301788473E+03  0.13071332122E+04  0.15740101109E+04  0.46999998093E+01 0. -1.
       -5    1    3    3    0  502 -0.86954899953E+03  0.11301788473E+03  0.32249756166E+03  0.93429934824E+03  0.46999998093E+01 0.  1.
</event>
<event>
 5   0  0.1101678E-04  0.1882479E+04  0.7818609E-02  0.8663627E-01
       -2   -1    0    0    0  501  0.00000000000E+00  0.00000000000E+00  0.60956635021E+03  0.60956635022E+03  0.25500000920E-02 0.  1.
        2   -1    0    0  501    0  0.00000000000E+00  0.00000000000E+00 -0.14533807019E+04  0.14533807019E+04  0.25500000920E-02 0. -1.
    10030    2    1    2    0    0  0.00000000000E+00  0.00000000000E+00 -0.84381435168E+03  0.20629470521E+04  0.18824791844E+04 0.  0.
        4    1    3    3  502    0 -0.75215921814E+03  0.36810353359E+03 -0.89285810481E+03  0.12241082097E+04  0.12699999809E+01 0. -1.
       -4    1    3    3    0  502  0.75215921814E+03 -0.36810353359E+03  0.49043753135E+02  0.83883884239E+03  0.12699999809E+01 0.  1.
</event>
<event>
 5   0  0.1118206E-04  0.1927410E+04  0.7818609E-02  0.8641332E-01
       -2   -1    0    0    0  501  0.00000000000E+00  0.00000000000E+00  0.12546149948E+04  0.12546149948E+04  0.25500000920E-02 0. -1.
        2   -1    0    0  501    0  0.00000000000E+00  0.00000000000E+00 -0.74024901243E+03  0.74024901243E+03  0.25500000920E-02 0.  1.
    10030    2    1    2    0    0  0.00000000000E+00  0.00000000000E+00  0.51436598235E+03  0.19948640072E+04  0.19274101908E+04 0.  0.
        1    1    3    3  502    0  0.32837406730E+03  0.57526591851E+03 -0.46729067814E+03  0.81062999141E+03  0.50400001928E-02 0.  1.
       -1    1    3    3    0  502 -0.32837406730E+03 -0.57526591851E+03  0.98165666050E+03  0.11842340158E+04  0.50400001928E-02 0. -1.
</event>
<event>
 5   0  0.1141890E-04  0.1897918E+04  0.7818609E-02  0.8655893E-01
        2   -1    0    0  501    0  0.00000000000E+00  0.00000000000E+00  0.83706020343E+03  0.83706020343E+03  0.25500000920E-02 0. -1.
       -2   -1    0    0    0  501  0.00000000000E+00  0.00000000000E+00 -0.10758168362E+04  0.10758168362E+04  0.25500000920E-02 0.  1.
    10030    2    1    2    0    0  0.00000000000E+00  0.00000000000E+00 -0.23875663278E+03  0.19128770396E+04  0.18979182909E+04 0.  0.
        2    1    3    3  502    0 -0.19699815128E+03 -0.32983950148E+03 -0.99392757230E+03  0.10655957898E+04  0.25500000920E-02 0.  1.
       -2    1    3    3    0  502  0.19699815128E+03  0.32983950148E+03  0.75517093952E+03  0.84728124979E+03  0.25500000920E-02 0. -1.
</event>
<event>
 5   0  0.1182630E-04  0.2006735E+04  0.7818609E-02  0.8603478E-01
       -2   -1    0    0    0  501  0.00000000000E+00  0.00000000000E+00  0.69355740359E+03  0.69355740359E+03  0.25500000920E-02 0. -1.
        2   -1    0    0  501    0  0.00000000000E+00  0.00000000000E+00 -0.14515687621E+04  0.14515687621E+04  0.25500000920E-02 0.  1.
    10030    2    1    2    0    0  0.00000000000E+00  0.00000000000E+00 -0.75801135848E+03  0.21451261657E+04  0.20067349220E+04 0.  0.
        5    1    3    3  502    0 -0.37549731832E+03  0.67478769629E+03  0.30578823831E+03  0.83058124697E+03  0.46999998093E+01 0. -1.
       -5    1    3    3    0  502  0.37549731832E+03 -0.67478769629E+03 -0.10637995968E+04  0.13145449187E+04  0.46999998093E+01 0.  1.
</event>
<event>
 5   0  0.1141890E-04  0.1903282E+04  0.7818609E-02  0.8653224E-01
       -2   -1    0    0    0  501  0.00000000000E+00  0.00000000000E+00  0.16894544379E+04  0.16894544379E+04  0.25500000920E-02 0. -1.
        2   -1    0    0  501    0  0.00000000000E+00  0.00000000000E+00 -0.53604332536E+03  0.53604332536E+03  0.25500000920E-02 0.  1.
    10030    2    1    2    0    0  0.00000000000E+00  0.00000000000E+00  0.11534111126E+04  0.22254977633E+04  0.19032821913E+04 0.  0.
        2    1    3    3  502    0 -0.16195090725E+03 -0.92482447489E+03  0.39521094571E+03  0.10186854752E+04  0.25500000920E-02 0.  1.
       -2    1    3    3    0  502  0.16195090725E+03  0.92482447489E+03  0.75820016687E+03  0.12068122881E+04  0.25500000920E-02 0. -1.
</event>
<event>
 5   0  0.5579109E-05  0.1890607E+04  0.7818609E-02  0.8659546E-01
       -1   -1    0    0    0  501  0.00000000000E+00  0.00000000000E+00  0.11831427526E+04  0.11831427526E+04  0.50400001928E-02 0. -1.
        1   -1    0    0  501    0  0.00000000000E+00  0.00000000000E+00 -0.75527576332E+03  0.75527576334E+03  0.50400001928E-02 0.  1.
    10030    2    1    2    0    0  0.00000000000E+00  0.00000000000E+00  0.42786698924E+03  0.19384185159E+04  0.18906073581E+04 0.  0.
        3    1    3    3  502    0  0.79404621274E+03 -0.20551221826E+03 -0.26790246641E+03  0.86285363853E+03  0.10100000352E+00 0.  1.
       -3    1    3    3    0  502 -0.79404621274E+03  0.20551221826E+03  0.69576945565E+03  0.10755648774E+04  0.10100000352E+00 0. -1.
</event>
<event>
 5   0  0.1118206E-04  0.1898737E+04  0.7818609E-02  0.8655485E-01
        2   -1    0    0  501    0  0.00000000000E+00  0.00000000000E+00  0.15469572377E+04  0.15469572377E+04  0.25500000920E-02 0.  1.
       -2   -1    0    0    0  501  0.00000000000E+00  0.00000000000E+00 -0.58262787687E+03  0.58262787688E+03  0.25500000920E-02 0. -1.
    10030    2    1    2    0    0  0.00000000000E+00  0.00000000000E+00  0.96432936085E+03  0.21295851146E+04  0.18987368549E+04 0.  0.
        1    1    3    3  502    0 -0.53298785938E+03  0.78052253448E+03  0.58253778587E+03  0.11102440079E+04  0.50400001928E-02 0.  1.
       -1    1    3    3    0  502  0.53298785938E+03 -0.78052253448E+03  0.38179157497E+03  0.10193411067E+04  0.50400001928E-02 0. -1.
</event>
<event>
 5   0  0.5614989E-05  0.1989182E+04  0.7818609E-02  0.8611695E-01
       -1   -1    0    0    0  501  0.00000000000E+00  0.00000000000E+00  0.10152158817E+04  0.10152158817E+04  0.50400001928E-02 0.  1.
        1   -1    0    0  501    0  0.00000000000E+00  0.00000000000E+00 -0.97438492253E+03  0.97438492255E+03  0.50400001928E-02 0. -1.
    10030    2    1    2    0    0  0.00000000000E+00  0.00000000000E+00  0.40830959144E+02  0.19896008042E+04  0.19891817898E+04 0.  0.
        4    1    3    3  502    0 -0.68960577572E+03  0.27756710796E+03  0.68131923214E+03  0.10083635923E+04  0.12699999809E+01 0.  1.
       -4    1    3    3    0  502  0.68960577572E+03 -0.27756710796E+03 -0.64048827299E+03  0.98123721192E+03  0.12699999809E+01 0. -1.
</event>
<event>
 5   0  0.5614989E-05  0.1876173E+04  0.7818609E-02  0.8666808E-01
        1   -1    0    0  501    0  0.00000000000E+00  0.00000000000E+00  0.22473694955E+04  0.22473694955E+04  0.50400001928E-02 0.  1.
       -1   -1    0    0    0  501  0.00000000000E+00  0.00000000000E+00 -0.39157156924E+03  0.39157156928E+03  0.50400001928E-02 0. -1.
    10030    2    1    2    0    0  0.00000000000E+00  0.00000000000E+00  0.18557979262E+04  0.26389410647E+04  0.18761727000E+04 0.  0.
        4    1    3    3  502    0  0.21467570797E+03  0.43492614030E+03 -0.20152043339E+03  0.52522233871E+03  0.12699999809E+01 0. -1.
       -4    1    3    3    0  502 -0.21467570797E+03 -0.43492614030E+03  0.20573183596E+04  0.21137187260E+04  0.12699999809E+01 0.  1.
</event>
<event>
 5   0  0.1133638E-04  0.1873804E+04  0.7818609E-02  0.8668007E-01
        2   -1    0    0  501    0  0.00000000000E+00  0.00000000000E+00  0.44559951179E+03  0.44559951180E+03  0.25500000920E-02 0. -1.
       -2   -1    0    0    0  501  0.00000000000E+00  0.00000000000E+00 -0.19698971168E+04  0.19698971168E+04  0.25500000920E-02 0.  1.
    10030    2    1    2    0    0  0.00000000000E+00  0.00000000000E+00 -0.15242976050E+04  0.24154966286E+04  0.18738038249E+04 0.  0.
        3    1    3    3  502    0 -0.86502703518E+03  0.27261491663E+03 -0.45929691065E+03  0.10166338213E+04  0.10100000352E+00 0. -1.
       -3    1    3    3    0  502  0.86502703518E+03 -0.27261491663E+03 -0.10650006944E+04  0.13988628073E+04  0.10100000352E+00 0.  1.
</event>
<event>
 5   0  0.1182630E-04  0.1903433E+04  0.7818609E-02  0.8653150E-01
       -2   -1    0    0    0  501  0.00000000000E+00  0.00000000000E+00  0.48022522689E+03  0.48022522689E+03  0.25500000920E-02 0.  1.
        2   -1    0    0  501    0  0.00000000000E+00  0.00000000000E+00 -0.18861236777E+04  0.18861236777E+04  0.25500000920E-02 0. -1.
    10030    2    1    2    0    0  0.00000000000E+00  0.00000000000E+00 -0.14058984508E+04  0.23663489045E+04  0.19034328683E+04 0.  0.
        5    1    3    3  502    0  0.36536218934E+03  0.67402375177E+03 -0.14039474147E+04  0.15996524562E+04  0.46999998093E+01 0. -1.
       -5    1    3    3    0  502 -0.36536218934E+03 -0.67402375177E+03 -0.19510360450E+01  0.76669644834E+03  0.46999998093E+01 0.  1.
</event>
<event>
 5   0  0.1182630E-04  0.1868806E+04  0.7818609E-02  0.8670541E-01
       -2   -1    0    0    0  501  0.00000000000E+00  0.00000000000E+00  0.63995516684E+03  0.63995516685E+03  0.25500000920E-02 0. -1.
        2   -1    0    0  501    0  0.00000000000E+00  0.00000000000E+00 -0.13643278318E+04  0.13643278319E+04  0.25500000920E-02 0.  1.
    10030    2    1    2    0    0  0.00000000000E+00  0.00000000000E+00 -0.72437266501E+03  0.20042829987E+04  0.18688056563E+04 0.  0.
        5    1    3    3  502    0  0.19441978168E+03 -0.71798442348E+02 -0.13393529184E+04  0.13553015892E+04  0.46999998093E+01 0.  1.
       -5    1    3    3    0  502 -0.19441978168E+03  0.71798442348E+02  0.61498025335E+03  0.64898140947E+03  0.46999998093E+01 0. -1.
</event>
<event>
 5   0  0.1118206E-04  0.1891679E+04  0.7818609E-02  0.8659009E-01
        2   -1    0    0  501    0  0.00000000000E+00  0.00000000000E+00  0.14709934206E+04  0.14709934206E+04  0.25500000920E-02 0. -1.
       -2   -1    0    0    0  501  0.00000000000E+00  0.00000000000E+00 -0.60816894181E+03  0.60816894181E+03  0.25500000920E-02 0.  1.
    10030    2    1    2    0    0  0.00000000000E+00  0.00000000000E+00  0.86282447879E+03  0.20791623624E+04  0.18916791610E+04 0.  0.
        1    1    3    3  502    0 -0.46828837334E+03  0.57058795778E+03  0.10814199062E+04  0.13093256401E+04  0.50400001928E-02 0.  1.
       -1    1    3    3    0  502  0.46828837334E+03 -0.57058795778E+03 -0.21859542742E+03  0.76983672235E+03  0.50400001928E-02 0. -1.
</event>
<event>
 5   0  0.5841424E-05  0.1840427E+04  0.7818609E-02  0.8685091E-01
       -1   -1    0    0    0  501  0.00000000000E+00  0.00000000000E+00  0.38406671939E+03  0.38406671942E+03  0.50400001928E-02 0.  1.
        1   -1    0    0  501    0  0.00000000000E+00  0.00000000000E+00 -0.22048067352E+04  0.22048067352E+04  0.50400001928E-02 0. -1.
    10030    2    1    2    0    0  0.00000000000E+00  0.00000000000E+00 -0.18207400158E+04  0.25888734546E+04  0.18404270045E+04 0.  0.
        1    1    3    3  502    0  0.82092970673E+03 -0.41369735161E+03 -0.85200070168E+03  0.12533859253E+04  0.50400001928E-02 0. -1.
       -1    1    3    3    0  502 -0.82092970673E+03  0.41369735161E+03 -0.96873931409E+03  0.13354875293E+04  0.50400001928E-02 0.  1.
</event>
<event>
 5   0  0.4061125E-05  0.1916277E+04  0.7818609E-02  0.8646797E-01
       -3   -1    0    0    0  501  0.00000000000E+00  0.00000000000E+00  0.77246522196E+03  0.77246522857E+03  0.10100000352E+00 0.  1.
        3   -1    0    0  501    0  0.00000000000E+00  0.00000000000E+00 -0.11884404915E+04  0.11884404958E+04  0.10100000352E+00 0. -1.
    10030    2    1    2    0    0  0.00000000000E+00  0.00000000000E+00 -0.41597526951E+03  0.19609057243E+04  0.19162765549E+04 0.  0.
        3    1    3    3  502    0  0.63911456752E+03 -0.25667654880E+03  0.47361741937E+03  0.83586108370E+03  0.10100000352E+00 0. -1.
       -3    1    3    3    0  502 -0.63911456752E+03  0.25667654880E+03 -0.88959268887E+03  0.11250446406E+04  0.10100000352E+00 0.  1.
</event>
<event>
 5   0  0.1182630E-04  0.1889794E+04  0.7818609E-02  0.8659953E-01
       -2   -1    0    0    0  501  0.00000000000E+00  0.00000000000E+00  0.12490854028E+04  0.12490854028E+04  0.25500000920E-02 0.  1.
        2   -1    0    0  501    0  0.00000000000E+00  0.00000000000E+00 -0.71478721155E+03  0.71478721156E+03  0.25500000920E-02 0. -1.
    10030    2    1    2    0    0  0.00000000000E+00  0.00000000000E+00  0.53429819127E+03  0.19638726144E+04  0.18897939275E+04 0.  0.
        5    1    3    3  502    0  0.46076737460E+03 -0.28911058872E+03 -0.53574029819E+03  0.76349935371E+03  0.46999998093E+01 0. -1.
       -5    1    3    3    0  502 -0.46076737460E+03  0.28911058872E+03  0.10700384895E+04  0.12003732607E+04  0.46999998093E+01 0.  1.
</event>
<event>
 5   0  0.1141890E-04  0.1889856E+04  0.7818609E-02  0.8659922E-01
       -2   -1    0    0    0  501  0.00000000000E+00  0.00000000000E+00  0.83039331103E+03  0.83039331103E+03  0.25500000920E-02 0. -1.
        2   -1    0    0  501    0  0.00000000000E+00  0.00000000000E+00 -0.10752598958E+04  0.10752598958E+04  0.25500000920E-02 0.  1.
    10030    2    1    2    0    0  0.00000000000E+00  0.00000000000E+00 -0.24486658475E+03  0.19056532068E+04  0.18898556824E+04 0.  0.
        2    1    3    3  502    0  0.18164982203E+03 -0.82602876128E+03  0.30247786446E+03  0.89822771657E+03  0.25500000920E-02 0. -1.
       -2    1    3    3    0  502 -0.18164982203E+03  0.82602876128E+03 -0.54734444921E+03  0.10074254902E+04  0.25500000920E-02 0.  1.
</event>
<event>
 5   0  0.1133638E-04  0.1915034E+04  0.7818609E-02  0.8647409E-01
        2   -1    0    0  501    0  0.00000000000E+00  0.00000000000E+00  0.72515860801E+03  0.72515860802E+03  0.25500000920E-02 0.  1.
       -2   -1    0    0    0  501  0.00000000000E+00  0.00000000000E+00 -0.12643281263E+04  0.12643281263E+04  0.25500000920E-02 0. -1.
    10030    2    1    2    0    0  0.00000000000E+00  0.00000000000E+00 -0.53916951825E+03  0.19894867343E+04  0.19150336019E+04 0.  0.
        3    1    3    3  502    0  0.83806839290E+02  0.95261817610E+03 -0.31976847302E+03  0.10083436231E+04  0.10100000352E+00 0.  1.
       -3    1    3    3    0  502 -0.83806839290E+02 -0.95261817610E+03 -0.21940104524E+03  0.98114311117E+03  0.10100000352E+00 0. -1.
</event>
<event>
 5   0  0.5841424E-05  0.1904271E+04  0.7818609E-02  0.8652734E-01
       -1   -1    0    0    0  501  0.00000000000E+00  0.00000000000E+00  0.59131308831E+03  0.59131308833E+03  0.50400001928E-02 0.  1.
        1   -1    0    0  501    0  0.00000000000E+00  0.00000000000E+00 -0.15331328762E+04  0.15331328763E+04  0.50400001928E-02 0. -1.
    10030    2    1    2    0    0  0.00000000000E+00  0.00000000000E+00 -0.94181978794E+03  0.21244459646E+04  0.19042705017E+04 0.  0.
        1    1    3    3  502    0  0.80174376015E+03  0.14812440550E+03 -0.10195278497E+04  0.13054389809E+04  0.50400001928E-02 0. -1.
       -1    1    3    3    0  502 -0.80174376015E+03 -0.14812440550E+03  0.77708061778E+02  0.81900698369E+03  0.50400001928E-02 0.  1.
</event>
<event>
 5   0  0.1133638E-04  0.1907833E+04  0.7818609E-02  0.8650967E-01
       -2   -1    0    0    0  501  0.00000000000E+00  0.00000000000E+00  0.63772304406E+03  0.63772304406E+03  0.25500000920E-02 0. -1.
        2   -1    0    0  501    0  0.00000000000E+00  0.00000000000E+00 -0.14268831931E+04  0.14268831931E+04  0.25500000920E-02 0.  1.
    10030    2    1    2    0    0  0.00000000000E+00  0.00000000000E+00 -0.78916014900E+03  0.20646062371E+04  0.19078325853E+04 0.  0.
        3    1    3    3  502    0  0.23466462380E+03  0.54574728321E+03 -0.12022679350E+04  0.13410278821E+04  0.10100000352E+00 0.  1.
       -3    1    3    3    0  502 -0.23466462380E+03 -0.54574728321E+03  0.41310778601E+03  0.72357835502E+03  0.10100000352E+00 0. -1.
</event>
<event>
 5   0  0.1182630E-04  0.1905537E+04  0.7818609E-02  0.8652105E-01
       -2   -1    0    0    0  501  0.00000000000E+00  0.00000000000E+00  0.11063612743E+04  0.11063612743E+04  0.25500000920E-02 0. -1.
        2   -1    0    0  501    0  0.00000000000E+00  0.00000000000E+00 -0.82049881390E+03  0.82049881391E+03  0.25500000920E-02 0.  1.
    10030    2    1    2    0    0  0.00000000000E+00  0.00000000000E+00  0.28586246044E+03  0.19268600883E+04  0.19055373136E+04 0.  0.
        5    1    3    3  502    0  0.76929056912E+03  0.31587281761E+03 -0.32720401127E+03  0.89368236619E+03  0.46999998093E+01 0.  1.
       -5    1    3    3    0  502 -0.76929056912E+03 -0.31587281761E+03  0.61306647171E+03  0.10331777221E+04  0.46999998093E+01 0. -1.
</event>
<event>
 5   0  0.5841424E-05  0.1861839E+04  0.7818609E-02  0.8674088E-01
        1   -1    0    0  501    0  0.00000000000E+00  0.00000000000E+00  0.49070923881E+03  0.49070923883E+03  0.50400001928E-02 0. -1.
       -1   -1    0    0    0  501  0.00000000000E+00  0.00000000000E+00 -0.17660387218E+04  0.17660387218E+04  0.50400001928E-02 0.  1.
    10030    2    1    2    0    0  0.00000000000E+00  0.00000000000E+00 -0.12753294830E+04  0.22567479606E+04  0.18618394312E+04 0.  0.
        1    1    3    3  502    0 -0.74958090584E+03 -0.81282099235E+02  0.24164585481E+02  0.75436214199E+03  0.50400001928E-02 0. -1.
       -1    1    3    3    0  502  0.74958090584E+03  0.81282099235E+02 -0.12994940685E+04  0.15023858186E+04  0.50400001928E-02 0.  1.
</event>
<event>
 5   0  0.5824956E-05  0.1908350E+04  0.7818609E-02  0.8650711E-01
        1   -1    0    0  501    0  0.00000000000E+00  0.00000000000E+00  0.10112672403E+04  0.10112672403E+04  0.50400001928E-02 0. -1.
       -1   -1    0    0    0  501  0.00000000000E+00  0.00000000000E+00 -0.90030614473E+03  0.90030614475E+03  0.50400001928E-02 0.  1.
    10030    2    1    2    0    0  0.00000000000E+00  0.00000000000E+00  0.11096109554E+03  0.19115733850E+04  0.19083501884E+04 0.  0.
        2    1    3    3  502    0  0.10430050942E+02  0.46416035424E+03 -0.77953192380E+03  0.90731672565E+03  0.25500000920E-02 0.  1.
       -2    1    3    3    0  502 -0.10430050942E+02 -0.46416035424E+03  0.89049301934E+03  0.10042566594E+04  0.25500000920E-02 0. -1.
</event>
<event>
 5   0  0.1101678E-04  0.1899356E+04  0.7818609E-02  0.8655177E-01
        2   -1    0    0  501    0  0.00000000000E+00  0.00000000000E+00  0.93890625013E+03  0.93890625013E+03  0.25500000920E-02 0. -1.
       -2   -1    0    0    0  501  0.00000000000E+00  0.00000000000E+00 -0.96057344358E+03  0.96057344358E+03  0.25500000920E-02 0.  1.
    10030    2    1    2    0    0  0.00000000000E+00  0.00000000000E+00 -0.21667193451E+02  0.18994796937E+04  0.18993561118E+04 0.  0.
        4    1    3    3  502    0  0.78250901471E+03  0.52736863588E+03 -0.11783944072E+03  0.95096045286E+03  0.12699999809E+01 0. -1.
       -4    1    3    3    0  502 -0.78250901471E+03 -0.52736863588E+03  0.96172247267E+02  0.94851924085E+03  0.12699999809E+01 0.  1.
</event>
<event>
 5   0  0.1101678E-04  0.1898434E+04  0.7818609E-02  0.8655636E-01
        2   -1    0    0  501    0  0.00000000000E+00  0.00000000000E+00  0.10181870440E+04  0.10181870440E+04  0.25500000920E-02 0. -1.
       -2   -1    0    0    0  501  0.00000000000E+00  0.00000000000E+00 -0.88491897417E+03  0.88491897418E+03  0.25500000920E-02 0.  1.
    10030    2    1    2    0    0  0.00000000000E+00  0.00000000000E+00  0.13326806984E+03  0.19031060182E+04  0.18984341279E+04 0.  0.
        4    1    3    3  502    0  0.67785076777E+03 -0.44589322271E+03  0.56050146227E+03  0.98613687262E+03  0.12699999809E+01 0. -1.
       -4    1    3    3    0  502 -0.67785076777E+03  0.44589322271E+03 -0.42723339243E+03  0.91696914558E+03  0.12699999809E+01 0.  1.
</event>
<event>
 5   0  0.1141890E-04  0.1900252E+04  0.7818609E-02  0.8654731E-01
        2   -1    0    0  501    0  0.00000000000E+00  0.00000000000E+00  0.22430377044E+04  0.22430377044E+04  0.25500000920E-02 0.  1.
       -2   -1    0    0    0  501  0.00000000000E+00  0.00000000000E+00 -0.40246280679E+03  0.40246280679E+03  0.25500000920E-02 0. -1.
    10030    2    1    2    0    0  0.00000000000E+00  0.00000000000E+00  0.18405748976E+04  0.26455005112E+04  0.19002518257E+04 0.  0.
        2    1    3    3  502    0  0.17846251298E+03 -0.52529524638E+03  0.19941256632E+04  0.20698601704E+04  0.25500000920E-02 0.  1.
       -2    1    3    3    0  502 -0.17846251298E+03  0.52529524638E+03 -0.15355076553E+03  0.57564034084E+03  0.25500000920E-02 0. -1.
</event>
<event>
 5   0  0.1118206E-04  0.1889162E+04  0.7818609E-02  0.8660270E-01
       -2   -1    0    0    0  501  0.00000000000E+00  0.00000000000E+00  0.85587947195E+03  0.85587947195E+03  0.25500000920E-02 0. -1.
        2   -1    0    0  501    0  0.00000000000E+00  0.00000000000E+00 -0.10424750397E+04  0.10424750397E+04  0.25500000920E-02 0.  1.
    10030    2    1    2    0    0  0.00000000000E+00  0.00000000000E+00 -0.18659556773E+03  0.18983545116E+04  0.18891617046E+04 0.  0.
        1    1    3    3  502    0 -0.33609074884E+03  0.27927254171E+03  0.74820351804E+03  0.86646329896E+03  0.50400001928E-02 0. -1.
       -1    1    3    3    0  502  0.33609074884E+03 -0.27927254171E+03 -0.93479908578E+03  0.10318912127E+04  0.50400001928E-02 0.  1.
</event>
<event>
 5   0  0.1101678E-04  0.1909699E+04  0.7818609E-02  0.8650043E-01
        2   -1    0    0  501    0  0.00000000000E+00  0.00000000000E+00  0.10220877130E+04  0.10220877130E+04  0.25500000920E-02 0. -1.
       -2   -1    0    0    0  501  0.00000000000E+00  0.00000000000E+00 -0.89203478369E+03  0.89203478369E+03  0.25500000920E-02 0.  1.
    10030    2    1    2    0    0  0.00000000000E+00  0.00000000000E+00  0.13005292933E+03  0.19141224967E+04  0.19096992350E+04 0.  0.
        4    1    3    3  502    0 -0.41664808771E+03 -0.72731826304E+03  0.52341350680E+03  0.98820584735E+03  0.12699999809E+01 0. -1.
       -4    1    3    3    0  502  0.41664808771E+03  0.72731826304E+03 -0.39336057747E+03  0.92591664935E+03  0.12699999809E+01 0.  1.
</event>
<event>
 5   0  0.1133638E-04  0.1897684E+04  0.7818609E-02  0.8656010E-01
       -2   -1    0    0    0  501  0.00000000000E+00  0.00000000000E+00  0.62851532134E+03  0.62851532134E+03  0.25500000920E-02 0. -1.
        2   -1    0    0  501    0  0.00000000000E+00  0.00000000000E+00 -0.14324255282E+04  0.14324255282E+04  0.25500000920E-02 0.  1.
    10030    2    1    2    0    0  0.00000000000E+00  0.00000000000E+00 -0.80391020687E+03  0.20609408495E+04  0.18976842637E+04 0.  0.
        3    1    3    3  502    0  0.39601481114E+03  0.13958738348E+03 -0.13260308223E+04  0.13909241964E+04  0.10100000352E+00 0.  1.
       -3    1    3    3    0  502 -0.39601481114E+03 -0.13958738348E+03  0.52212061541E+03  0.67001665316E+03  0.10100000352E+00 0. -1.
</event>
<event>
 5   0  0.5579109E-05  0.1899452E+04  0.7818609E-02  0.8655129E-01
       -1   -1    0    0    0  501  0.00000000000E+00  0.00000000000E+00  0.64507466572E+03  0.64507466574E+03  0.50400001928E-02 0. -1.
        1   -1    0    0  501    0  0.00000000000E+00  0.00000000000E+00 -0.13982554604E+04  0.13982554604E+04  0.50400001928E-02 0.  1.
    10030    2    1    2    0    0  0.00000000000E+00  0.00000000000E+00 -0.75318079465E+03  0.20433301261E+04  0.18994516827E+04 0.  0.
        3    1    3    3  502    0 -0.15045560902E+03  0.63367814911E+03 -0.11201756347E+04  0.12957539696E+04  0.10100000352E+00 0.  1.
       -3    1    3    3    0  502  0.15045560902E+03 -0.63367814911E+03  0.36699484007E+03  0.74757615651E+03  0.10100000352E+00 0. -1.
</event>
<event>
 5   0  0.5579109E-05  0.1909059E+04  0.7818609E-02  0.8650360E-01
       -1   -1    0    0    0  501  0.00000000000E+00  0.00000000000E+00  0.11307794358E+04  0.11307794358E+04  0.50400001928E-02 0. -1.
        1   -1    0    0  501    0  0.00000000000E+00  0.00000000000E+00 -0.80575065148E+03  0.80575065149E+03  0.50400001928E-02 0.  1.
    10030    2    1    2    0    0  0.00000000000E+00  0.00000000000E+00  0.32502878436E+03  0.19365300873E+04  0.19090586865E+04 0.  0.
        3    1    3    3  502    0 -0.32339274018E+03 -0.52211387325E+02 -0.74694573065E+03  0.81562051722E+03  0.10100000352E+00 0.  1.
       -3    1    3    3    0  502  0.32339274018E+03  0.52211387325E+02  0.10719745150E+04  0.11209095701E+04  0.10100000352E+00 0. -1.
</event>
<event>
 5   0  0.5614989E-05  0.1897950E+04  0.7818609E-02  0.8655877E-01
        1   -1    0    0  501    0  0.00000000000E+00  0.00000000000E+00  0.11543932347E+04  0.11543932347E+04  0.50400001928E-02 0. -1.
       -1   -1    0    0    0  501  0.00000000000E+00  0.00000000000E+00 -0.78010995657E+03  0.78010995659E+03  0.50400001928E-02 0.  1.
    10030    2    1    2    0    0  0.00000000000E+00  0.00000000000E+00  0.37428327810E+03  0.19345031913E+04  0.18979501112E+04 0.  0.
        4    1    3    3  502    0  0.41703571203E+03 -0.13396178321E+03  0.10451905490E+04  0.11332649474E+04  0.12699999809E+01 0. -1.
       -4    1    3    3    0  502 -0.41703571203E+03  0.13396178321E+03 -0.67090727085E+03  0.80123824388E+03  0.12699999809E+01 0.  1.
</event>
<event>
 5   0  0.5841424E-05  0.1940825E+04  0.7818609E-02  0.8634798E-01
        1   -1    0    0  501    0  0.00000000000E+00  0.00000000000E+00  0.97704831930E+03  0.97704831931E+03  0.50400001928E-02 0.  1.
       -1   -1    0    0    0  501  0.00000000000E+00  0.00000000000E+00 -0.96382135556E+03  0.96382135558E+03  0.50400001928E-02 0. -1.
    10030    2    1    2    0    0  0.00000000000E+00  0.00000000000E+00  0.13226963733E+02  0.19408696749E+04  0.19408246037E+04 0.  0.
        1    1    3    3  502    0  0.51606166017E+03 -0.61550986961E+03 -0.53794300868E+03  0.96672370267E+03  0.50400001928E-02 0.  1.
       -1    1    3    3    0  502 -0.51606166017E+03  0.61550986961E+03  0.55116997241E+03  0.97414597222E+03  0.50400001928E-02 0. -1.
</event>
<event>
 5   0  0.1118206E-04  0.1933782E+04  0.7818609E-02  0.8638221E-01
        2   -1    0    0  501    0  0.00000000000E+00  0.00000000000E+00  0.11160270066E+04  0.11160270066E+04  0.25500000920E-02 0.  1.
       -2   -1    0    0    0  501  0.00000000000E+00  0.00000000000E+00 -0.83768458235E+03  0.83768458235E+03  0.25500000920E-02 0. -1.
    10030    2    1    2    0    0  0.00000000000E+00  0.00000000000E+00  0.27834242424E+03  0.19537115889E+04  0.19337824251E+04 0.  0.
        1    1    3    3  502    0  0.62256915591E+03  0.46095444799E+03 -0.44541730045E+03  0.89357032660E+03  0.50400001928E-02 0. -1.
       -1    1    3    3    0  502 -0.62256915591E+03 -0.46095444799E+03  0.72375972469E+03  0.10601412623E+04  0.50400001928E-02 0.  1.
</event>
<event>
 5   0  0.1101678E-04  0.1916805E+04  0.7818609E-02  0.8646536E-01
       -2   -1    0    0    0  501  0.00000000000E+00  0.00000000000E+00  0.70668494365E+03  0.70668494366E+03  0.25500000920E-02 0. -1.
        2   -1    0    0  501    0  0.00000000000E+00  0.00000000000E+00 -0.12997806952E+04  0.12997806952E+04  0.25500000920E-02 0.  1.
    10030    2    1    2    0    0  0.00000000000E+00  0.00000000000E+00 -0.59309575155E+03  0.20064656389E+04  0.19168050995E+04 0.  0.
        4    1    3    3  502    0 -0.43239604755E+03 -0.52326952057E+03 -0.10047725140E+04  0.12125785545E+04  0.12699999809E+01 0.  1.
       -4    1    3    3    0  502  0.43239604755E+03  0.52326952057E+03  0.41167676242E+03  0.79388708436E+03  0.12699999809E+01 0. -1.
</event>
<event>
 5   0  0.1141890E-04  0.1905477E+04  0.7818609E-02  0.8652135E-01
       -2   -1    0    0    0  501  0.00000000000E+00  0.00000000000E+00  0.61843705142E+03  0.61843705142E+03  0.25500000920E-02 0.  1.
        2   -1    0    0  501    0  0.00000000000E+00  0.00000000000E+00 -0.14677488461E+04  0.14677488461E+04  0.25500000920E-02 0. -1.
    10030    2    1    2    0    0  0.00000000000E+00  0.00000000000E+00 -0.84931179464E+03  0.20861858975E+04  0.19054766003E+04 0.  0.
        2    1    3    3  502    0  0.23029503204E+03 -0.59968523506E+03 -0.11949823873E+04  0.13567022845E+04  0.25500000920E-02 0.  1.
       -2    1    3    3    0  502 -0.23029503204E+03  0.59968523506E+03  0.34567059264E+03  0.72948361295E+03  0.25500000920E-02 0. -1.
</event>
<event>
 5   0  0.4061125E-05  0.1859633E+04  0.7818609E-02  0.8675215E-01
       -3   -1    0    0    0  501  0.00000000000E+00  0.00000000000E+00  0.17126042100E+04  0.17126042130E+04  0.10100000352E+00 0.  1.
        3   -1    0    0  501    0  0.00000000000E+00  0.00000000000E+00 -0.50482086563E+03  0.50482087574E+03  0.10100000352E+00 0. -1.
    10030    2    1    2    0    0  0.00000000000E+00  0.00000000000E+00  0.12077833444E+04  0.22174250887E+04  0.18596326027E+04 0.  0.
        4    1    3    3  502    0  0.29126281523E+03  0.39678631722E+03 -0.33673196874E+03  0.59637525161E+03  0.12699999809E+01 0. -1.
       -4    1    3    3    0  502 -0.29126281523E+03 -0.39678631722E+03  0.15445153131E+04  0.16210498371E+04  0.12699999809E+01 0.  1.
</event>
<event>
 5   0  0.5579109E-05  0.1894516E+04  0.7818609E-02  0.8657591E-01
       -1   -1    0    0    0  501  0.00000000000E+00  0.00000000000E+00  0.10684405271E+04  0.10684405271E+04  0.50400001928E-02 0. -1.
        1   -1    0    0  501    0  0.00000000000E+00  0.00000000000E+00 -0.83981960976E+03  0.83981960977E+03  0.50400001928E-02 0.  1.
    10030    2    1    2    0    0  0.00000000000E+00  0.00000000000E+00  0.22862091732E+03  0.19082601369E+04  0.18945155650E+04 0.  0.
        3    1    3    3  502    0  0.87101440737E+03  0.28095458393E+03 -0.13178919279E+03  0.92464586605E+03  0.10100000352E+00 0.  1.
       -3    1    3    3    0  502 -0.87101440737E+03 -0.28095458393E+03  0.36041011012E+03  0.98361427081E+03  0.10100000352E+00 0. -1.
</event>
<event>
 5   0  0.1118206E-04  0.1907496E+04  0.7818609E-02  0.8651134E-01
       -2   -1    0    0    0  501  0.00000000000E+00  0.00000000000E+00  0.97345241361E+03  0.97345241362E+03  0.25500000920E-02 0. -1.
        2   -1    0    0  501    0  0.00000000000E+00  0.00000000000E+00 -0.93444290895E+03  0.93444290896E+03  0.25500000920E-02 0.  1.
    10030    2    1    2    0    0  0.00000000000E+00  0.00000000000E+00  0.39009504660E+02  0.19078953226E+04  0.19074964798E+04 0.  0.
        1    1    3    3  502    0  0.18821627655E+02  0.79796500813E+03 -0.50265162114E+03  0.94327146682E+03  0.50400001928E-02 0.  1.
       -1    1    3    3    0  502 -0.18821627655E+02 -0.79796500813E+03  0.54166112580E+03  0.96462385575E+03  0.50400001928E-02 0. -1.
</event>
<event>
 5   0  0.5614989E-05  0.1902931E+04  0.7818609E-02  0.8653399E-01
        1   -1    0    0  501    0  0.00000000000E+00  0.00000000000E+00  0.93241520330E+03  0.93241520331E+03  0.50400001928E-02 0. -1.
       -1   -1    0    0    0  501  0.00000000000E+00  0.00000000000E+00 -0.97090483597E+03  0.97090483599E+03  0.50400001928E-02 0.  1.
    10030    2    1    2    0    0  0.00000000000E+00  0.00000000000E+00 -0.38489632677E+02  0.19033200393E+04  0.19029308238E+04 0.  0.
        4    1    3    3  502    0 -0.90578657281E+03 -0.71204784522E+02 -0.30173023762E+03  0.95737254296E+03  0.12699999809E+01 0.  1.
       -4    1    3    3    0  502  0.90578657281E+03  0.71204784522E+02  0.26324060494E+03  0.94594749633E+03  0.12699999809E+01 0. -1.
</event>
<event>
 5   0  0.5579109E-05  0.1900843E+04  0.7818609E-02  0.8654437E-01
        1   -1    0    0  501    0  0.00000000000E+00  0.00000000000E+00  0.93945481038E+03  0.93945481040E+03  0.50400001928E-02 0. -1.
       -1   -1    0    0    0  501  0.00000000000E+00  0.00000000000E+00 -0.96151609813E+03  0.96151609814E+03  0.50400001928E-02 0.  1.
    10030    2    1    2    0    0  0.00000000000E+00  0.00000000000E+00 -0.22061287747E+02  0.19009709085E+04  0.19008428906E+04 0.  0.
        3    1    3    3  502    0 -0.92391556175E+03 -0.17845490159E+03 -0.14458661972E+03  0.95203540793E+03  0.10100000352E+00 0.  1.
       -3    1    3    3    0  502  0.92391556175E+03  0.17845490159E+03  0.12252533198E+03  0.94893550061E+03  0.10100000352E+00 0. -1.
</event>
<event>
 5   0  0.5841424E-05  0.1752602E+04  0.7818609E-02  0.8731919E-01
        1   -1    0    0  501    0  0.00000000000E+00  0.00000000000E+00  0.76203165659E+03  0.76203165661E+03  0.50400001928E-02 0. -1.
       -1   -1    0    0    0  501  0.00000000000E+00  0.00000000000E+00 -0.10077058940E+04  0.10077058940E+04  0.50400001928E-02 0.  1.
    10030    2    1    2    0    0  0.00000000000E+00  0.00000000000E+00 -0.24567423738E+03  0.17697375506E+04  0.17526023985E+04 0.  0.
        1    1    3    3  502    0  0.19854489349E+03 -0.73943254133E+03 -0.55329502851E+03  0.94462476492E+03  0.50400001928E-02 0.  1.
       -1    1    3    3    0  502 -0.19854489349E+03  0.73943254133E+03  0.30762079113E+03  0.82511278567E+03  0.50400001928E-02 0. -1.
</event>
<event>
 5   0  0.4061125E-05  0.1892305E+04  0.7818609E-02  0.8658696E-01
        3   -1    0    0  501    0  0.00000000000E+00  0.00000000000E+00  0.11393842009E+04  0.11393842054E+04  0.10100000352E+00 0.  1.
       -3   -1    0    0    0  501  0.00000000000E+00  0.00000000000E+00 -0.78569143653E+03  0.78569144302E+03  0.10100000352E+00 0. -1.
    10030    2    1    2    0    0  0.00000000000E+00  0.00000000000E+00  0.35369276437E+03  0.19250756484E+04  0.18923048593E+04 0.  0.
        4    1    3    3  502    0  0.11032970215E+03 -0.32980058868E+03  0.10720062308E+04  0.11270048994E+04  0.12699999809E+01 0.  1.
       -4    1    3    3    0  502 -0.11032970215E+03  0.32980058868E+03 -0.71831346644E+03  0.79807074901E+03  0.12699999809E+01 0. -1.
</event>
<event>
 5   0  0.5579109E-05  0.1900419E+04  0.7818609E-02  0.8654648E-01
       -1   -1    0    0    0  501  0.00000000000E+00  0.00000000000E+00  0.86956072466E+03  0.86956072467E+03  0.50400001928E-02 0. -1.
        1   -1    0    0  501    0  0.00000000000E+00  0.00000000000E+00 -0.10383382163E+04  0.10383382164E+04  0.50400001928E-02 0.  1.
    10030    2    1    2    0    0  0.00000000000E+00  0.00000000000E+00 -0.16877749169E+03  0.19078989410E+04  0.19004190400E+04 0.  0.
        3    1    3    3  502    0 -0.88284533121E+03 -0.12315367145E+03 -0.41479718409E+03  0.98317822380E+03  0.10100000352E+00 0. -1.
       -3    1    3    3    0  502  0.88284533121E+03  0.12315367145E+03  0.24601969240E+03  0.92472071723E+03  0.10100000352E+00 0.  1.
</event>
<event>
 5   0  0.1101678E-04  0.1835002E+04  0.7818609E-02  0.8687904E-01
        2   -1    0    0  501    0  0.00000000000E+00  0.00000000000E+00  0.93830056572E+03  0.93830056572E+03  0.25500000920E-02 0.  1.
       -2   -1    0    0    0  501  0.00000000000E+00  0.00000000000E+00 -0.89716268207E+03  0.89716268207E+03  0.25500000920E-02 0. -1.
    10030    2    1    2    0    0  0.00000000000E+00  0.00000000000E+00  0.41137883648E+02  0.18354632478E+04  0.18350021822E+04 0.  0.
        4    1    3    3  502    0  0.65132958901E+03  0.44422154574E+03  0.48998806740E+03  0.92825262419E+03  0.12699999809E+01 0.  1.
       -4    1    3    3    0  502 -0.65132958901E+03 -0.44422154574E+03 -0.44885018376E+03  0.90721062360E+03  0.12699999809E+01 0. -1.
</event>
<event>
 5   0  0.1118206E-04  0.1885950E+04  0.7818609E-02  0.8661882E-01
        2   -1    0    0  501    0  0.00000000000E+00  0.00000000000E+00  0.12536495081E+04  0.12536495081E+04  0.25500000920E-02 0.  1.
       -2   -1    0    0    0  501  0.00000000000E+00  0.00000000000E+00 -0.70929090555E+03  0.70929090555E+03  0.25500000920E-02 0. -1.
    10030    2    1    2    0    0  0.00000000000E+00  0.00000000000E+00  0.54435860255E+03  0.19629404137E+04  0.18859503650E+04 0.  0.
        1    1    3    3  502    0 -0.77121416524E+03  0.50657484802E+03  0.47457274787E+03  0.10375975416E+04  0.50400001928E-02 0. -1.
       -1    1    3    3    0  502  0.77121416524E+03 -0.50657484802E+03  0.69785854685E+02  0.92534287205E+03  0.50400001928E-02 0.  1.
</event>
<event>
 5   0  0.5614989E-05  0.1881623E+04  0.7818609E-02  0.8664058E-01
        1   -1    0    0  501    0  0.00000000000E+00  0.00000000000E+00  0.26316780271E+04  0.26316780272E+04  0.50400001928E-02 0. -1.
       -1   -1    0    0    0  501  0.00000000000E+00  0.00000000000E+00 -0.33633523562E+03  0.33633523565E+03  0.50400001928E-02 0.  1.
    10030    2    1    2    0    0  0.00000000000E+00  0.00000000000E+00  0.22953427915E+04  0.29680132628E+04  0.18816227564E+04 0.  0.
        4    1    3    3  502    0  0.42912872338E+03  0.77323596011E+03  0.16541004840E+04  0.18756586404E+04  0.12699999809E+01 0. -1.
       -4    1    3    3    0  502 -0.42912872338E+03 -0.77323596011E+03  0.64124230757E+03  0.10923546224E+04  0.12699999809E+01 0.  1.
</event>
<event>
 5   0  0.1182630E-04  0.1907990E+04  0.7818609E-02  0.8650889E-01
        2   -1    0    0  501    0  0.00000000000E+00  0.00000000000E+00  0.26861935556E+04  0.26861935556E+04  0.25500000920E-02 0.  1.
       -2   -1    0    0    0  501  0.00000000000E+00  0.00000000000E+00 -0.33880905229E+03  0.33880905230E+03  0.25500000920E-02 0. -1.
    10030    2    1    2    0    0  0.00000000000E+00  0.00000000000E+00  0.23473845033E+04  0.30250026079E+04  0.19079902441E+04 0.  0.
        5    1    3    3  502    0 -0.23801237800E+03  0.18910444724E+03 -0.25994658067E+03  0.40000587351E+03  0.46999998093E+01 0. -1.
       -5    1    3    3    0  502  0.23801237800E+03 -0.18910444724E+03  0.26073310840E+04  0.26249967344E+04  0.46999998093E+01 0.  1.
</event>
<event>
 5   0  0.5614989E-05  0.1892611E+04  0.7818609E-02  0.8658543E-01
       -1   -1    0    0    0  501  0.00000000000E+00  0.00000000000E+00  0.64188965887E+03  0.64188965889E+03  0.50400001928E-02 0.  1.
        1   -1    0    0  501    0  0.00000000000E+00  0.00000000000E+00 -0.13950899672E+04  0.13950899672E+04  0.50400001928E-02 0. -1.
    10030    2    1    2    0    0  0.00000000000E+00  0.00000000000E+00 -0.75320030830E+03  0.20369796261E+04  0.18926107082E+04 0.  0.
        4    1    3    3  502    0 -0.92686225820E+03  0.10775443973E+03 -0.54611872750E+03  0.10811715601E+04  0.12699999809E+01 0.  1.
       -4    1    3    3    0  502  0.92686225820E+03 -0.10775443973E+03 -0.20708158080E+03  0.95580806597E+03  0.12699999809E+01 0. -1.
</event>
<event>
 5   0  0.5841424E-05  0.1895571E+04  0.7818609E-02  0.8657064E-01
        1   -1    0    0  501    0  0.00000000000E+00  0.00000000000E+00  0.24912687350E+04  0.24912687350E+04  0.50400001928E-02 0.  1.
       -1   -1    0    0    0  501  0.00000000000E+00  0.00000000000E+00 -0.36057831766E+03  0.36057831769E+03  0.50400001928E-02 0. -1.
    10030    2    1    2    0    0  0.00000000000E+00  0.00000000000E+00  0.21306904173E+04  0.28518470527E+04  0.18955711428E+04 0.  0.
        1    1    3    3  502    0  0.67614985735E+03 -0.59294687205E+03  0.15155160762E+04  0.17622580968E+04  0.50400001928E-02 0. -1.
       -1    1    3    3    0  502 -0.67614985735E+03  0.59294687205E+03  0.61517434113E+03  0.10895889558E+04  0.50400001928E-02 0.  1.
</event>
<event>
 5   0  0.5579109E-05  0.2076450E+04  0.7818609E-02  0.8571689E-01
       -1   -1    0    0    0  501  0.00000000000E+00  0.00000000000E+00  0.52089762933E+03  0.52089762935E+03  0.50400001928E-02 0.  1.
        1   -1    0    0  501    0  0.00000000000E+00  0.00000000000E+00 -0.20693344283E+04  0.20693344283E+04  0.50400001928E-02 0. -1.
    10030    2    1    2    0    0  0.00000000000E+00  0.00000000000E+00 -0.15484367990E+04  0.25902320577E+04  0.20764502383E+04 0.  0.
        3    1    3    3  502    0 -0.75623178167E+03  0.31698845359E+03 -0.15686119479E+04  0.17700032883E+04  0.10100000352E+00 0. -1.
       -3    1    3    3    0  502  0.75623178167E+03 -0.31698845359E+03  0.20175148877E+02  0.82022876940E+03  0.10100000352E+00 0.  1.
</event>
<event>
 5   0  0.5579109E-05  0.1893588E+04  0.7818609E-02  0.8658055E-01
        1   -1    0    0  501    0  0.00000000000E+00  0.00000000000E+00  0.23175591684E+04  0.23175591684E+04  0.50400001928E-02 0.  1.
       -1   -1    0    0    0  501  0.00000000000E+00  0.00000000000E+00 -0.38679429700E+03  0.38679429703E+03  0.50400001928E-02 0. -1.
    10030    2    1    2    0    0  0.00000000000E+00  0.00000000000E+00  0.19307648714E+04  0.27043534654E+04  0.18935877792E+04 0.  0.
        3    1    3    3  502    0 -0.62441467819E+03  0.40570043353E+03  0.13026420175E+03  0.75594662812E+03  0.10100000352E+00 0. -1.
       -3    1    3    3    0  502  0.62441467819E+03 -0.40570043353E+03  0.18005006697E+04  0.19484068373E+04  0.10100000352E+00 0.  1.
</event>
<event>
 5   0  0.1182630E-04  0.1903556E+04  0.7818609E-02  0.8653089E-01
       -2   -1    0    0    0  501  0.00000000000E+00  0.00000000000E+00  0.78436040297E+03  0.78436040297E+03  0.25500000920E-02 0. -1.
        2   -1    0    0  501    0  0.00000000000E+00  0.00000000000E+00 -0.11549295503E+04  0.11549295503E+04  0.25500000920E-02 0.  1.
    10030    2    1    2    0    0  0.00000000000E+00  0.00000000000E+00 -0.37056914735E+03  0.19392899533E+04  0.19035556283E+04 0.  0.
        5    1    3    3  502    0  0.55195690481E+03 -0.11704058770E+03 -0.96616149264E+03  0.11188588132E+04  0.46999998093E+01 0.  1.
       -5    1    3    3    0  502 -0.55195690481E+03  0.11704058770E+03  0.59559234529E+03  0.82043114013E+03  0.46999998093E+01 0. -1.
</event>
<event>
 5   0  0.1118206E-04  0.1877447E+04  0.7818609E-02  0.8666165E-01
       -2   -1    0    0    0  501  0.00000000000E+00  0.00000000000E+00  0.87997568941E+03  0.87997568942E+03  0.25500000920E-02 0.  1.
        2   -1    0    0  501    0  0.00000000000E+00  0.00000000000E+00 -0.10013932438E+04  0.10013932438E+04  0.25500000920E-02 0. -1.
    10030    2    1    2    0    0  0.00000000000E+00  0.00000000000E+00 -0.12141755434E+03  0.18813689332E+04  0.18774468941E+04 0.  0.
        1    1    3    3  502    0  0.40427517201E+02 -0.69582806669E+02 -0.99793021767E+03  0.10011697511E+04  0.50400001928E-02 0. -1.
       -1    1    3    3    0  502 -0.40427517201E+02  0.69582806669E+02  0.87651266333E+03  0.88019918208E+03  0.50400001928E-02 0.  1.
</event>
<event>
 5   0  0.5614989E-05  0.1898954E+04  0.7818609E-02  0.8655377E-01
        1   -1    0    0  501    0  0.00000000000E+00  0.00000000000E+00  0.10481811988E+04  0.10481811988E+04  0.50400001928E-02 0. -1.
       -1   -1    0    0    0  501  0.00000000000E+00  0.00000000000E+00 -0.86006792018E+03  0.86006792019E+03  0.50400001928E-02 0.  1.
    10030    2    1    2    0    0  0.00000000000E+00  0.00000000000E+00  0.18811327864E+03  0.19082491190E+04  0.18989544741E+04 0.  0.
        4    1    3    3  502    0 -0.15574888252E+02 -0.16127156461E+03  0.10341860692E+04  0.10468015730E+04  0.12699999809E+01 0. -1.
       -4    1    3    3    0  502  0.15574888252E+02  0.16127156461E+03 -0.84607279055E+03  0.86144754599E+03  0.12699999809E+01 0.  1.
</event>
<event>
 5   0  0.5579109E-05  0.1854211E+04  0.7818609E-02  0.8677990E-01
        1   -1    0    0  501    0  0.00000000000E+00  0.00000000000E+00  0.17939216874E+04  0.17939216874E+04  0.50400001928E-02 0. -1.
       -1   -1    0    0    0  501  0.00000000000E+00  0.00000000000E+00 -0.47913169381E+03  0.47913169383E+03  0.50400001928E-02 0.  1.
    10030    2    1    2    0    0  0.00000000000E+00  0.00000000000E+00  0.13147899936E+04  0.22730533813E+04  0.18542111387E+04 0.  0.
        3    1    3    3  502    0 -0.33476005335E+03 -0.24901533296E+03 -0.35754159148E+03  0.54946240018E+03  0.10100000352E+00 0.  1.
       -3    1    3    3    0  502  0.33476005335E+03  0.24901533296E+03  0.16723315851E+04  0.17235909811E+04  0.10100000352E+00 0. -1.
</event>
<event>
 5   0  0.1182630E-04  0.1877166E+04  0.7818609E-02  0.8666307E-01
        2   -1    0    0  501    0  0.00000000000E+00  0.00000000000E+00  0.17591509840E+04  0.17591509840E+04  0.25500000920E-02 0. -1.
       -2   -1    0    0    0  501  0.00000000000E+00  0.00000000000E+00 -0.50077444664E+03  0.50077444664E+03  0.25500000920E-02 0.  1.
    10030    2    1    2    0    0  0.00000000000E+00  0.00000000000E+00  0.12583765374E+04  0.22599254306E+04  0.18771658004E+04 0.  0.
        5    1    3    3  502    0 -0.60707984029E+03 -0.50355390270E+03  0.12416463720E+04  0.14709929533E+04  0.46999998093E+01 0. -1.
       -5    1    3    3    0  502  0.60707984029E+03  0.50355390270E+03  0.16730165321E+02  0.78893247736E+03  0.46999998093E+01 0.  1.
</event>
<event>
 5   0  0.5628936E-05  0.1894286E+04  0.7818609E-02  0.8657706E-01
        1   -1    0    0  501    0  0.00000000000E+00  0.00000000000E+00  0.85906851775E+03  0.85906851777E+03  0.50400001928E-02 0. -1.
       -1   -1    0    0    0  501  0.00000000000E+00  0.00000000000E+00 -0.10442472253E+04  0.10442472253E+04  0.50400001928E-02 0.  1.
    10030    2    1    2    0    0  0.00000000000E+00  0.00000000000E+00 -0.18517870757E+03  0.19033157431E+04  0.18942860566E+04 0.  0.
        5    1    3    3  502    0  0.47078183947E+03 -0.16054074318E+03 -0.90243947132E+03  0.10304503676E+04  0.46999998093E+01 0.  1.
       -5    1    3    3    0  502 -0.47078183947E+03  0.16054074318E+03  0.71726076375E+03  0.87286537554E+03  0.46999998093E+01 0. -1.
</event>
<event>
 5   0  0.5579109E-05  0.1903835E+04  0.7818609E-02  0.8652950E-01
       -1   -1    0    0    0  501  0.00000000000E+00  0.00000000000E+00  0.85583154106E+03  0.85583154108E+03  0.50400001928E-02 0. -1.
        1   -1    0    0  501    0  0.00000000000E+00  0.00000000000E+00 -0.10587916306E+04  0.10587916306E+04  0.50400001928E-02 0.  1.
    10030    2    1    2    0    0  0.00000000000E+00  0.00000000000E+00 -0.20296008956E+03  0.19146231717E+04  0.19038353636E+04 0.  0.
        3    1    3    3  502    0 -0.54773596044E+03 -0.61214177452E+03  0.38230194961E+03  0.90602815925E+03  0.10100000352E+00 0. -1.
       -3    1    3    3    0  502  0.54773596044E+03  0.61214177452E+03 -0.58526203917E+03  0.10085950125E+04  0.10100000352E+00 0.  1.
</event>
<event>
 5   0  0.1101678E-04  0.1901338E+04  0.7818609E-02  0.8654191E-01
        2   -1    0    0  501    0  0.00000000000E+00  0.00000000000E+00  0.31280419646E+04  0.31280419646E+04  0.25500000920E-02 0. -1.
       -2   -1    0    0    0  501  0.00000000000E+00  0.00000000000E+00 -0.28892562708E+03  0.28892562709E+03  0.25500000920E-02 0.  1.
    10030    2    1    2    0    0  0.00000000000E+00  0.00000000000E+00  0.28391163375E+04  0.34169675917E+04  0.19013379354E+04 0.  0.
        4    1    3    3  502    0 -0.87536779502E+03 -0.35527617929E+03  0.16104269099E+04  0.18670742849E+04  0.12699999809E+01 0. -1.
       -4    1    3    3    0  502  0.87536779502E+03  0.35527617929E+03  0.12286894276E+04  0.15498933068E+04  0.12699999809E+01 0.  1.
</event>
<event>
 5   0  0.1141890E-04  0.1873644E+04  0.7818609E-02  0.8668088E-01
       -2   -1    0    0    0  501  0.00000000000E+00  0.00000000000E+00  0.10606448521E+04  0.10606448521E+04  0.25500000920E-02 0.  1.
        2   -1    0    0  501    0  0.00000000000E+00  0.00000000000E+00 -0.82745417853E+03  0.82745417853E+03  0.25500000920E-02 0. -1.
    10030    2    1    2    0    0  0.00000000000E+00  0.00000000000E+00  0.23319067357E+03  0.18880990306E+04  0.18736435251E+04 0.  0.
        2    1    3    3  502    0  0.40989329907E+03 -0.66229653785E+03 -0.40798386136E+03  0.87926108284E+03  0.25500000920E-02 0. -1.
       -2    1    3    3    0  502 -0.40989329907E+03  0.66229653785E+03  0.64117453493E+03  0.10088379478E+04  0.25500000920E-02 0.  1.
</event>
<event>
 5   0  0.5824956E-05  0.1898053E+04  0.7818609E-02  0.8655826E-01
       -1   -1    0    0    0  501  0.00000000000E+00  0.00000000000E+00  0.55177108159E+03  0.55177108161E+03  0.50400001928E-02 0.  1.
        1   -1    0    0  501    0  0.00000000000E+00  0.00000000000E+00 -0.16322911666E+04  0.16322911666E+04  0.50400001928E-02 0. -1.
    10030    2    1    2    0    0  0.00000000000E+00  0.00000000000E+00 -0.10805200850E+04  0.21840622482E+04  0.18980527522E+04 0.  0.
        2    1    3    3  502    0  0.47115169379E+03 -0.29666308282E+03 -0.14246113808E+04  0.15295458442E+04  0.25500000920E-02 0. -1.
       -2    1    3    3    0  502 -0.47115169379E+03  0.29666308282E+03  0.34409129578E+03  0.65451640400E+03  0.25500000920E-02 0.  1.
</event>
<event>
 5   0  0.1141890E-04  0.1904631E+04  0.7818609E-02  0.8652555E-01
       -2   -1    0    0    0  501  0.00000000000E+00  0.00000000000E+00  0.47811311117E+03  0.47811311118E+03  0.25500000920E-02 0. -1.
        2   -1    0    0  501    0  0.00000000000E+00  0.00000000000E+00 -0.18968406090E+04  0.18968406090E+04  0.25500000920E-02 0.  1.
    10030    2    1    2    0    0  0.00000000000E+00  0.00000000000E+00 -0.14187274978E+04  0.23749537202E+04  0.19046305311E+04 0.  0.
        2    1    3    3  502    0  0.27062956750E+03 -0.90074216449E+03 -0.52304138050E+03  0.10761733575E+04  0.25500000920E-02 0. -1.
       -2    1    3    3    0  502 -0.27062956750E+03  0.90074216449E+03 -0.89568611735E+03  0.12987803627E+04  0.25500000920E-02 0.  1.
</event>
<event>
 5   0  0.5824956E-05  0.1891101E+04  0.7818609E-02  0.8659298E-01
       -1   -1    0    0    0  501  0.00000000000E+00  0.00000000000E+00  0.43005105355E+03  0.43005105358E+03  0.50400001928E-02 0. -1.
        1   -1    0    0  501    0  0.00000000000E+00  0.00000000000E+00 -0.20789767608E+04  0.20789767608E+04  0.50400001928E-02 0.  1.
    10030    2    1    2    0    0  0.00000000000E+00  0.00000000000E+00 -0.16489257072E+04  0.25090278143E+04  0.18911014212E+04 0.  0.
        2    1    3    3  502    0  0.30952046212E+03  0.35103363210E+02 -0.20089442854E+04  0.20329516238E+04  0.25500000920E-02 0.  1.
       -2    1    3    3    0  502 -0.30952046212E+03 -0.35103363210E+02  0.36001857822E+03  0.47607619059E+03  0.25500000920E-02 0. -1.
</event>
<event>
 5   0  0.5841424E-05  0.1903622E+04  0.7818609E-02  0.8653056E-01
        1   -1    0    0  501    0  0.00000000000E+00  0.00000000000E+00  0.11075304582E+04  0.11075304583E+04  0.50400001928E-02 0. -1.
       -1   -1    0    0    0  501  0.00000000000E+00  0.00000000000E+00 -0.81798581114E+03  0.81798581115E+03  0.50400001928E-02 0.  1.
    10030    2    1    2    0    0  0.00000000000E+00  0.00000000000E+00  0.28954464710E+03  0.19255162694E+04  0.19036220216E+04 0.  0.
        1    1    3    3  502    0 -0.63924979873E+03 -0.48850419016E+03  0.65921554387E+03  0.10401162350E+04  0.50400001928E-02 0. -1.
       -1    1    3    3    0  502  0.63924979873E+03  0.48850419016E+03 -0.36967089677E+03  0.88540003441E+03  0.50400001928E-02 0.  1.
</event>
<event>
 5   0  0.1141890E-04  0.1906965E+04  0.7818609E-02  0.8651397E-01
       -2   -1    0    0    0  501  0.00000000000E+00  0.00000000000E+00  0.11972415987E+04  0.11972415987E+04  0.25500000920E-02 0.  1.
        2   -1    0    0  501    0  0.00000000000E+00  0.00000000000E+00 -0.75935328497E+03  0.75935328498E+03  0.25500000920E-02 0. -1.
    10030    2    1    2    0    0  0.00000000000E+00  0.00000000000E+00  0.43788831375E+03  0.19565948837E+04  0.19069654857E+04 0.  0.
        2    1    3    3  502    0 -0.23070927904E+03  0.71629009279E+03 -0.38181191563E+03  0.84384750244E+03  0.25500000920E-02 0. -1.
       -2    1    3    3    0  502  0.23070927904E+03 -0.71629009279E+03  0.81970022938E+03  0.11127473813E+04  0.25500000920E-02 0.  1.
</event>
<event>
 5   0  0.1101678E-04  0.1899077E+04  0.7818609E-02  0.8655316E-01
        2   -1    0    0  501    0  0.00000000000E+00  0.00000000000E+00  0.21452258883E+04  0.21452258883E+04  0.25500000920E-02 0. -1.
       -2   -1    0    0    0  501  0.00000000000E+00  0.00000000000E+00 -0.42029284660E+03  0.42029284661E+03  0.25500000920E-02 0.  1.
    10030    2    1    2    0    0  0.00000000000E+00  0.00000000000E+00  0.17249330417E+04  0.25655187349E+04  0.18990767180E+04 0.  0.
        4    1    3    3  502    0 -0.39693178635E+03 -0.11331132192E+03  0.20176709490E+04  0.20594640007E+04  0.12699999809E+01 0. -1.
       -4    1    3    3    0  502  0.39693178635E+03  0.11331132192E+03 -0.29273790736E+03  0.50605473419E+03  0.12699999809E+01 0.  1.
</event>
<event>
 5   0  0.1118206E-04  0.1909492E+04  0.7818609E-02  0.8650146E-01
        2   -1    0    0  501    0  0.00000000000E+00  0.00000000000E+00  0.19082345982E+04  0.19082345982E+04  0.25500000920E-02 0. -1.
       -2   -1    0    0    0  501  0.00000000000E+00  0.00000000000E+00 -0.47768763809E+03  0.47768763810E+03  0.25500000920E-02 0.  1.
    10030    2    1    2    0    0  0.00000000000E+00  0.00000000000E+00  0.14305469601E+04  0.23859222363E+04  0.19094921609E+04 0.  0.
        1    1    3    3  502    0  0.68644419098E+03  0.77790816060E+02 -0.10815301959E+03  0.69925253955E+03  0.50400001928E-02 0.  1.
       -1    1    3    3    0  502 -0.68644419098E+03 -0.77790816060E+02  0.15386999797E+04  0.16866696968E+04  0.50400001928E-02 0. -1.
</event>
<event>
 5   0  0.1118206E-04  0.1898216E+04  0.7818609E-02  0.8655745E-01
       -2   -1    0    0    0  501  0.00000000000E+00  0.00000000000E+00  0.49072569060E+03  0.49072569060E+03  0.25500000920E-02 0.  1.
        2   -1    0    0  501    0  0.00000000000E+00  0.00000000000E+00 -0.18356602947E+04  0.18356602947E+04  0.25500000920E-02 0. -1.
    10030    2    1    2    0    0  0.00000000000E+00  0.00000000000E+00 -0.13449346041E+04  0.23263859853E+04  0.18982156525E+04 0.  0.
        1    1    3    3  502    0 -0.50918640896E+03  0.16634251909E+02  0.30894766702E+03  0.59581554057E+03  0.50400001928E-02 0.  1.
       -1    1    3    3    0  502  0.50918640896E+03 -0.16634251909E+02 -0.16538822711E+04  0.17305704447E+04  0.50400001928E-02 0. -1.
</event>
<event>
 5   0  0.5824956E-05  0.1905012E+04  0.7818609E-02  0.8652366E-01
        1   -1    0    0  501    0  0.00000000000E+00  0.00000000000E+00  0.13287022816E+04  0.13287022816E+04  0.50400001928E-02 0.  1.
       -1   -1    0    0    0  501  0.00000000000E+00  0.00000000000E+00 -0.68282253937E+03  0.68282253939E+03  0.50400001928E-02 0. -1.
    10030    2    1    2    0    0  0.00000000000E+00  0.00000000000E+00  0.64587974220E+03  0.20115248210E+04  0.19050121952E+04 0.  0.
        2    1    3    3  502    0 -0.13150164702E+03 -0.80648513559E+03  0.83975115330E+03  0.11717051492E+04  0.25500000920E-02 0.  1.
       -2    1    3    3    0  502  0.13150164702E+03  0.80648513559E+03 -0.19387141110E+03  0.83981967180E+03  0.25500000920E-02 0. -1.
</event>
<event>
 5   0  0.4061125E-05  0.1897215E+04  0.7818609E-02  0.8656244E-01
        4   -1    0    0  501    0  0.00000000000E+00  0.00000000000E+00  0.73334343000E+03  0.73334452969E+03  0.12699999809E+01 0. -1.
       -4   -1    0    0    0  501  0.00000000000E+00  0.00000000000E+00 -0.12270576973E+04  0.12270583545E+04  0.12699999809E+01 0.  1.
    10030    2    1    2    0    0  0.00000000000E+00  0.00000000000E+00 -0.49371426729E+03  0.19604028842E+04  0.18972152463E+04 0.  0.
        5    1    3    3  502    0  0.94682548689E+03  0.32552541069E+02 -0.29637136028E+03  0.99267126671E+03  0.46999998093E+01 0. -1.
       -5    1    3    3    0  502 -0.94682548689E+03 -0.32552541069E+02 -0.19734290701E+03  0.96773161749E+03  0.46999998093E+01 0.  1.
</event>
<event>
 5   0  0.1118206E-04  0.1915458E+04  0.7818609E-02  0.8647200E-01
       -2   -1    0    0    0  501  0.00000000000E+00  0.00000000000E+00  0.59952540345E+03  0.59952540345E+03  0.25500000920E-02 0.  1.
        2   -1    0    0  501    0  0.00000000000E+00  0.00000000000E+00 -0.15299522881E+04  0.15299522881E+04  0.25500000920E-02 0. -1.
    10030    2    1    2    0    0  0.00000000000E+00  0.00000000000E+00 -0.93042688467E+03  0.21294776916E+04  0.19154584441E+04 0.  0.
        1    1    3    3  502    0  0.72364773082E+03 -0.61368860507E+03 -0.61001857435E+03  0.11280081575E+04  0.50400001928E-02 0.  1.
       -1    1    3    3    0  502 -0.72364773082E+03  0.61368860507E+03 -0.32040831032E+03  0.10014695341E+04  0.50400001928E-02 0. -1.
</event>
<event>
 5   0  0.1182630E-04  0.1882664E+04  0.7818609E-02  0.8663534E-01
       -2   -1    0    0    0  501  0.00000000000E+00  0.00000000000E+00  0.12632713576E+04  0.12632713576E+04  0.25500000920E-02 0.  1.
        2   -1    0    0  501    0  0.00000000000E+00  0.00000000000E+00 -0.70143766061E+03  0.70143766062E+03  0.25500000920E-02 0. -1.
    10030    2    1    2    0    0  0.00000000000E+00  0.00000000000E+00  0.56183369696E+03  0.19647090182E+04  0.18826641822E+04 0.  0.
        5    1    3    3  502    0 -0.18867657884E+03  0.49658363406E+03 -0.53005213917E+03  0.75044754464E+03  0.46999998093E+01 0. -1.
       -5    1    3    3    0  502  0.18867657884E+03 -0.49658363406E+03  0.10918858361E+04  0.12142614736E+04  0.46999998093E+01 0.  1.
</event>
<event>
 5   0  0.1101678E-04  0.1883099E+04  0.7818609E-02  0.8663315E-01
       -2   -1    0    0    0  501  0.00000000000E+00  0.00000000000E+00  0.92327696058E+03  0.92327696058E+03  0.25500000920E-02 0. -1.
        2   -1    0    0  501    0  0.00000000000E+00  0.00000000000E+00 -0.96018328260E+03  0.96018328260E+03  0.25500000920E-02 0.  1.
    10030    2    1    2    0    0  0.00000000000E+00  0.00000000000E+00 -0.36906322018E+02  0.18834602432E+04  0.18830986196E+04 0.  0.
        4    1    3    3  502    0 -0.67583793085E+02 -0.87202896384E+03 -0.36710496541E+03  0.94856193862E+03  0.12699999809E+01 0.  1.
       -4    1    3    3    0  502  0.67583793085E+02  0.87202896384E+03  0.33019864340E+03  0.93489830456E+03  0.12699999809E+01 0. -1.
</event>
<event>
 5   0  0.5841424E-05  0.1930824E+04  0.7818609E-02  0.8639664E-01
        1   -1    0    0  501    0  0.00000000000E+00  0.00000000000E+00  0.12075225213E+04  0.12075225213E+04  0.50400001928E-02 0.  1.
       -1   -1    0    0    0  501  0.00000000000E+00  0.00000000000E+00 -0.77184483451E+03  0.77184483453E+03  0.50400001928E-02 0. -1.
    10030    2    1    2    0    0  0.00000000000E+00  0.00000000000E+00  0.43567768682E+03  0.19793673559E+04  0.19308236799E+04 0.  0.
        1    1    3    3  502    0 -0.36392509217E+02  0.69598565029E+02  0.12042420798E+04  0.12068004648E+04  0.50400001928E-02 0.  1.
       -1    1    3    3    0  502  0.36392509217E+02 -0.69598565029E+02 -0.76856439300E+03  0.77256689108E+03  0.50400001928E-02 0. -1.
</event>
<event>
 5   0  0.1133638E-04  0.1896485E+04  0.7818609E-02  0.8656608E-01
       -2   -1    0    0    0  501  0.00000000000E+00  0.00000000000E+00  0.61834986051E+03  0.61834986051E+03  0.25500000920E-02 0.  1.
        2   -1    0    0  501    0  0.00000000000E+00  0.00000000000E+00 -0.14541342465E+04  0.14541342465E+04  0.25500000920E-02 0. -1.
    10030    2    1    2    0    0  0.00000000000E+00  0.00000000000E+00 -0.83578438598E+03  0.20724841070E+04  0.18964848626E+04 0.  0.
        3    1    3    3  502    0  0.68987143663E+02 -0.73468983885E+03  0.23288573897E+03  0.77379852864E+03  0.10100000352E+00 0.  1.
       -3    1    3    3    0  502 -0.68987143663E+02  0.73468983885E+03 -0.10686701249E+04  0.12986855784E+04  0.10100000352E+00 0. -1.
</event>
<event>
 5   0  0.1118206E-04  0.1898903E+04  0.7818609E-02  0.8655403E-01
        2   -1    0    0  501    0  0.00000000000E+00  0.00000000000E+00  0.20853756976E+04  0.20853756976E+04  0.25500000920E-02 0. -1.
       -2   -1    0    0    0  501  0.00000000000E+00  0.00000000000E+00 -0.43227614880E+03  0.43227614880E+03  0.25500000920E-02 0.  1.
    10030    2    1    2    0    0  0.00000000000E+00  0.00000000000E+00  0.16530995488E+04  0.25176518464E+04  0.18989030258E+04 0.  0.
        1    1    3    3  502    0 -0.39090178631E+02 -0.38181704177E+03  0.19779347773E+04  0.20148295905E+04  0.50400001928E-02 0. -1.
       -1    1    3    3    0  502  0.39090178631E+02  0.38181704177E+03 -0.32483522843E+03  0.50282225598E+03  0.50400001928E-02 0.  1.
</event>
<event>
 5   0  0.5614989E-05  0.1904468E+04  0.7818609E-02  0.8652635E-01
       -1   -1    0    0    0  501  0.00000000000E+00  0.00000000000E+00  0.47503856705E+03  0.47503856708E+03  0.50400001928E-02 0. -1.
        1   -1    0    0  501    0  0.00000000000E+00  0.00000000000E+00 -0.19087920237E+04  0.19087920237E+04  0.50400001928E-02 0.  1.
    10030    2    1    2    0    0  0.00000000000E+00  0.00000000000E+00 -0.14337534567E+04  0.23838305908E+04  0.19044682489E+04 0.  0.
        4    1    3    3  502    0  0.87445843765E+03  0.31671603662E+03 -0.97267067199E+03  0.13457624070E+04  0.12699999809E+01 0.  1.
       -4    1    3    3    0  502 -0.87445843765E+03 -0.31671603662E+03 -0.46108278468E+03  0.10380681838E+04  0.12699999809E+01 0. -1.
</event>
<event>
 5   0  0.1133638E-04  0.1899739E+04  0.7818609E-02  0.8654986E-01
        2   -1    0    0  501    0  0.00000000000E+00  0.00000000000E+00  0.12058230219E+04  0.12058230219E+04  0.25500000920E-02 0.  1.
       -2   -1    0    0    0  501  0.00000000000E+00  0.00000000000E+00 -0.74824599471E+03  0.74824599471E+03  0.25500000920E-02 0. -1.
    10030    2    1    2    0    0  0.00000000000E+00  0.00000000000E+00  0.45757702722E+03  0.19540690166E+04  0.18997391889E+04 0.  0.
        3    1    3    3  502    0 -0.22870701828E+03 -0.33435910714E+03  0.11125153225E+04  0.11839735072E+04  0.10100000352E+00 0.  1.
       -3    1    3    3    0  502  0.22870701828E+03  0.33435910714E+03 -0.65493829532E+03  0.77009550941E+03  0.10100000352E+00 0. -1.
</event>
<event>
 5   0  0.1118206E-04  0.1910414E+04  0.7818609E-02  0.8649690E-01
       -2   -1    0    0    0  501  0.00000000000E+00  0.00000000000E+00  0.44272195454E+03  0.44272195455E+03  0.25500000920E-02 0. -1.
        2   -1    0    0  501    0  0.00000000000E+00  0.00000000000E+00 -0.20609342681E+04  0.20609342681E+04  0.25500000920E-02 0.  1.
    10030    2    1    2    0    0  0.00000000000E+00  0.00000000000E+00 -0.16182123135E+04  0.25036562226E+04  0.19104144549E+04 0.  0.
        1    1    3    3  502    0 -0.22796457718E+03 -0.85444026925E+03 -0.12823234691E+04  0.15576872284E+04  0.50400001928E-02 0.  1.
       -1    1    3    3    0  502  0.22796457718E+03  0.85444026925E+03 -0.33588884445E+03  0.94596899421E+03  0.50400001928E-02 0. -1.
</event>
<event>
 5   0  0.5824956E-05  0.1898489E+04  0.7818609E-02  0.8655609E-01
       -1   -1    0    0    0  501  0.00000000000E+00  0.00000000000E+00  0.50873252115E+03  0.50873252117E+03  0.50400001928E-02 0.  1.
        1   -1    0    0  501    0  0.00000000000E+00  0.00000000000E+00 -0.17711962630E+04  0.17711962630E+04  0.50400001928E-02 0. -1.
    10030    2    1    2    0    0  0.00000000000E+00  0.00000000000E+00 -0.12624637419E+04  0.22799287842E+04  0.18984890206E+04 0.  0.
        2    1    3    3  502    0  0.85286418535E+03  0.41315395253E+03 -0.69691704670E+03  0.11763362092E+04  0.25500000920E-02 0. -1.
       -2    1    3    3    0  502 -0.85286418535E+03 -0.41315395253E+03 -0.56554669520E+03  0.11035925750E+04  0.25500000920E-02 0.  1.
</event>
<event>
 5   0  0.1182630E-04  0.1900746E+04  0.7818609E-02  0.8654485E-01
       -2   -1    0    0    0  501  0.00000000000E+00  0.00000000000E+00  0.45435904114E+03  0.45435904115E+03  0.25500000920E-02 0.  1.
        2   -1    0    0  501    0  0.00000000000E+00  0.00000000000E+00 -0.19878747634E+04  0.19878747634E+04  0.25500000920E-02 0. -1.
    10030    2    1    2    0    0  0.00000000000E+00  0.00000000000E+00 -0.15335157223E+04  0.24422338046E+04  0.19007460340E+04 0.  0.
        5    1    3    3  502    0 -0.46204339803E+03  0.35537962539E+03  0.19768088696E+03  0.61553115508E+03  0.46999998093E+01 0.  1.
       -5    1    3    3    0  502  0.46204339803E+03 -0.35537962539E+03 -0.17311966092E+04  0.18267026495E+04  0.46999998093E+01 0. -1.
</event>
<event>
 5   0  0.5841424E-05  0.1902124E+04  0.7818609E-02  0.8653800E-01
        1   -1    0    0  501    0  0.00000000000E+00  0.00000000000E+00  0.51805410711E+03  0.51805410713E+03  0.50400001928E-02 0. -1.
       -1   -1    0    0    0  501  0.00000000000E+00  0.00000000000E+00 -0.17459930855E+04  0.17459930855E+04  0.50400001928E-02 0.  1.
    10030    2    1    2    0    0  0.00000000000E+00  0.00000000000E+00 -0.12279389784E+04  0.22640471927E+04  0.19021239591E+04 0.  0.
        1    1    3    3  502    0  0.49382495902E+03 -0.27702936337E+03 -0.15235053210E+04  0.16253236052E+04  0.50400001928E-02 0.  1.
       -1    1    3    3    0  502 -0.49382495902E+03  0.27702936337E+03  0.29556634260E+03  0.63872358750E+03  0.50400001928E-02 0. -1.
</event>
<event>
 5   0  0.1118206E-04  0.1900461E+04  0.7818609E-02  0.8654627E-01
        2   -1    0    0  501    0  0.00000000000E+00  0.00000000000E+00  0.13656270114E+04  0.13656270114E+04  0.25500000920E-02 0.  1.
       -2   -1    0    0    0  501  0.00000000000E+00  0.00000000000E+00 -0.66118899279E+03  0.66118899279E+03  0.25500000920E-02 0. -1.
    10030    2    1    2    0    0  0.00000000000E+00  0.00000000000E+00  0.70443801862E+03  0.20268160042E+04  0.19004605212E+04 0.  0.
        1    1    3    3  502    0  0.38878379125E+03 -0.39453374409E+03  0.11756461425E+04  0.12995974623E+04  0.50400001928E-02 0.  1.
       -1    1    3    3    0  502 -0.38878379125E+03  0.39453374409E+03 -0.47120812393E+03  0.72721854187E+03  0.50400001928E-02 0. -1.
</event>
<event>
 5   0  0.1141890E-04  0.1889479E+04  0.7818609E-02  0.8660111E-01
       -2   -1    0    0    0  501  0.00000000000E+00  0.00000000000E+00  0.66672726222E+03  0.66672726223E+03  0.25500000920E-02 0. -1.
        2   -1    0    0  501    0  0.00000000000E+00  0.00000000000E+00 -0.13386776411E+04  0.13386776411E+04  0.25500000920E-02 0.  1.
    10030    2    1    2    0    0  0.00000000000E+00  0.00000000000E+00 -0.67195037883E+03  0.20054049033E+04  0.18894791649E+04 0.  0.
        2    1    3    3  502    0  0.10674091284E+03  0.80852082231E+03  0.17018388349E+03  0.83310389315E+03  0.25500000920E-02 0.  1.
       -2    1    3    3    0  502 -0.10674091284E+03 -0.80852082231E+03 -0.84213426232E+03  0.11723010101E+04  0.25500000920E-02 0. -1.
</event>
<event>
 5   0  0.4061125E-05  0.1901321E+04  0.7818609E-02  0.8654199E-01
       -3   -1    0    0    0  501  0.00000000000E+00  0.00000000000E+00  0.14952679507E+04  0.14952679541E+04  0.10100000352E+00 0. -1.
        3   -1    0    0  501    0  0.00000000000E+00  0.00000000000E+00 -0.60441044491E+03  0.60441045335E+03  0.10100000352E+00 0.  1.
    10030    2    1    2    0    0  0.00000000000E+00  0.00000000000E+00  0.89085750577E+03  0.20996784074E+04  0.19013212035E+04 0.  0.
        4    1    3    3  502    0  0.58880950587E+03 -0.42211147682E+03  0.11251763669E+04  0.13382444480E+04  0.12699999809E+01 0. -1.
       -4    1    3    3    0  502 -0.58880950587E+03  0.42211147682E+03 -0.23431886109E+03  0.76143395947E+03  0.12699999809E+01 0.  1.
</event>
<event>
 5   0  0.5579109E-05  0.1864720E+04  0.7818609E-02  0.8672620E-01
        1   -1    0    0  501    0  0.00000000000E+00  0.00000000000E+00  0.79381707527E+03  0.79381707528E+03  0.50400001928E-02 0.  1.
       -1   -1    0    0    0  501  0.00000000000E+00  0.00000000000E+00 -0.10950820734E+04  0.10950820734E+04  0.50400001928E-02 0. -1.
    10030    2    1    2    0    0  0.00000000000E+00  0.00000000000E+00 -0.30126499808E+03  0.18888991486E+04  0.18647196558E+04 0.  0.
        3    1    3    3  502    0 -0.75427948097E+03  0.35207467130E+03 -0.57607944439E+03  0.10123051151E+04  0.10100000352E+00 0. -1.
       -3    1    3    3    0  502  0.75427948097E+03 -0.35207467130E+03  0.27481444631E+03  0.87659403356E+03  0.10100000352E+00 0.  1.
</event>
<event>
 5   0  0.1133638E-04  0.1917781E+04  0.7818609E-02  0.8646056E-01
       -2   -1    0    0    0  501  0.00000000000E+00  0.00000000000E+00  0.65261626530E+03  0.65261626531E+03  0.25500000920E-02 0.  1.
        2   -1    0    0  501    0  0.00000000000E+00  0.00000000000E+00 -0.14089003633E+04  0.14089003633E+04  0.25500000920E-02 0. -1.
    10030    2    1    2    0    0  0.00000000000E+00  0.00000000000E+00 -0.75628409803E+03  0.20615166286E+04  0.19177813153E+04 0.  0.
        3    1    3    3  502    0 -0.28835829460E+03 -0.33278274848E+03 -0.12937917107E+04  0.13666718204E+04  0.10100000352E+00 0. -1.
       -3    1    3    3    0  502  0.28835829460E+03  0.33278274848E+03  0.53750761264E+03  0.69484480829E+03  0.10100000352E+00 0.  1.
</event>
<event>
 5   0  0.1182630E-04  0.1921330E+04  0.7818609E-02  0.8644311E-01
       -2   -1    0    0    0  501  0.00000000000E+00  0.00000000000E+00  0.16755916951E+04  0.16755916951E+04  0.25500000920E-02 0. -1.
        2   -1    0    0  501    0  0.00000000000E+00  0.00000000000E+00 -0.55077704422E+03  0.55077704423E+03  0.25500000920E-02 0.  1.
    10030    2    1    2    0    0  0.00000000000E+00  0.00000000000E+00  0.11248146509E+04  0.22263687393E+04  0.19213302071E+04 0.  0.
        5    1    3    3  502    0  0.28577318775E+03 -0.30419973920E+03 -0.44020941148E+03  0.60663845255E+03  0.46999998093E+01 0.  1.
       -5    1    3    3    0  502 -0.28577318775E+03  0.30419973920E+03  0.15650240624E+04  0.16197302868E+04  0.46999998093E+01 0. -1.
</event>
<event>
 5   0  0.4061125E-05  0.1891137E+04  0.7818609E-02  0.8659280E-01
       -3   -1    0    0    0  501  0.00000000000E+00  0.00000000000E+00  0.15782864283E+04  0.15782864315E+04  0.10100000352E+00 0.  1.
        3   -1    0    0  501    0  0.00000000000E+00  0.00000000000E+00 -0.56650055364E+03  0.56650056264E+03  0.10100000352E+00 0. -1.
    10030    2    1    2    0    0  0.00000000000E+00  0.00000000000E+00  0.10117858746E+04  0.21447869941E+04  0.18911373811E+04 0.  0.
        4    1    3    3  502    0  0.85588884959E+03  0.15381957873E+03  0.84748397146E+02  0.87372197487E+03  0.12699999809E+01 0. -1.
       -4    1    3    3    0  502 -0.85588884959E+03 -0.15381957873E+03  0.92703747748E+03  0.12710650193E+04  0.12699999809E+01 0.  1.
</event>
<event>
 5   0  0.1118206E-04  0.1917670E+04  0.7818609E-02  0.8646111E-01
        2   -1    0    0  501    0  0.00000000000E+00  0.00000000000E+00  0.14573505261E+04  0.14573505261E+04  0.25500000920E-02 0.  1.
       -2   -1    0    0    0  501  0.00000000000E+00  0.00000000000E+00 -0.63084634281E+03  0.63084634282E+03  0.25500000920E-02 0. -1.
    10030    2    1    2    0    0  0.00000000000E+00  0.00000000000E+00  0.82650418333E+03  0.20881968690E+04  0.19176696792E+04 0.  0.
        1    1    3    3  502    0 -0.34100047078E+03 -0.43972545263E+03  0.12635369508E+04  0.13806394970E+04  0.50400001928E-02 0.  1.
       -1    1    3    3    0  502  0.34100047078E+03  0.43972545263E+03 -0.43703276743E+03  0.70755737195E+03  0.50400001928E-02 0. -1.
</event>
<event>
 5   0  0.5841424E-05  0.1898522E+04  0.7818609E-02  0.8655593E-01
       -1   -1    0    0    0  501  0.00000000000E+00  0.00000000000E+00  0.62689445043E+03  0.62689445045E+03  0.50400001928E-02 0.  1.
        1   -1    0    0  501    0  0.00000000000E+00  0.00000000000E+00 -0.14373968359E+04  0.14373968359E+04  0.50400001928E-02 0. -1.
    10030    2    1    2    0    0  0.00000000000E+00  0.00000000000E+00 -0.81050238543E+03  0.20642912863E+04  0.18985216348E+04 0.  0.
        1    1    3    3  502    0 -0.31049959680E+03  0.61946354774E+03  0.30020688106E+03  0.75516174297E+03  0.50400001928E-02 0.  1.
       -1    1    3    3    0  502  0.31049959680E+03 -0.61946354774E+03 -0.11107092665E+04  0.13091295433E+04  0.50400001928E-02 0. -1.
</event>
<event>
 5   0  0.1133638E-04  0.1894307E+04  0.7818609E-02  0.8657695E-01
        2   -1    0    0  501    0  0.00000000000E+00  0.00000000000E+00  0.17504163232E+04  0.17504163232E+04  0.25500000920E-02 0.  1.
       -2   -1    0    0    0  501  0.00000000000E+00  0.00000000000E+00 -0.51250658338E+03  0.51250658339E+03  0.25500000920E-02 0. -1.
    10030    2    1    2    0    0  0.00000000000E+00  0.00000000000E+00  0.12379097398E+04  0.22629229066E+04  0.18943071444E+04 0.  0.
        3    1    3    3  502    0 -0.45608703401E+03 -0.44567482099E+02 -0.37125848251E+03  0.58977496902E+03  0.10100000352E+00 0. -1.
       -3    1    3    3    0  502  0.45608703401E+03  0.44567482099E+02  0.16091682223E+04  0.16731479375E+04  0.10100000352E+00 0.  1.
</event>
<event>
 5   0  0.1101678E-04  0.1902948E+04  0.7818609E-02  0.8653390E-01
        2   -1    0    0  501    0  0.00000000000E+00  0.00000000000E+00  0.84943704090E+03  0.84943704091E+03  0.25500000920E-02 0.  1.
       -2   -1    0    0    0  501  0.00000000000E+00  0.00000000000E+00 -0.10657684637E+04  0.10657684637E+04  0.25500000920E-02 0. -1.
    10030    2    1    2    0    0  0.00000000000E+00  0.00000000000E+00 -0.21633142279E+03  0.19152055046E+04  0.19029484597E+04 0.  0.
        4    1    3    3  502    0  0.13769935459E+03 -0.44013945814E+03  0.72943138212E+03  0.86299224156E+03  0.12699999809E+01 0.  1.
       -4    1    3    3    0  502 -0.13769935459E+03  0.44013945814E+03 -0.94576280492E+03  0.10522132630E+04  0.12699999809E+01 0. -1.
</event>
<event>
 5   0  0.1141890E-04  0.1894304E+04  0.7818609E-02  0.8657697E-01
       -2   -1    0    0    0  501  0.00000000000E+00  0.00000000000E+00  0.58987139021E+03  0.58987139021E+03  0.25500000920E-02 0.  1.
        2   -1    0    0  501    0  0.00000000000E+00  0.00000000000E+00 -0.15208346595E+04  0.15208346595E+04  0.25500000920E-02 0. -1.
    10030    2    1    2    0    0  0.00000000000E+00  0.00000000000E+00 -0.93096326927E+03  0.21107060497E+04  0.18943039406E+04 0.  0.
        2    1    3    3  502    0 -0.70935500315E+02 -0.11602197577E+03  0.57893711129E+03  0.59469414232E+03  0.25500000920E-02 0.  1.
       -2    1    3    3    0  502  0.70935500315E+02  0.11602197577E+03 -0.15099003806E+04  0.15160119074E+04  0.25500000920E-02 0. -1.
</event>
<event>
 5   0  0.1141890E-04  0.1908681E+04  0.7818609E-02  0.8650548E-01
        2   -1    0    0  501    0  0.00000000000E+00  0.00000000000E+00  0.10050390309E+04  0.10050390309E+04  0.25500000920E-02 0. -1.
       -2   -1    0    0    0  501  0.00000000000E+00  0.00000000000E+00 -0.90619904061E+03  0.90619904061E+03  0.25500000920E-02 0.  1.
    10030    2    1    2    0    0  0.00000000000E+00  0.00000000000E+00  0.98839990284E+02  0.19112380715E+04  0.19086805973E+04 0.  0.
        2    1    3    3  502    0 -0.54901101468E+03 -0.10525511087E+03  0.82393792370E+03  0.99567335744E+03  0.25500000920E-02 0. -1.
       -2    1    3    3    0  502  0.54901101468E+03  0.10525511087E+03 -0.72509793342E+03  0.91556471407E+03  0.25500000920E-02 0.  1.
</event>
<event>
 5   0  0.1118206E-04  0.1928356E+04  0.7818609E-02  0.8640869E-01
        2   -1    0    0  501    0  0.00000000000E+00  0.00000000000E+00  0.10282050227E+04  0.10282050227E+04  0.25500000920E-02 0. -1.
       -2   -1    0    0    0  501  0.00000000000E+00  0.00000000000E+00 -0.90413772746E+03  0.90413772746E+03  0.25500000920E-02 0.  1.
    10030    2    1    2    0    0  0.00000000000E+00  0.00000000000E+00  0.12406729519E+03  0.19323427501E+04  0.19283557271E+04 0.  0.
        1    1    3    3  502    0 -0.21275982739E+02 -0.37450815342E+02  0.10272404728E+04  0.10281430931E+04  0.50400001928E-02 0. -1.
       -1    1    3    3    0  502  0.21275982739E+02  0.37450815342E+02 -0.90317317757E+03  0.90419965700E+03  0.50400001928E-02 0.  1.
</event>
<event>
 5   0  0.4061125E-05  0.1915537E+04  0.7818609E-02  0.8647161E-01
        3   -1    0    0  501    0  0.00000000000E+00  0.00000000000E+00  0.68011888478E+03  0.68011889228E+03  0.10100000352E+00 0. -1.
       -3   -1    0    0    0  501  0.00000000000E+00  0.00000000000E+00 -0.13487643514E+04  0.13487643552E+04  0.10100000352E+00 0.  1.
    10030    2    1    2    0    0  0.00000000000E+00  0.00000000000E+00 -0.66864546664E+03  0.20288832475E+04  0.19155366016E+04 0.  0.
        4    1    3    3  502    0 -0.17291830758E+03 -0.10824188806E+03 -0.13254847205E+04  0.13410922431E+04  0.12699999809E+01 0.  1.
       -4    1    3    3    0  502  0.17291830758E+03  0.10824188806E+03  0.65683925383E+03  0.68779100438E+03  0.12699999809E+01 0. -1.
</event>
<event>
 5   0  0.5841424E-05  0.1910000E+04  0.7818609E-02  0.8649895E-01
       -1   -1    0    0    0  501  0.00000000000E+00  0.00000000000E+00  0.35532019548E+03  0.35532019551E+03  0.50400001928E-02 0.  1.
        1   -1    0    0  501    0  0.00000000000E+00  0.00000000000E+00 -0.25667699437E+04  0.25667699437E+04  0.50400001928E-02 0. -1.
    10030    2    1    2    0    0  0.00000000000E+00  0.00000000000E+00 -0.22114497482E+04  0.29220901392E+04  0.19100002075E+04 0.  0.
        1    1    3    3  502    0  0.45443847850E+03  0.28515760353E+03  0.10298115359E+03  0.54629141272E+03  0.50400001928E-02 0.  1.
       -1    1    3    3    0  502 -0.45443847850E+03 -0.28515760353E+03 -0.23144309018E+04  0.23757987265E+04  0.50400001928E-02 0. -1.
</event>
<event>
 5   0  0.1118206E-04  0.1900066E+04  0.7818609E-02  0.8654823E-01
        2   -1    0    0  501    0  0.00000000000E+00  0.00000000000E+00  0.12126924793E+04  0.12126924793E+04  0.25500000920E-02 0.  1.
       -2   -1    0    0    0  501  0.00000000000E+00  0.00000000000E+00 -0.74426375257E+03  0.74426375258E+03  0.25500000920E-02 0. -1.
    10030    2    1    2    0    0  0.00000000000E+00  0.00000000000E+00  0.46842872671E+03  0.19569562319E+04  0.19000663729E+04 0.  0.
        1    1    3    3  502    0  0.39012845163E+02 -0.90214260375E+03  0.53831702017E+03  0.10512699434E+04  0.50400001928E-02 0.  1.
       -1    1    3    3    0  502 -0.39012845163E+02  0.90214260375E+03 -0.69888293458E+02  0.90568628850E+03  0.50400001928E-02 0. -1.
</event>
<event>
 5   0  0.5824956E-05  0.1910843E+04  0.7818609E-02  0.8649478E-01
        1   -1    0    0  501    0  0.00000000000E+00  0.00000000000E+00  0.14915776429E+04  0.14915776429E+04  0.50400001928E-02 0.  1.
       -1   -1    0    0    0  501  0.00000000000E+00  0.00000000000E+00 -0.61199007771E+03  0.61199007774E+03  0.50400001928E-02 0. -1.
    10030    2    1    2    0    0  0.00000000000E+00  0.00000000000E+00  0.87958756517E+03  0.21035677206E+04  0.19108434971E+04 0.  0.
        2    1    3    3  502    0 -0.51577934722E+03  0.16532074411E+03  0.13062408207E+04  0.14140807491E+04  0.25500000920E-02 0.  1.
       -2    1    3    3    0  502  0.51577934722E+03 -0.16532074411E+03 -0.42665325549E+03  0.68948697151E+03  0.25500000920E-02 0. -1.
</event>
<event>
 5   0  0.5628936E-05  0.1894160E+04  0.7818609E-02  0.8657769E-01
        1   -1    0    0  501    0  0.00000000000E+00  0.00000000000E+00  0.92181064818E+03  0.92181064819E+03  0.50400001928E-02 0. -1.
       -1   -1    0    0    0  501  0.00000000000E+00  0.00000000000E+00 -0.97304194420E+03  0.97304194422E+03  0.50400001928E-02 0.  1.
    10030    2    1    2    0    0  0.00000000000E+00  0.00000000000E+00 -0.51231296030E+02  0.18948525924E+04  0.18941598933E+04 0.  0.
        5    1    3    3  502    0 -0.35594250878E+03 -0.84693824438E+03 -0.25578428796E+03  0.95364938595E+03  0.46999998093E+01 0.  1.
       -5    1    3    3    0  502  0.35594250878E+03  0.84693824438E+03  0.20455299193E+03  0.94120320646E+03  0.46999998093E+01 0. -1.
</event>
<event>
 5   0  0.5614989E-05  0.1895377E+04  0.7818609E-02  0.8657161E-01
        1   -1    0    0  501    0  0.00000000000E+00  0.00000000000E+00  0.63103104696E+03  0.63103104698E+03  0.50400001928E-02 0.  1.
       -1   -1    0    0    0  501  0.00000000000E+00  0.00000000000E+00 -0.14232471370E+04  0.14232471371E+04  0.50400001928E-02 0. -1.
    10030    2    1    2    0    0  0.00000000000E+00  0.00000000000E+00 -0.79221609009E+03  0.20542781840E+04  0.18953766180E+04 0.  0.
        4    1    3    3  502    0 -0.45458780351E+03 -0.53342262333E+03  0.29527573729E+03  0.76051241943E+03  0.12699999809E+01 0.  1.
       -4    1    3    3    0  502  0.45458780351E+03  0.53342262333E+03 -0.10874918274E+04  0.12937657646E+04  0.12699999809E+01 0. -1.
</event>
<event>
 5   0  0.1118206E-04  0.1846444E+04  0.7818609E-02  0.8681983E-01
       -2   -1    0    0    0  501  0.00000000000E+00  0.00000000000E+00  0.44428316889E+03  0.44428316889E+03  0.25500000920E-02 0.  1.
        2   -1    0    0  501    0  0.00000000000E+00  0.00000000000E+00 -0.19184593027E+04  0.19184593027E+04  0.25500000920E-02 0. -1.
    10030    2    1    2    0    0  0.00000000000E+00  0.00000000000E+00 -0.14741761338E+04  0.23627424716E+04  0.18464443435E+04 0.  0.
        1    1    3    3  502    0  0.45685545882E+03 -0.44052834922E+03  0.12088285460E+03  0.64606098883E+03  0.50400001928E-02 0.  1.
       -1    1    3    3    0  502 -0.45685545882E+03  0.44052834922E+03 -0.15950589884E+04  0.17166814827E+04  0.50400001928E-02 0. -1.
</event>
<event>
 5   0  0.5824956E-05  0.1889920E+04  0.7818609E-02  0.8659890E-01
        1   -1    0    0  501    0  0.00000000000E+00  0.00000000000E+00  0.54629357554E+03  0.54629357557E+03  0.50400001928E-02 0.  1.
       -1   -1    0    0    0  501  0.00000000000E+00  0.00000000000E+00 -0.16345601943E+04  0.16345601943E+04  0.50400001928E-02 0. -1.
    10030    2    1    2    0    0  0.00000000000E+00  0.00000000000E+00 -0.10882666188E+04  0.21808537699E+04  0.18899203507E+04 0.  0.
        2    1    3    3  502    0 -0.46834392040E+03  0.29471616828E+03 -0.14280435087E+04  0.15315064187E+04  0.25500000920E-02 0. -1.
       -2    1    3    3    0  502  0.46834392040E+03 -0.29471616828E+03  0.33977688993E+03  0.64934735124E+03  0.25500000920E-02 0.  1.
</event>
<event>
 5   0  0.5628936E-05  0.1889629E+04  0.7818609E-02  0.8660036E-01
        1   -1    0    0  501    0  0.00000000000E+00  0.00000000000E+00  0.20209059459E+04  0.20209059459E+04  0.50400001928E-02 0.  1.
       -1   -1    0    0    0  501  0.00000000000E+00  0.00000000000E+00 -0.44171978654E+03  0.44171978657E+03  0.50400001928E-02 0. -1.
    10030    2    1    2    0    0  0.00000000000E+00  0.00000000000E+00  0.15791861593E+04  0.24626257325E+04  0.18896286863E+04 0.  0.
        5    1    3    3  502    0  0.89037298599E+03  0.21217307067E+03  0.48431772613E+03  0.10355516481E+04  0.46999998093E+01 0.  1.
       -5    1    3    3    0  502 -0.89037298599E+03 -0.21217307067E+03  0.10948684332E+04  0.14270740843E+04  0.46999998093E+01 0. -1.
</event>
<event>
 5   0  0.5628936E-05  0.1889226E+04  0.7818609E-02  0.8660238E-01
        1   -1    0    0  501    0  0.00000000000E+00  0.00000000000E+00  0.69827712295E+03  0.69827712297E+03  0.50400001928E-02 0.  1.
       -1   -1    0    0    0  501  0.00000000000E+00  0.00000000000E+00 -0.12778503855E+04  0.12778503855E+04  0.50400001928E-02 0. -1.
    10030    2    1    2    0    0  0.00000000000E+00  0.00000000000E+00 -0.57957326251E+03  0.19761275085E+04  0.18892259693E+04 0.  0.
        5    1    3    3  502    0  0.26273536417E+03  0.49902209722E+03 -0.10824151854E+04  0.12205317074E+04  0.46999998093E+01 0. -1.
       -5    1    3    3    0  502 -0.26273536417E+03 -0.49902209722E+03  0.50284192293E+03  0.75559580104E+03  0.46999998093E+01 0.  1.
</event>
<event>
 5   0  0.1118206E-04  0.1879546E+04  0.7818609E-02  0.8665105E-01
       -2   -1    0    0    0  501  0.00000000000E+00  0.00000000000E+00  0.53625774282E+03  0.53625774283E+03  0.25500000920E-02 0. -1.
        2   -1    0    0  501    0  0.00000000000E+00  0.00000000000E+00 -0.16469200867E+04  0.16469200867E+04  0.25500000920E-02 0.  1.
    10030    2    1    2    0    0  0.00000000000E+00  0.00000000000E+00 -0.11106623439E+04  0.21831778295E+04  0.18795463797E+04 0.  0.
        1    1    3    3  502    0 -0.74608017181E+03  0.47274744526E+02 -0.12168034254E+04  0.14281040229E+04  0.50400001928E-02 0.  1.
       -1    1    3    3    0  502  0.74608017181E+03 -0.47274744526E+02  0.10614108150E+03  0.75507380662E+03  0.50400001928E-02 0. -1.
</event>
<event>
 5   0  0.5628936E-05  0.1869592E+04  0.7818609E-02  0.8670142E-01
       -1   -1    0    0    0  501  0.00000000000E+00  0.00000000000E+00  0.48957989878E+03  0.48957989880E+03  0.50400001928E-02 0.  1.
        1   -1    0    0  501    0  0.00000000000E+00  0.00000000000E+00 -0.17848840857E+04  0.17848840857E+04  0.50400001928E-02 0. -1.
    10030    2    1    2    0    0  0.00000000000E+00  0.00000000000E+00 -0.12953041869E+04  0.22744639845E+04  0.18695917951E+04 0.  0.
        5    1    3    3  502    0  0.34105764346E+03  0.84086555124E+03 -0.37441099654E+03  0.98162155424E+03  0.46999998093E+01 0. -1.
       -5    1    3    3    0  502 -0.34105764346E+03 -0.84086555124E+03 -0.92089319037E+03  0.12928424303E+04  0.46999998093E+01 0.  1.
</event>
<event>
 5   0  0.1141890E-04  0.1902121E+04  0.7818609E-02  0.8653801E-01
       -2   -1    0    0    0  501  0.00000000000E+00  0.00000000000E+00  0.45149964833E+03  0.45149964833E+03  0.25500000920E-02 0.  1.
        2   -1    0    0  501    0  0.00000000000E+00  0.00000000000E+00 -0.20033601888E+04  0.20033601888E+04  0.25500000920E-02 0. -1.
    10030    2    1    2    0    0  0.00000000000E+00  0.00000000000E+00 -0.15518605405E+04  0.24548598372E+04  0.19021213639E+04 0.  0.
        2    1    3    3  502    0 -0.13413345361E+03 -0.68111381441E+03 -0.16149219371E+04  0.17578056418E+04  0.25500000920E-02 0. -1.
       -2    1    3    3    0  502  0.13413345361E+03  0.68111381441E+03  0.63061396534E+02  0.69705419538E+03  0.25500000920E-02 0.  1.
</event>
<event>
 5   0  0.5824956E-05  0.1904883E+04  0.7818609E-02  0.8652430E-01
       -1   -1    0    0    0  501  0.00000000000E+00  0.00000000000E+00  0.60156042287E+03  0.60156042289E+03  0.50400001928E-02 0. -1.
        1   -1    0    0  501    0  0.00000000000E+00  0.00000000000E+00 -0.15079854686E+04  0.15079854686E+04  0.50400001928E-02 0.  1.
    10030    2    1    2    0    0  0.00000000000E+00  0.00000000000E+00 -0.90642504575E+03  0.21095458915E+04  0.19048825436E+04 0.  0.
        2    1    3    3  502    0 -0.65397471555E+02  0.42350141350E+03 -0.13951981473E+04  0.14595232601E+04  0.25500000920E-02 0.  1.
       -2    1    3    3    0  502  0.65397471555E+02 -0.42350141350E+03  0.48877310156E+03  0.65002263141E+03  0.25500000920E-02 0. -1.
</event>
<event>
 5   0  0.1182630E-04  0.1900618E+04  0.7818609E-02  0.8654549E-01
       -2   -1    0    0    0  501  0.00000000000E+00  0.00000000000E+00  0.61377146080E+03  0.61377146081E+03  0.25500000920E-02 0. -1.
        2   -1    0    0  501    0  0.00000000000E+00  0.00000000000E+00 -0.14713740767E+04  0.14713740767E+04  0.25500000920E-02 0.  1.
    10030    2    1    2    0    0  0.00000000000E+00  0.00000000000E+00 -0.85760261588E+03  0.20851455375E+04  0.19006182325E+04 0.  0.
        5    1    3    3  502    0  0.79388623645E+03 -0.34276654685E+02 -0.10005884835E+04  0.12777439684E+04  0.46999998093E+01 0.  1.
       -5    1    3    3    0  502 -0.79388623645E+03  0.34276654685E+02  0.14298586758E+03  0.80740156912E+03  0.46999998093E+01 0. -1.
</event>
<event>
 5   0  0.1101678E-04  0.1903675E+04  0.7818609E-02  0.8653029E-01
       -2   -1    0    0    0  501  0.00000000000E+00  0.00000000000E+00  0.14422899425E+04  0.14422899425E+04  0.25500000920E-02 0. -1.
        2   -1    0    0  501    0  0.00000000000E+00  0.00000000000E+00 -0.62816430654E+03  0.62816430655E+03  0.25500000920E-02 0.  1.
    10030    2    1    2    0    0  0.00000000000E+00  0.00000000000E+00  0.81412563593E+03  0.20704542490E+04  0.19036754572E+04 0.  0.
        4    1    3    3  502    0 -0.40583273484E+03 -0.28100926485E+03  0.12921967054E+04  0.13832716125E+04  0.12699999809E+01 0. -1.
       -4    1    3    3    0  502  0.40583273484E+03  0.28100926485E+03 -0.47807106945E+03  0.68718263653E+03  0.12699999809E+01 0.  1.
</event>
<event>
 5   0  0.1101678E-04  0.1905830E+04  0.7818609E-02  0.8651960E-01
       -2   -1    0    0    0  501  0.00000000000E+00  0.00000000000E+00  0.55535612033E+03  0.55535612034E+03  0.25500000920E-02 0.  1.
        2   -1    0    0  501    0  0.00000000000E+00  0.00000000000E+00 -0.16350720597E+04  0.16350720597E+04  0.25500000920E-02 0. -1.
    10030    2    1    2    0    0  0.00000000000E+00  0.00000000000E+00 -0.10797159393E+04  0.21904281800E+04  0.19058302921E+04 0.  0.
        4    1    3    3  502    0  0.12058507930E+03  0.33196039748E+03  0.47735256816E+03  0.59380599027E+03  0.12699999809E+01 0.  1.
       -4    1    3    3    0  502 -0.12058507930E+03 -0.33196039748E+03 -0.15570685075E+04  0.15966221898E+04  0.12699999809E+01 0. -1.
</event>
<event>
 5   0  0.4061125E-05  0.1898592E+04  0.7818609E-02  0.8655558E-01
        3   -1    0    0  501    0  0.00000000000E+00  0.00000000000E+00  0.56627320263E+03  0.56627321164E+03  0.10100000352E+00 0. -1.
       -3   -1    0    0    0  501  0.00000000000E+00  0.00000000000E+00 -0.15913917690E+04  0.15913917722E+04  0.10100000352E+00 0.  1.
    10030    2    1    2    0    0  0.00000000000E+00  0.00000000000E+00 -0.10251185663E+04  0.21576649838E+04  0.18985916115E+04 0.  0.
        1    1    3    3  502    0  0.26209571497E+03  0.26323182523E+03 -0.15053671223E+04  0.15505209868E+04  0.50400001928E-02 0.  1.
       -1    1    3    3    0  502 -0.26209571497E+03 -0.26323182523E+03  0.48024855594E+03  0.60714399703E+03  0.50400001928E-02 0. -1.
</event>
<event>
 5   0  0.4061125E-05  0.1893120E+04  0.7818609E-02  0.8658288E-01
       -3   -1    0    0    0  501  0.00000000000E+00  0.00000000000E+00  0.97825701215E+03  0.97825701737E+03  0.10100000352E+00 0.  1.
        3   -1    0    0  501    0  0.00000000000E+00  0.00000000000E+00 -0.91589040866E+03  0.91589041423E+03  0.10100000352E+00 0. -1.
    10030    2    1    2    0    0  0.00000000000E+00  0.00000000000E+00  0.62366603489E+02  0.18941474316E+04  0.18931204133E+04 0.  0.
        5    1    3    3  502    0  0.81807737760E+03 -0.46971452622E+03  0.10914734898E+03  0.94964075612E+03  0.46999998093E+01 0.  1.
       -5    1    3    3    0  502 -0.81807737760E+03  0.46971452622E+03 -0.46780745491E+02  0.94450667549E+03  0.46999998093E+01 0. -1.
</event>
<event>
 5   0  0.4061125E-05  0.1906670E+04  0.7818609E-02  0.8651543E-01
       -3   -1    0    0    0  501  0.00000000000E+00  0.00000000000E+00  0.67944088626E+03  0.67944089377E+03  0.10100000352E+00 0.  1.
        3   -1    0    0  501    0  0.00000000000E+00  0.00000000000E+00 -0.13376405109E+04  0.13376405147E+04  0.10100000352E+00 0. -1.
    10030    2    1    2    0    0  0.00000000000E+00  0.00000000000E+00 -0.65819962467E+03  0.20170814085E+04  0.19066700456E+04 0.  0.
        2    1    3    3  502    0 -0.18058325075E+03 -0.47449103152E+03  0.52453136482E+03  0.72998986440E+03  0.25500000920E-02 0.  1.
       -2    1    3    3    0  502  0.18058325075E+03  0.47449103152E+03 -0.11827309895E+04  0.12870915441E+04  0.25500000920E-02 0. -1.
</event>
<event>
 5   0  0.1101678E-04  0.1907313E+04  0.7818609E-02  0.8651225E-01
       -2   -1    0    0    0  501  0.00000000000E+00  0.00000000000E+00  0.56321806872E+03  0.56321806873E+03  0.25500000920E-02 0.  1.
        2   -1    0    0  501    0  0.00000000000E+00  0.00000000000E+00 -0.16147578497E+04  0.16147578497E+04  0.25500000920E-02 0. -1.
    10030    2    1    2    0    0  0.00000000000E+00  0.00000000000E+00 -0.10515397810E+04  0.21779759184E+04  0.19073130813E+04 0.  0.
        4    1    3    3  502    0 -0.82119485244E+03 -0.45753414014E+03 -0.34249203395E+03  0.10005003155E+04  0.12699999809E+01 0.  1.
       -4    1    3    3    0  502  0.82119485244E+03  0.45753414014E+03 -0.70904774702E+03  0.11774756029E+04  0.12699999809E+01 0. -1.
</event>
<event>
 5   0  0.1182630E-04  0.1902450E+04  0.7818609E-02  0.8653638E-01
       -2   -1    0    0    0  501  0.00000000000E+00  0.00000000000E+00  0.66264858774E+03  0.66264858775E+03  0.25500000920E-02 0. -1.
        2   -1    0    0  501    0  0.00000000000E+00  0.00000000000E+00 -0.13654739924E+04  0.13654739924E+04  0.25500000920E-02 0.  1.
    10030    2    1    2    0    0  0.00000000000E+00  0.00000000000E+00 -0.70282540466E+03  0.20281225802E+04  0.19024504332E+04 0.  0.
        5    1    3    3  502    0 -0.90897414682E+03 -0.20081109491E+03 -0.14292208973E+03  0.94181097316E+03  0.46999998093E+01 0. -1.
       -5    1    3    3    0  502  0.90897414682E+03  0.20081109491E+03 -0.55990331493E+03  0.10863116070E+04  0.46999998093E+01 0.  1.
</event>
<event>
 5   0  0.5628936E-05  0.1906751E+04  0.7818609E-02  0.8651503E-01
        1   -1    0    0  501    0  0.00000000000E+00  0.00000000000E+00  0.13700909159E+04  0.13700909159E+04  0.50400001928E-02 0.  1.
       -1   -1    0    0    0  501  0.00000000000E+00  0.00000000000E+00 -0.66340484666E+03  0.66340484668E+03  0.50400001928E-02 0. -1.
    10030    2    1    2    0    0  0.00000000000E+00  0.00000000000E+00  0.70668606919E+03  0.20334957625E+04  0.19067511153E+04 0.  0.
        5    1    3    3  502    0  0.28205247843E+03  0.10890310585E+03  0.13175945311E+04  0.13518472271E+04  0.46999998093E+01 0.  1.
       -5    1    3    3    0  502 -0.28205247843E+03 -0.10890310585E+03 -0.61090846189E+03  0.68164853544E+03  0.46999998093E+01 0. -1.
</event>
<event>
 5   0  0.1101678E-04  0.1865064E+04  0.7818609E-02  0.8672444E-01
       -2   -1    0    0    0  501  0.00000000000E+00  0.00000000000E+00  0.66768560770E+03  0.66768560771E+03  0.25500000920E-02 0.  1.
        2   -1    0    0  501    0  0.00000000000E+00  0.00000000000E+00 -0.13024332273E+04  0.13024332273E+04  0.25500000920E-02 0. -1.
    10030    2    1    2    0    0  0.00000000000E+00  0.00000000000E+00 -0.63474761963E+03  0.19701188350E+04  0.18650639891E+04 0.  0.
        4    1    3    3  502    0 -0.44799435400E+03 -0.13145251804E+02 -0.11812035877E+04  0.12633745554E+04  0.12699999809E+01 0. -1.
       -4    1    3    3    0  502  0.44799435400E+03  0.13145251804E+02  0.54645596804E+03  0.70674427962E+03  0.12699999809E+01 0.  1.
</event>
<event>
 5   0  0.1118206E-04  0.1902798E+04  0.7818609E-02  0.8653465E-01
        2   -1    0    0  501    0  0.00000000000E+00  0.00000000000E+00  0.62396763371E+03  0.62396763371E+03  0.25500000920E-02 0. -1.
       -2   -1    0    0    0  501  0.00000000000E+00  0.00000000000E+00 -0.14506519563E+04  0.14506519563E+04  0.25500000920E-02 0.  1.
    10030    2    1    2    0    0  0.00000000000E+00  0.00000000000E+00 -0.82668432255E+03  0.20746195900E+04  0.19027978016E+04 0.  0.
        1    1    3    3  502    0  0.19989985866E+02  0.87817369524E+03 -0.14866044961E+02  0.87852697048E+03  0.50400001928E-02 0. -1.
       -1    1    3    3    0  502 -0.19989985866E+02 -0.87817369524E+03 -0.81181827759E+03  0.11960926195E+04  0.50400001928E-02 0.  1.
</event>
<event>
 5   0  0.5579109E-05  0.1902612E+04  0.7818609E-02  0.8653557E-01
        1   -1    0    0  501    0  0.00000000000E+00  0.00000000000E+00  0.20428979104E+04  0.20428979104E+04  0.50400001928E-02 0.  1.
       -1   -1    0    0    0  501  0.00000000000E+00  0.00000000000E+00 -0.44298987193E+03  0.44298987196E+03  0.50400001928E-02 0. -1.
    10030    2    1    2    0    0  0.00000000000E+00  0.00000000000E+00  0.15999080384E+04  0.24858877823E+04  0.19026119770E+04 0.  0.
        3    1    3    3  502    0 -0.91441749034E+03 -0.19504797816E+03  0.57072705983E+03  0.10954142812E+04  0.10100000352E+00 0.  1.
       -3    1    3    3    0  502  0.91441749034E+03  0.19504797816E+03  0.10291809786E+04  0.13904735011E+04  0.10100000352E+00 0. -1.
</event>
<event>
 5   0  0.1133638E-04  0.1809990E+04  0.7818609E-02  0.8701005E-01
       -2   -1    0    0    0  501  0.00000000000E+00  0.00000000000E+00  0.77086656187E+03  0.77086656187E+03  0.25500000920E-02 0.  1.
        2   -1    0    0  501    0  0.00000000000E+00  0.00000000000E+00 -0.10624609987E+04  0.10624609987E+04  0.25500000920E-02 0. -1.
    10030    2    1    2    0    0  0.00000000000E+00  0.00000000000E+00 -0.29159443687E+03  0.18333275606E+04  0.18099896765E+04 0.  0.
        3    1    3    3  502    0  0.80227964454E+02 -0.96880977502E+02  0.76196892317E+03  0.77228174921E+03  0.10100000352E+00 0.  1.
       -3    1    3    3    0  502 -0.80227964454E+02  0.96880977502E+02 -0.10535633600E+04  0.10610458114E+04  0.10100000352E+00 0. -1.
</event>
<event>
 5   0  0.5579109E-05  0.1894343E+04  0.7818609E-02  0.8657677E-01
        1   -1    0    0  501    0  0.00000000000E+00  0.00000000000E+00  0.12468719531E+04  0.12468719531E+04  0.50400001928E-02 0. -1.
       -1   -1    0    0    0  501  0.00000000000E+00  0.00000000000E+00 -0.71950789999E+03  0.71950790001E+03  0.50400001928E-02 0.  1.
    10030    2    1    2    0    0  0.00000000000E+00  0.00000000000E+00  0.52736405308E+03  0.19663798531E+04  0.18943433908E+04 0.  0.
        3    1    3    3  502    0 -0.74500043072E+03 -0.44593767737E+03  0.65655597315E+03  0.10885549182E+04  0.10100000352E+00 0. -1.
       -3    1    3    3    0  502  0.74500043072E+03  0.44593767737E+03 -0.12919192008E+03  0.87782493487E+03  0.10100000352E+00 0.  1.
</event>
<event>
 5   0  0.5628936E-05  0.1898928E+04  0.7818609E-02  0.8655390E-01
       -1   -1    0    0    0  501  0.00000000000E+00  0.00000000000E+00  0.11705957373E+04  0.11705957373E+04  0.50400001928E-02 0.  1.
        1   -1    0    0  501    0  0.00000000000E+00  0.00000000000E+00 -0.77010528667E+03  0.77010528669E+03  0.50400001928E-02 0. -1.
    10030    2    1    2    0    0  0.00000000000E+00  0.00000000000E+00  0.40049045059E+03  0.19407010240E+04  0.18989280827E+04 0.  0.
        5    1    3    3  502    0 -0.33355362895E+03 -0.65680303548E+03  0.81243119266E+03  0.10966835385E+04  0.46999998093E+01 0.  1.
       -5    1    3    3    0  502  0.33355362895E+03  0.65680303548E+03 -0.41194074207E+03  0.84401748547E+03  0.46999998093E+01 0. -1.
</event>
<event>
 5   0  0.5841424E-05  0.1908036E+04  0.7818609E-02  0.8650867E-01
       -1   -1    0    0    0  501  0.00000000000E+00  0.00000000000E+00  0.98047467123E+03  0.98047467124E+03  0.50400001928E-02 0.  1.
        1   -1    0    0  501    0  0.00000000000E+00  0.00000000000E+00 -0.92827527791E+03  0.92827527792E+03  0.50400001928E-02 0. -1.
    10030    2    1    2    0    0  0.00000000000E+00  0.00000000000E+00  0.52199393323E+02  0.19087499492E+04  0.19080360562E+04 0.  0.
        1    1    3    3  502    0 -0.28701493673E+03  0.69171230691E+03 -0.56514335336E+03  0.93820600047E+03  0.50400001928E-02 0. -1.
       -1    1    3    3    0  502  0.28701493673E+03 -0.69171230691E+03  0.61734274668E+03  0.97054394869E+03  0.50400001928E-02 0.  1.
</event>
<event>
 5   0  0.5841424E-05  0.1870156E+04  0.7818609E-02  0.8669856E-01
        1   -1    0    0  501    0  0.00000000000E+00  0.00000000000E+00  0.75433716984E+03  0.75433716985E+03  0.50400001928E-02 0.  1.
       -1   -1    0    0    0  501  0.00000000000E+00  0.00000000000E+00 -0.11591249543E+04  0.11591249543E+04  0.50400001928E-02 0. -1.
    10030    2    1    2    0    0  0.00000000000E+00  0.00000000000E+00 -0.40478778445E+03  0.19134621241E+04  0.18701561833E+04 0.  0.
        1    1    3    3  502    0 -0.31544187105E+02 -0.92212000269E+03 -0.46986239442E+02  0.92385498961E+03  0.50400001928E-02 0.  1.
       -1    1    3    3    0  502  0.31544187105E+02  0.92212000269E+03 -0.35780154501E+03  0.98960713454E+03  0.50400001928E-02 0. -1.
</event>
<event>
 5   0  0.1133638E-04  0.1916278E+04  0.7818609E-02  0.8646796E-01
        2   -1    0    0  501    0  0.00000000000E+00  0.00000000000E+00  0.14486262942E+04  0.14486262942E+04  0.25500000920E-02 0. -1.
       -2   -1    0    0    0  501  0.00000000000E+00  0.00000000000E+00 -0.63372505619E+03  0.63372505619E+03  0.25500000920E-02 0.  1.
    10030    2    1    2    0    0  0.00000000000E+00  0.00000000000E+00  0.81490123804E+03  0.20823513504E+04  0.19162784555E+04 0.  0.
        3    1    3    3  502    0 -0.35799286373E+03  0.86897112891E+03  0.61005175382E+03  0.11204610060E+04  0.10100000352E+00 0. -1.
       -3    1    3    3    0  502  0.35799286373E+03 -0.86897112891E+03  0.20484948423E+03  0.96189034446E+03  0.10100000352E+00 0.  1.
</event>
<event>
 5   0  0.5841424E-05  0.1824664E+04  0.7818609E-02  0.8693293E-01
       -1   -1    0    0    0  501  0.00000000000E+00  0.00000000000E+00  0.58528390048E+03  0.58528390050E+03  0.50400001928E-02 0. -1.
        1   -1    0    0  501    0  0.00000000000E+00  0.00000000000E+00 -0.14221290590E+04  0.14221290590E+04  0.50400001928E-02 0.  1.
    10030    2    1    2    0    0  0.00000000000E+00  0.00000000000E+00 -0.83684515848E+03  0.20074129595E+04  0.18246635226E+04 0.  0.
        1    1    3    3  502    0  0.48642507893E+03  0.72973137808E+03 -0.69506730601E+03  0.11190334229E+04  0.50400001928E-02 0. -1.
       -1    1    3    3    0  502 -0.48642507893E+03 -0.72973137808E+03 -0.14177785247E+03  0.88837953660E+03  0.50400001928E-02 0.  1.
</event>
<event>
 5   0  0.5824956E-05  0.1910220E+04  0.7818609E-02  0.8649786E-01
        1   -1    0    0  501    0  0.00000000000E+00  0.00000000000E+00  0.15526304309E+04  0.15526304309E+04  0.50400001928E-02 0. -1.
       -1   -1    0    0    0  501  0.00000000000E+00  0.00000000000E+00 -0.58754139622E+03  0.58754139624E+03  0.50400001928E-02 0.  1.
    10030    2    1    2    0    0  0.00000000000E+00  0.00000000000E+00  0.96508903464E+03  0.21401718271E+04  0.19102195174E+04 0.  0.
        2    1    3    3  502    0 -0.25579968474E+03 -0.54964876844E+03 -0.34432890087E+03  0.69721563331E+03  0.25500000920E-02 0.  1.
       -2    1    3    3    0  502  0.25579968474E+03  0.54964876844E+03  0.13094179355E+04  0.14429561938E+04  0.25500000920E-02 0. -1.
</event>
<event>
 5   0  0.5628936E-05  0.1843859E+04  0.7818609E-02  0.8683317E-01
        1   -1    0    0  501    0  0.00000000000E+00  0.00000000000E+00  0.14029186764E+04  0.14029186764E+04  0.50400001928E-02 0.  1.
       -1   -1    0    0    0  501  0.00000000000E+00  0.00000000000E+00 -0.60584681448E+03  0.60584681450E+03  0.50400001928E-02 0. -1.
    10030    2    1    2    0    0  0.00000000000E+00  0.00000000000E+00  0.79707186194E+03  0.20087654909E+04  0.18438587919E+04 0.  0.
        5    1    3    3  502    0 -0.31647056444E+03 -0.85682996630E+03  0.26237603525E+03  0.95035492485E+03  0.46999998093E+01 0.  1.
       -5    1    3    3    0  502  0.31647056444E+03  0.85682996630E+03  0.53469582669E+03  0.10584105661E+04  0.46999998093E+01 0. -1.
</event>
<event>
 5   0  0.1101678E-04  0.1915741E+04  0.7818609E-02  0.8647061E-01
        2   -1    0    0  501    0  0.00000000000E+00  0.00000000000E+00  0.87546969962E+03  0.87546969962E+03  0.25500000920E-02 0.  1.
       -2   -1    0    0    0  501  0.00000000000E+00  0.00000000000E+00 -0.10480267900E+04  0.10480267900E+04  0.25500000920E-02 0. -1.
    10030    2    1    2    0    0  0.00000000000E+00  0.00000000000E+00 -0.17255709038E+03  0.19234964896E+04  0.19157407957E+04 0.  0.
        4    1    3    3  502    0 -0.48598197726E+03  0.28984217978E+03  0.68971974632E+03  0.89213334921E+03  0.12699999809E+01 0.  1.
       -4    1    3    3    0  502  0.48598197726E+03 -0.28984217978E+03 -0.86227683670E+03  0.10313631404E+04  0.12699999809E+01 0. -1.
</event>
<event>
 5   0  0.1133638E-04  0.1828373E+04  0.7818609E-02  0.8691355E-01
        2   -1    0    0  501    0  0.00000000000E+00  0.00000000000E+00  0.10250599259E+04  0.10250599259E+04  0.25500000920E-02 0.  1.
       -2   -1    0    0    0  501  0.00000000000E+00  0.00000000000E+00 -0.81530514120E+03  0.81530514120E+03  0.25500000920E-02 0. -1.
    10030    2    1    2    0    0  0.00000000000E+00  0.00000000000E+00  0.20975478465E+03  0.18403650671E+04  0.18283726399E+04 0.  0.
        3    1    3    3  502    0 -0.50362390984E+03  0.76247877136E+03  0.13199286918E+03  0.92327300786E+03  0.10100000352E+00 0.  1.
       -3    1    3    3    0  502  0.50362390984E+03 -0.76247877136E+03  0.77761915475E+02  0.91709205919E+03  0.10100000352E+00 0. -1.
</event>
<event>
 5   0  0.5841424E-05  0.1663298E+04  0.7818609E-02  0.8782578E-01
        1   -1    0    0  501    0  0.00000000000E+00  0.00000000000E+00  0.14071416521E+04  0.14071416521E+04  0.50400001928E-02 0. -1.
       -1   -1    0    0    0  501  0.00000000000E+00  0.00000000000E+00 -0.49152125944E+03  0.49152125947E+03  0.50400001928E-02 0.  1.
    10030    2    1    2    0    0  0.00000000000E+00  0.00000000000E+00  0.91562039264E+03  0.18986629116E+04  0.16632979734E+04 0.  0.
        1    1    3    3  502    0  0.39544744470E+03 -0.32723526817E+03  0.12047579125E+04  0.13095431379E+04  0.50400001928E-02 0. -1.
       -1    1    3    3    0  502 -0.39544744470E+03  0.32723526817E+03 -0.28913751989E+03  0.58911977364E+03  0.50400001928E-02 0.  1.
</event>
<event>
 5   0  0.5824956E-05  0.1900215E+04  0.7818609E-02  0.8654749E-01
       -1   -1    0    0    0  501  0.00000000000E+00  0.00000000000E+00  0.82173532992E+03  0.82173532994E+03  0.50400001928E-02 0. -1.
        1   -1    0    0  501    0  0.00000000000E+00  0.00000000000E+00 -0.10985344310E+04  0.10985344310E+04  0.50400001928E-02 0.  1.
    10030    2    1    2    0    0  0.00000000000E+00  0.00000000000E+00 -0.27679910103E+03  0.19202697609E+04  0.19002153068E+04 0.  0.
        2    1    3    3  502    0 -0.28854411990E+03  0.28597926694E+03  0.72953773118E+03  0.83502524002E+03  0.25500000920E-02 0. -1.
       -2    1    3    3    0  502  0.28854411990E+03 -0.28597926694E+03 -0.10063368322E+04  0.10852445209E+04  0.25500000920E-02 0.  1.
</event>
<event>
 5   0  0.5614989E-05  0.1900610E+04  0.7818609E-02  0.8654553E-01
       -1   -1    0    0    0  501  0.00000000000E+00  0.00000000000E+00  0.10092518056E+04  0.10092518056E+04  0.50400001928E-02 0.  1.
        1   -1    0    0  501    0  0.00000000000E+00  0.00000000000E+00 -0.89480150892E+03  0.89480150893E+03  0.50400001928E-02 0. -1.
    10030    2    1    2    0    0  0.00000000000E+00  0.00000000000E+00  0.11445029668E+03  0.19040533145E+04  0.19006104688E+04 0.  0.
        4    1    3    3  502    0 -0.30983691884E+03  0.22914061124E+03  0.92746092106E+03  0.10043354564E+04  0.12699999809E+01 0.  1.
       -4    1    3    3    0  502  0.30983691884E+03 -0.22914061124E+03 -0.81301062438E+03  0.89971785814E+03  0.12699999809E+01 0. -1.
</event>
<event>
 5   0  0.5579109E-05  0.1880223E+04  0.7818609E-02  0.8664764E-01
        1   -1    0    0  501    0  0.00000000000E+00  0.00000000000E+00  0.53681561651E+03  0.53681561654E+03  0.50400001928E-02 0. -1.
       -1   -1    0    0    0  501  0.00000000000E+00  0.00000000000E+00 -0.16463929050E+04  0.16463929051E+04  0.50400001928E-02 0.  1.
    10030    2    1    2    0    0  0.00000000000E+00  0.00000000000E+00 -0.11095772885E+04  0.21832085216E+04  0.18802227766E+04 0.  0.
        3    1    3    3  502    0  0.26704313705E+03 -0.78287513094E+03 -0.10735533543E+04  0.13552572901E+04  0.10100000352E+00 0. -1.
       -3    1    3    3    0  502 -0.26704313705E+03  0.78287513094E+03 -0.36023934267E+02  0.82795123150E+03  0.10100000352E+00 0.  1.
</event>
<event>
 5   0  0.5841424E-05  0.1942868E+04  0.7818609E-02  0.8633808E-01
       -1   -1    0    0    0  501  0.00000000000E+00  0.00000000000E+00  0.54649052798E+03  0.54649052800E+03  0.50400001928E-02 0. -1.
        1   -1    0    0  501    0  0.00000000000E+00  0.00000000000E+00 -0.17268079543E+04  0.17268079543E+04  0.50400001928E-02 0.  1.
    10030    2    1    2    0    0  0.00000000000E+00  0.00000000000E+00 -0.11803174263E+04  0.22732984823E+04  0.19428681795E+04 0.  0.
        1    1    3    3  502    0 -0.84896993748E+03 -0.45611729034E+03 -0.44737497324E+03  0.10625146135E+04  0.50400001928E-02 0. -1.
       -1    1    3    3    0  502  0.84896993748E+03  0.45611729034E+03 -0.73294245305E+03  0.12107838687E+04  0.50400001928E-02 0.  1.
</event>
<event>
 5   0  0.1101678E-04  0.1903837E+04  0.7818609E-02  0.8652949E-01
        2   -1    0    0  501    0  0.00000000000E+00  0.00000000000E+00  0.11539036383E+04  0.11539036383E+04  0.25500000920E-02 0.  1.
       -2   -1    0    0    0  501  0.00000000000E+00  0.00000000000E+00 -0.78528981322E+03  0.78528981323E+03  0.25500000920E-02 0. -1.
    10030    2    1    2    0    0  0.00000000000E+00  0.00000000000E+00  0.36861382508E+03  0.19391934515E+04  0.19038369390E+04 0.  0.
        4    1    3    3  502    0 -0.15657669013E+03 -0.84501988598E+03 -0.23265126141E+03  0.89033875010E+03  0.12699999809E+01 0. -1.
       -4    1    3    3    0  502  0.15657669013E+03  0.84501988598E+03  0.60126508648E+03  0.10488547014E+04  0.12699999809E+01 0.  1.
</event>
<event>
 5   0  0.1101678E-04  0.1917444E+04  0.7818609E-02  0.8646222E-01
        2   -1    0    0  501    0  0.00000000000E+00  0.00000000000E+00  0.61308388262E+03  0.61308388262E+03  0.25500000920E-02 0.  1.
       -2   -1    0    0    0  501  0.00000000000E+00  0.00000000000E+00 -0.14992200186E+04  0.14992200186E+04  0.25500000920E-02 0. -1.
    10030    2    1    2    0    0  0.00000000000E+00  0.00000000000E+00 -0.88613613595E+03  0.21123039012E+04  0.19174437461E+04 0.  0.
        4    1    3    3  502    0  0.64761089526E+03 -0.12584300860E+03 -0.12093982411E+04  0.13776364009E+04  0.12699999809E+01 0. -1.
       -4    1    3    3    0  502 -0.64761089526E+03  0.12584300860E+03  0.32326210518E+03  0.73466750031E+03  0.12699999809E+01 0.  1.
</event>
<event>
 5   0  0.5579109E-05  0.1902226E+04  0.7818609E-02  0.8653749E-01
        1   -1    0    0  501    0  0.00000000000E+00  0.00000000000E+00  0.50013737896E+03  0.50013737898E+03  0.50400001928E-02 0.  1.
       -1   -1    0    0    0  501  0.00000000000E+00  0.00000000000E+00 -0.18087351673E+04  0.18087351673E+04  0.50400001928E-02 0. -1.
    10030    2    1    2    0    0  0.00000000000E+00  0.00000000000E+00 -0.13085977884E+04  0.23088725463E+04  0.19022261336E+04 0.  0.
        3    1    3    3  502    0  0.75374962945E+02  0.75205778455E+03 -0.13550825758E+04  0.15516188623E+04  0.10100000352E+00 0. -1.
       -3    1    3    3    0  502 -0.75374962945E+02 -0.75205778455E+03  0.46484787416E+02  0.75725368405E+03  0.10100000352E+00 0.  1.
</event>
<event>
 5   0  0.5614989E-05  0.1884110E+04  0.7818609E-02  0.8662806E-01
        1   -1    0    0  501    0  0.00000000000E+00  0.00000000000E+00  0.98935722117E+03  0.98935722119E+03  0.50400001928E-02 0.  1.
       -1   -1    0    0    0  501  0.00000000000E+00  0.00000000000E+00 -0.89701470670E+03  0.89701470672E+03  0.50400001928E-02 0. -1.
    10030    2    1    2    0    0  0.00000000000E+00  0.00000000000E+00  0.92342514468E+02  0.18863719279E+04  0.18841103764E+04 0.  0.
        4    1    3    3  502    0  0.83405878610E+02 -0.85686559426E+02  0.98172728005E+03  0.98898371693E+03  0.12699999809E+01 0.  1.
       -4    1    3    3    0  502 -0.83405878610E+02  0.85686559426E+02 -0.88938476558E+03  0.89738821098E+03  0.12699999809E+01 0. -1.
</event>
<event>
 5   0  0.1101678E-04  0.1904839E+04  0.7818609E-02  0.8652452E-01
        2   -1    0    0  501    0  0.00000000000E+00  0.00000000000E+00  0.10176602785E+04  0.10176602785E+04  0.25500000920E-02 0. -1.
       -2   -1    0    0    0  501  0.00000000000E+00  0.00000000000E+00 -0.89136106796E+03  0.89136106797E+03  0.25500000920E-02 0.  1.
    10030    2    1    2    0    0  0.00000000000E+00  0.00000000000E+00  0.12629921055E+03  0.19090213465E+04  0.19048388412E+04 0.  0.
        4    1    3    3  502    0  0.76889430552E+03 -0.53694681753E+03 -0.10331990732E+03  0.94349719345E+03  0.12699999809E+01 0.  1.
       -4    1    3    3    0  502 -0.76889430552E+03  0.53694681753E+03  0.22961911787E+03  0.96552415304E+03  0.12699999809E+01 0. -1.
</event>
<event>
 5   0  0.1101678E-04  0.1931112E+04  0.7818609E-02  0.8639523E-01
        2   -1    0    0  501    0  0.00000000000E+00  0.00000000000E+00  0.11610731260E+04  0.11610731260E+04  0.25500000920E-02 0.  1.
       -2   -1    0    0    0  501  0.00000000000E+00  0.00000000000E+00 -0.80296227832E+03  0.80296227833E+03  0.25500000920E-02 0. -1.
    10030    2    1    2    0    0  0.00000000000E+00  0.00000000000E+00  0.35811084772E+03  0.19640354044E+04  0.19311115168E+04 0.  0.
        4    1    3    3  502    0 -0.23211646041E+02 -0.81799811926E+03 -0.34216279420E+03  0.88698178914E+03  0.12699999809E+01 0. -1.
       -4    1    3    3    0  502  0.23211646041E+02  0.81799811926E+03  0.70027364192E+03  0.10770536152E+04  0.12699999809E+01 0.  1.
</event>
<event>
 5   0  0.1182630E-04  0.1943159E+04  0.7818609E-02  0.8633666E-01
       -2   -1    0    0    0  501  0.00000000000E+00  0.00000000000E+00  0.64932401002E+03  0.64932401002E+03  0.25500000920E-02 0. -1.
        2   -1    0    0  501    0  0.00000000000E+00  0.00000000000E+00 -0.14537689501E+04  0.14537689501E+04  0.25500000920E-02 0.  1.
    10030    2    1    2    0    0  0.00000000000E+00  0.00000000000E+00 -0.80444494007E+03  0.21030929601E+04  0.19431593700E+04 0.  0.
        5    1    3    3  502    0  0.17490326888E+03  0.81855367391E+03 -0.93610077828E+03  0.12557579495E+04  0.46999998093E+01 0.  1.
       -5    1    3    3    0  502 -0.17490326888E+03 -0.81855367391E+03  0.13165583821E+03  0.84733501065E+03  0.46999998093E+01 0. -1.
</event>
<event>
 5   0  0.1118206E-04  0.1904282E+04  0.7818609E-02  0.8652728E-01
        2   -1    0    0  501    0  0.00000000000E+00  0.00000000000E+00  0.24557737004E+04  0.24557737004E+04  0.25500000920E-02 0. -1.
       -2   -1    0    0    0  501  0.00000000000E+00  0.00000000000E+00 -0.36915966322E+03  0.36915966323E+03  0.25500000920E-02 0.  1.
    10030    2    1    2    0    0  0.00000000000E+00  0.00000000000E+00  0.20866140372E+04  0.28249333636E+04  0.19042821138E+04 0.  0.
        1    1    3    3  502    0  0.59988856292E+02  0.41269346444E+03 -0.22647033631E+03  0.47455597322E+03  0.50400001928E-02 0.  1.
       -1    1    3    3    0  502 -0.59988856292E+02 -0.41269346444E+03  0.23130843735E+04  0.23503773904E+04  0.50400001928E-02 0. -1.
</event>
<event>
 5   0  0.4061125E-05  0.1894317E+04  0.7818609E-02  0.8657690E-01
        3   -1    0    0  501    0  0.00000000000E+00  0.00000000000E+00  0.78640542059E+03  0.78640542707E+03  0.10100000352E+00 0. -1.
       -3   -1    0    0    0  501  0.00000000000E+00  0.00000000000E+00 -0.11407719401E+04  0.11407719446E+04  0.10100000352E+00 0.  1.
    10030    2    1    2    0    0  0.00000000000E+00  0.00000000000E+00 -0.35436651949E+03  0.19271773716E+04  0.18943170251E+04 0.  0.
        4    1    3    3  502    0 -0.61541087145E+03  0.16614943530E+03 -0.88988640350E+03  0.10946394838E+04  0.12699999809E+01 0.  1.
       -4    1    3    3    0  502  0.61541087145E+03 -0.16614943530E+03  0.53551988400E+03  0.83253788779E+03  0.12699999809E+01 0. -1.
</event>
<event>
 5   0  0.1182630E-04  0.1901044E+04  0.7818609E-02  0.8654337E-01
        2   -1    0    0  501    0  0.00000000000E+00  0.00000000000E+00  0.17189003622E+04  0.17189003622E+04  0.25500000920E-02 0.  1.
       -2   -1    0    0    0  501  0.00000000000E+00  0.00000000000E+00 -0.52562202673E+03  0.52562202673E+03  0.25500000920E-02 0. -1.
    10030    2    1    2    0    0  0.00000000000E+00  0.00000000000E+00  0.11932783355E+04  0.22445223890E+04  0.19010438103E+04 0.  0.
        5    1    3    3  502    0  0.71598269187E+03 -0.98387429871E+00  0.13347643052E+04  0.15146781914E+04  0.46999998093E+01 0. -1.
       -5    1    3    3    0  502 -0.71598269187E+03  0.98387429871E+00 -0.14148596972E+03  0.72984419755E+03  0.46999998093E+01 0.  1.
</event>
<event>
 5   0  0.5824956E-05  0.1935349E+04  0.7818609E-02  0.8637458E-01
        1   -1    0    0  501    0  0.00000000000E+00  0.00000000000E+00  0.76070457136E+03  0.76070457138E+03  0.50400001928E-02 0. -1.
       -1   -1    0    0    0  501  0.00000000000E+00  0.00000000000E+00 -0.12309561894E+04  0.12309561894E+04  0.50400001928E-02 0.  1.
    10030    2    1    2    0    0  0.00000000000E+00  0.00000000000E+00 -0.47025161801E+03  0.19916607608E+04  0.19353490646E+04 0.  0.
        2    1    3    3  502    0  0.12512464488E+03 -0.55097477090E+03  0.57333053411E+03  0.80494551137E+03  0.25500000920E-02 0. -1.
       -2    1    3    3    0  502 -0.12512464488E+03  0.55097477090E+03 -0.10435821521E+04  0.11867152494E+04  0.25500000920E-02 0.  1.
</event>
<event>
 5   0  0.1182630E-04  0.1902788E+04  0.7818609E-02  0.8653470E-01
       -2   -1    0    0    0  501  0.00000000000E+00  0.00000000000E+00  0.88733362622E+03  0.88733362622E+03  0.25500000920E-02 0. -1.
        2   -1    0    0  501    0  0.00000000000E+00  0.00000000000E+00 -0.10200791877E+04  0.10200791878E+04  0.25500000920E-02 0.  1.
    10030    2    1    2    0    0  0.00000000000E+00  0.00000000000E+00 -0.13274556153E+03  0.19074128140E+04  0.19027880226E+04 0.  0.
        5    1    3    3  502    0 -0.41185057776E+03  0.56192515191E+03  0.58308129915E+03  0.90850793401E+03  0.46999998093E+01 0. -1.
       -5    1    3    3    0  502  0.41185057776E+03 -0.56192515191E+03 -0.71582686068E+03  0.99890487996E+03  0.46999998093E+01 0.  1.
</event>
<event>
 5   0  0.5579109E-05  0.1891872E+04  0.7818609E-02  0.8658913E-01
        1   -1    0    0  501    0  0.00000000000E+00  0.00000000000E+00  0.83407965794E+03  0.83407965796E+03  0.50400001928E-02 0.  1.
       -1   -1    0    0    0  501  0.00000000000E+00  0.00000000000E+00 -0.10727930377E+04  0.10727930377E+04  0.50400001928E-02 0. -1.
    10030    2    1    2    0    0  0.00000000000E+00  0.00000000000E+00 -0.23871337977E+03  0.19068726957E+04  0.18918719301E+04 0.  0.
        3    1    3    3  502    0 -0.65796162154E+03  0.44265485671E+03  0.40042405104E+03  0.88836718109E+03  0.10100000352E+00 0.  1.
       -3    1    3    3    0  502  0.65796162154E+03 -0.44265485671E+03 -0.63913743082E+03  0.10185055146E+04  0.10100000352E+00 0. -1.
</event>
<event>
 5   0  0.5614989E-05  0.1802572E+04  0.7818609E-02  0.8704933E-01
        1   -1    0    0  501    0  0.00000000000E+00  0.00000000000E+00  0.11540177517E+04  0.11540177517E+04  0.50400001928E-02 0. -1.
       -1   -1    0    0    0  501  0.00000000000E+00  0.00000000000E+00 -0.70390257596E+03  0.70390257598E+03  0.50400001928E-02 0.  1.
    10030    2    1    2    0    0  0.00000000000E+00  0.00000000000E+00  0.45011517573E+03  0.18579203277E+04  0.18025715721E+04 0.  0.
        4    1    3    3  502    0 -0.81132558239E+03  0.37711466914E+03  0.11285839584E+03  0.90177785775E+03  0.12699999809E+01 0. -1.
       -4    1    3    3    0  502  0.81132558239E+03 -0.37711466914E+03  0.33725677989E+03  0.95614246993E+03  0.12699999809E+01 0.  1.
</event>
<event>
 5   0  0.5579109E-05  0.1895298E+04  0.7818609E-02  0.8657200E-01
        1   -1    0    0  501    0  0.00000000000E+00  0.00000000000E+00  0.11649448978E+04  0.11649448978E+04  0.50400001928E-02 0.  1.
       -1   -1    0    0    0  501  0.00000000000E+00  0.00000000000E+00 -0.77088510515E+03  0.77088510517E+03  0.50400001928E-02 0. -1.
    10030    2    1    2    0    0  0.00000000000E+00  0.00000000000E+00  0.39405979265E+03  0.19358300030E+04  0.18952980452E+04 0.  0.
        3    1    3    3  502    0  0.78532967126E+03 -0.42254402960E+03  0.52443535989E+03  0.10345620360E+04  0.10100000352E+00 0.  1.
       -3    1    3    3    0  502 -0.78532967126E+03  0.42254402960E+03 -0.13037556724E+03  0.90126796695E+03  0.10100000352E+00 0. -1.
</event>
<event>
 5   0  0.5579109E-05  0.1902207E+04  0.7818609E-02  0.8653759E-01
       -1   -1    0    0    0  501  0.00000000000E+00  0.00000000000E+00  0.77510843035E+03  0.77510843037E+03  0.50400001928E-02 0. -1.
        1   -1    0    0  501    0  0.00000000000E+00  0.00000000000E+00 -0.11670596641E+04  0.11670596641E+04  0.50400001928E-02 0.  1.
    10030    2    1    2    0    0  0.00000000000E+00  0.00000000000E+00 -0.39195123374E+03  0.19421680945E+04  0.19022069124E+04 0.  0.
        3    1    3    3  502    0 -0.30000314314E+03  0.82699801193E+02  0.72165802232E+03  0.78589532025E+03  0.10100000352E+00 0. -1.
       -3    1    3    3    0  502  0.30000314314E+03 -0.82699801193E+02 -0.11136092561E+04  0.11562727742E+04  0.10100000352E+00 0.  1.
</event>
<event>
 5   0  0.1141890E-04  0.1924846E+04  0.7818609E-02  0.8642587E-01
        2   -1    0    0  501    0  0.00000000000E+00  0.00000000000E+00  0.13437439327E+04  0.13437439328E+04  0.25500000920E-02 0.  1.
       -2   -1    0    0    0  501  0.00000000000E+00  0.00000000000E+00 -0.68931153192E+03  0.68931153192E+03  0.25500000920E-02 0. -1.
    10030    2    1    2    0    0  0.00000000000E+00  0.00000000000E+00  0.65443240083E+03  0.20330554647E+04  0.19248461640E+04 0.  0.
        2    1    3    3  502    0 -0.31448067977E+03 -0.54303727090E+03 -0.44351159789E+03  0.76843354495E+03  0.25500000920E-02 0. -1.
       -2    1    3    3    0  502  0.31448067977E+03  0.54303727090E+03  0.10979439987E+04  0.12646219197E+04  0.25500000920E-02 0.  1.
</event>
<event>
 5   0  0.5628936E-05  0.1898579E+04  0.7818609E-02  0.8655564E-01
        1   -1    0    0  501    0  0.00000000000E+00  0.00000000000E+00  0.11211352580E+04  0.11211352580E+04  0.50400001928E-02 0.  1.
       -1   -1    0    0    0  501  0.00000000000E+00  0.00000000000E+00 -0.80378421497E+03  0.80378421499E+03  0.50400001928E-02 0. -1.
    10030    2    1    2    0    0  0.00000000000E+00  0.00000000000E+00  0.31735104306E+03  0.19249194730E+04  0.18985792828E+04 0.  0.
        5    1    3    3  502    0  0.41806088228E+03 -0.23816859043E+03  0.98833739919E+03  0.10992415946E+04  0.46999998093E+01 0.  1.
       -5    1    3    3    0  502 -0.41806088228E+03  0.23816859043E+03 -0.67098635613E+03  0.82567787839E+03  0.46999998093E+01 0. -1.
</event>
<event>
 5   0  0.5824956E-05  0.1904278E+04  0.7818609E-02  0.8652730E-01
       -1   -1    0    0    0  501  0.00000000000E+00  0.00000000000E+00  0.88877536971E+03  0.88877536973E+03  0.50400001928E-02 0. -1.
        1   -1    0    0  501    0  0.00000000000E+00  0.00000000000E+00 -0.10200195959E+04  0.10200195959E+04  0.50400001928E-02 0.  1.
    10030    2    1    2    0    0  0.00000000000E+00  0.00000000000E+00 -0.13124422620E+03  0.19087949656E+04  0.19042775990E+04 0.  0.
        2    1    3    3  502    0 -0.25116037382E+02 -0.74535240766E+03 -0.65896150178E+03  0.99519409552E+03  0.25500000920E-02 0.  1.
       -2    1    3    3    0  502  0.25116037382E+02  0.74535240766E+03  0.52771727558E+03  0.91360087012E+03  0.25500000920E-02 0. -1.
</event>
<event>
 5   0  0.5579109E-05  0.1906972E+04  0.7818609E-02  0.8651394E-01
       -1   -1    0    0    0  501  0.00000000000E+00  0.00000000000E+00  0.12045811001E+04  0.12045811001E+04  0.50400001928E-02 0.  1.
        1   -1    0    0  501    0  0.00000000000E+00  0.00000000000E+00 -0.75473145611E+03  0.75473145613E+03  0.50400001928E-02 0. -1.
    10030    2    1    2    0    0  0.00000000000E+00  0.00000000000E+00  0.44984964397E+03  0.19593125562E+04  0.19069716806E+04 0.  0.
        3    1    3    3  502    0 -0.14235209444E+03 -0.62949825685E+03 -0.49619599398E+03  0.81409007414E+03  0.10100000352E+00 0. -1.
       -3    1    3    3    0  502  0.14235209444E+03  0.62949825685E+03  0.94604563795E+03  0.11452224821E+04  0.10100000352E+00 0.  1.
</event>
<event>
 5   0  0.1118206E-04  0.1899370E+04  0.7818609E-02  0.8655170E-01
        2   -1    0    0  501    0  0.00000000000E+00  0.00000000000E+00  0.13871244375E+04  0.13871244375E+04  0.25500000920E-02 0. -1.
       -2   -1    0    0    0  501  0.00000000000E+00  0.00000000000E+00 -0.65019529417E+03  0.65019529418E+03  0.25500000920E-02 0.  1.
    10030    2    1    2    0    0  0.00000000000E+00  0.00000000000E+00  0.73692914333E+03  0.20373197317E+04  0.18993701921E+04 0.  0.
        1    1    3    3  502    0  0.54919984371E+03  0.38890461871E+03  0.10872337296E+04  0.12786494647E+04  0.50400001928E-02 0. -1.
       -1    1    3    3    0  502 -0.54919984371E+03 -0.38890461871E+03 -0.35030458628E+03  0.75867026696E+03  0.50400001928E-02 0.  1.
</event>
<event>
 5   0  0.1141890E-04  0.1917190E+04  0.7818609E-02  0.8646347E-01
       -2   -1    0    0    0  501  0.00000000000E+00  0.00000000000E+00  0.48667180928E+03  0.48667180929E+03  0.25500000920E-02 0. -1.
        2   -1    0    0  501    0  0.00000000000E+00  0.00000000000E+00 -0.18881401413E+04  0.18881401413E+04  0.25500000920E-02 0.  1.
    10030    2    1    2    0    0  0.00000000000E+00  0.00000000000E+00 -0.14014683321E+04  0.23748119506E+04  0.19171902136E+04 0.  0.
        2    1    3    3  502    0  0.59744277160E+03  0.10119073514E+03  0.21934712448E+03  0.64443043941E+03  0.25500000920E-02 0. -1.
       -2    1    3    3    0  502 -0.59744277160E+03 -0.10119073514E+03 -0.16208154565E+04  0.17303815112E+04  0.25500000920E-02 0.  1.
</event>
<event>
 5   0  0.5579109E-05  0.1912134E+04  0.7818609E-02  0.8648840E-01
       -1   -1    0    0    0  501  0.00000000000E+00  0.00000000000E+00  0.59834041939E+03  0.59834041941E+03  0.50400001928E-02 0. -1.
        1   -1    0    0  501    0  0.00000000000E+00  0.00000000000E+00 -0.15276654866E+04  0.15276654866E+04  0.50400001928E-02 0.  1.
    10030    2    1    2    0    0  0.00000000000E+00  0.00000000000E+00 -0.92932506725E+03  0.21260059061E+04  0.19121338949E+04 0.  0.
        3    1    3    3  502    0 -0.86568555954E+03  0.40554772810E+03 -0.47972594696E+03  0.10695875103E+04  0.10100000352E+00 0. -1.
       -3    1    3    3    0  502  0.86568555954E+03 -0.40554772810E+03 -0.44959912028E+03  0.10564183958E+04  0.10100000352E+00 0.  1.
</event>
<event>
 5   0  0.1118206E-04  0.1892185E+04  0.7818609E-02  0.8658756E-01
       -2   -1    0    0    0  501  0.00000000000E+00  0.00000000000E+00  0.68869810588E+03  0.68869810589E+03  0.25500000920E-02 0.  1.
        2   -1    0    0  501    0  0.00000000000E+00  0.00000000000E+00 -0.12996856670E+04  0.12996856670E+04  0.25500000920E-02 0. -1.
    10030    2    1    2    0    0  0.00000000000E+00  0.00000000000E+00 -0.61098756114E+03  0.19883837729E+04  0.18921850408E+04 0.  0.
        1    1    3    3  502    0  0.32607066113E+03  0.88801428827E+03 -0.29064734505E+03  0.98962989618E+03  0.50400001928E-02 0.  1.
       -1    1    3    3    0  502 -0.32607066113E+03 -0.88801428827E+03 -0.32034021609E+03  0.99875387673E+03  0.50400001928E-02 0. -1.
</event>
<event>
 5   0  0.5841424E-05  0.1897415E+04  0.7818609E-02  0.8656144E-01
        1   -1    0    0  501    0  0.00000000000E+00  0.00000000000E+00  0.16791351675E+04  0.16791351675E+04  0.50400001928E-02 0.  1.
       -1   -1    0    0    0  501  0.00000000000E+00  0.00000000000E+00 -0.53601778554E+03  0.53601778557E+03  0.50400001928E-02 0. -1.
    10030    2    1    2    0    0  0.00000000000E+00  0.00000000000E+00  0.11431173819E+04  0.22151529531E+04  0.18974154149E+04 0.  0.
        1    1    3    3  502    0 -0.44037822946E+03  0.80788329844E+03  0.84143577385E+03  0.12468450467E+04  0.50400001928E-02 0.  1.
       -1    1    3    3    0  502  0.44037822946E+03 -0.80788329844E+03  0.30168160810E+03  0.96830790639E+03  0.50400001928E-02 0. -1.
</event>
<event>
 5   0  0.5579109E-05  0.1898383E+04  0.7818609E-02  0.8655662E-01
        1   -1    0    0  501    0  0.00000000000E+00  0.00000000000E+00  0.22433041625E+04  0.22433041625E+04  0.50400001928E-02 0.  1.
       -1   -1    0    0    0  501  0.00000000000E+00  0.00000000000E+00 -0.40162392205E+03  0.40162392208E+03  0.50400001928E-02 0. -1.
    10030    2    1    2    0    0  0.00000000000E+00  0.00000000000E+00  0.18416802405E+04  0.26449280846E+04  0.18983831185E+04 0.  0.
        3    1    3    3  502    0  0.82820098365E+02 -0.83327948730E+03  0.29814681569E+03  0.88887873557E+03  0.10100000352E+00 0. -1.
       -3    1    3    3    0  502 -0.82820098365E+02  0.83327948730E+03  0.15435334248E+04  0.17560493490E+04  0.10100000352E+00 0.  1.
</event>
<event>
 5   0  0.1101678E-04  0.1907375E+04  0.7818609E-02  0.8651194E-01
        2   -1    0    0  501    0  0.00000000000E+00  0.00000000000E+00  0.53343612187E+03  0.53343612187E+03  0.25500000920E-02 0.  1.
       -2   -1    0    0    0  501  0.00000000000E+00  0.00000000000E+00 -0.17050212449E+04  0.17050212449E+04  0.25500000920E-02 0. -1.
    10030    2    1    2    0    0  0.00000000000E+00  0.00000000000E+00 -0.11715851231E+04  0.22384573668E+04  0.19073750765E+04 0.  0.
        4    1    3    3  502    0 -0.48398717171E+03 -0.69519847581E+03 -0.71590622742E+02  0.85010077832E+03  0.12699999809E+01 0.  1.
       -4    1    3    3    0  502  0.48398717171E+03  0.69519847581E+03 -0.10999945003E+04  0.13883565885E+04  0.12699999809E+01 0. -1.
</event>
<event>
 5   0  0.4061125E-05  0.1887950E+04  0.7818609E-02  0.8660878E-01
        4   -1    0    0  501    0  0.00000000000E+00  0.00000000000E+00  0.10255773859E+04  0.10255781722E+04  0.12699999809E+01 0.  1.
       -4   -1    0    0    0  501  0.00000000000E+00  0.00000000000E+00 -0.86886396477E+03  0.86886489293E+03  0.12699999809E+01 0. -1.
    10030    2    1    2    0    0  0.00000000000E+00  0.00000000000E+00  0.15671342112E+03  0.18944430652E+04  0.18879500605E+04 0.  0.
        4    1    3    3  502    0 -0.70381862420E+03  0.50062610318E+03  0.46058682642E+03  0.97884063490E+03  0.12699999809E+01 0.  1.
       -4    1    3    3    0  502  0.70381862420E+03 -0.50062610318E+03 -0.30387340530E+03  0.91560243026E+03  0.12699999809E+01 0. -1.
</event>
<event>
 5   0  0.1118206E-04  0.1892620E+04  0.7818609E-02  0.8658539E-01
        2   -1    0    0  501    0  0.00000000000E+00  0.00000000000E+00  0.18159546066E+04  0.18159546066E+04  0.25500000920E-02 0. -1.
       -2   -1    0    0    0  501  0.00000000000E+00  0.00000000000E+00 -0.49313043149E+03  0.49313043150E+03  0.25500000920E-02 0.  1.
    10030    2    1    2    0    0  0.00000000000E+00  0.00000000000E+00  0.13228241751E+04  0.23090850381E+04  0.18926198548E+04 0.  0.
        1    1    3    3  502    0  0.14698760494E+03 -0.56869850680E+03  0.15666171311E+04  0.16731146354E+04  0.50400001928E-02 0. -1.
       -1    1    3    3    0  502 -0.14698760494E+03  0.56869850680E+03 -0.24379295603E+03  0.63597040268E+03  0.50400001928E-02 0.  1.
</event>
<event>
 5   0  0.1182630E-04  0.1718277E+04  0.7818609E-02  0.8751008E-01
        2   -1    0    0  501    0  0.00000000000E+00  0.00000000000E+00  0.90748364248E+03  0.90748364248E+03  0.25500000920E-02 0. -1.
       -2   -1    0    0    0  501  0.00000000000E+00  0.00000000000E+00 -0.81336923468E+03  0.81336923468E+03  0.25500000920E-02 0.  1.
    10030    2    1    2    0    0  0.00000000000E+00  0.00000000000E+00  0.94114407800E+02  0.17208528772E+04  0.17182773650E+04 0.  0.
        5    1    3    3  502    0 -0.67517037625E+03  0.17937134572E+03  0.54787481641E+03  0.88781643435E+03  0.46999998093E+01 0. -1.
       -5    1    3    3    0  502  0.67517037625E+03 -0.17937134572E+03 -0.45376040861E+03  0.83303644282E+03  0.46999998093E+01 0.  1.
</event>
<event>
 5   0  0.1101678E-04  0.1886171E+04  0.7818609E-02  0.8661771E-01
       -2   -1    0    0    0  501  0.00000000000E+00  0.00000000000E+00  0.52393319060E+03  0.52393319061E+03  0.25500000920E-02 0.  1.
        2   -1    0    0  501    0  0.00000000000E+00  0.00000000000E+00 -0.16975647055E+04  0.16975647055E+04  0.25500000920E-02 0. -1.
    10030    2    1    2    0    0  0.00000000000E+00  0.00000000000E+00 -0.11736315149E+04  0.22214978961E+04  0.18861712461E+04 0.  0.
        4    1    3    3  502    0  0.53301747687E+03  0.29790045534E+03  0.25967794237E+03  0.66354092458E+03  0.12699999809E+01 0.  1.
       -4    1    3    3    0  502 -0.53301747687E+03 -0.29790045534E+03 -0.14333094573E+04  0.15579569716E+04  0.12699999809E+01 0. -1.
</event>
<event>
 5   0  0.5579109E-05  0.1901928E+04  0.7818609E-02  0.8653897E-01
       -1   -1    0    0    0  501  0.00000000000E+00  0.00000000000E+00  0.69685221635E+03  0.69685221637E+03  0.50400001928E-02 0.  1.
        1   -1    0    0  501    0  0.00000000000E+00  0.00000000000E+00 -0.12977389944E+04  0.12977389944E+04  0.50400001928E-02 0. -1.
    10030    2    1    2    0    0  0.00000000000E+00  0.00000000000E+00 -0.60088677808E+03  0.19945912108E+04  0.19019277531E+04 0.  0.
        3    1    3    3  502    0 -0.53548390175E+03  0.31589684370E+03 -0.10550841550E+04  0.12246372562E+04  0.10100000352E+00 0. -1.
       -3    1    3    3    0  502  0.53548390175E+03 -0.31589684370E+03  0.45419737690E+03  0.76995395465E+03  0.10100000352E+00 0.  1.
</event>
<event>
 5   0  0.5579109E-05  0.1903073E+04  0.7818609E-02  0.8653328E-01
       -1   -1    0    0    0  501  0.00000000000E+00  0.00000000000E+00  0.53055690996E+03  0.53055690999E+03  0.50400001928E-02 0. -1.
        1   -1    0    0  501    0  0.00000000000E+00  0.00000000000E+00 -0.17065501144E+04  0.17065501144E+04  0.50400001928E-02 0.  1.
    10030    2    1    2    0    0  0.00000000000E+00  0.00000000000E+00 -0.11759932044E+04  0.22371070244E+04  0.19030732570E+04 0.  0.
        3    1    3    3  502    0  0.79824520754E+03  0.47241600269E+03 -0.33849290457E+03  0.98739543629E+03  0.10100000352E+00 0.  1.
       -3    1    3    3    0  502 -0.79824520754E+03 -0.47241600269E+03 -0.83750029984E+03  0.12497115881E+04  0.10100000352E+00 0. -1.
</event>
<event>
 5   0  0.1133638E-04  0.1918696E+04  0.7818609E-02  0.8645606E-01
        2   -1    0    0  501    0  0.00000000000E+00  0.00000000000E+00  0.15561414778E+04  0.15561414778E+04  0.25500000920E-02 0.  1.
       -2   -1    0    0    0  501  0.00000000000E+00  0.00000000000E+00 -0.59142966863E+03  0.59142966864E+03  0.25500000920E-02 0. -1.
    10030    2    1    2    0    0  0.00000000000E+00  0.00000000000E+00  0.96471180916E+03  0.21475711464E+04  0.19186956388E+04 0.  0.
        3    1    3    3  502    0 -0.83006524868E+03  0.44746295658E+03  0.28491413606E+03  0.98509263002E+03  0.10100000352E+00 0. -1.
       -3    1    3    3    0  502  0.83006524868E+03 -0.44746295658E+03  0.67979767309E+03  0.11624785164E+04  0.10100000352E+00 0.  1.
</event>
<event>
 5   0  0.1101678E-04  0.1884342E+04  0.7818609E-02  0.8662690E-01
       -2   -1    0    0    0  501  0.00000000000E+00  0.00000000000E+00  0.14843270788E+04  0.14843270788E+04  0.25500000920E-02 0.  1.
        2   -1    0    0  501    0  0.00000000000E+00  0.00000000000E+00 -0.59803976737E+03  0.59803976737E+03  0.25500000920E-02 0. -1.
    10030    2    1    2    0    0  0.00000000000E+00  0.00000000000E+00  0.88628731139E+03  0.20823668461E+04  0.18843424539E+04 0.  0.
        4    1    3    3  502    0  0.20626797396E+03 -0.45122801390E+03  0.13282725246E+04  0.14179078638E+04  0.12699999809E+01 0.  1.
       -4    1    3    3    0  502 -0.20626797396E+03  0.45122801390E+03 -0.44198521324E+03  0.66445898235E+03  0.12699999809E+01 0. -1.
</event>
<event>
 5   0  0.5824956E-05  0.1896522E+04  0.7818609E-02  0.8656589E-01
       -1   -1    0    0    0  501  0.00000000000E+00  0.00000000000E+00  0.56596456600E+03  0.56596456602E+03  0.50400001928E-02 0. -1.
        1   -1    0    0  501    0  0.00000000000E+00  0.00000000000E+00 -0.15887909475E+04  0.15887909475E+04  0.50400001928E-02 0.  1.
    10030    2    1    2    0    0  0.00000000000E+00  0.00000000000E+00 -0.10228263815E+04  0.21547555136E+04  0.18965224798E+04 0.  0.
        2    1    3    3  502    0 -0.53852465344E+03  0.40404394088E+03 -0.12701266145E+04  0.14375263216E+04  0.25500000920E-02 0.  1.
       -2    1    3    3    0  502  0.53852465344E+03 -0.40404394088E+03  0.24730023296E+03  0.71722919193E+03  0.25500000920E-02 0. -1.
</event>
<event>
 5   0  0.5841424E-05  0.1842954E+04  0.7818609E-02  0.8683785E-01
       -1   -1    0    0    0  501  0.00000000000E+00  0.00000000000E+00  0.85226639653E+03  0.85226639655E+03  0.50400001928E-02 0.  1.
        1   -1    0    0  501    0  0.00000000000E+00  0.00000000000E+00 -0.99630760494E+03  0.99630760496E+03  0.50400001928E-02 0. -1.
    10030    2    1    2    0    0  0.00000000000E+00  0.00000000000E+00 -0.14404120841E+03  0.18485740015E+04  0.18429535993E+04 0.  0.
        1    1    3    3  502    0  0.30634409997E+02  0.77659226072E+03  0.42455026227E+03  0.88559411228E+03  0.50400001928E-02 0.  1.
       -1    1    3    3    0  502 -0.30634409997E+02 -0.77659226072E+03 -0.56859147068E+03  0.96297988922E+03  0.50400001928E-02 0. -1.
</event>
<event>
 5   0  0.5824956E-05  0.1903297E+04  0.7818609E-02  0.8653217E-01
        1   -1    0    0  501    0  0.00000000000E+00  0.00000000000E+00  0.12149706814E+04  0.12149706814E+04  0.50400001928E-02 0.  1.
       -1   -1    0    0    0  501  0.00000000000E+00  0.00000000000E+00 -0.74539666905E+03  0.74539666907E+03  0.50400001928E-02 0. -1.
    10030    2    1    2    0    0  0.00000000000E+00  0.00000000000E+00  0.46957401235E+03  0.19603673505E+04  0.19032972431E+04 0.  0.
        2    1    3    3  502    0 -0.71052183961E+03 -0.59488725590E+03  0.11722227878E+02  0.92675214725E+03  0.25500000920E-02 0. -1.
       -2    1    3    3    0  502  0.71052183961E+03  0.59488725590E+03  0.45785178447E+03  0.10336152032E+04  0.25500000920E-02 0.  1.
</event>
<event>
 5   0  0.1101678E-04  0.1941827E+04  0.7818609E-02  0.8634312E-01
       -2   -1    0    0    0  501  0.00000000000E+00  0.00000000000E+00  0.11628389227E+04  0.11628389227E+04  0.25500000920E-02 0.  1.
        2   -1    0    0  501    0  0.00000000000E+00  0.00000000000E+00 -0.81066552896E+03  0.81066552896E+03  0.25500000920E-02 0. -1.
    10030    2    1    2    0    0  0.00000000000E+00  0.00000000000E+00  0.35217339373E+03  0.19735044517E+04  0.19418274180E+04 0.  0.
        4    1    3    3  502    0  0.62238426155E+03 -0.73963497705E+03  0.26839650612E+03  0.10032249826E+04  0.12699999809E+01 0.  1.
       -4    1    3    3    0  502 -0.62238426155E+03  0.73963497705E+03  0.83776887609E+02  0.97027946907E+03  0.12699999809E+01 0. -1.
</event>
<event>
 5   0  0.1101678E-04  0.1896752E+04  0.7818609E-02  0.8656475E-01
       -2   -1    0    0    0  501  0.00000000000E+00  0.00000000000E+00  0.15440878371E+04  0.15440878371E+04  0.25500000920E-02 0. -1.
        2   -1    0    0  501    0  0.00000000000E+00  0.00000000000E+00 -0.58249070699E+03  0.58249070699E+03  0.25500000920E-02 0.  1.
    10030    2    1    2    0    0  0.00000000000E+00  0.00000000000E+00  0.96159713008E+03  0.21265785441E+04  0.18967517664E+04 0.  0.
        4    1    3    3  502    0 -0.47117809348E+03 -0.62012576224E+03  0.10875263386E+04  0.13376396775E+04  0.12699999809E+01 0. -1.
       -4    1    3    3    0  502  0.47117809348E+03  0.62012576224E+03 -0.12592920849E+03  0.78893886659E+03  0.12699999809E+01 0.  1.
</event>
<event>
 5   0  0.1182630E-04  0.1859282E+04  0.7818609E-02  0.8675394E-01
        2   -1    0    0  501    0  0.00000000000E+00  0.00000000000E+00  0.14873393898E+04  0.14873393898E+04  0.25500000920E-02 0.  1.
       -2   -1    0    0    0  501  0.00000000000E+00  0.00000000000E+00 -0.58105902501E+03  0.58105902502E+03  0.25500000920E-02 0. -1.
    10030    2    1    2    0    0  0.00000000000E+00  0.00000000000E+00  0.90628036480E+03  0.20683984148E+04  0.18592815556E+04 0.  0.
        5    1    3    3  502    0  0.49257406049E+03  0.78840387670E+03  0.45323871308E+03  0.10342423792E+04  0.46999998093E+01 0.  1.
       -5    1    3    3    0  502 -0.49257406049E+03 -0.78840387670E+03  0.45304165172E+03  0.10341560356E+04  0.46999998093E+01 0. -1.
</event>
<event>
 5   0  0.5579109E-05  0.1900660E+04  0.7818609E-02  0.8654528E-01
       -1   -1    0    0    0  501  0.00000000000E+00  0.00000000000E+00  0.69782161995E+03  0.69782161997E+03  0.50400001928E-02 0. -1.
        1   -1    0    0  501    0  0.00000000000E+00  0.00000000000E+00 -0.12942091058E+04  0.12942091058E+04  0.50400001928E-02 0.  1.
    10030    2    1    2    0    0  0.00000000000E+00  0.00000000000E+00 -0.59638748588E+03  0.19920307258E+04  0.19006599852E+04 0.  0.
        3    1    3    3  502    0 -0.31063152054E+03 -0.37608440324E+02  0.64228520756E+03  0.71444848266E+03  0.10100000352E+00 0. -1.
       -3    1    3    3    0  502  0.31063152054E+03  0.37608440324E+02 -0.12386726934E+04  0.12775822431E+04  0.10100000352E+00 0.  1.
</event>
<event>
 5   0  0.5824956E-05  0.1903208E+04  0.7818609E-02  0.8653261E-01
       -1   -1    0    0    0  501  0.00000000000E+00  0.00000000000E+00  0.72634124746E+03  0.72634124748E+03  0.50400001928E-02 0. -1.
        1   -1    0    0  501    0  0.00000000000E+00  0.00000000000E+00 -0.12467276272E+04  0.12467276273E+04  0.50400001928E-02 0.  1.
    10030    2    1    2    0    0  0.00000000000E+00  0.00000000000E+00 -0.52038637978E+03  0.19730688747E+04  0.19032075032E+04 0.  0.
        2    1    3    3  502    0 -0.19120059699E+03 -0.31446368272E+03 -0.11699618455E+04  0.12264810622E+04  0.25500000920E-02 0.  1.
       -2    1    3    3    0  502  0.19120059699E+03  0.31446368272E+03  0.64957546575E+03  0.74658781249E+03  0.25500000920E-02 0. -1.
</event>
<event>
 5   0  0.1118206E-04  0.1889269E+04  0.7818609E-02  0.8660216E-01
       -2   -1    0    0    0  501  0.00000000000E+00  0.00000000000E+00  0.50832541253E+03  0.50832541253E+03  0.25500000920E-02 0.  1.
        2   -1    0    0  501    0  0.00000000000E+00  0.00000000000E+00 -0.17554388906E+04  0.17554388906E+04  0.25500000920E-02 0. -1.
    10030    2    1    2    0    0  0.00000000000E+00  0.00000000000E+00 -0.12471134780E+04  0.22637643031E+04  0.18892688514E+04 0.  0.
        1    1    3    3  502    0  0.55305458489E+03  0.40072603493E+03  0.15840019399E+03  0.70110010014E+03  0.50400001928E-02 0.  1.
       -1    1    3    3    0  502 -0.55305458489E+03 -0.40072603493E+03 -0.14055136720E+04  0.15626642030E+04  0.50400001928E-02 0. -1.
</event>
<event>
 5   0  0.5614989E-05  0.1899434E+04  0.7818609E-02  0.8655138E-01
       -1   -1    0    0    0  501  0.00000000000E+00  0.00000000000E+00  0.45140893600E+03  0.45140893603E+03  0.50400001928E-02 0. -1.
        1   -1    0    0  501    0  0.00000000000E+00  0.00000000000E+00 -0.19981048144E+04  0.19981048144E+04  0.50400001928E-02 0.  1.
    10030    2    1    2    0    0  0.00000000000E+00  0.00000000000E+00 -0.15466958784E+04  0.24495137504E+04  0.18994339876E+04 0.  0.
        4    1    3    3  502    0  0.39203014586E+03 -0.51034779544E+03 -0.16740573449E+04  0.17934915986E+04  0.12699999809E+01 0.  1.
       -4    1    3    3    0  502 -0.39203014586E+03  0.51034779544E+03  0.12736146649E+03  0.65602215178E+03  0.12699999809E+01 0. -1.
</event>
<event>
 5   0  0.1101678E-04  0.1913912E+04  0.7818609E-02  0.8647962E-01
        2   -1    0    0  501    0  0.00000000000E+00  0.00000000000E+00  0.13548456803E+04  0.13548456803E+04  0.25500000920E-02 0. -1.
       -2   -1    0    0    0  501  0.00000000000E+00  0.00000000000E+00 -0.67591810216E+03  0.67591810217E+03  0.25500000920E-02 0.  1.
    10030    2    1    2    0    0  0.00000000000E+00  0.00000000000E+00  0.67892757816E+03  0.20307637825E+04  0.19139119321E+04 0.  0.
        4    1    3    3  502    0 -0.59968469504E+03  0.69311570703E+03  0.63145995400E+03  0.11130024273E+04  0.12699999809E+01 0. -1.
       -4    1    3    3    0  502  0.59968469504E+03 -0.69311570703E+03  0.47467624159E+02  0.91776135517E+03  0.12699999809E+01 0.  1.
</event>
<event>
 5   0  0.1141890E-04  0.1908217E+04  0.7818609E-02  0.8650777E-01
       -2   -1    0    0    0  501  0.00000000000E+00  0.00000000000E+00  0.64274664429E+03  0.64274664429E+03  0.25500000920E-02 0.  1.
        2   -1    0    0  501    0  0.00000000000E+00  0.00000000000E+00 -0.14163015289E+04  0.14163015289E+04  0.25500000920E-02 0. -1.
    10030    2    1    2    0    0  0.00000000000E+00  0.00000000000E+00 -0.77355488460E+03  0.20590481732E+04  0.19082170264E+04 0.  0.
        2    1    3    3  502    0  0.28569325862E+03  0.87355030460E+03 -0.66317316200E+03  0.11333619967E+04  0.25500000920E-02 0.  1.
       -2    1    3    3    0  502 -0.28569325862E+03 -0.87355030460E+03 -0.11038172260E+03  0.92568617651E+03  0.25500000920E-02 0. -1.
</event>
<event>
 5   0  0.5841424E-05  0.1904374E+04  0.7818609E-02  0.8652682E-01
       -1   -1    0    0    0  501  0.00000000000E+00  0.00000000000E+00  0.35048806336E+03  0.35048806339E+03  0.50400001928E-02 0.  1.
        1   -1    0    0  501    0  0.00000000000E+00  0.00000000000E+00 -0.25868505395E+04  0.25868505395E+04  0.50400001928E-02 0. -1.
    10030    2    1    2    0    0  0.00000000000E+00  0.00000000000E+00 -0.22363624762E+04  0.29373386029E+04  0.19043741606E+04 0.  0.
        1    1    3    3  502    0  0.74061776303E+03 -0.38391492609E+03 -0.41008780399E+03  0.92955760897E+03  0.50400001928E-02 0.  1.
       -1    1    3    3    0  502 -0.74061776303E+03  0.38391492609E+03 -0.18262746722E+04  0.20077809940E+04  0.50400001928E-02 0. -1.
</event>
<event>
 5   0  0.1101678E-04  0.1883555E+04  0.7818609E-02  0.8663086E-01
       -2   -1    0    0    0  501  0.00000000000E+00  0.00000000000E+00  0.58026345299E+03  0.58026345299E+03  0.25500000920E-02 0.  1.
        2   -1    0    0  501    0  0.00000000000E+00  0.00000000000E+00 -0.15285211120E+04  0.15285211120E+04  0.25500000920E-02 0. -1.
    10030    2    1    2    0    0  0.00000000000E+00  0.00000000000E+00 -0.94825765901E+03  0.21087845650E+04  0.18835550838E+04 0.  0.
        4    1    3    3  502    0  0.62758427962E+03  0.33779352079E+03  0.21509489889E+03  0.74446888393E+03  0.12699999809E+01 0.  1.
       -4    1    3    3    0  502 -0.62758427962E+03 -0.33779352079E+03 -0.11633525579E+04  0.13643156811E+04  0.12699999809E+01 0. -1.
</event>
<event>
 5   0  0.5579109E-05  0.1898322E+04  0.7818609E-02  0.8655692E-01
        1   -1    0    0  501    0  0.00000000000E+00  0.00000000000E+00  0.12807219940E+04  0.12807219940E+04  0.50400001928E-02 0.  1.
       -1   -1    0    0    0  501  0.00000000000E+00  0.00000000000E+00 -0.70343659864E+03  0.70343659866E+03  0.50400001928E-02 0. -1.
    10030    2    1    2    0    0  0.00000000000E+00  0.00000000000E+00  0.57728539533E+03  0.19841585926E+04  0.18983221257E+04 0.  0.
        3    1    3    3  502    0  0.56464663861E+03  0.53555360857E+03 -0.27930866713E+03  0.82683543458E+03  0.10100000352E+00 0. -1.
       -3    1    3    3    0  502 -0.56464663861E+03 -0.53555360857E+03  0.85659406246E+03  0.11573231581E+04  0.10100000352E+00 0.  1.
</event>
<event>
 5   0  0.1182630E-04  0.1900979E+04  0.7818609E-02  0.8654369E-01
       -2   -1    0    0    0  501  0.00000000000E+00  0.00000000000E+00  0.15853792516E+04  0.15853792516E+04  0.25500000920E-02 0.  1.
        2   -1    0    0  501    0  0.00000000000E+00  0.00000000000E+00 -0.56985150940E+03  0.56985150940E+03  0.25500000920E-02 0. -1.
    10030    2    1    2    0    0  0.00000000000E+00  0.00000000000E+00  0.10155277422E+04  0.21552307610E+04  0.19009794943E+04 0.  0.
        5    1    3    3  502    0 -0.27599031398E+03 -0.79102788712E+03  0.10167052580E+04  0.13174245494E+04  0.46999998093E+01 0.  1.
       -5    1    3    3    0  502  0.27599031398E+03  0.79102788712E+03 -0.11775158816E+01  0.83780621157E+03  0.46999998093E+01 0. -1.
</event>
<event>
 5   0  0.1182630E-04  0.1889531E+04  0.7818609E-02  0.8660085E-01
       -2   -1    0    0    0  501  0.00000000000E+00  0.00000000000E+00  0.92924045923E+03  0.92924045923E+03  0.25500000920E-02 0. -1.
        2   -1    0    0  501    0  0.00000000000E+00  0.00000000000E+00 -0.96054956355E+03  0.96054956355E+03  0.25500000920E-02 0.  1.
    10030    2    1    2    0    0  0.00000000000E+00  0.00000000000E+00 -0.31309104319E+02  0.18897900228E+04  0.18895306481E+04 0.  0.
        5    1    3    3  502    0  0.82013934964E+02  0.76623610363E+03  0.53096907530E+03  0.93583882210E+03  0.46999998093E+01 0. -1.
       -5    1    3    3    0  502 -0.82013934964E+02 -0.76623610363E+03 -0.56227817962E+03  0.95395120069E+03  0.46999998093E+01 0.  1.
</event>
<event>
 5   0  0.1118206E-04  0.1898691E+04  0.7818609E-02  0.8655508E-01
        2   -1    0    0  501    0  0.00000000000E+00  0.00000000000E+00  0.20285725382E+04  0.20285725382E+04  0.25500000920E-02 0.  1.
       -2   -1    0    0    0  501  0.00000000000E+00  0.00000000000E+00 -0.44428140403E+03  0.44428140404E+03  0.25500000920E-02 0. -1.
    10030    2    1    2    0    0  0.00000000000E+00  0.00000000000E+00  0.15842911342E+04  0.24728539423E+04  0.18986911866E+04 0.  0.
        1    1    3    3  502    0 -0.56747567819E+03 -0.71072862778E+03  0.43763156859E+03  0.10092993696E+04  0.50400001928E-02 0. -1.
       -1    1    3    3    0  502  0.56747567819E+03  0.71072862778E+03  0.11466595656E+04  0.14635545726E+04  0.50400001928E-02 0.  1.
</event>
<event>
 5   0  0.5614989E-05  0.1886660E+04  0.7818609E-02  0.8661525E-01
        1   -1    0    0  501    0  0.00000000000E+00  0.00000000000E+00  0.85512756731E+03  0.85512756732E+03  0.50400001928E-02 0. -1.
       -1   -1    0    0    0  501  0.00000000000E+00  0.00000000000E+00 -0.10406299477E+04  0.10406299477E+04  0.50400001928E-02 0.  1.
    10030    2    1    2    0    0  0.00000000000E+00  0.00000000000E+00 -0.18550238037E+03  0.18957575150E+04  0.18866598587E+04 0.  0.
        4    1    3    3  502    0 -0.44575566190E+03  0.70437066189E+02 -0.92512379479E+03  0.10293275179E+04  0.12699999809E+01 0.  1.
       -4    1    3    3    0  502  0.44575566190E+03 -0.70437066189E+02  0.73962141442E+03  0.86642999716E+03  0.12699999809E+01 0. -1.
</event>
<event>
 5   0  0.5579109E-05  0.1899930E+04  0.7818609E-02  0.8654891E-01
       -1   -1    0    0    0  501  0.00000000000E+00  0.00000000000E+00  0.45946466439E+03  0.45946466442E+03  0.50400001928E-02 0. -1.
        1   -1    0    0  501    0  0.00000000000E+00  0.00000000000E+00 -0.19640980017E+04  0.19640980017E+04  0.50400001928E-02 0.  1.
    10030    2    1    2    0    0  0.00000000000E+00  0.00000000000E+00 -0.15046333373E+04  0.24235626661E+04  0.18999301347E+04 0.  0.
        3    1    3    3  502    0 -0.22216292347E+03  0.84289943257E+03 -0.12340126652E+04  0.15108352279E+04  0.10100000352E+00 0.  1.
       -3    1    3    3    0  502  0.22216292347E+03 -0.84289943257E+03 -0.27062067212E+03  0.91272743816E+03  0.10100000352E+00 0. -1.
</event>
<event>
 5   0  0.5579109E-05  0.1726858E+04  0.7818609E-02  0.8746193E-01
        1   -1    0    0  501    0  0.00000000000E+00  0.00000000000E+00  0.63090646556E+03  0.63090646558E+03  0.50400001928E-02 0.  1.
       -1   -1    0    0    0  501  0.00000000000E+00  0.00000000000E+00 -0.11816478411E+04  0.11816478411E+04  0.50400001928E-02 0. -1.
    10030    2    1    2    0    0  0.00000000000E+00  0.00000000000E+00 -0.55074137556E+03  0.18125543067E+04  0.17268575656E+04 0.  0.
        3    1    3    3  502    0  0.59932953938E+03 -0.11709225517E+03 -0.91607484738E+03  0.11009539632E+04  0.10100000352E+00 0. -1.
       -3    1    3    3    0  502 -0.59932953938E+03  0.11709225517E+03  0.36533347181E+03  0.71160034347E+03  0.10100000352E+00 0.  1.
</event>
<event>
 5   0  0.1101678E-04  0.1902509E+04  0.7818609E-02  0.8653609E-01
        2   -1    0    0  501    0  0.00000000000E+00  0.00000000000E+00  0.17338647958E+04  0.17338647958E+04  0.25500000920E-02 0. -1.
       -2   -1    0    0    0  501  0.00000000000E+00  0.00000000000E+00 -0.52188896640E+03  0.52188896641E+03  0.25500000920E-02 0.  1.
    10030    2    1    2    0    0  0.00000000000E+00  0.00000000000E+00  0.12119758294E+04  0.22557537622E+04  0.19025087712E+04 0.  0.
        4    1    3    3  502    0  0.93937874237E+03  0.11805196915E+03  0.49658037412E+03  0.10690941820E+04  0.12699999809E+01 0. -1.
       -4    1    3    3    0  502 -0.93937874237E+03 -0.11805196915E+03  0.71539545524E+03  0.11866595802E+04  0.12699999809E+01 0.  1.
</event>
<event>
 5   0  0.4061125E-05  0.1899171E+04  0.7818609E-02  0.8655269E-01
       -3   -1    0    0    0  501  0.00000000000E+00  0.00000000000E+00  0.75311859467E+03  0.75311860144E+03  0.10100000352E+00 0. -1.
        3   -1    0    0  501    0  0.00000000000E+00  0.00000000000E+00 -0.11973047702E+04  0.11973047744E+04  0.10100000352E+00 0.  1.
    10030    2    1    2    0    0  0.00000000000E+00  0.00000000000E+00 -0.44418617549E+03  0.19504233759E+04  0.18991708682E+04 0.  0.
        2    1    3    3  502    0  0.96872516526E+02 -0.59197023615E+03 -0.97809728942E+03  0.11473828274E+04  0.25500000920E-02 0.  1.
       -2    1    3    3    0  502 -0.96872516526E+02  0.59197023615E+03  0.53391111393E+03  0.80304054850E+03  0.25500000920E-02 0. -1.
</event>
<event>
 5   0  0.5841424E-05  0.1882836E+04  0.7818609E-02  0.8663448E-01
       -1   -1    0    0    0  501  0.00000000000E+00  0.00000000000E+00  0.81619146557E+03  0.81619146558E+03  0.50400001928E-02 0.  1.
        1   -1    0    0  501    0  0.00000000000E+00  0.00000000000E+00 -0.10858574339E+04  0.10858574340E+04  0.50400001928E-02 0. -1.
    10030    2    1    2    0    0  0.00000000000E+00  0.00000000000E+00 -0.26966596838E+03  0.19020488995E+04  0.18828357023E+04 0.  0.
        1    1    3    3  502    0 -0.79630304210E+03  0.46071050930E+03  0.66992763569E+02  0.92241028757E+03  0.50400001928E-02 0.  1.
       -1    1    3    3    0  502  0.79630304210E+03 -0.46071050930E+03 -0.33665873194E+03  0.97963861196E+03  0.50400001928E-02 0. -1.
</event>
<event>
 5   0  0.5824956E-05  0.1902436E+04  0.7818609E-02  0.8653645E-01
       -1   -1    0    0    0  501  0.00000000000E+00  0.00000000000E+00  0.86153291138E+03  0.86153291140E+03  0.50400001928E-02 0. -1.
        1   -1    0    0  501    0  0.00000000000E+00  0.00000000000E+00 -0.10502393610E+04  0.10502393610E+04  0.50400001928E-02 0.  1.
    10030    2    1    2    0    0  0.00000000000E+00  0.00000000000E+00 -0.18870644960E+03  0.19117722724E+04  0.19024360955E+04 0.  0.
        2    1    3    3  502    0  0.10685258776E+03  0.27173134559E+03  0.81538523939E+03  0.86608803727E+03  0.25500000920E-02 0. -1.
       -2    1    3    3    0  502 -0.10685258776E+03 -0.27173134559E+03 -0.10040916890E+04  0.10456842351E+04  0.25500000920E-02 0.  1.
</event>
<event>
 5   0  0.1133638E-04  0.1890192E+04  0.7818609E-02  0.8659754E-01
        2   -1    0    0  501    0  0.00000000000E+00  0.00000000000E+00  0.21471884180E+04  0.21471884180E+04  0.25500000920E-02 0. -1.
       -2   -1    0    0    0  501  0.00000000000E+00  0.00000000000E+00 -0.41598864371E+03  0.41598864372E+03  0.25500000920E-02 0.  1.
    10030    2    1    2    0    0  0.00000000000E+00  0.00000000000E+00  0.17311997742E+04  0.25631770617E+04  0.18901915224E+04 0.  0.
        3    1    3    3  502    0  0.59083415936E+03 -0.61388975687E+03  0.31101338193E+03  0.90701431708E+03  0.10100000352E+00 0.  1.
       -3    1    3    3    0  502 -0.59083415936E+03  0.61388975687E+03  0.14201863923E+04  0.16561627446E+04  0.10100000352E+00 0. -1.
</event>
<event>
 5   0  0.1101678E-04  0.1895975E+04  0.7818609E-02  0.8656863E-01
       -2   -1    0    0    0  501  0.00000000000E+00  0.00000000000E+00  0.60963305556E+03  0.60963305556E+03  0.25500000920E-02 0. -1.
        2   -1    0    0  501    0  0.00000000000E+00  0.00000000000E+00 -0.14741325636E+04  0.14741325636E+04  0.25500000920E-02 0.  1.
    10030    2    1    2    0    0  0.00000000000E+00  0.00000000000E+00 -0.86449950803E+03  0.20837656192E+04  0.18959746191E+04 0.  0.
        4    1    3    3  502    0 -0.78943402406E+03  0.30875552205E+03  0.34220732198E+02  0.84835648294E+03  0.12699999809E+01 0. -1.
       -4    1    3    3    0  502  0.78943402406E+03 -0.30875552205E+03 -0.89872024023E+03  0.12354091362E+04  0.12699999809E+01 0.  1.
</event>
<event>
 5   0  0.1118206E-04  0.1948633E+04  0.7818609E-02  0.8631020E-01
       -2   -1    0    0    0  501  0.00000000000E+00  0.00000000000E+00  0.77254481738E+03  0.77254481739E+03  0.25500000920E-02 0. -1.
        2   -1    0    0  501    0  0.00000000000E+00  0.00000000000E+00 -0.12287865295E+04  0.12287865295E+04  0.25500000920E-02 0.  1.
    10030    2    1    2    0    0  0.00000000000E+00  0.00000000000E+00 -0.45624171213E+03  0.20013313469E+04  0.19486330235E+04 0.  0.
        1    1    3    3  502    0  0.61458737694E+03  0.66826429529E+03  0.13499082147E+03  0.91788743000E+03  0.50400001928E-02 0. -1.
       -1    1    3    3    0  502 -0.61458737694E+03 -0.66826429529E+03 -0.59123253359E+03  0.10834439169E+04  0.50400001928E-02 0.  1.
</event>
<event>
 5   0  0.1133638E-04  0.1883304E+04  0.7818609E-02  0.8663212E-01
       -2   -1    0    0    0  501  0.00000000000E+00  0.00000000000E+00  0.60564472199E+03  0.60564472199E+03  0.25500000920E-02 0. -1.
        2   -1    0    0  501    0  0.00000000000E+00  0.00000000000E+00 -0.14640729193E+04  0.14640729193E+04  0.25500000920E-02 0.  1.
    10030    2    1    2    0    0  0.00000000000E+00  0.00000000000E+00 -0.85842819733E+03  0.20697176413E+04  0.18833035190E+04 0.  0.
        3    1    3    3  502    0 -0.37651623691E+03  0.37812042861E+03  0.42344938297E+03  0.68121136612E+03  0.10100000352E+00 0. -1.
       -3    1    3    3    0  502  0.37651623691E+03 -0.37812042861E+03 -0.12818775803E+04  0.13885062752E+04  0.10100000352E+00 0.  1.
</event>
<event>
 5   0  0.5628936E-05  0.1895310E+04  0.7818609E-02  0.8657194E-01
        1   -1    0    0  501    0  0.00000000000E+00  0.00000000000E+00  0.60922204301E+03  0.60922204304E+03  0.50400001928E-02 0.  1.
       -1   -1    0    0    0  501  0.00000000000E+00  0.00000000000E+00 -0.14740935294E+04  0.14740935294E+04  0.50400001928E-02 0. -1.
    10030    2    1    2    0    0  0.00000000000E+00  0.00000000000E+00 -0.86487148641E+03  0.20833155725E+04  0.18953102877E+04 0.  0.
        5    1    3    3  502    0  0.18003053741E+03  0.69112629899E+03  0.25221506581E+03  0.75743058096E+03  0.46999998093E+01 0.  1.
       -5    1    3    3    0  502 -0.18003053741E+03 -0.69112629899E+03 -0.11170865522E+04  0.13258849915E+04  0.46999998093E+01 0. -1.
</event>
<event>
 5   0  0.5614989E-05  0.1892488E+04  0.7818609E-02  0.8658605E-01
       -1   -1    0    0    0  501  0.00000000000E+00  0.00000000000E+00  0.13123833464E+04  0.13123833464E+04  0.50400001928E-02 0. -1.
        1   -1    0    0  501    0  0.00000000000E+00  0.00000000000E+00 -0.68225284225E+03  0.68225284227E+03  0.50400001928E-02 0.  1.
    10030    2    1    2    0    0  0.00000000000E+00  0.00000000000E+00  0.63013050417E+03  0.19946361887E+04  0.18924875358E+04 0.  0.
        4    1    3    3  502    0 -0.92633937291E+03  0.82388600642E+02  0.49908334130E+03  0.10554517089E+04  0.12699999809E+01 0. -1.
       -4    1    3    3    0  502  0.92633937291E+03 -0.82388600642E+02  0.13104716287E+03  0.93918447981E+03  0.12699999809E+01 0.  1.
</event>
<event>
 5   0  0.5628936E-05  0.1876412E+04  0.7818609E-02  0.8666688E-01
       -1   -1    0    0    0  501  0.00000000000E+00  0.00000000000E+00  0.18344191289E+04  0.18344191289E+04  0.50400001928E-02 0.  1.
        1   -1    0    0  501    0  0.00000000000E+00  0.00000000000E+00 -0.47984140034E+03  0.47984140037E+03  0.50400001928E-02 0. -1.
    10030    2    1    2    0    0  0.00000000000E+00  0.00000000000E+00  0.13545777286E+04  0.23142605293E+04  0.18764117285E+04 0.  0.
        5    1    3    3  502    0  0.26504112316E+02  0.65038370839E+03  0.15106009793E+04  0.16448826234E+04  0.46999998093E+01 0.  1.
       -5    1    3    3    0  502 -0.26504112316E+02 -0.65038370839E+03 -0.15602325074E+03  0.66937790588E+03  0.46999998093E+01 0. -1.
</event>
<event>
 5   0  0.5579109E-05  0.1905720E+04  0.7818609E-02  0.8652014E-01
       -1   -1    0    0    0  501  0.00000000000E+00  0.00000000000E+00  0.10400146028E+04  0.10400146028E+04  0.50400001928E-02 0.  1.
        1   -1    0    0  501    0  0.00000000000E+00  0.00000000000E+00 -0.87300927342E+03  0.87300927344E+03  0.50400001928E-02 0. -1.
    10030    2    1    2    0    0  0.00000000000E+00  0.00000000000E+00  0.16700532940E+03  0.19130238763E+04  0.19057202237E+04 0.  0.
        3    1    3    3  502    0  0.31966338498E+03  0.28787966861E+03 -0.76998107846E+03  0.88200354573E+03  0.10100000352E+00 0. -1.
       -3    1    3    3    0  502 -0.31966338498E+03 -0.28787966861E+03  0.93698640786E+03  0.10310203305E+04  0.10100000352E+00 0.  1.
</event>
<event>
 5   0  0.1101678E-04  0.1770654E+04  0.7818609E-02  0.8722063E-01
        2   -1    0    0  501    0  0.00000000000E+00  0.00000000000E+00  0.61623389008E+03  0.61623389009E+03  0.25500000920E-02 0.  1.
       -2   -1    0    0    0  501  0.00000000000E+00  0.00000000000E+00 -0.12719255303E+04  0.12719255303E+04  0.25500000920E-02 0. -1.
    10030    2    1    2    0    0  0.00000000000E+00  0.00000000000E+00 -0.65569164023E+03  0.18881594204E+04  0.17706536843E+04 0.  0.
        4    1    3    3  502    0 -0.43129181517E+03  0.53817918497E+03 -0.91979974972E+03  0.11496445787E+04  0.12699999809E+01 0. -1.
       -4    1    3    3    0  502  0.43129181517E+03 -0.53817918497E+03  0.26410810948E+03  0.73851484166E+03  0.12699999809E+01 0.  1.
</event>
<event>
 5   0  0.1118206E-04  0.1897571E+04  0.7818609E-02  0.8656066E-01
        2   -1    0    0  501    0  0.00000000000E+00  0.00000000000E+00  0.11385840303E+04  0.11385840303E+04  0.25500000920E-02 0.  1.
       -2   -1    0    0    0  501  0.00000000000E+00  0.00000000000E+00 -0.79062610549E+03  0.79062610550E+03  0.25500000920E-02 0. -1.
    10030    2    1    2    0    0  0.00000000000E+00  0.00000000000E+00  0.34795792484E+03  0.19292101358E+04  0.18975713506E+04 0.  0.
        1    1    3    3  502    0  0.71774442545E+03  0.35872228194E+03 -0.34077862699E+03  0.87176189895E+03  0.50400001928E-02 0. -1.
       -1    1    3    3    0  502 -0.71774442545E+03 -0.35872228194E+03  0.68873655183E+03  0.10574482369E+04  0.50400001928E-02 0.  1.
</event>
<event>
 5   0  0.1141890E-04  0.1910132E+04  0.7818609E-02  0.8649830E-01
        2   -1    0    0  501    0  0.00000000000E+00  0.00000000000E+00  0.73586268357E+03  0.73586268357E+03  0.25500000920E-02 0.  1.
       -2   -1    0    0    0  501  0.00000000000E+00  0.00000000000E+00 -0.12395666103E+04  0.12395666103E+04  0.25500000920E-02 0. -1.
    10030    2    1    2    0    0  0.00000000000E+00  0.00000000000E+00 -0.50370392676E+03  0.19754292939E+04  0.19101317361E+04 0.  0.
        2    1    3    3  502    0  0.36976071203E+03 -0.53373576899E+03 -0.97619044946E+03  0.11724097615E+04  0.25500000920E-02 0. -1.
       -2    1    3    3    0  502 -0.36976071203E+03  0.53373576899E+03  0.47248652270E+03  0.80301953239E+03  0.25500000920E-02 0.  1.
</event>
<event>
 5   0  0.5579109E-05  0.1828108E+04  0.7818609E-02  0.8691493E-01
       -1   -1    0    0    0  501  0.00000000000E+00  0.00000000000E+00  0.60463151324E+03  0.60463151326E+03  0.50400001928E-02 0.  1.
        1   -1    0    0  501    0  0.00000000000E+00  0.00000000000E+00 -0.13818240265E+04  0.13818240265E+04  0.50400001928E-02 0. -1.
    10030    2    1    2    0    0  0.00000000000E+00  0.00000000000E+00 -0.77719251327E+03  0.19864555398E+04  0.18281076032E+04 0.  0.
        3    1    3    3  502    0 -0.17561863812E+03 -0.50087304298E+03 -0.11972175827E+04  0.13095975190E+04  0.10100000352E+00 0. -1.
       -3    1    3    3    0  502  0.17561863812E+03  0.50087304298E+03  0.42002506939E+03  0.67685802082E+03  0.10100000352E+00 0.  1.
</event>
<event>
 5   0  0.1133638E-04  0.1899314E+04  0.7818609E-02  0.8655198E-01
        2   -1    0    0  501    0  0.00000000000E+00  0.00000000000E+00  0.11812945337E+04  0.11812945337E+04  0.25500000920E-02 0.  1.
       -2   -1    0    0    0  501  0.00000000000E+00  0.00000000000E+00 -0.76344050460E+03  0.76344050460E+03  0.25500000920E-02 0. -1.
    10030    2    1    2    0    0  0.00000000000E+00  0.00000000000E+00  0.41785402909E+03  0.19447350383E+04  0.18993136601E+04 0.  0.
        3    1    3    3  502    0 -0.67088014796E+03  0.67201822534E+03  0.22185498852E+03  0.97514527853E+03  0.10100000352E+00 0.  1.
       -3    1    3    3    0  502  0.67088014796E+03 -0.67201822534E+03  0.19599904057E+03  0.96958975975E+03  0.10100000352E+00 0. -1.
</event>
<event>
 5   0  0.1182630E-04  0.1898334E+04  0.7818609E-02  0.8655686E-01
       -2   -1    0    0    0  501  0.00000000000E+00  0.00000000000E+00  0.60646914741E+03  0.60646914742E+03  0.25500000920E-02 0.  1.
        2   -1    0    0  501    0  0.00000000000E+00  0.00000000000E+00 -0.14855128052E+04  0.14855128052E+04  0.25500000920E-02 0. -1.
    10030    2    1    2    0    0  0.00000000000E+00  0.00000000000E+00 -0.87904365783E+03  0.20919819527E+04  0.18983336740E+04 0.  0.
        5    1    3    3  502    0  0.32345507347E+03  0.85052139224E+03 -0.14200827290E+03  0.92097679818E+03  0.46999998093E+01 0. -1.
       -5    1    3    3    0  502 -0.32345507347E+03 -0.85052139224E+03 -0.73703538493E+03  0.11710051545E+04  0.46999998093E+01 0.  1.
</event>
<event>
 5   0  0.1118206E-04  0.1911490E+04  0.7818609E-02  0.8649158E-01
        2   -1    0    0  501    0  0.00000000000E+00  0.00000000000E+00  0.74706978966E+03  0.74706978966E+03  0.25500000920E-02 0.  1.
       -2   -1    0    0    0  501  0.00000000000E+00  0.00000000000E+00 -0.12227079458E+04  0.12227079458E+04  0.25500000920E-02 0. -1.
    10030    2    1    2    0    0  0.00000000000E+00  0.00000000000E+00 -0.47563815615E+03  0.19697777355E+04  0.19114896473E+04 0.  0.
        1    1    3    3  502    0  0.28249112786E+03  0.46349833092E+03 -0.10484555157E+04  0.11806315719E+04  0.50400001928E-02 0. -1.
       -1    1    3    3    0  502 -0.28249112786E+03 -0.46349833092E+03  0.57281735956E+03  0.78914616360E+03  0.50400001928E-02 0.  1.
</event>
<event>
 5   0  0.5579109E-05  0.1907542E+04  0.7818609E-02  0.8651111E-01
       -1   -1    0    0    0  501  0.00000000000E+00  0.00000000000E+00  0.30770086250E+03  0.30770086254E+03  0.50400001928E-02 0. -1.
        1   -1    0    0  501    0  0.00000000000E+00  0.00000000000E+00 -0.29563763092E+04  0.29563763092E+04  0.50400001928E-02 0.  1.
    10030    2    1    2    0    0  0.00000000000E+00  0.00000000000E+00 -0.26486754467E+04  0.32640771718E+04  0.19075424402E+04 0.  0.
        3    1    3    3  502    0 -0.43082810860E+02  0.35488410467E+03 -0.28373987615E+04  0.28598305192E+04  0.10100000352E+00 0.  1.
       -3    1    3    3    0  502  0.43082810860E+02 -0.35488410467E+03  0.18872331483E+03  0.40424665255E+03  0.10100000352E+00 0. -1.
</event>
<event>
 5   0  0.5614989E-05  0.1900250E+04  0.7818609E-02  0.8654732E-01
       -1   -1    0    0    0  501  0.00000000000E+00  0.00000000000E+00  0.50024681051E+03  0.50024681053E+03  0.50400001928E-02 0.  1.
        1   -1    0    0  501    0  0.00000000000E+00  0.00000000000E+00 -0.18045839131E+04  0.18045839131E+04  0.50400001928E-02 0. -1.
    10030    2    1    2    0    0  0.00000000000E+00  0.00000000000E+00 -0.13043371025E+04  0.23048307236E+04  0.19002498224E+04 0.  0.
        4    1    3    3  502    0  0.22814934567E+03 -0.87200976429E+03 -0.10166121420E+04  0.13586592704E+04  0.12699999809E+01 0.  1.
       -4    1    3    3    0  502 -0.22814934567E+03  0.87200976429E+03 -0.28772496052E+03  0.94617145315E+03  0.12699999809E+01 0. -1.
</event>
<event>
 5   0  0.5628936E-05  0.1905532E+04  0.7818609E-02  0.8652108E-01
       -1   -1    0    0    0  501  0.00000000000E+00  0.00000000000E+00  0.12388471079E+04  0.12388471079E+04  0.50400001928E-02 0.  1.
        1   -1    0    0  501    0  0.00000000000E+00  0.00000000000E+00 -0.73274788321E+03  0.73274788323E+03  0.50400001928E-02 0. -1.
    10030    2    1    2    0    0  0.00000000000E+00  0.00000000000E+00  0.50609922470E+03  0.19715949912E+04  0.19055315227E+04 0.  0.
        5    1    3    3  502    0 -0.37882530284E+03 -0.57117477725E+03 -0.43170394257E+03  0.81002445658E+03  0.46999998093E+01 0. -1.
       -5    1    3    3    0  502  0.37882530284E+03  0.57117477725E+03  0.93780316727E+03  0.11615705346E+04  0.46999998093E+01 0.  1.
</event>
<event>
 5   0  0.1101678E-04  0.1926890E+04  0.7818609E-02  0.8641586E-01
        2   -1    0    0  501    0  0.00000000000E+00  0.00000000000E+00  0.11193444191E+04  0.11193444191E+04  0.25500000920E-02 0.  1.
       -2   -1    0    0    0  501  0.00000000000E+00  0.00000000000E+00 -0.82925923924E+03  0.82925923924E+03  0.25500000920E-02 0. -1.
    10030    2    1    2    0    0  0.00000000000E+00  0.00000000000E+00  0.29008517988E+03  0.19486036584E+04  0.19268904499E+04 0.  0.
        4    1    3    3  502    0 -0.25376473454E+03  0.40455315237E+01 -0.79484551104E+03  0.83438235008E+03  0.12699999809E+01 0. -1.
       -4    1    3    3    0  502  0.25376473454E+03 -0.40455315237E+01  0.10849306909E+04  0.11142213083E+04  0.12699999809E+01 0.  1.
</event>
<event>
 5   0  0.1182630E-04  0.1901161E+04  0.7818609E-02  0.8654279E-01
        2   -1    0    0  501    0  0.00000000000E+00  0.00000000000E+00  0.21321564926E+04  0.21321564926E+04  0.25500000920E-02 0. -1.
       -2   -1    0    0    0  501  0.00000000000E+00  0.00000000000E+00 -0.42379784974E+03  0.42379784974E+03  0.25500000920E-02 0.  1.
    10030    2    1    2    0    0  0.00000000000E+00  0.00000000000E+00  0.17083586429E+04  0.25559543424E+04  0.19011610525E+04 0.  0.
        5    1    3    3  502    0 -0.46595291033E+03 -0.10291299243E+03 -0.25109060560E+03  0.53923258514E+03  0.46999998093E+01 0.  1.
       -5    1    3    3    0  502  0.46595291033E+03  0.10291299243E+03  0.19594492485E+04  0.20167217572E+04  0.46999998093E+01 0. -1.
</event>
<event>
 5   0  0.1141890E-04  0.1907690E+04  0.7818609E-02  0.8651038E-01
       -2   -1    0    0    0  501  0.00000000000E+00  0.00000000000E+00  0.98486156985E+03  0.98486156985E+03  0.25500000920E-02 0. -1.
        2   -1    0    0  501    0  0.00000000000E+00  0.00000000000E+00 -0.92380506624E+03  0.92380506624E+03  0.25500000920E-02 0.  1.
    10030    2    1    2    0    0  0.00000000000E+00  0.00000000000E+00  0.61056503608E+02  0.19086666361E+04  0.19076898152E+04 0.  0.
        2    1    3    3  502    0  0.81258811851E+03  0.47177962776E+03 -0.13370402580E+03  0.94907967739E+03  0.25500000920E-02 0. -1.
       -2    1    3    3    0  502 -0.81258811851E+03 -0.47177962776E+03  0.19476052941E+03  0.95958695871E+03  0.25500000920E-02 0.  1.
</event>
<event>
 5   0  0.1133638E-04  0.1964322E+04  0.7818609E-02  0.8623485E-01
       -2   -1    0    0    0  501  0.00000000000E+00  0.00000000000E+00  0.82540279640E+03  0.82540279641E+03  0.25500000920E-02 0.  1.
        2   -1    0    0  501    0  0.00000000000E+00  0.00000000000E+00 -0.11686901006E+04  0.11686901006E+04  0.25500000920E-02 0. -1.
    10030    2    1    2    0    0  0.00000000000E+00  0.00000000000E+00 -0.34328730415E+03  0.19940928970E+04  0.19643218444E+04 0.  0.
        3    1    3    3  502    0  0.84476815120E+03  0.36890280383E+03 -0.51577634774E+03  0.10562896189E+04  0.10100000352E+00 0. -1.
       -3    1    3    3    0  502 -0.84476815120E+03 -0.36890280383E+03  0.17248904359E+03  0.93780327804E+03  0.10100000352E+00 0.  1.
</event>
<event>
 5   0  0.1141890E-04  0.1897766E+04  0.7818609E-02  0.8655969E-01
       -2   -1    0    0    0  501  0.00000000000E+00  0.00000000000E+00  0.73723863859E+03  0.73723863859E+03  0.25500000920E-02 0. -1.
        2   -1    0    0  501    0  0.00000000000E+00  0.00000000000E+00 -0.12212858733E+04  0.12212858733E+04  0.25500000920E-02 0.  1.
    10030    2    1    2    0    0  0.00000000000E+00  0.00000000000E+00 -0.48404723471E+03  0.19585245119E+04  0.18977661969E+04 0.  0.
        2    1    3    3  502    0  0.48741932571E+03 -0.76043128564E+03 -0.54210034247E+03  0.10534258970E+04  0.25500000920E-02 0.  1.
       -2    1    3    3    0  502 -0.48741932571E+03  0.76043128564E+03  0.58053107761E+02  0.90509861484E+03  0.25500000920E-02 0. -1.
</event>
<event>
 5   0  0.1133638E-04  0.1833336E+04  0.7818609E-02  0.8688770E-01
        2   -1    0    0  501    0  0.00000000000E+00  0.00000000000E+00  0.87470957053E+03  0.87470957054E+03  0.25500000920E-02 0. -1.
       -2   -1    0    0    0  501  0.00000000000E+00  0.00000000000E+00 -0.96063862483E+03  0.96063862483E+03  0.25500000920E-02 0.  1.
    10030    2    1    2    0    0  0.00000000000E+00  0.00000000000E+00 -0.85929054298E+02  0.18353481954E+04  0.18333355383E+04 0.  0.
        3    1    3    3  502    0  0.43680285901E+02 -0.65908974038E+03  0.59332156723E+03  0.88788385816E+03  0.10100000352E+00 0. -1.
       -3    1    3    3    0  502 -0.43680285901E+02  0.65908974038E+03 -0.67925062152E+03  0.94746433721E+03  0.10100000352E+00 0.  1.
</event>
<event>
 5   0  0.1133638E-04  0.1906189E+04  0.7818609E-02  0.8651782E-01
        2   -1    0    0  501    0  0.00000000000E+00  0.00000000000E+00  0.13600360159E+04  0.13600360159E+04  0.25500000920E-02 0. -1.
       -2   -1    0    0    0  501  0.00000000000E+00  0.00000000000E+00 -0.66791533491E+03  0.66791533491E+03  0.25500000920E-02 0.  1.
    10030    2    1    2    0    0  0.00000000000E+00  0.00000000000E+00  0.69212068097E+03  0.20279513508E+04  0.19061887745E+04 0.  0.
        3    1    3    3  502    0  0.18238029169E+03 -0.74974127858E+03 -0.24915449240E+03  0.81083446331E+03  0.10100000352E+00 0.  1.
       -3    1    3    3    0  502 -0.18238029169E+03  0.74974127858E+03  0.94127517337E+03  0.12171168875E+04  0.10100000352E+00 0. -1.
</event>
<event>
 5   0  0.1101678E-04  0.1899880E+04  0.7818609E-02  0.8654916E-01
        2   -1    0    0  501    0  0.00000000000E+00  0.00000000000E+00  0.69748050342E+03  0.69748050342E+03  0.25500000920E-02 0. -1.
       -2   -1    0    0    0  501  0.00000000000E+00  0.00000000000E+00 -0.12937794771E+04  0.12937794771E+04  0.25500000920E-02 0.  1.
    10030    2    1    2    0    0  0.00000000000E+00  0.00000000000E+00 -0.59629897366E+03  0.19912599805E+04  0.18998799551E+04 0.  0.
        4    1    3    3  502    0 -0.56532313274E+03  0.57207866997E+03  0.23165342201E+03  0.83697620628E+03  0.12699999809E+01 0. -1.
       -4    1    3    3    0  502  0.56532313274E+03 -0.57207866997E+03 -0.82795239566E+03  0.11542837742E+04  0.12699999809E+01 0.  1.
</event>
<event>
 5   0  0.5628936E-05  0.1900307E+04  0.7818609E-02  0.8654704E-01
        1   -1    0    0  501    0  0.00000000000E+00  0.00000000000E+00  0.23682830125E+04  0.23682830125E+04  0.50400001928E-02 0.  1.
       -1   -1    0    0    0  501  0.00000000000E+00  0.00000000000E+00 -0.38120077301E+03  0.38120077305E+03  0.50400001928E-02 0. -1.
    10030    2    1    2    0    0  0.00000000000E+00  0.00000000000E+00  0.19870822395E+04  0.27494837856E+04  0.19003066228E+04 0.  0.
        5    1    3    3  502    0  0.82294003902E+03 -0.46678661550E+03  0.11200831274E+04  0.14661951966E+04  0.46999998093E+01 0. -1.
       -5    1    3    3    0  502 -0.82294003902E+03  0.46678661550E+03  0.86699911212E+03  0.12832885890E+04  0.46999998093E+01 0.  1.
</event>
<event>
 5   0  0.5824956E-05  0.1884170E+04  0.7818609E-02  0.8662777E-01
        1   -1    0    0  501    0  0.00000000000E+00  0.00000000000E+00  0.61673223699E+03  0.61673223701E+03  0.50400001928E-02 0.  1.
       -1   -1    0    0    0  501  0.00000000000E+00  0.00000000000E+00 -0.14390746185E+04  0.14390746185E+04  0.50400001928E-02 0. -1.
    10030    2    1    2    0    0  0.00000000000E+00  0.00000000000E+00 -0.82234238149E+03  0.20558068555E+04  0.18841695345E+04 0.  0.
        2    1    3    3  502    0  0.63866745934E+03 -0.67519227272E+03 -0.57929528018E+03  0.10951546696E+04  0.25500000920E-02 0.  1.
       -2    1    3    3    0  502 -0.63866745934E+03  0.67519227272E+03 -0.24304710131E+03  0.96065218587E+03  0.25500000920E-02 0. -1.
</event>
<event>
 5   0  0.5824956E-05  0.1898360E+04  0.7818609E-02  0.8655673E-01
        1   -1    0    0  501    0  0.00000000000E+00  0.00000000000E+00  0.90616417253E+03  0.90616417254E+03  0.50400001928E-02 0.  1.
       -1   -1    0    0    0  501  0.00000000000E+00  0.00000000000E+00 -0.99423823897E+03  0.99423823898E+03  0.50400001928E-02 0. -1.
    10030    2    1    2    0    0  0.00000000000E+00  0.00000000000E+00 -0.88074066441E+02  0.19004024115E+04  0.18983604201E+04 0.  0.
        2    1    3    3  502    0 -0.36867814428E+03  0.74040366503E+03  0.42210523508E+03  0.92859786278E+03  0.25500000920E-02 0.  1.
       -2    1    3    3    0  502  0.36867814428E+03 -0.74040366503E+03 -0.51017930152E+03  0.97180454875E+03  0.25500000920E-02 0. -1.
</event>
<event>
 5   0  0.5579109E-05  0.1900555E+04  0.7818609E-02  0.8654580E-01
        1   -1    0    0  501    0  0.00000000000E+00  0.00000000000E+00  0.41487427601E+03  0.41487427605E+03  0.50400001928E-02 0. -1.
       -1   -1    0    0    0  501  0.00000000000E+00  0.00000000000E+00 -0.21766289625E+04  0.21766289625E+04  0.50400001928E-02 0.  1.
    10030    2    1    2    0    0  0.00000000000E+00  0.00000000000E+00 -0.17617546865E+04  0.25915032385E+04  0.19005550400E+04 0.  0.
        3    1    3    3  502    0 -0.78781886306E+03  0.52574998560E+03 -0.98610730322E+03  0.13672890082E+04  0.10100000352E+00 0.  1.
       -3    1    3    3    0  502  0.78781886306E+03 -0.52574998560E+03 -0.77564738327E+03  0.12242142303E+04  0.10100000352E+00 0. -1.
</event>
<event>
 5   0  0.1118206E-04  0.1909041E+04  0.7818609E-02  0.8650369E-01
        2   -1    0    0  501    0  0.00000000000E+00  0.00000000000E+00  0.10183429724E+04  0.10183429724E+04  0.25500000920E-02 0. -1.
       -2   -1    0    0    0  501  0.00000000000E+00  0.00000000000E+00 -0.89469811327E+03  0.89469811327E+03  0.25500000920E-02 0.  1.
    10030    2    1    2    0    0  0.00000000000E+00  0.00000000000E+00  0.12364485914E+03  0.19130410857E+04  0.19090411584E+04 0.  0.
        1    1    3    3  502    0  0.61873741008E+02 -0.34537372398E+03 -0.82773012088E+03  0.89902643013E+03  0.50400001928E-02 0.  1.
       -1    1    3    3    0  502 -0.61873741008E+02  0.34537372398E+03  0.95137498002E+03  0.10140146555E+04  0.50400001928E-02 0. -1.
</event>
<event>
 5   0  0.5579109E-05  0.1894143E+04  0.7818609E-02  0.8657777E-01
        1   -1    0    0  501    0  0.00000000000E+00  0.00000000000E+00  0.27308106060E+04  0.27308106060E+04  0.50400001928E-02 0. -1.
       -1   -1    0    0    0  501  0.00000000000E+00  0.00000000000E+00 -0.32845346131E+03  0.32845346134E+03  0.50400001928E-02 0.  1.
    10030    2    1    2    0    0  0.00000000000E+00  0.00000000000E+00  0.24023571447E+04  0.30592640673E+04  0.18941427568E+04 0.  0.
        3    1    3    3  502    0 -0.32750271196E+03 -0.43208656250E+03 -0.52997072857E+02  0.54476189640E+03  0.10100000352E+00 0.  1.
       -3    1    3    3    0  502  0.32750271196E+03  0.43208656250E+03  0.24553542175E+04  0.25145021709E+04  0.10100000352E+00 0. -1.
</event>
<event>
 5   0  0.1133638E-04  0.1912582E+04  0.7818609E-02  0.8648619E-01
       -2   -1    0    0    0  501  0.00000000000E+00  0.00000000000E+00  0.34103946854E+03  0.34103946854E+03  0.25500000920E-02 0. -1.
        2   -1    0    0  501    0  0.00000000000E+00  0.00000000000E+00 -0.26814855980E+04  0.26814855980E+04  0.25500000920E-02 0.  1.
    10030    2    1    2    0    0  0.00000000000E+00  0.00000000000E+00 -0.23404461295E+04  0.30225250666E+04  0.19125819441E+04 0.  0.
        3    1    3    3  502    0  0.12328824784E+03 -0.55473408839E+03  0.45263554037E+02  0.57006903126E+03  0.10100000352E+00 0. -1.
       -3    1    3    3    0  502 -0.12328824784E+03  0.55473408839E+03 -0.23857096835E+04  0.24524560353E+04  0.10100000352E+00 0.  1.
</event>
<event>
 5   0  0.5841424E-05  0.1862963E+04  0.7818609E-02  0.8673515E-01
        1   -1    0    0  501    0  0.00000000000E+00  0.00000000000E+00  0.99565572459E+03  0.99565572461E+03  0.50400001928E-02 0. -1.
       -1   -1    0    0    0  501  0.00000000000E+00  0.00000000000E+00 -0.87144327672E+03  0.87144327673E+03  0.50400001928E-02 0.  1.
    10030    2    1    2    0    0  0.00000000000E+00  0.00000000000E+00  0.12421244788E+03  0.18670990013E+04  0.18629626804E+04 0.  0.
        1    1    3    3  502    0  0.79317012705E+03  0.41498249486E+03  0.32022059469E+03  0.95072106886E+03  0.50400001928E-02 0. -1.
       -1    1    3    3    0  502 -0.79317012705E+03 -0.41498249486E+03 -0.19600814681E+03  0.91637793248E+03  0.50400001928E-02 0.  1.
</event>
<event>
 5   0  0.1101678E-04  0.1904692E+04  0.7818609E-02  0.8652524E-01
        2   -1    0    0  501    0  0.00000000000E+00  0.00000000000E+00  0.21897531502E+04  0.21897531502E+04  0.25500000920E-02 0. -1.
       -2   -1    0    0    0  501  0.00000000000E+00  0.00000000000E+00 -0.41418518331E+03  0.41418518332E+03  0.25500000920E-02 0.  1.
    10030    2    1    2    0    0  0.00000000000E+00  0.00000000000E+00  0.17755679669E+04  0.26039383335E+04  0.19046924265E+04 0.  0.
        4    1    3    3  502    0 -0.78742640842E+03  0.20444660425E+03  0.15646423687E+04  0.17635039318E+04  0.12699999809E+01 0. -1.
       -4    1    3    3    0  502  0.78742640842E+03 -0.20444660425E+03  0.21092559816E+03  0.84043440168E+03  0.12699999809E+01 0.  1.
</event>
<event>
 5   0  0.1101678E-04  0.1888120E+04  0.7818609E-02  0.8660792E-01
       -2   -1    0    0    0  501  0.00000000000E+00  0.00000000000E+00  0.44884461178E+03  0.44884461179E+03  0.25500000920E-02 0. -1.
        2   -1    0    0  501    0  0.00000000000E+00  0.00000000000E+00 -0.19856522109E+04  0.19856522109E+04  0.25500000920E-02 0.  1.
    10030    2    1    2    0    0  0.00000000000E+00  0.00000000000E+00 -0.15368075991E+04  0.24344968227E+04  0.18881200129E+04 0.  0.
        4    1    3    3  502    0 -0.62629357670E+03 -0.57236497023E+03 -0.23459215909E+03  0.88027291073E+03  0.12699999809E+01 0. -1.
       -4    1    3    3    0  502  0.62629357670E+03  0.57236497023E+03 -0.13022154400E+04  0.15542239120E+04  0.12699999809E+01 0.  1.
</event>
<event>
 5   0  0.5628936E-05  0.1908654E+04  0.7818609E-02  0.8650561E-01
       -1   -1    0    0    0  501  0.00000000000E+00  0.00000000000E+00  0.46907313917E+03  0.46907313920E+03  0.50400001928E-02 0.  1.
        1   -1    0    0  501    0  0.00000000000E+00  0.00000000000E+00 -0.19415737437E+04  0.19415737437E+04  0.50400001928E-02 0. -1.
    10030    2    1    2    0    0  0.00000000000E+00  0.00000000000E+00 -0.14725006045E+04  0.24106468829E+04  0.19086540712E+04 0.  0.
        5    1    3    3  502    0 -0.66877383170E+03 -0.12732120405E+03  0.10840789947E+03  0.68937906092E+03  0.46999998093E+01 0.  1.
       -5    1    3    3    0  502  0.66877383170E+03  0.12732120405E+03 -0.15809085039E+04  0.17212678219E+04  0.46999998093E+01 0. -1.
</event>
<event>
 5   0  0.5579109E-05  0.1908179E+04  0.7818609E-02  0.8650796E-01
        1   -1    0    0  501    0  0.00000000000E+00  0.00000000000E+00  0.79367259306E+03  0.79367259308E+03  0.50400001928E-02 0.  1.
       -1   -1    0    0    0  501  0.00000000000E+00  0.00000000000E+00 -0.11469296141E+04  0.11469296141E+04  0.50400001928E-02 0. -1.
    10030    2    1    2    0    0  0.00000000000E+00  0.00000000000E+00 -0.35325702100E+03  0.19406022071E+04  0.19081788185E+04 0.  0.
        3    1    3    3  502    0 -0.73122032326E+03  0.19398590027E+03  0.41460411234E+03  0.86267622595E+03  0.10100000352E+00 0.  1.
       -3    1    3    3    0  502  0.73122032326E+03 -0.19398590027E+03 -0.76786113333E+03  0.10779259812E+04  0.10100000352E+00 0. -1.
</event>
<event>
 5   0  0.5824956E-05  0.1815658E+04  0.7818609E-02  0.8698017E-01
        1   -1    0    0  501    0  0.00000000000E+00  0.00000000000E+00  0.11665105596E+04  0.11665105596E+04  0.50400001928E-02 0. -1.
       -1   -1    0    0    0  501  0.00000000000E+00  0.00000000000E+00 -0.70651202119E+03  0.70651202121E+03  0.50400001928E-02 0.  1.
    10030    2    1    2    0    0  0.00000000000E+00  0.00000000000E+00  0.45999853838E+03  0.18730225808E+04  0.18156582643E+04 0.  0.
        2    1    3    3  502    0 -0.77445155309E+03 -0.13036875036E+03  0.69977975202E+03  0.10518854122E+04  0.25500000920E-02 0. -1.
       -2    1    3    3    0  502  0.77445155309E+03  0.13036875036E+03 -0.23978121364E+03  0.82113716855E+03  0.25500000920E-02 0.  1.
</event>
<event>
 5   0  0.1101678E-04  0.1896883E+04  0.7818609E-02  0.8656410E-01
       -2   -1    0    0    0  501  0.00000000000E+00  0.00000000000E+00  0.61856231122E+03  0.61856231122E+03  0.25500000920E-02 0. -1.
        2   -1    0    0  501    0  0.00000000000E+00  0.00000000000E+00 -0.14542450650E+04  0.14542450650E+04  0.25500000920E-02 0.  1.
    10030    2    1    2    0    0  0.00000000000E+00  0.00000000000E+00 -0.83568275380E+03  0.20728073762E+04  0.18968829047E+04 0.  0.
        4    1    3    3  502    0 -0.39117299045E+02 -0.60562035803E+03  0.37861337335E+03  0.71530125159E+03  0.12699999809E+01 0. -1.
       -4    1    3    3    0  502  0.39117299045E+02  0.60562035803E+03 -0.12142961272E+04  0.13575061247E+04  0.12699999809E+01 0.  1.
</event>
<event>
 5   0  0.5579109E-05  0.1890555E+04  0.7818609E-02  0.8659572E-01
       -1   -1    0    0    0  501  0.00000000000E+00  0.00000000000E+00  0.66519529221E+03  0.66519529222E+03  0.50400001928E-02 0. -1.
        1   -1    0    0  501    0  0.00000000000E+00  0.00000000000E+00 -0.13432891429E+04  0.13432891429E+04  0.50400001928E-02 0.  1.
    10030    2    1    2    0    0  0.00000000000E+00  0.00000000000E+00 -0.67809385072E+03  0.20084844352E+04  0.18905550656E+04 0.  0.
        3    1    3    3  502    0 -0.77030481112E+02 -0.48467145814E+03 -0.11973469034E+04  0.12940168989E+04  0.10100000352E+00 0.  1.
       -3    1    3    3    0  502  0.77030481112E+02  0.48467145814E+03  0.51925305272E+03  0.71446753622E+03  0.10100000352E+00 0. -1.
</event>
<event>
 5   0  0.1141890E-04  0.1897982E+04  0.7818609E-02  0.8655861E-01
       -2   -1    0    0    0  501  0.00000000000E+00  0.00000000000E+00  0.74580919886E+03  0.74580919887E+03  0.25500000920E-02 0.  1.
        2   -1    0    0  501    0  0.00000000000E+00  0.00000000000E+00 -0.12075262786E+04  0.12075262786E+04  0.25500000920E-02 0. -1.
    10030    2    1    2    0    0  0.00000000000E+00  0.00000000000E+00 -0.46171707975E+03  0.19533354775E+04  0.18979823039E+04 0.  0.
        2    1    3    3  502    0  0.20398431847E+03 -0.83482246442E+03  0.18343094765E+03  0.87874061124E+03  0.25500000920E-02 0.  1.
       -2    1    3    3    0  502 -0.20398431847E+03  0.83482246442E+03 -0.64514802740E+03  0.10745948662E+04  0.25500000920E-02 0. -1.
</event>
<event>
 5   0  0.1101678E-04  0.1915491E+04  0.7818609E-02  0.8647184E-01
       -2   -1    0    0    0  501  0.00000000000E+00  0.00000000000E+00  0.89608374881E+03  0.89608374881E+03  0.25500000920E-02 0. -1.
        2   -1    0    0  501    0  0.00000000000E+00  0.00000000000E+00 -0.10236502118E+04  0.10236502118E+04  0.25500000920E-02 0.  1.
    10030    2    1    2    0    0  0.00000000000E+00  0.00000000000E+00 -0.12756646297E+03  0.19197339606E+04  0.19154908710E+04 0.  0.
        4    1    3    3  502    0  0.72006280966E+03  0.30989410372E+02 -0.69591323404E+03  0.10018720655E+04  0.12699999809E+01 0.  1.
       -4    1    3    3    0  502 -0.72006280966E+03 -0.30989410372E+02  0.56834677106E+03  0.91786189511E+03  0.12699999809E+01 0. -1.
</event>
<event>
 5   0  0.5628936E-05  0.1913628E+04  0.7818609E-02  0.8648102E-01
       -1   -1    0    0    0  501  0.00000000000E+00  0.00000000000E+00  0.75175944845E+03  0.75175944847E+03  0.50400001928E-02 0. -1.
        1   -1    0    0  501    0  0.00000000000E+00  0.00000000000E+00 -0.12178011183E+04  0.12178011183E+04  0.50400001928E-02 0.  1.
    10030    2    1    2    0    0  0.00000000000E+00  0.00000000000E+00 -0.46604166982E+03  0.19695605668E+04  0.19136284875E+04 0.  0.
        5    1    3    3  502    0  0.43316717214E+03 -0.84927563381E+03 -0.14960567100E+03  0.96504240736E+03  0.46999998093E+01 0. -1.
       -5    1    3    3    0  502 -0.43316717214E+03  0.84927563381E+03 -0.31643599883E+03  0.10045181594E+04  0.46999998093E+01 0.  1.
</event>
<event>
 5   0  0.5824956E-05  0.1897343E+04  0.7818609E-02  0.8656180E-01
       -1   -1    0    0    0  501  0.00000000000E+00  0.00000000000E+00  0.47225126144E+03  0.47225126146E+03  0.50400001928E-02 0. -1.
        1   -1    0    0  501    0  0.00000000000E+00  0.00000000000E+00 -0.19057170442E+04  0.19057170442E+04  0.50400001928E-02 0.  1.
    10030    2    1    2    0    0  0.00000000000E+00  0.00000000000E+00 -0.14334657828E+04  0.23779683057E+04  0.18973426450E+04 0.  0.
        2    1    3    3  502    0  0.58556925643E+03  0.42560089940E+03 -0.14851998905E+04  0.16522246198E+04  0.25500000920E-02 0.  1.
       -2    1    3    3    0  502 -0.58556925643E+03 -0.42560089940E+03  0.51734107709E+02  0.72574368585E+03  0.25500000920E-02 0. -1.
</event>
<event>
 5   0  0.1141890E-04  0.1910019E+04  0.7818609E-02  0.8649885E-01
        2   -1    0    0  501    0  0.00000000000E+00  0.00000000000E+00  0.10990220510E+04  0.10990220510E+04  0.25500000920E-02 0.  1.
       -2   -1    0    0    0  501  0.00000000000E+00  0.00000000000E+00 -0.82986796051E+03  0.82986796051E+03  0.25500000920E-02 0. -1.
    10030    2    1    2    0    0  0.00000000000E+00  0.00000000000E+00  0.26915409052E+03  0.19288900115E+04  0.19100190450E+04 0.  0.
        2    1    3    3  502    0  0.82818134777E+03  0.47295795031E+03  0.18476331035E+03  0.97144791338E+03  0.25500000920E-02 0.  1.
       -2    1    3    3    0  502 -0.82818134777E+03 -0.47295795031E+03  0.84390780171E+02  0.95744209816E+03  0.25500000920E-02 0. -1.
</event>
<event>
 5   0  0.1133638E-04  0.1902185E+04  0.7818609E-02  0.8653770E-01
        2   -1    0    0  501    0  0.00000000000E+00  0.00000000000E+00  0.20656025906E+04  0.20656025906E+04  0.25500000920E-02 0. -1.
       -2   -1    0    0    0  501  0.00000000000E+00  0.00000000000E+00 -0.43792386473E+03  0.43792386473E+03  0.25500000920E-02 0.  1.
    10030    2    1    2    0    0  0.00000000000E+00  0.00000000000E+00  0.16276787259E+04  0.25035264554E+04  0.19021847118E+04 0.  0.
        3    1    3    3  502    0 -0.42184722584E+03 -0.72991349478E+03  0.13933081023E+04  0.16285073749E+04  0.10100000352E+00 0. -1.
       -3    1    3    3    0  502  0.42184722584E+03  0.72991349478E+03  0.23437062358E+03  0.87501908049E+03  0.10100000352E+00 0.  1.
</event>
<event>
 5   0  0.1182630E-04  0.1902256E+04  0.7818609E-02  0.8653734E-01
        2   -1    0    0  501    0  0.00000000000E+00  0.00000000000E+00  0.18176470900E+04  0.18176470900E+04  0.25500000920E-02 0.  1.
       -2   -1    0    0    0  501  0.00000000000E+00  0.00000000000E+00 -0.49770090333E+03  0.49770090334E+03  0.25500000920E-02 0. -1.
    10030    2    1    2    0    0  0.00000000000E+00  0.00000000000E+00  0.13199461867E+04  0.23153479934E+04  0.19022561328E+04 0.  0.
        5    1    3    3  502    0 -0.39934177520E+03 -0.24650480305E+03  0.16668983094E+04  0.17317074047E+04  0.46999998093E+01 0.  1.
       -5    1    3    3    0  502  0.39934177520E+03  0.24650480305E+03 -0.34695212272E+03  0.58364058873E+03  0.46999998093E+01 0. -1.
</event>
<event>
 5   0  0.5824956E-05  0.1900013E+04  0.7818609E-02  0.8654850E-01
        1   -1    0    0  501    0  0.00000000000E+00  0.00000000000E+00  0.14664203734E+04  0.14664203734E+04  0.50400001928E-02 0.  1.
       -1   -1    0    0    0  501  0.00000000000E+00  0.00000000000E+00 -0.61545251392E+03  0.61545251394E+03  0.50400001928E-02 0. -1.
    10030    2    1    2    0    0  0.00000000000E+00  0.00000000000E+00  0.85096785951E+03  0.20818728874E+04  0.19000127424E+04 0.  0.
        2    1    3    3  502    0 -0.79695175973E+03 -0.45271525719E+03  0.69925686728E+03  0.11528414366E+04  0.25500000920E-02 0. -1.
       -2    1    3    3    0  502  0.79695175973E+03  0.45271525719E+03  0.15171099223E+03  0.92903145081E+03  0.25500000920E-02 0.  1.
</event>
<event>
 5   0  0.1141890E-04  0.1951329E+04  0.7818609E-02  0.8629720E-01
        2   -1    0    0  501    0  0.00000000000E+00  0.00000000000E+00  0.13196005745E+04  0.13196005745E+04  0.25500000920E-02 0.  1.
       -2   -1    0    0    0  501  0.00000000000E+00  0.00000000000E+00 -0.72137039652E+03  0.72137039653E+03  0.25500000920E-02 0. -1.
    10030    2    1    2    0    0  0.00000000000E+00  0.00000000000E+00  0.59823017795E+03  0.20409709710E+04  0.19513285625E+04 0.  0.
        2    1    3    3  502    0 -0.47837679322E+03 -0.16593369396E+02 -0.59011843387E+03  0.75984173497E+03  0.25500000920E-02 0. -1.
       -2    1    3    3    0  502  0.47837679322E+03  0.16593369396E+02  0.11883486118E+04  0.12811292360E+04  0.25500000920E-02 0.  1.
</event>
<event>
 5   0  0.5824956E-05  0.2074303E+04  0.7818609E-02  0.8572648E-01
        1   -1    0    0  501    0  0.00000000000E+00  0.00000000000E+00  0.24286340990E+04  0.24286340990E+04  0.50400001928E-02 0.  1.
       -1   -1    0    0    0  501  0.00000000000E+00  0.00000000000E+00 -0.44291685837E+03  0.44291685840E+03  0.50400001928E-02 0. -1.
    10030    2    1    2    0    0  0.00000000000E+00  0.00000000000E+00  0.19857172406E+04  0.28715509574E+04  0.20743027603E+04 0.  0.
        2    1    3    3  502    0 -0.76634730591E+03 -0.14670798118E+03  0.19387539735E+04  0.20898752104E+04  0.25500000920E-02 0.  1.
       -2    1    3    3    0  502  0.76634730591E+03  0.14670798118E+03  0.46963267083E+02  0.78167574702E+03  0.25500000920E-02 0. -1.
</event>
<event>
 5   0  0.1182630E-04  0.1901579E+04  0.7818609E-02  0.8654071E-01
       -2   -1    0    0    0  501  0.00000000000E+00  0.00000000000E+00  0.51160470403E+03  0.51160470403E+03  0.25500000920E-02 0. -1.
        2   -1    0    0  501    0  0.00000000000E+00  0.00000000000E+00 -0.17669905744E+04  0.17669905744E+04  0.25500000920E-02 0.  1.
    10030    2    1    2    0    0  0.00000000000E+00  0.00000000000E+00 -0.12553858704E+04  0.22785952785E+04  0.19015790174E+04 0.  0.
        5    1    3    3  502    0  0.83222244904E+03 -0.29311360317E+03 -0.10521372369E+04  0.13731440727E+04  0.46999998093E+01 0.  1.
       -5    1    3    3    0  502 -0.83222244904E+03  0.29311360317E+03 -0.20324863349E+03  0.90545120578E+03  0.46999998093E+01 0. -1.
</event>
<event>
 5   0  0.5841424E-05  0.1904722E+04  0.7818609E-02  0.8652509E-01
       -1   -1    0    0    0  501  0.00000000000E+00  0.00000000000E+00  0.11747405031E+04  0.11747405031E+04  0.50400001928E-02 0. -1.
        1   -1    0    0  501    0  0.00000000000E+00  0.00000000000E+00 -0.77207854265E+03  0.77207854266E+03  0.50400001928E-02 0.  1.
    10030    2    1    2    0    0  0.00000000000E+00  0.00000000000E+00  0.40266196046E+03  0.19468190458E+04  0.19047224844E+04 0.  0.
        1    1    3    3  502    0 -0.26919183326E+03  0.39253000969E+03 -0.64179274771E+03  0.79902564580E+03  0.50400001928E-02 0.  1.
       -1    1    3    3    0  502  0.26919183326E+03 -0.39253000969E+03  0.10444547082E+04  0.11477934000E+04  0.50400001928E-02 0. -1.
</event>
<event>
 5   0  0.5614989E-05  0.1856560E+04  0.7818609E-02  0.8676786E-01
        1   -1    0    0  501    0  0.00000000000E+00  0.00000000000E+00  0.15524716871E+04  0.15524716871E+04  0.50400001928E-02 0.  1.
       -1   -1    0    0    0  501  0.00000000000E+00  0.00000000000E+00 -0.55505297065E+03  0.55505297067E+03  0.50400001928E-02 0. -1.
    10030    2    1    2    0    0  0.00000000000E+00  0.00000000000E+00  0.99741871646E+03  0.21075246578E+04  0.18565602838E+04 0.  0.
        4    1    3    3  502    0 -0.56007191691E+03  0.40617629540E+02 -0.34037930249E+03  0.65665061213E+03  0.12699999809E+01 0. -1.
       -4    1    3    3    0  502  0.56007191691E+03 -0.40617629540E+02  0.13377980189E+04  0.14508740457E+04  0.12699999809E+01 0.  1.
</event>
<event>
 5   0  0.5841424E-05  0.1893463E+04  0.7818609E-02  0.8658117E-01
        1   -1    0    0  501    0  0.00000000000E+00  0.00000000000E+00  0.80368394513E+03  0.80368394514E+03  0.50400001928E-02 0.  1.
       -1   -1    0    0    0  501  0.00000000000E+00  0.00000000000E+00 -0.11152404911E+04  0.11152404911E+04  0.50400001928E-02 0. -1.
    10030    2    1    2    0    0  0.00000000000E+00  0.00000000000E+00 -0.31155654597E+03  0.19189244363E+04  0.18934633640E+04 0.  0.
        1    1    3    3  502    0  0.14037950861E+02 -0.10758243362E+03  0.79736285462E+03  0.80471023731E+03  0.50400001928E-02 0.  1.
       -1    1    3    3    0  502 -0.14037950861E+02  0.10758243362E+03 -0.11089194006E+04  0.11142141989E+04  0.50400001928E-02 0. -1.
</event>
<event>
 5   0  0.1182630E-04  0.1877165E+04  0.7818609E-02  0.8666307E-01
       -2   -1    0    0    0  501  0.00000000000E+00  0.00000000000E+00  0.66313963472E+03  0.66313963473E+03  0.25500000920E-02 0. -1.
        2   -1    0    0  501    0  0.00000000000E+00  0.00000000000E+00 -0.13284332837E+04  0.13284332837E+04  0.25500000920E-02 0.  1.
    10030    2    1    2    0    0  0.00000000000E+00  0.00000000000E+00 -0.66529364900E+03  0.19915729184E+04  0.18771646305E+04 0.  0.
        5    1    3    3  502    0  0.23499272569E+03 -0.60564885452E+03  0.38604817635E+03  0.75570324901E+03  0.46999998093E+01 0. -1.
       -5    1    3    3    0  502 -0.23499272569E+03  0.60564885452E+03 -0.10513418254E+04  0.12358696694E+04  0.46999998093E+01 0.  1.
</event>
<event>
 5   0  0.5628936E-05  0.1904756E+04  0.7818609E-02  0.8652493E-01
       -1   -1    0    0    0  501  0.00000000000E+00  0.00000000000E+00  0.72849247754E+03  0.72849247756E+03  0.50400001928E-02 0. -1.
        1   -1    0    0  501    0  0.00000000000E+00  0.00000000000E+00 -0.12450693710E+04  0.12450693710E+04  0.50400001928E-02 0.  1.
    10030    2    1    2    0    0  0.00000000000E+00  0.00000000000E+00 -0.51657689342E+03  0.19735618485E+04  0.19047558067E+04 0.  0.
        5    1    3    3  502    0 -0.63479392582E+03  0.67445245674E+03 -0.48799989147E+03  0.10469075550E+04  0.46999998093E+01 0.  1.
       -5    1    3    3    0  502  0.63479392582E+03 -0.67445245674E+03 -0.28577001946E+02  0.92665429352E+03  0.46999998093E+01 0. -1.
</event>
<event>
 5   0  0.5579109E-05  0.1909310E+04  0.7818609E-02  0.8650236E-01
       -1   -1    0    0    0  501  0.00000000000E+00  0.00000000000E+00  0.93258822470E+03  0.93258822471E+03  0.50400001928E-02 0. -1.
        1   -1    0    0  501    0  0.00000000000E+00  0.00000000000E+00 -0.97724354602E+03  0.97724354603E+03  0.50400001928E-02 0.  1.
    10030    2    1    2    0    0  0.00000000000E+00  0.00000000000E+00 -0.44655321321E+02  0.19098317707E+04  0.19093096383E+04 0.  0.
        3    1    3    3  502    0  0.29305123360E+03  0.19709739406E+03  0.86484182896E+03  0.93417225798E+03  0.10100000352E+00 0. -1.
       -3    1    3    3    0  502 -0.29305123360E+03 -0.19709739406E+03 -0.90949715028E+03  0.97565951276E+03  0.10100000352E+00 0.  1.
</event>
<event>
 5   0  0.1118206E-04  0.1896190E+04  0.7818609E-02  0.8656755E-01
       -2   -1    0    0    0  501  0.00000000000E+00  0.00000000000E+00  0.58090459645E+03  0.58090459645E+03  0.25500000920E-02 0. -1.
        2   -1    0    0  501    0  0.00000000000E+00  0.00000000000E+00 -0.15473873321E+04  0.15473873321E+04  0.25500000920E-02 0.  1.
    10030    2    1    2    0    0  0.00000000000E+00  0.00000000000E+00 -0.96648273567E+03  0.21282919286E+04  0.18961903003E+04 0.  0.
        1    1    3    3  502    0 -0.94112833639E+03  0.93356774381E+02 -0.40839812348E+03  0.10301587548E+04  0.50400001928E-02 0. -1.
       -1    1    3    3    0  502  0.94112833639E+03 -0.93356774381E+02 -0.55808461219E+03  0.10981331737E+04  0.50400001928E-02 0.  1.
</event>
<event>
 5   0  0.5579109E-05  0.1916827E+04  0.7818609E-02  0.8646526E-01
       -1   -1    0    0    0  501  0.00000000000E+00  0.00000000000E+00  0.13162830054E+04  0.13162830054E+04  0.50400001928E-02 0. -1.
        1   -1    0    0  501    0  0.00000000000E+00  0.00000000000E+00 -0.69784106244E+03  0.69784106246E+03  0.50400001928E-02 0.  1.
    10030    2    1    2    0    0  0.00000000000E+00  0.00000000000E+00  0.61844194297E+03  0.20141240679E+04  0.19168268894E+04 0.  0.
        3    1    3    3  502    0  0.13378741195E+02 -0.10077206772E+03 -0.69216017740E+03  0.69958539273E+03  0.10100000352E+00 0.  1.
       -3    1    3    3    0  502 -0.13378741195E+02  0.10077206772E+03  0.13106021204E+04  0.13145386752E+04  0.10100000352E+00 0. -1.
</event>
<event>
 5   0  0.1133638E-04  0.1891219E+04  0.7818609E-02  0.8659239E-01
       -2   -1    0    0    0  501  0.00000000000E+00  0.00000000000E+00  0.60064047064E+03  0.60064047065E+03  0.25500000920E-02 0.  1.
        2   -1    0    0  501    0  0.00000000000E+00  0.00000000000E+00 -0.14887070812E+04  0.14887070812E+04  0.25500000920E-02 0. -1.
    10030    2    1    2    0    0  0.00000000000E+00  0.00000000000E+00 -0.88806661055E+03  0.20893475518E+04  0.18912194182E+04 0.  0.
        3    1    3    3  502    0  0.46243211534E+03  0.39178300824E+03  0.35784465066E+03  0.70383960605E+03  0.10100000352E+00 0.  1.
       -3    1    3    3    0  502 -0.46243211534E+03 -0.39178300824E+03 -0.12459112612E+04  0.13855079458E+04  0.10100000352E+00 0. -1.
</event>
<event>
 5   0  0.5579109E-05  0.1890568E+04  0.7818609E-02  0.8659565E-01
        1   -1    0    0  501    0  0.00000000000E+00  0.00000000000E+00  0.77156286600E+03  0.77156286601E+03  0.50400001928E-02 0.  1.
       -1   -1    0    0    0  501  0.00000000000E+00  0.00000000000E+00 -0.11581196404E+04  0.11581196404E+04  0.50400001928E-02 0. -1.
    10030    2    1    2    0    0  0.00000000000E+00  0.00000000000E+00 -0.38655677438E+03  0.19296825064E+04  0.18905682838E+04 0.  0.
        3    1    3    3  502    0  0.17245093434E+03  0.56714726928E+03  0.55827516403E+03  0.81428896516E+03  0.10100000352E+00 0.  1.
       -3    1    3    3    0  502 -0.17245093434E+03 -0.56714726928E+03 -0.94483193840E+03  0.11153935412E+04  0.10100000352E+00 0. -1.
</event>
<event>
 5   0  0.5841424E-05  0.1911989E+04  0.7818609E-02  0.8648912E-01
       -1   -1    0    0    0  501  0.00000000000E+00  0.00000000000E+00  0.43968513435E+03  0.43968513438E+03  0.50400001928E-02 0.  1.
        1   -1    0    0  501    0  0.00000000000E+00  0.00000000000E+00 -0.20785909063E+04  0.20785909063E+04  0.50400001928E-02 0. -1.
    10030    2    1    2    0    0  0.00000000000E+00  0.00000000000E+00 -0.16389057719E+04  0.25182760407E+04  0.19119890396E+04 0.  0.
        1    1    3    3  502    0  0.49427787120E+03 -0.54031846064E+03 -0.10031492293E+02  0.73236280880E+03  0.50400001928E-02 0.  1.
       -1    1    3    3    0  502 -0.49427787120E+03  0.54031846064E+03 -0.16288742796E+04  0.17859132318E+04  0.50400001928E-02 0. -1.
</event>
<event>
 5   0  0.1118206E-04  0.1906175E+04  0.7818609E-02  0.8651789E-01
       -2   -1    0    0    0  501  0.00000000000E+00  0.00000000000E+00  0.79179896008E+03  0.79179896008E+03  0.25500000920E-02 0.  1.
        2   -1    0    0  501    0  0.00000000000E+00  0.00000000000E+00 -0.11472305961E+04  0.11472305961E+04  0.25500000920E-02 0. -1.
    10030    2    1    2    0    0  0.00000000000E+00  0.00000000000E+00 -0.35543163599E+03  0.19390295562E+04  0.19061752206E+04 0.  0.
        1    1    3    3  502    0 -0.30698841087E+03 -0.47728706304E+02  0.73884467322E+03  0.80150568619E+03  0.50400001928E-02 0.  1.
       -1    1    3    3    0  502  0.30698841087E+03  0.47728706304E+02 -0.10942763092E+04  0.11375238700E+04  0.50400001928E-02 0. -1.
</event>
<event>
 5   0  0.5579109E-05  0.1914643E+04  0.7818609E-02  0.8647602E-01
       -1   -1    0    0    0  501  0.00000000000E+00  0.00000000000E+00  0.68127724107E+03  0.68127724109E+03  0.50400001928E-02 0.  1.
        1   -1    0    0  501    0  0.00000000000E+00  0.00000000000E+00 -0.13452156382E+04  0.13452156383E+04  0.50400001928E-02 0. -1.
    10030    2    1    2    0    0  0.00000000000E+00  0.00000000000E+00 -0.66393839718E+03  0.20264928793E+04  0.19146433597E+04 0.  0.
        3    1    3    3  502    0 -0.49245598291E+03 -0.12464636554E+03  0.52686060816E+03  0.73186865090E+03  0.10100000352E+00 0.  1.
       -3    1    3    3    0  502  0.49245598291E+03  0.12464636554E+03 -0.11907990053E+04  0.12946242284E+04  0.10100000352E+00 0. -1.
</event>
<event>
 5   0  0.5579109E-05  0.1907564E+04  0.7818609E-02  0.8651100E-01
        1   -1    0    0  501    0  0.00000000000E+00  0.00000000000E+00  0.10878392577E+04  0.10878392577E+04  0.50400001928E-02 0. -1.
       -1   -1    0    0    0  501  0.00000000000E+00  0.00000000000E+00 -0.83624509774E+03  0.83624509775E+03  0.50400001928E-02 0.  1.
    10030    2    1    2    0    0  0.00000000000E+00  0.00000000000E+00  0.25159415994E+03  0.19240843554E+04  0.19075641498E+04 0.  0.
        3    1    3    3  502    0 -0.69047977433E+03  0.35854672833E+02 -0.53689536028E+03  0.87538820783E+03  0.10100000352E+00 0.  1.
       -3    1    3    3    0  502  0.69047977433E+03 -0.35854672833E+02  0.78848952021E+03  0.10486961476E+04  0.10100000352E+00 0. -1.
</event>
<event>
 5   0  0.1133638E-04  0.1917691E+04  0.7818609E-02  0.8646100E-01
        2   -1    0    0  501    0  0.00000000000E+00  0.00000000000E+00  0.84000123057E+03  0.84000123057E+03  0.25500000920E-02 0. -1.
       -2   -1    0    0    0  501  0.00000000000E+00  0.00000000000E+00 -0.10945043974E+04  0.10945043974E+04  0.25500000920E-02 0.  1.
    10030    2    1    2    0    0  0.00000000000E+00  0.00000000000E+00 -0.25450316685E+03  0.19345056280E+04  0.19176913628E+04 0.  0.
        3    1    3    3  502    0  0.66396534429E+03  0.49447378121E+03  0.36075730328E+03  0.90305046414E+03  0.10100000352E+00 0.  1.
       -3    1    3    3    0  502 -0.66396534429E+03 -0.49447378121E+03 -0.61526047013E+03  0.10314551638E+04  0.10100000352E+00 0. -1.
</event>
<event>
 5   0  0.1182630E-04  0.1887282E+04  0.7818609E-02  0.8661213E-01
       -2   -1    0    0    0  501  0.00000000000E+00  0.00000000000E+00  0.31993206649E+03  0.31993206650E+03  0.25500000920E-02 0. -1.
        2   -1    0    0  501    0  0.00000000000E+00  0.00000000000E+00 -0.27832724100E+04  0.27832724100E+04  0.25500000920E-02 0.  1.
    10030    2    1    2    0    0  0.00000000000E+00  0.00000000000E+00 -0.24633403435E+04  0.31032044765E+04  0.18872817424E+04 0.  0.
        5    1    3    3  502    0 -0.63884594842E+03 -0.49826952578E+03 -0.43621065012E+03  0.92016220711E+03  0.46999998093E+01 0. -1.
       -5    1    3    3    0  502  0.63884594842E+03  0.49826952578E+03 -0.20271296934E+04  0.21830422694E+04  0.46999998093E+01 0.  1.
</event>
<event>
 5   0  0.1141890E-04  0.1894217E+04  0.7818609E-02  0.8657740E-01
        2   -1    0    0  501    0  0.00000000000E+00  0.00000000000E+00  0.21469034083E+04  0.21469034083E+04  0.25500000920E-02 0. -1.
       -2   -1    0    0    0  501  0.00000000000E+00  0.00000000000E+00 -0.41781797791E+03  0.41781797792E+03  0.25500000920E-02 0.  1.
    10030    2    1    2    0    0  0.00000000000E+00  0.00000000000E+00  0.17290854304E+04  0.25647213862E+04  0.18942173485E+04 0.  0.
        2    1    3    3  502    0  0.25865354462E+03 -0.31374903067E+03 -0.29361955183E+03  0.50155014865E+03  0.25500000920E-02 0.  1.
       -2    1    3    3    0  502 -0.25865354462E+03  0.31374903067E+03  0.20227049822E+04  0.20631712376E+04  0.25500000920E-02 0. -1.
</event>
<event>
 5   0  0.1141890E-04  0.1897890E+04  0.7818609E-02  0.8655907E-01
        2   -1    0    0  501    0  0.00000000000E+00  0.00000000000E+00  0.63634518507E+03  0.63634518508E+03  0.25500000920E-02 0. -1.
       -2   -1    0    0    0  501  0.00000000000E+00  0.00000000000E+00 -0.14151072289E+04  0.14151072289E+04  0.25500000920E-02 0.  1.
    10030    2    1    2    0    0  0.00000000000E+00  0.00000000000E+00 -0.77876204385E+03  0.20514524140E+04  0.18978900616E+04 0.  0.
        2    1    3    3  502    0 -0.15442441658E+03 -0.91893848800E+03 -0.58334927190E+03  0.10993594581E+04  0.25500000920E-02 0. -1.
       -2    1    3    3    0  502  0.15442441658E+03  0.91893848800E+03 -0.19541277194E+03  0.95209295586E+03  0.25500000920E-02 0.  1.
</event>
<event>
 5   0  0.1133638E-04  0.1905019E+04  0.7818609E-02  0.8652362E-01
        2   -1    0    0  501    0  0.00000000000E+00  0.00000000000E+00  0.12969624510E+04  0.12969624510E+04  0.25500000920E-02 0. -1.
       -2   -1    0    0    0  501  0.00000000000E+00  0.00000000000E+00 -0.69953752405E+03  0.69953752405E+03  0.25500000920E-02 0.  1.
    10030    2    1    2    0    0  0.00000000000E+00  0.00000000000E+00  0.59742492696E+03  0.19964999751E+04  0.19050185319E+04 0.  0.
        3    1    3    3  502    0  0.17897111050E+03  0.58130344254E+03  0.10669410489E+04  0.12281317367E+04  0.10100000352E+00 0. -1.
       -3    1    3    3    0  502 -0.17897111050E+03 -0.58130344254E+03 -0.46951612195E+03  0.76836823833E+03  0.10100000352E+00 0.  1.
</event>
<event>
 5   0  0.5824956E-05  0.1883754E+04  0.7818609E-02  0.8662986E-01
        1   -1    0    0  501    0  0.00000000000E+00  0.00000000000E+00  0.82498579027E+03  0.82498579029E+03  0.50400001928E-02 0.  1.
       -1   -1    0    0    0  501  0.00000000000E+00  0.00000000000E+00 -0.10753299324E+04  0.10753299324E+04  0.50400001928E-02 0. -1.
    10030    2    1    2    0    0  0.00000000000E+00  0.00000000000E+00 -0.25034414214E+03  0.19003157227E+04  0.18837536082E+04 0.  0.
        2    1    3    3  502    0  0.39722225433E+03 -0.84899208719E+03 -0.31844732503E+02  0.93786308726E+03  0.25500000920E-02 0.  1.
       -2    1    3    3    0  502 -0.39722225433E+03  0.84899208719E+03 -0.21849940963E+03  0.96245263544E+03  0.25500000920E-02 0. -1.
</event>
<event>
 5   0  0.1118206E-04  0.1892204E+04  0.7818609E-02  0.8658747E-01
        2   -1    0    0  501    0  0.00000000000E+00  0.00000000000E+00  0.19445905049E+04  0.19445905049E+04  0.25500000920E-02 0. -1.
       -2   -1    0    0    0  501  0.00000000000E+00  0.00000000000E+00 -0.46030723592E+03  0.46030723593E+03  0.25500000920E-02 0.  1.
    10030    2    1    2    0    0  0.00000000000E+00  0.00000000000E+00  0.14842832689E+04  0.24048977408E+04  0.18922040908E+04 0.  0.
        1    1    3    3  502    0  0.27756334984E+02 -0.60382820938E+03  0.16671719954E+04  0.17733700638E+04  0.50400001928E-02 0. -1.
       -1    1    3    3    0  502 -0.27756334984E+02  0.60382820938E+03 -0.18288872650E+03  0.63152767705E+03  0.50400001928E-02 0.  1.
</event>
<event>
 5   0  0.5579109E-05  0.1891581E+04  0.7818609E-02  0.8659058E-01
        1   -1    0    0  501    0  0.00000000000E+00  0.00000000000E+00  0.59458155875E+03  0.59458155878E+03  0.50400001928E-02 0.  1.
       -1   -1    0    0    0  501  0.00000000000E+00  0.00000000000E+00 -0.15044530470E+04  0.15044530471E+04  0.50400001928E-02 0. -1.
    10030    2    1    2    0    0  0.00000000000E+00  0.00000000000E+00 -0.90987148829E+03  0.20990346058E+04  0.18915813890E+04 0.  0.
        3    1    3    3  502    0  0.89168885266E+03  0.24072404179E+03 -0.22897932542E+03  0.95157165570E+03  0.10100000352E+00 0.  1.
       -3    1    3    3    0  502 -0.89168885266E+03 -0.24072404179E+03 -0.68089216287E+03  0.11474629501E+04  0.10100000352E+00 0. -1.
</event>
<event>
 5   0  0.5579109E-05  0.1895571E+04  0.7818609E-02  0.8657064E-01
        1   -1    0    0  501    0  0.00000000000E+00  0.00000000000E+00  0.17085055659E+04  0.17085055659E+04  0.50400001928E-02 0.  1.
       -1   -1    0    0    0  501  0.00000000000E+00  0.00000000000E+00 -0.52577981588E+03  0.52577981591E+03  0.50400001928E-02 0. -1.
    10030    2    1    2    0    0  0.00000000000E+00  0.00000000000E+00  0.11827257500E+04  0.22342853818E+04  0.18955714093E+04 0.  0.
        3    1    3    3  502    0 -0.66860826879E+03 -0.37189021728E+03 -0.68026261107E+02  0.76809304984E+03  0.10100000352E+00 0. -1.
       -3    1    3    3    0  502  0.66860826879E+03  0.37189021728E+03  0.12507520111E+04  0.14661923320E+04  0.10100000352E+00 0.  1.
</event>
<event>
 5   0  0.5614989E-05  0.1918281E+04  0.7818609E-02  0.8645810E-01
        1   -1    0    0  501    0  0.00000000000E+00  0.00000000000E+00  0.74021339241E+03  0.74021339243E+03  0.50400001928E-02 0. -1.
       -1   -1    0    0    0  501  0.00000000000E+00  0.00000000000E+00 -0.12428182178E+04  0.12428182178E+04  0.50400001928E-02 0.  1.
    10030    2    1    2    0    0  0.00000000000E+00  0.00000000000E+00 -0.50260482534E+03  0.19830316102E+04  0.19182811985E+04 0.  0.
        4    1    3    3  502    0  0.48373209764E+03 -0.82565782666E+03 -0.18397739917E+03  0.97445209493E+03  0.12699999809E+01 0.  1.
       -4    1    3    3    0  502 -0.48373209764E+03  0.82565782666E+03 -0.31862742617E+03  0.10085795153E+04  0.12699999809E+01 0. -1.
</event>
<event>
 5   0  0.1101678E-04  0.1879913E+04  0.7818609E-02  0.8664920E-01
       -2   -1    0    0    0  501  0.00000000000E+00  0.00000000000E+00  0.95612784255E+03  0.95612784256E+03  0.25500000920E-02 0. -1.
        2   -1    0    0  501    0  0.00000000000E+00  0.00000000000E+00 -0.92405865996E+03  0.92405865996E+03  0.25500000920E-02 0.  1.
    10030    2    1    2    0    0  0.00000000000E+00  0.00000000000E+00  0.32069182594E+02  0.18801865025E+04  0.18799129905E+04 0.  0.
        4    1    3    3  502    0 -0.51969096133E+03 -0.76090332348E+03  0.20170652315E+03  0.94326014299E+03  0.12699999809E+01 0. -1.
       -4    1    3    3    0  502  0.51969096133E+03  0.76090332348E+03 -0.16963734056E+03  0.93692635953E+03  0.12699999809E+01 0.  1.
</event>
<event>
 5   0  0.5579109E-05  0.1906938E+04  0.7818609E-02  0.8651410E-01
        1   -1    0    0  501    0  0.00000000000E+00  0.00000000000E+00  0.18574794137E+04  0.18574794137E+04  0.50400001928E-02 0.  1.
       -1   -1    0    0    0  501  0.00000000000E+00  0.00000000000E+00 -0.48942858048E+03  0.48942858051E+03  0.50400001928E-02 0. -1.
    10030    2    1    2    0    0  0.00000000000E+00  0.00000000000E+00  0.13680508332E+04  0.23469079942E+04  0.19069383973E+04 0.  0.
        3    1    3    3  502    0  0.79126915629E+03 -0.47955652752E+02  0.13360713544E+04  0.15535421772E+04  0.10100000352E+00 0.  1.
       -3    1    3    3    0  502 -0.79126915629E+03  0.47955652752E+02  0.31979478884E+02  0.79336581701E+03  0.10100000352E+00 0. -1.
</event>
<event>
 5   0  0.1182630E-04  0.1912309E+04  0.7818609E-02  0.8648754E-01
       -2   -1    0    0    0  501  0.00000000000E+00  0.00000000000E+00  0.10675348739E+04  0.10675348739E+04  0.25500000920E-02 0.  1.
        2   -1    0    0  501    0  0.00000000000E+00  0.00000000000E+00 -0.85639460913E+03  0.85639460913E+03  0.25500000920E-02 0. -1.
    10030    2    1    2    0    0  0.00000000000E+00  0.00000000000E+00  0.21114026478E+03  0.19239294830E+04  0.19123086687E+04 0.  0.
        5    1    3    3  502    0 -0.44938394469E+02 -0.95381027904E+03  0.55919313377E+02  0.95651584791E+03  0.46999998093E+01 0.  1.
       -5    1    3    3    0  502  0.44938394469E+02  0.95381027904E+03  0.15522095140E+03  0.96741363514E+03  0.46999998093E+01 0. -1.
</event>
<event>
 5   0  0.5579109E-05  0.1907449E+04  0.7818609E-02  0.8651157E-01
        1   -1    0    0  501    0  0.00000000000E+00  0.00000000000E+00  0.10128738849E+04  0.10128738849E+04  0.50400001928E-02 0. -1.
       -1   -1    0    0    0  501  0.00000000000E+00  0.00000000000E+00 -0.89802956509E+03  0.89802956510E+03  0.50400001928E-02 0.  1.
    10030    2    1    2    0    0  0.00000000000E+00  0.00000000000E+00  0.11484431979E+03  0.19109034500E+04  0.19074492857E+04 0.  0.
        3    1    3    3  502    0 -0.23304781065E+03  0.76819664289E+03  0.57328504078E+03  0.98645482024E+03  0.10100000352E+00 0. -1.
       -3    1    3    3    0  502  0.23304781065E+03 -0.76819664289E+03 -0.45844072098E+03  0.92444862975E+03  0.10100000352E+00 0.  1.
</event>
<event>
 5   0  0.1118206E-04  0.1901075E+04  0.7818609E-02  0.8654321E-01
        2   -1    0    0  501    0  0.00000000000E+00  0.00000000000E+00  0.71579327425E+03  0.71579327425E+03  0.25500000920E-02 0. -1.
       -2   -1    0    0    0  501  0.00000000000E+00  0.00000000000E+00 -0.12622662481E+04  0.12622662481E+04  0.25500000920E-02 0.  1.
    10030    2    1    2    0    0  0.00000000000E+00  0.00000000000E+00 -0.54647297381E+03  0.19780595223E+04  0.19010751597E+04 0.  0.
        1    1    3    3  502    0  0.56624657026E+03  0.15155107543E+03 -0.10518153107E+04  0.12041255560E+04  0.50400001928E-02 0. -1.
       -1    1    3    3    0  502 -0.56624657026E+03 -0.15155107543E+03  0.50534233685E+03  0.77393396633E+03  0.50400001928E-02 0.  1.
</event>
<event>
 5   0  0.5579109E-05  0.1860539E+04  0.7818609E-02  0.8674752E-01
        1   -1    0    0  501    0  0.00000000000E+00  0.00000000000E+00  0.17004798479E+04  0.17004798479E+04  0.50400001928E-02 0. -1.
       -1   -1    0    0    0  501  0.00000000000E+00  0.00000000000E+00 -0.50891607329E+03  0.50891607331E+03  0.50400001928E-02 0.  1.
    10030    2    1    2    0    0  0.00000000000E+00  0.00000000000E+00  0.11915637746E+04  0.22093959212E+04  0.18605391981E+04 0.  0.
        3    1    3    3  502    0  0.71666185101E+03 -0.68429596952E+02  0.12954164012E+04  0.14820224293E+04  0.10100000352E+00 0. -1.
       -3    1    3    3    0  502 -0.71666185101E+03  0.68429596952E+02 -0.10385262657E+03  0.72737349187E+03  0.10100000352E+00 0.  1.
</event>
<event>
 5   0  0.1182630E-04  0.1907734E+04  0.7818609E-02  0.8651016E-01
        2   -1    0    0  501    0  0.00000000000E+00  0.00000000000E+00  0.80098370498E+03  0.80098370498E+03  0.25500000920E-02 0. -1.
       -2   -1    0    0    0  501  0.00000000000E+00  0.00000000000E+00 -0.11359312606E+04  0.11359312606E+04  0.25500000920E-02 0.  1.
    10030    2    1    2    0    0  0.00000000000E+00  0.00000000000E+00 -0.33494755563E+03  0.19369149656E+04  0.19077341846E+04 0.  0.
        5    1    3    3  502    0 -0.82882310991E+03  0.77710530253E+02  0.30532470780E+03  0.88669720943E+03  0.46999998093E+01 0. -1.
       -5    1    3    3    0  502  0.82882310991E+03 -0.77710530253E+02 -0.64027226344E+03  0.10502177562E+04  0.46999998093E+01 0.  1.
</event>
<event>
 5   0  0.1133638E-04  0.1916364E+04  0.7818609E-02  0.8646753E-01
        2   -1    0    0  501    0  0.00000000000E+00  0.00000000000E+00  0.97733127414E+03  0.97733127415E+03  0.25500000920E-02 0.  1.
       -2   -1    0    0    0  501  0.00000000000E+00  0.00000000000E+00 -0.93940819997E+03  0.93940819997E+03  0.25500000920E-02 0. -1.
    10030    2    1    2    0    0  0.00000000000E+00  0.00000000000E+00  0.37923074172E+02  0.19167394741E+04  0.19163642796E+04 0.  0.
        3    1    3    3  502    0  0.32892231973E+03  0.32622456470E+03  0.85787520361E+03  0.97496781188E+03  0.10100000352E+00 0.  1.
       -3    1    3    3    0  502 -0.32892231973E+03 -0.32622456470E+03 -0.81995212944E+03  0.94177166224E+03  0.10100000352E+00 0. -1.
</event>
<event>
 5   0  0.1133638E-04  0.1948058E+04  0.7818609E-02  0.8631298E-01
        2   -1    0    0  501    0  0.00000000000E+00  0.00000000000E+00  0.14513441496E+04  0.14513441496E+04  0.25500000920E-02 0.  1.
       -2   -1    0    0    0  501  0.00000000000E+00  0.00000000000E+00 -0.65369234569E+03  0.65369234569E+03  0.25500000920E-02 0. -1.
    10030    2    1    2    0    0  0.00000000000E+00  0.00000000000E+00  0.79765180395E+03  0.21050364953E+04  0.19480580706E+04 0.  0.
        3    1    3    3  502    0 -0.37166117408E+03 -0.53835528884E+03  0.11786244494E+04  0.13480037271E+04  0.10100000352E+00 0.  1.
       -3    1    3    3    0  502  0.37166117408E+03  0.53835528884E+03 -0.38097264548E+03  0.75703276821E+03  0.10100000352E+00 0. -1.
</event>
<event>
 5   0  0.5841424E-05  0.1880759E+04  0.7818609E-02  0.8664493E-01
        1   -1    0    0  501    0  0.00000000000E+00  0.00000000000E+00  0.11161047777E+04  0.11161047777E+04  0.50400001928E-02 0.  1.
       -1   -1    0    0    0  501  0.00000000000E+00  0.00000000000E+00 -0.79232156090E+03  0.79232156092E+03  0.50400001928E-02 0. -1.
    10030    2    1    2    0    0  0.00000000000E+00  0.00000000000E+00  0.32378321678E+03  0.19084263386E+04  0.18807592931E+04 0.  0.
        1    1    3    3  502    0  0.54236563334E+03 -0.43177969178E+03 -0.48284473929E+03  0.84482733428E+03  0.50400001928E-02 0. -1.
       -1    1    3    3    0  502 -0.54236563334E+03  0.43177969178E+03  0.80662795607E+03  0.10635990043E+04  0.50400001928E-02 0.  1.
</event>
<event>
 5   0  0.5614989E-05  0.1937374E+04  0.7818609E-02  0.8636474E-01
        1   -1    0    0  501    0  0.00000000000E+00  0.00000000000E+00  0.90723728907E+03  0.90723728908E+03  0.50400001928E-02 0.  1.
       -1   -1    0    0    0  501  0.00000000000E+00  0.00000000000E+00 -0.10342983915E+04  0.10342983915E+04  0.50400001928E-02 0. -1.
    10030    2    1    2    0    0  0.00000000000E+00  0.00000000000E+00 -0.12706110245E+03  0.19415356806E+04  0.19373735508E+04 0.  0.
        4    1    3    3  502    0 -0.21056684524E+03  0.83498147262E+03  0.38106654667E+03  0.94167180155E+03  0.12699999809E+01 0.  1.
       -4    1    3    3    0  502  0.21056684524E+03 -0.83498147262E+03 -0.50812764912E+03  0.99986387906E+03  0.12699999809E+01 0. -1.
</event>
<event>
 5   0  0.5841424E-05  0.1897569E+04  0.7818609E-02  0.8656067E-01
        1   -1    0    0  501    0  0.00000000000E+00  0.00000000000E+00  0.14859644571E+04  0.14859644572E+04  0.50400001928E-02 0.  1.
       -1   -1    0    0    0  501  0.00000000000E+00  0.00000000000E+00 -0.60579644013E+03  0.60579644015E+03  0.50400001928E-02 0. -1.
    10030    2    1    2    0    0  0.00000000000E+00  0.00000000000E+00  0.88016801702E+03  0.20917608973E+04  0.18975689482E+04 0.  0.
        1    1    3    3  502    0 -0.28519629426E+03  0.23987916319E+03  0.14019091150E+04  0.14505957762E+04  0.50400001928E-02 0.  1.
       -1    1    3    3    0  502  0.28519629426E+03 -0.23987916319E+03 -0.52174109797E+03  0.64116512111E+03  0.50400001928E-02 0. -1.
</event>
<event>
 5   0  0.4061125E-05  0.1924543E+04  0.7818609E-02  0.8642735E-01
       -3   -1    0    0    0  501  0.00000000000E+00  0.00000000000E+00  0.24684494755E+04  0.24684494775E+04  0.10100000352E+00 0. -1.
        3   -1    0    0  501    0  0.00000000000E+00  0.00000000000E+00 -0.37512067855E+03  0.37512069215E+03  0.10100000352E+00 0.  1.
    10030    2    1    2    0    0  0.00000000000E+00  0.00000000000E+00  0.20933287969E+04  0.28435701697E+04  0.19245430257E+04 0.  0.
        5    1    3    3  502    0 -0.30646328974E+03  0.49065181612E+03  0.21828124046E+04  0.22581742706E+04  0.46999998093E+01 0. -1.
       -5    1    3    3    0  502  0.30646328974E+03 -0.49065181612E+03 -0.89483607704E+02  0.58539589908E+03  0.46999998093E+01 0.  1.
</event>
<event>
 5   0  0.5628936E-05  0.1904936E+04  0.7818609E-02  0.8652403E-01
       -1   -1    0    0    0  501  0.00000000000E+00  0.00000000000E+00  0.92106265337E+03  0.92106265338E+03  0.50400001928E-02 0. -1.
        1   -1    0    0  501    0  0.00000000000E+00  0.00000000000E+00 -0.98494414160E+03  0.98494414161E+03  0.50400001928E-02 0.  1.
    10030    2    1    2    0    0  0.00000000000E+00  0.00000000000E+00 -0.63881488231E+02  0.19060067950E+04  0.19049359722E+04 0.  0.
        5    1    3    3  502    0  0.47125095140E+03  0.53138878064E+03  0.60301954658E+03  0.93172214685E+03  0.46999998093E+01 0. -1.
       -5    1    3    3    0  502 -0.47125095140E+03 -0.53138878064E+03 -0.66690103481E+03  0.97428464814E+03  0.46999998093E+01 0.  1.
</event>
<event>
 5   0  0.5614989E-05  0.1890861E+04  0.7818609E-02  0.8659419E-01
       -1   -1    0    0    0  501  0.00000000000E+00  0.00000000000E+00  0.63059513125E+03  0.63059513127E+03  0.50400001928E-02 0.  1.
        1   -1    0    0  501    0  0.00000000000E+00  0.00000000000E+00 -0.14174535157E+04  0.14174535157E+04  0.50400001928E-02 0. -1.
    10030    2    1    2    0    0  0.00000000000E+00  0.00000000000E+00 -0.78685838448E+03  0.20480486470E+04  0.18908614818E+04 0.  0.
        4    1    3    3  502    0  0.42989531737E+02  0.96993182799E+02 -0.14109845852E+04  0.14149681587E+04  0.12699999809E+01 0. -1.
       -4    1    3    3    0  502 -0.42989531737E+02 -0.96993182799E+02  0.62412620076E+03  0.63308048834E+03  0.12699999809E+01 0.  1.
</event>
<event>
 5   0  0.5824956E-05  0.1890842E+04  0.7818609E-02  0.8659428E-01
        1   -1    0    0  501    0  0.00000000000E+00  0.00000000000E+00  0.66397416993E+03  0.66397416995E+03  0.50400001928E-02 0.  1.
       -1   -1    0    0    0  501  0.00000000000E+00  0.00000000000E+00 -0.13461685876E+04  0.13461685876E+04  0.50400001928E-02 0. -1.
    10030    2    1    2    0    0  0.00000000000E+00  0.00000000000E+00 -0.68219441763E+03  0.20101427575E+04  0.18908423208E+04 0.  0.
        2    1    3    3  502    0  0.82362910779E+03  0.25598437692E+03  0.70538783097E+02  0.86537195954E+03  0.25500000920E-02 0.  1.
       -2    1    3    3    0  502 -0.82362910779E+03 -0.25598437692E+03 -0.75273320073E+03  0.11447707980E+04  0.25500000920E-02 0. -1.
</event>
<event>
 5   0  0.1141890E-04  0.1884263E+04  0.7818609E-02  0.8662730E-01
        2   -1    0    0  501    0  0.00000000000E+00  0.00000000000E+00  0.13468258769E+04  0.13468258769E+04  0.25500000920E-02 0.  1.
       -2   -1    0    0    0  501  0.00000000000E+00  0.00000000000E+00 -0.65903964284E+03  0.65903964285E+03  0.25500000920E-02 0. -1.
    10030    2    1    2    0    0  0.00000000000E+00  0.00000000000E+00  0.68778623403E+03  0.20058655197E+04  0.18842628743E+04 0.  0.
        2    1    3    3  502    0 -0.70487809913E+02  0.50052738502E+03  0.11902597326E+04  0.12931413015E+04  0.25500000920E-02 0.  1.
       -2    1    3    3    0  502  0.70487809913E+02 -0.50052738502E+03 -0.50247349858E+03  0.71272421825E+03  0.25500000920E-02 0. -1.
</event>
<event>
 5   0  0.5628936E-05  0.1896124E+04  0.7818609E-02  0.8656788E-01
       -1   -1    0    0    0  501  0.00000000000E+00  0.00000000000E+00  0.14863265034E+04  0.14863265034E+04  0.50400001928E-02 0. -1.
        1   -1    0    0  501    0  0.00000000000E+00  0.00000000000E+00 -0.60472686035E+03  0.60472686037E+03  0.50400001928E-02 0.  1.
    10030    2    1    2    0    0  0.00000000000E+00  0.00000000000E+00  0.88159964300E+03  0.20910533637E+04  0.18961240042E+04 0.  0.
        5    1    3    3  502    0 -0.80474854709E+03 -0.29912252190E+03  0.88426554126E+03  0.12324942777E+04  0.46999998093E+01 0. -1.
       -5    1    3    3    0  502  0.80474854709E+03  0.29912252190E+03 -0.26658982610E+01  0.85855908601E+03  0.46999998093E+01 0.  1.
</event>
<event>
 5   0  0.5579109E-05  0.1895991E+04  0.7818609E-02  0.8656854E-01
        1   -1    0    0  501    0  0.00000000000E+00  0.00000000000E+00  0.10108674040E+04  0.10108674040E+04  0.50400001928E-02 0.  1.
       -1   -1    0    0    0  501  0.00000000000E+00  0.00000000000E+00 -0.88903415527E+03  0.88903415528E+03  0.50400001928E-02 0. -1.
    10030    2    1    2    0    0  0.00000000000E+00  0.00000000000E+00  0.12183324873E+03  0.18999015593E+04  0.18959911905E+04 0.  0.
        3    1    3    3  502    0 -0.68938819331E+03 -0.99145784437E+02 -0.58353470871E+03  0.90862463874E+03  0.10100000352E+00 0. -1.
       -3    1    3    3    0  502  0.68938819331E+03  0.99145784437E+02  0.70536795744E+03  0.99127692056E+03  0.10100000352E+00 0.  1.
</event>
<event>
 5   0  0.1141890E-04  0.1875858E+04  0.7818609E-02  0.8666968E-01
        2   -1    0    0  501    0  0.00000000000E+00  0.00000000000E+00  0.83776937390E+03  0.83776937390E+03  0.25500000920E-02 0. -1.
       -2   -1    0    0    0  501  0.00000000000E+00  0.00000000000E+00 -0.10500630370E+04  0.10500630370E+04  0.25500000920E-02 0.  1.
    10030    2    1    2    0    0  0.00000000000E+00  0.00000000000E+00 -0.21229366310E+03  0.18878324109E+04  0.18758578337E+04 0.  0.
        2    1    3    3  502    0 -0.73194991680E+03 -0.32862213065E+03  0.38271888572E+03  0.88894146655E+03  0.25500000920E-02 0. -1.
       -2    1    3    3    0  502  0.73194991680E+03  0.32862213065E+03 -0.59501254882E+03  0.99889094436E+03  0.25500000920E-02 0.  1.
</event>
<event>
 5   0  0.5824956E-05  0.1722218E+04  0.7818609E-02  0.8748793E-01
       -1   -1    0    0    0  501  0.00000000000E+00  0.00000000000E+00  0.47202054457E+03  0.47202054460E+03  0.50400001928E-02 0. -1.
        1   -1    0    0  501    0  0.00000000000E+00  0.00000000000E+00 -0.15709250847E+04  0.15709250847E+04  0.50400001928E-02 0.  1.
    10030    2    1    2    0    0  0.00000000000E+00  0.00000000000E+00 -0.10989045401E+04  0.20429456293E+04  0.17222182370E+04 0.  0.
        2    1    3    3  502    0 -0.90325107983E+02 -0.16142823227E+03  0.44817372409E+03  0.48484779703E+03  0.25500000920E-02 0. -1.
       -2    1    3    3    0  502  0.90325107983E+02  0.16142823227E+03 -0.15470782642E+04  0.15580978323E+04  0.25500000920E-02 0.  1.
</event>
<event>
 5   0  0.5628936E-05  0.1830243E+04  0.7818609E-02  0.8690380E-01
       -1   -1    0    0    0  501  0.00000000000E+00  0.00000000000E+00  0.45417251739E+03  0.45417251742E+03  0.50400001928E-02 0.  1.
        1   -1    0    0  501    0  0.00000000000E+00  0.00000000000E+00 -0.18438967966E+04  0.18438967966E+04  0.50400001928E-02 0. -1.
    10030    2    1    2    0    0  0.00000000000E+00  0.00000000000E+00 -0.13897242792E+04  0.22980693140E+04  0.18302428800E+04 0.  0.
        5    1    3    3  502    0  0.26080856655E+03 -0.23567777445E+03 -0.17557291222E+04  0.17905786669E+04  0.46999998093E+01 0. -1.
       -5    1    3    3    0  502 -0.26080856655E+03  0.23567777445E+03  0.36600484304E+03  0.50749064709E+03  0.46999998093E+01 0.  1.
</event>
<event>
 5   0  0.1118206E-04  0.1903807E+04  0.7818609E-02  0.8652964E-01
        2   -1    0    0  501    0  0.00000000000E+00  0.00000000000E+00  0.73681497508E+03  0.73681497508E+03  0.25500000920E-02 0.  1.
       -2   -1    0    0    0  501  0.00000000000E+00  0.00000000000E+00 -0.12297795659E+04  0.12297795659E+04  0.25500000920E-02 0. -1.
    10030    2    1    2    0    0  0.00000000000E+00  0.00000000000E+00 -0.49296459079E+03  0.19665945410E+04  0.19038067131E+04 0.  0.
        1    1    3    3  502    0  0.58103136346E+03 -0.37374822487E+03  0.42996972109E+03  0.81373161546E+03  0.50400001928E-02 0.  1.
       -1    1    3    3    0  502 -0.58103136346E+03  0.37374822487E+03 -0.92293431188E+03  0.11528629255E+04  0.50400001928E-02 0. -1.
</event>
<event>
 5   0  0.1141890E-04  0.1895164E+04  0.7818609E-02  0.8657267E-01
       -2   -1    0    0    0  501  0.00000000000E+00  0.00000000000E+00  0.46743728055E+03  0.46743728056E+03  0.25500000920E-02 0. -1.
        2   -1    0    0  501    0  0.00000000000E+00  0.00000000000E+00 -0.19209239404E+04  0.19209239404E+04  0.25500000920E-02 0.  1.
    10030    2    1    2    0    0  0.00000000000E+00  0.00000000000E+00 -0.14534866599E+04  0.23883612210E+04  0.18951638060E+04 0.  0.
        2    1    3    3  502    0  0.44595256430E+03  0.68739359827E+03 -0.13265537757E+04  0.15592076733E+04  0.25500000920E-02 0.  1.
       -2    1    3    3    0  502 -0.44595256430E+03 -0.68739359827E+03 -0.12693288412E+03  0.82915354768E+03  0.25500000920E-02 0. -1.
</event>
<event>
 5   0  0.1101678E-04  0.1911948E+04  0.7818609E-02  0.8648932E-01
        2   -1    0    0  501    0  0.00000000000E+00  0.00000000000E+00  0.16380194041E+04  0.16380194041E+04  0.25500000920E-02 0.  1.
       -2   -1    0    0    0  501  0.00000000000E+00  0.00000000000E+00 -0.55792172921E+03  0.55792172921E+03  0.25500000920E-02 0. -1.
    10030    2    1    2    0    0  0.00000000000E+00  0.00000000000E+00  0.10800976749E+04  0.21959411333E+04  0.19119483449E+04 0.  0.
        4    1    3    3  502    0  0.26539085257E+03  0.12025200067E+03  0.15857792773E+04  0.16123245261E+04  0.12699999809E+01 0.  1.
       -4    1    3    3    0  502 -0.26539085257E+03 -0.12025200067E+03 -0.50568160241E+03  0.58361660721E+03  0.12699999809E+01 0. -1.
</event>
<event>
 5   0  0.1182630E-04  0.1894455E+04  0.7818609E-02  0.8657621E-01
       -2   -1    0    0    0  501  0.00000000000E+00  0.00000000000E+00  0.15950996685E+04  0.15950996685E+04  0.25500000920E-02 0. -1.
        2   -1    0    0  501    0  0.00000000000E+00  0.00000000000E+00 -0.56249771244E+03  0.56249771245E+03  0.25500000920E-02 0.  1.
    10030    2    1    2    0    0  0.00000000000E+00  0.00000000000E+00  0.10326019561E+04  0.21575973809E+04  0.18944549767E+04 0.  0.
        5    1    3    3  502    0 -0.73405281885E+03 -0.51556580960E+03  0.16977504180E+03  0.91295525614E+03  0.46999998093E+01 0.  1.
       -5    1    3    3    0  502  0.73405281885E+03  0.51556580960E+03  0.86282691426E+03  0.12446421248E+04  0.46999998093E+01 0. -1.
</event>
<event>
 5   0  0.1101678E-04  0.1910201E+04  0.7818609E-02  0.8649795E-01
       -2   -1    0    0    0  501  0.00000000000E+00  0.00000000000E+00  0.64014524079E+03  0.64014524080E+03  0.25500000920E-02 0.  1.
        2   -1    0    0  501    0  0.00000000000E+00  0.00000000000E+00 -0.14250161329E+04  0.14250161329E+04  0.25500000920E-02 0. -1.
    10030    2    1    2    0    0  0.00000000000E+00  0.00000000000E+00 -0.78487089206E+03  0.20651613737E+04  0.19102013459E+04 0.  0.
        4    1    3    3  502    0 -0.72566429156E+02  0.93032577694E+03 -0.17234340304E+03  0.94893403319E+03  0.12699999809E+01 0. -1.
       -4    1    3    3    0  502  0.72566429156E+02 -0.93032577694E+03 -0.61252748902E+03  0.11162273405E+04  0.12699999809E+01 0.  1.
</event>
<event>
 5   0  0.1118206E-04  0.1902101E+04  0.7818609E-02  0.8653811E-01
       -2   -1    0    0    0  501  0.00000000000E+00  0.00000000000E+00  0.38410707448E+03  0.38410707449E+03  0.25500000920E-02 0.  1.
        2   -1    0    0  501    0  0.00000000000E+00  0.00000000000E+00 -0.23548055358E+04  0.23548055358E+04  0.25500000920E-02 0. -1.
    10030    2    1    2    0    0  0.00000000000E+00  0.00000000000E+00 -0.19706984613E+04  0.27389126102E+04  0.19021014330E+04 0.  0.
        1    1    3    3  502    0 -0.35554798456E+03 -0.62356333217E+03 -0.18837287752E+04  0.20158570627E+04  0.50400001928E-02 0. -1.
       -1    1    3    3    0  502  0.35554798456E+03  0.62356333217E+03 -0.86969686056E+02  0.72305554757E+03  0.50400001928E-02 0.  1.
</event>
<event>
 5   0  0.5614989E-05  0.1886656E+04  0.7818609E-02  0.8661527E-01
        1   -1    0    0  501    0  0.00000000000E+00  0.00000000000E+00  0.14464406987E+04  0.14464406987E+04  0.50400001928E-02 0.  1.
       -1   -1    0    0    0  501  0.00000000000E+00  0.00000000000E+00 -0.61521175776E+03  0.61521175778E+03  0.50400001928E-02 0. -1.
    10030    2    1    2    0    0  0.00000000000E+00  0.00000000000E+00  0.83122894091E+03  0.20616524565E+04  0.18866555857E+04 0.  0.
        4    1    3    3  502    0  0.66910004322E+03 -0.56502748161E+03  0.32503224837E+02  0.87636122423E+03  0.12699999809E+01 0. -1.
       -4    1    3    3    0  502 -0.66910004322E+03  0.56502748161E+03  0.79872571607E+03  0.11852912322E+04  0.12699999809E+01 0.  1.
</event>
<event>
 5   0  0.1141890E-04  0.1887336E+04  0.7818609E-02  0.8661186E-01
        2   -1    0    0  501    0  0.00000000000E+00  0.00000000000E+00  0.82376498054E+03  0.82376498055E+03  0.25500000920E-02 0. -1.
       -2   -1    0    0    0  501  0.00000000000E+00  0.00000000000E+00 -0.10810230257E+04  0.10810230257E+04  0.25500000920E-02 0.  1.
    10030    2    1    2    0    0  0.00000000000E+00  0.00000000000E+00 -0.25725804520E+03  0.19047880063E+04  0.18873355947E+04 0.  0.
        2    1    3    3  502    0 -0.43845403155E+03  0.83037225970E+03 -0.34228618451E+02  0.93964441455E+03  0.25500000920E-02 0.  1.
       -2    1    3    3    0  502  0.43845403155E+03 -0.83037225970E+03 -0.22302942675E+03  0.96514359174E+03  0.25500000920E-02 0. -1.
</event>
<event>
 5   0  0.1133638E-04  0.1902223E+04  0.7818609E-02  0.8653750E-01
       -2   -1    0    0    0  501  0.00000000000E+00  0.00000000000E+00  0.13439505979E+04  0.13439505979E+04  0.25500000920E-02 0. -1.
        2   -1    0    0  501    0  0.00000000000E+00  0.00000000000E+00 -0.67310022387E+03  0.67310022387E+03  0.25500000920E-02 0.  1.
    10030    2    1    2    0    0  0.00000000000E+00  0.00000000000E+00  0.67085037406E+03  0.20170508218E+04  0.19022233816E+04 0.  0.
        3    1    3    3  502    0  0.78500786249E+03  0.28314416181E+03  0.81926477627E+03  0.11694454858E+04  0.10100000352E+00 0. -1.
       -3    1    3    3    0  502 -0.78500786249E+03 -0.28314416181E+03 -0.14841440221E+03  0.84760533595E+03  0.10100000352E+00 0.  1.
</event>
<event>
 5   0  0.4061125E-05  0.1841771E+04  0.7818609E-02  0.8684396E-01
       -4   -1    0    0    0  501  0.00000000000E+00  0.00000000000E+00  0.72789798567E+03  0.72789909358E+03  0.12699999809E+01 0. -1.
        4   -1    0    0  501    0  0.00000000000E+00  0.00000000000E+00 -0.11650376142E+04  0.11650383064E+04  0.12699999809E+01 0.  1.
    10030    2    1    2    0    0  0.00000000000E+00  0.00000000000E+00 -0.43713962849E+03  0.18929373999E+04  0.18417711436E+04 0.  0.
        4    1    3    3  502    0  0.89432637249E+03 -0.16491578898E+03 -0.69588550768E+02  0.91206417388E+03  0.12699999809E+01 0.  1.
       -4    1    3    3    0  502 -0.89432637249E+03  0.16491578898E+03 -0.36755107772E+03  0.98087322606E+03  0.12699999809E+01 0. -1.
</event>
<event>
 5   0  0.1118206E-04  0.1866067E+04  0.7818609E-02  0.8671934E-01
       -2   -1    0    0    0  501  0.00000000000E+00  0.00000000000E+00  0.60794444258E+03  0.60794444258E+03  0.25500000920E-02 0.  1.
        2   -1    0    0  501    0  0.00000000000E+00  0.00000000000E+00 -0.14319584776E+04  0.14319584776E+04  0.25500000920E-02 0. -1.
    10030    2    1    2    0    0  0.00000000000E+00  0.00000000000E+00 -0.82401403501E+03  0.20399029202E+04  0.18660666638E+04 0.  0.
        1    1    3    3  502    0 -0.66627077406E+03  0.61664832597E+03 -0.64742759563E+03  0.11150490545E+04  0.50400001928E-02 0.  1.
       -1    1    3    3    0  502  0.66627077406E+03 -0.61664832597E+03 -0.17658643938E+03  0.92485386569E+03  0.50400001928E-02 0. -1.
</event>
<event>
 5   0  0.5841424E-05  0.1928678E+04  0.7818609E-02  0.8640712E-01
       -1   -1    0    0    0  501  0.00000000000E+00  0.00000000000E+00  0.67771981426E+03  0.67771981428E+03  0.50400001928E-02 0. -1.
        1   -1    0    0  501    0  0.00000000000E+00  0.00000000000E+00 -0.13721742201E+04  0.13721742201E+04  0.50400001928E-02 0.  1.
    10030    2    1    2    0    0  0.00000000000E+00  0.00000000000E+00 -0.69445440587E+03  0.20498940344E+04  0.19286779489E+04 0.  0.
        1    1    3    3  502    0  0.68978736951E+02 -0.11166437939E+03 -0.13626364459E+04  0.13689430535E+04  0.50400001928E-02 0.  1.
       -1    1    3    3    0  502 -0.68978736951E+02  0.11166437939E+03  0.66818204007E+03  0.68095098096E+03  0.50400001928E-02 0. -1.
</event>
<event>
 5   0  0.1141890E-04  0.1873328E+04  0.7818609E-02  0.8668248E-01
       -2   -1    0    0    0  501  0.00000000000E+00  0.00000000000E+00  0.57958950296E+03  0.57958950296E+03  0.25500000920E-02 0.  1.
        2   -1    0    0  501    0  0.00000000000E+00  0.00000000000E+00 -0.15137262338E+04  0.15137262338E+04  0.25500000920E-02 0. -1.
    10030    2    1    2    0    0  0.00000000000E+00  0.00000000000E+00 -0.93413673087E+03  0.20933157368E+04  0.18733284127E+04 0.  0.
        2    1    3    3  502    0  0.81845045823E+02 -0.92423419678E+03 -0.61031056016E+03  0.11105793271E+04  0.25500000920E-02 0.  1.
       -2    1    3    3    0  502 -0.81845045823E+02  0.92423419678E+03 -0.32382617071E+03  0.98273640965E+03  0.25500000920E-02 0. -1.
</event>
<event>
 5   0  0.5628936E-05  0.1924012E+04  0.7818609E-02  0.8642996E-01
        1   -1    0    0  501    0  0.00000000000E+00  0.00000000000E+00  0.37804298404E+03  0.37804298407E+03  0.50400001928E-02 0.  1.
       -1   -1    0    0    0  501  0.00000000000E+00  0.00000000000E+00 -0.24480169130E+04  0.24480169130E+04  0.50400001928E-02 0. -1.
    10030    2    1    2    0    0  0.00000000000E+00  0.00000000000E+00 -0.20699739289E+04  0.28260598971E+04  0.19240120777E+04 0.  0.
        5    1    3    3  502    0 -0.57862340542E+03 -0.76115717120E+03 -0.87906701169E+03  0.12988249249E+04  0.46999998093E+01 0.  1.
       -5    1    3    3    0  502  0.57862340542E+03  0.76115717120E+03 -0.11909069172E+04  0.15272349721E+04  0.46999998093E+01 0. -1.
</event>
<event>
 5   0  0.1182630E-04  0.1897164E+04  0.7818609E-02  0.8656270E-01
       -2   -1    0    0    0  501  0.00000000000E+00  0.00000000000E+00  0.66525941412E+03  0.66525941412E+03  0.25500000920E-02 0.  1.
        2   -1    0    0  501    0  0.00000000000E+00  0.00000000000E+00 -0.13525661798E+04  0.13525661798E+04  0.25500000920E-02 0. -1.
    10030    2    1    2    0    0  0.00000000000E+00  0.00000000000E+00 -0.68730676568E+03  0.20178255939E+04  0.18971635505E+04 0.  0.
        5    1    3    3  502    0  0.69972954540E+03 -0.48191766141E+03 -0.79228543022E+03  0.11617247359E+04  0.46999998093E+01 0.  1.
       -5    1    3    3    0  502 -0.69972954540E+03  0.48191766141E+03  0.10497866454E+03  0.85610085801E+03  0.46999998093E+01 0. -1.
</event>
<event>
 5   0  0.5614989E-05  0.1895626E+04  0.7818609E-02  0.8657037E-01
       -1   -1    0    0    0  501  0.00000000000E+00  0.00000000000E+00  0.62681993628E+03  0.62681993630E+03  0.50400001928E-02 0. -1.
        1   -1    0    0  501    0  0.00000000000E+00  0.00000000000E+00 -0.14331853611E+04  0.14331853612E+04  0.50400001928E-02 0.  1.
    10030    2    1    2    0    0  0.00000000000E+00  0.00000000000E+00 -0.80636542487E+03  0.20600052975E+04  0.18956256558E+04 0.  0.
        4    1    3    3  502    0 -0.17694179527E+03 -0.72693414756E+03  0.22917528214E+03  0.78247337121E+03  0.12699999809E+01 0. -1.
       -4    1    3    3    0  502  0.17694179527E+03  0.72693414756E+03 -0.10355407070E+04  0.12775319262E+04  0.12699999809E+01 0.  1.
</event>
<event>
 5   0  0.1101678E-04  0.1905336E+04  0.7818609E-02  0.8652205E-01
        2   -1    0    0  501    0  0.00000000000E+00  0.00000000000E+00  0.14004543083E+04  0.14004543083E+04  0.25500000920E-02 0. -1.
       -2   -1    0    0    0  501  0.00000000000E+00  0.00000000000E+00 -0.64805853025E+03  0.64805853025E+03  0.25500000920E-02 0.  1.
    10030    2    1    2    0    0  0.00000000000E+00  0.00000000000E+00  0.75239577807E+03  0.20485128386E+04  0.19053360446E+04 0.  0.
        4    1    3    3  502    0  0.40668413656E+03  0.76355373406E+03  0.80513696177E+03  0.11818009273E+04  0.12699999809E+01 0. -1.
       -4    1    3    3    0  502 -0.40668413656E+03 -0.76355373406E+03 -0.52741183699E+02  0.86671191124E+03  0.12699999809E+01 0.  1.
</event>
<event>
 5   0  0.5841424E-05  0.1899037E+04  0.7818609E-02  0.8655336E-01
       -1   -1    0    0    0  501  0.00000000000E+00  0.00000000000E+00  0.16372546326E+04  0.16372546326E+04  0.50400001928E-02 0. -1.
        1   -1    0    0  501    0  0.00000000000E+00  0.00000000000E+00 -0.55066872804E+03  0.55066872806E+03  0.50400001928E-02 0.  1.
    10030    2    1    2    0    0  0.00000000000E+00  0.00000000000E+00  0.10865859046E+04  0.21879233607E+04  0.18990365200E+04 0.  0.
        1    1    3    3  502    0 -0.92628647944E+02 -0.74335667548E+03  0.12155106874E+04  0.14278044140E+04  0.50400001928E-02 0. -1.
       -1    1    3    3    0  502  0.92628647944E+02  0.74335667548E+03 -0.12892478287E+03  0.76011894665E+03  0.50400001928E-02 0.  1.
</event>
<event>
 5   0  0.1118206E-04  0.1912924E+04  0.7818609E-02  0.8648450E-01
       -2   -1    0    0    0  501  0.00000000000E+00  0.00000000000E+00  0.56073130021E+03  0.56073130021E+03  0.25500000920E-02 0.  1.
        2   -1    0    0  501    0  0.00000000000E+00  0.00000000000E+00 -0.16314761717E+04  0.16314761717E+04  0.25500000920E-02 0. -1.
    10030    2    1    2    0    0  0.00000000000E+00  0.00000000000E+00 -0.10707448715E+04  0.21922074719E+04  0.19129242066E+04 0.  0.
        1    1    3    3  502    0 -0.64763515250E+03  0.43917481085E+03  0.94941042315E+02  0.78823829315E+03  0.50400001928E-02 0.  1.
       -1    1    3    3    0  502  0.64763515250E+03 -0.43917481085E+03 -0.11656859138E+04  0.14039691787E+04  0.50400001928E-02 0. -1.
</event>
<event>
 5   0  0.5614989E-05  0.1900415E+04  0.7818609E-02  0.8654650E-01
        1   -1    0    0  501    0  0.00000000000E+00  0.00000000000E+00  0.93198474890E+03  0.93198474891E+03  0.50400001928E-02 0.  1.
       -1   -1    0    0    0  501  0.00000000000E+00  0.00000000000E+00 -0.96878652028E+03  0.96878652029E+03  0.50400001928E-02 0. -1.
    10030    2    1    2    0    0  0.00000000000E+00  0.00000000000E+00 -0.36801771381E+02  0.19007712692E+04  0.19004149672E+04 0.  0.
        4    1    3    3  502    0  0.40288021162E+03 -0.39744152927E+03 -0.78183975174E+03  0.96516695157E+03  0.12699999809E+01 0. -1.
       -4    1    3    3    0  502 -0.40288021162E+03  0.39744152927E+03  0.74503798036E+03  0.93560431764E+03  0.12699999809E+01 0.  1.
</event>
<event>
 5   0  0.1133638E-04  0.1888887E+04  0.7818609E-02  0.8660408E-01
       -2   -1    0    0    0  501  0.00000000000E+00  0.00000000000E+00  0.75008630092E+03  0.75008630092E+03  0.25500000920E-02 0. -1.
        2   -1    0    0  501    0  0.00000000000E+00  0.00000000000E+00 -0.11891611546E+04  0.11891611546E+04  0.25500000920E-02 0.  1.
    10030    2    1    2    0    0  0.00000000000E+00  0.00000000000E+00 -0.43907485365E+03  0.19392474555E+04  0.18888869650E+04 0.  0.
        3    1    3    3  502    0  0.65596255502E+03 -0.56000370142E+03  0.17553714146E+03  0.88017289064E+03  0.10100000352E+00 0. -1.
       -3    1    3    3    0  502 -0.65596255502E+03  0.56000370142E+03 -0.61461199512E+03  0.10590745649E+04  0.10100000352E+00 0.  1.
</event>
<event>
 5   0  0.5579109E-05  0.1894922E+04  0.7818609E-02  0.8657388E-01
       -1   -1    0    0    0  501  0.00000000000E+00  0.00000000000E+00  0.11268829706E+04  0.11268829706E+04  0.50400001928E-02 0.  1.
        1   -1    0    0  501    0  0.00000000000E+00  0.00000000000E+00 -0.79660632293E+03  0.79660632294E+03  0.50400001928E-02 0. -1.
    10030    2    1    2    0    0  0.00000000000E+00  0.00000000000E+00  0.33027664765E+03  0.19234892935E+04  0.18949217394E+04 0.  0.
        3    1    3    3  502    0  0.48752095191E+03 -0.48877061472E+03 -0.49357371451E+03  0.84863915430E+03  0.10100000352E+00 0. -1.
       -3    1    3    3    0  502 -0.48752095191E+03  0.48877061472E+03  0.82385036216E+03  0.10748501392E+04  0.10100000352E+00 0.  1.
</event>
<event>
 5   0  0.1118206E-04  0.1909051E+04  0.7818609E-02  0.8650364E-01
       -2   -1    0    0    0  501  0.00000000000E+00  0.00000000000E+00  0.49415514224E+03  0.49415514224E+03  0.25500000920E-02 0. -1.
        2   -1    0    0  501    0  0.00000000000E+00  0.00000000000E+00 -0.18437914967E+04  0.18437914967E+04  0.25500000920E-02 0.  1.
    10030    2    1    2    0    0  0.00000000000E+00  0.00000000000E+00 -0.13496363544E+04  0.23379466389E+04  0.19090511248E+04 0.  0.
        1    1    3    3  502    0 -0.29018673419E+03  0.22070028366E+03  0.40552872990E+03  0.54531688651E+03  0.50400001928E-02 0. -1.
       -1    1    3    3    0  502  0.29018673419E+03 -0.22070028366E+03 -0.17551650843E+04  0.17926297524E+04  0.50400001928E-02 0.  1.
</event>
<event>
 5   0  0.5614989E-05  0.1905870E+04  0.7818609E-02  0.8651940E-01
       -1   -1    0    0    0  501  0.00000000000E+00  0.00000000000E+00  0.17856603994E+04  0.17856603994E+04  0.50400001928E-02 0.  1.
        1   -1    0    0  501    0  0.00000000000E+00  0.00000000000E+00 -0.50854283207E+03  0.50854283210E+03  0.50400001928E-02 0. -1.
    10030    2    1    2    0    0  0.00000000000E+00  0.00000000000E+00  0.12771175674E+04  0.22942032315E+04  0.19058696668E+04 0.  0.
        4    1    3    3  502    0  0.70649666924E+03 -0.11687271213E+03 -0.11826475414E+03  0.72579951740E+03  0.12699999809E+01 0. -1.
       -4    1    3    3    0  502 -0.70649666924E+03  0.11687271213E+03  0.13953823215E+04  0.15684037141E+04  0.12699999809E+01 0.  1.
</event>
<event>
 5   0  0.1133638E-04  0.1894722E+04  0.7818609E-02  0.8657488E-01
       -2   -1    0    0    0  501  0.00000000000E+00  0.00000000000E+00  0.51945644861E+03  0.51945644862E+03  0.25500000920E-02 0.  1.
        2   -1    0    0  501    0  0.00000000000E+00  0.00000000000E+00 -0.17277533815E+04  0.17277533815E+04  0.25500000920E-02 0. -1.
    10030    2    1    2    0    0  0.00000000000E+00  0.00000000000E+00 -0.12082969328E+04  0.22472098301E+04  0.18947217586E+04 0.  0.
        3    1    3    3  502    0  0.29101124395E+03 -0.18306852153E+03  0.44285474348E+03  0.56064423809E+03  0.10100000352E+00 0.  1.
       -3    1    3    3    0  502 -0.29101124395E+03  0.18306852153E+03 -0.16511516763E+04  0.16865655920E+04  0.10100000352E+00 0. -1.
</event>
<event>
 5   0  0.5614989E-05  0.1874192E+04  0.7818609E-02  0.8667810E-01
        1   -1    0    0  501    0  0.00000000000E+00  0.00000000000E+00  0.11374906929E+04  0.11374906929E+04  0.50400001928E-02 0.  1.
       -1   -1    0    0    0  501  0.00000000000E+00  0.00000000000E+00 -0.77200528651E+03  0.77200528652E+03  0.50400001928E-02 0. -1.
    10030    2    1    2    0    0  0.00000000000E+00  0.00000000000E+00  0.36548540640E+03  0.19094959794E+04  0.18741919094E+04 0.  0.
        4    1    3    3  502    0 -0.68471090985E+03 -0.53926702194E+03  0.53347910373E+03  0.10218803834E+04  0.12699999809E+01 0. -1.
       -4    1    3    3    0  502  0.68471090985E+03  0.53926702194E+03 -0.16799369733E+03  0.88761559600E+03  0.12699999809E+01 0.  1.
</event>
<event>
 5   0  0.4061125E-05  0.1903401E+04  0.7818609E-02  0.8653165E-01
       -3   -1    0    0    0  501  0.00000000000E+00  0.00000000000E+00  0.13198397230E+04  0.13198397268E+04  0.10100000352E+00 0. -1.
        3   -1    0    0  501    0  0.00000000000E+00  0.00000000000E+00 -0.68624513477E+03  0.68624514221E+03  0.10100000352E+00 0.  1.
    10030    2    1    2    0    0  0.00000000000E+00  0.00000000000E+00  0.63359458818E+03  0.20060848690E+04  0.19034007459E+04 0.  0.
        5    1    3    3  502    0  0.41415828023E+03 -0.44065010949E+02 -0.58507821486E+03  0.71819733623E+03  0.46999998093E+01 0.  1.
       -5    1    3    3    0  502 -0.41415828023E+03  0.44065010949E+02  0.12186728030E+04  0.12878875328E+04  0.46999998093E+01 0. -1.
</event>
<event>
 5   0  0.5614989E-05  0.1899463E+04  0.7818609E-02  0.8655124E-01
       -1   -1    0    0    0  501  0.00000000000E+00  0.00000000000E+00  0.89723608336E+03  0.89723608338E+03  0.50400001928E-02 0. -1.
        1   -1    0    0  501    0  0.00000000000E+00  0.00000000000E+00 -0.10052979242E+04  0.10052979242E+04  0.50400001928E-02 0.  1.
    10030    2    1    2    0    0  0.00000000000E+00  0.00000000000E+00 -0.10806184079E+03  0.19025340075E+04  0.18994626315E+04 0.  0.
        4    1    3    3  502    0 -0.53085297127E+03  0.31121670266E+03 -0.77861426575E+03  0.99242254149E+03  0.12699999809E+01 0.  1.
       -4    1    3    3    0  502  0.53085297127E+03 -0.31121670266E+03  0.67055242496E+03  0.91011146605E+03  0.12699999809E+01 0. -1.
</event>
<event>
 5   0  0.5628936E-05  0.1905969E+04  0.7818609E-02  0.8651891E-01
       -1   -1    0    0    0  501  0.00000000000E+00  0.00000000000E+00  0.51982807210E+03  0.51982807212E+03  0.50400001928E-02 0.  1.
        1   -1    0    0  501    0  0.00000000000E+00  0.00000000000E+00 -0.17470759153E+04  0.17470759153E+04  0.50400001928E-02 0. -1.
    10030    2    1    2    0    0  0.00000000000E+00  0.00000000000E+00 -0.12272478432E+04  0.22669039874E+04  0.19059686303E+04 0.  0.
        5    1    3    3  502    0 -0.41143652091E+03 -0.60161041858E+03  0.11659753578E+03  0.73812748346E+03  0.46999998093E+01 0.  1.
       -5    1    3    3    0  502  0.41143652091E+03  0.60161041858E+03 -0.13438453790E+04  0.15287765040E+04  0.46999998093E+01 0. -1.
</event>
<event>
 5   0  0.1141890E-04  0.1898375E+04  0.7818609E-02  0.8655666E-01
        2   -1    0    0  501    0  0.00000000000E+00  0.00000000000E+00  0.77616687616E+03  0.77616687616E+03  0.25500000920E-02 0.  1.
       -2   -1    0    0    0  501  0.00000000000E+00  0.00000000000E+00 -0.11607768490E+04  0.11607768490E+04  0.25500000920E-02 0. -1.
    10030    2    1    2    0    0  0.00000000000E+00  0.00000000000E+00 -0.38460997287E+03  0.19369437252E+04  0.18983746109E+04 0.  0.
        2    1    3    3  502    0  0.26998870841E+03  0.25747911304E+03 -0.10828301686E+04  0.11452993366E+04  0.25500000920E-02 0. -1.
       -2    1    3    3    0  502 -0.26998870841E+03 -0.25747911304E+03  0.69822019572E+03  0.79164438863E+03  0.25500000920E-02 0.  1.
</event>
<event>
 5   0  0.1101678E-04  0.1898168E+04  0.7818609E-02  0.8655769E-01
       -2   -1    0    0    0  501  0.00000000000E+00  0.00000000000E+00  0.62152534367E+03  0.62152534367E+03  0.25500000920E-02 0.  1.
        2   -1    0    0  501    0  0.00000000000E+00  0.00000000000E+00 -0.14492735599E+04  0.14492735599E+04  0.25500000920E-02 0. -1.
    10030    2    1    2    0    0  0.00000000000E+00  0.00000000000E+00 -0.82774821627E+03  0.20707989036E+04  0.18981677981E+04 0.  0.
        4    1    3    3  502    0  0.51493861203E+03  0.37275042317E+02 -0.12826724599E+04  0.13826790861E+04  0.12699999809E+01 0. -1.
       -4    1    3    3    0  502 -0.51493861203E+03 -0.37275042317E+02  0.45492424360E+03  0.68811981751E+03  0.12699999809E+01 0.  1.
</event>
<event>
 5   0  0.1182630E-04  0.1899171E+04  0.7818609E-02  0.8655269E-01
       -2   -1    0    0    0  501  0.00000000000E+00  0.00000000000E+00  0.68404050724E+03  0.68404050725E+03  0.25500000920E-02 0. -1.
        2   -1    0    0  501    0  0.00000000000E+00  0.00000000000E+00 -0.13182146256E+04  0.13182146256E+04  0.25500000920E-02 0.  1.
    10030    2    1    2    0    0  0.00000000000E+00  0.00000000000E+00 -0.63417411837E+03  0.20022551329E+04  0.18991705570E+04 0.  0.
        5    1    3    3  502    0  0.37745836760E+03 -0.45295357482E+03 -0.11018333655E+04  0.12496802053E+04  0.46999998093E+01 0.  1.
       -5    1    3    3    0  502 -0.37745836760E+03  0.45295357482E+03  0.46765924711E+03  0.75257492757E+03  0.46999998093E+01 0. -1.
</event>
<event>
 5   0  0.1182630E-04  0.1896527E+04  0.7818609E-02  0.8656587E-01
        2   -1    0    0  501    0  0.00000000000E+00  0.00000000000E+00  0.11112771081E+04  0.11112771081E+04  0.25500000920E-02 0. -1.
       -2   -1    0    0    0  501  0.00000000000E+00  0.00000000000E+00 -0.80916233636E+03  0.80916233637E+03  0.25500000920E-02 0.  1.
    10030    2    1    2    0    0  0.00000000000E+00  0.00000000000E+00  0.30211477169E+03  0.19204394444E+04  0.18965269111E+04 0.  0.
        5    1    3    3  502    0 -0.24542002650E+03 -0.33077183116E+03  0.10159582089E+04  0.10962819737E+04  0.46999998093E+01 0. -1.
       -5    1    3    3    0  502  0.24542002650E+03  0.33077183116E+03 -0.71384343720E+03  0.82415747071E+03  0.46999998093E+01 0.  1.
</event>
<event>
 5   0  0.5614989E-05  0.1895317E+04  0.7818609E-02  0.8657191E-01
        1   -1    0    0  501    0  0.00000000000E+00  0.00000000000E+00  0.17240240320E+04  0.17240240320E+04  0.50400001928E-02 0. -1.
       -1   -1    0    0    0  501  0.00000000000E+00  0.00000000000E+00 -0.52090716814E+03  0.52090716816E+03  0.50400001928E-02 0.  1.
    10030    2    1    2    0    0  0.00000000000E+00  0.00000000000E+00  0.12031168638E+04  0.22449312001E+04  0.18953168351E+04 0.  0.
        4    1    3    3  502    0 -0.43579146848E+03  0.68592595524E+03  0.11789716113E+04  0.14319163010E+04  0.12699999809E+01 0. -1.
       -4    1    3    3    0  502  0.43579146848E+03 -0.68592595524E+03  0.24145252582E+02  0.81301489912E+03  0.12699999809E+01 0.  1.
</event>
<event>
 5   0  0.5841424E-05  0.1892923E+04  0.7818609E-02  0.8658387E-01
        1   -1    0    0  501    0  0.00000000000E+00  0.00000000000E+00  0.66871533910E+03  0.66871533912E+03  0.50400001928E-02 0. -1.
       -1   -1    0    0    0  501  0.00000000000E+00  0.00000000000E+00 -0.13395675791E+04  0.13395675791E+04  0.50400001928E-02 0.  1.
    10030    2    1    2    0    0  0.00000000000E+00  0.00000000000E+00 -0.67085223996E+03  0.20082829182E+04  0.18929230179E+04 0.  0.
        1    1    3    3  502    0  0.85478679341E+02  0.77117454798E+03 -0.91046549758E+03  0.11962291630E+04  0.50400001928E-02 0.  1.
       -1    1    3    3    0  502 -0.85478679341E+02 -0.77117454798E+03  0.23961325762E+03  0.81205375520E+03  0.50400001928E-02 0. -1.
</event>
<event>
 5   0  0.1133638E-04  0.1902281E+04  0.7818609E-02  0.8653722E-01
       -2   -1    0    0    0  501  0.00000000000E+00  0.00000000000E+00  0.88667568487E+03  0.88667568487E+03  0.25500000920E-02 0.  1.
        2   -1    0    0  501    0  0.00000000000E+00  0.00000000000E+00 -0.10202925753E+04  0.10202925754E+04  0.25500000920E-02 0. -1.
    10030    2    1    2    0    0  0.00000000000E+00  0.00000000000E+00 -0.13361689048E+03  0.19069682602E+04  0.19022813861E+04 0.  0.
        3    1    3    3  502    0 -0.81993080053E+03  0.27488014964E+03  0.33017607831E+03  0.92566833542E+03  0.10100000352E+00 0.  1.
       -3    1    3    3    0  502  0.81993080053E+03 -0.27488014964E+03 -0.46379296878E+03  0.98129992480E+03  0.10100000352E+00 0. -1.
</event>
<event>
 5   0  0.1118206E-04  0.1895775E+04  0.7818609E-02  0.8656962E-01
        2   -1    0    0  501    0  0.00000000000E+00  0.00000000000E+00  0.20721246289E+04  0.20721246289E+04  0.25500000920E-02 0. -1.
       -2   -1    0    0    0  501  0.00000000000E+00  0.00000000000E+00 -0.43360853198E+03  0.43360853199E+03  0.25500000920E-02 0.  1.
    10030    2    1    2    0    0  0.00000000000E+00  0.00000000000E+00  0.16385160969E+04  0.25057331609E+04  0.18957752171E+04 0.  0.
        1    1    3    3  502    0  0.45081714932E+03  0.71714683194E+03  0.13815133486E+04  0.16205291769E+04  0.50400001928E-02 0. -1.
       -1    1    3    3    0  502 -0.45081714932E+03 -0.71714683194E+03  0.25700274831E+03  0.88520398403E+03  0.50400001928E-02 0.  1.
</event>
<event>
 5   0  0.1182630E-04  0.1936995E+04  0.7818609E-02  0.8636658E-01
        2   -1    0    0  501    0  0.00000000000E+00  0.00000000000E+00  0.10659862452E+04  0.10659862452E+04  0.25500000920E-02 0.  1.
       -2   -1    0    0    0  501  0.00000000000E+00  0.00000000000E+00 -0.87992427279E+03  0.87992427280E+03  0.25500000920E-02 0. -1.
    10030    2    1    2    0    0  0.00000000000E+00  0.00000000000E+00  0.18606197239E+03  0.19459105180E+04  0.19369947564E+04 0.  0.
        5    1    3    3  502    0  0.82851740516E+03 -0.16157466330E+03 -0.38393603270E+03  0.92734914120E+03  0.46999998093E+01 0. -1.
       -5    1    3    3    0  502 -0.82851740516E+03  0.16157466330E+03  0.56999800509E+03  0.10185613768E+04  0.46999998093E+01 0.  1.
</event>
<event>
 5   0  0.5628936E-05  0.1901118E+04  0.7818609E-02  0.8654300E-01
        1   -1    0    0  501    0  0.00000000000E+00  0.00000000000E+00  0.87885432412E+03  0.87885432414E+03  0.50400001928E-02 0.  1.
       -1   -1    0    0    0  501  0.00000000000E+00  0.00000000000E+00 -0.10281140952E+04  0.10281140952E+04  0.50400001928E-02 0. -1.
    10030    2    1    2    0    0  0.00000000000E+00  0.00000000000E+00 -0.14925977105E+03  0.19069684193E+04  0.19011181113E+04 0.  0.
        5    1    3    3  502    0  0.89011572894E+03  0.27172085107E+03  0.11936172796E+03  0.93830034845E+03  0.46999998093E+01 0. -1.
       -5    1    3    3    0  502 -0.89011572894E+03 -0.27172085107E+03 -0.26862149901E+03  0.96866807088E+03  0.46999998093E+01 0.  1.
</event>
<event>
 5   0  0.1141890E-04  0.1902637E+04  0.7818609E-02  0.8653545E-01
        2   -1    0    0  501    0  0.00000000000E+00  0.00000000000E+00  0.10322151366E+04  0.10322151366E+04  0.25500000920E-02 0. -1.
       -2   -1    0    0    0  501  0.00000000000E+00  0.00000000000E+00 -0.87676163437E+03  0.87676163437E+03  0.25500000920E-02 0.  1.
    10030    2    1    2    0    0  0.00000000000E+00  0.00000000000E+00  0.15545350219E+03  0.19089767709E+04  0.19026367285E+04 0.  0.
        2    1    3    3  502    0  0.56418862794E+03 -0.61107850377E+03 -0.38563558979E+03  0.91675544928E+03  0.25500000920E-02 0.  1.
       -2    1    3    3    0  502 -0.56418862794E+03  0.61107850377E+03  0.54108909198E+03  0.99222132165E+03  0.25500000920E-02 0. -1.
</event>
<event>
 5   0  0.5841424E-05  0.1915449E+04  0.7818609E-02  0.8647204E-01
       -1   -1    0    0    0  501  0.00000000000E+00  0.00000000000E+00  0.46010192036E+03  0.46010192039E+03  0.50400001928E-02 0. -1.
        1   -1    0    0  501    0  0.00000000000E+00  0.00000000000E+00 -0.19935506875E+04  0.19935506875E+04  0.50400001928E-02 0.  1.
    10030    2    1    2    0    0  0.00000000000E+00  0.00000000000E+00 -0.15334487671E+04  0.24536526079E+04  0.19154492942E+04 0.  0.
        1    1    3    3  502    0  0.75192489372E+03  0.14244628580E+03 -0.15043226450E+04  0.16877999320E+04  0.50400001928E-02 0.  1.
       -1    1    3    3    0  502 -0.75192489372E+03 -0.14244628580E+03 -0.29126122105E+02  0.76585267588E+03  0.50400001928E-02 0. -1.
</event>
<event>
 5   0  0.1133638E-04  0.1896749E+04  0.7818609E-02  0.8656476E-01
        2   -1    0    0  501    0  0.00000000000E+00  0.00000000000E+00  0.10346090454E+04  0.10346090454E+04  0.25500000920E-02 0. -1.
       -2   -1    0    0    0  501  0.00000000000E+00  0.00000000000E+00 -0.86932739312E+03  0.86932739312E+03  0.25500000920E-02 0.  1.
    10030    2    1    2    0    0  0.00000000000E+00  0.00000000000E+00  0.16528165226E+03  0.19039364385E+04  0.18967487808E+04 0.  0.
        3    1    3    3  502    0  0.23371110439E+03  0.75936116638E+03 -0.43716678840E+03  0.90684346632E+03  0.10100000352E+00 0.  1.
       -3    1    3    3    0  502 -0.23371110439E+03 -0.75936116638E+03  0.60244844066E+03  0.99709297218E+03  0.10100000352E+00 0. -1.
</event>
<event>
 5   0  0.1141890E-04  0.1912513E+04  0.7818609E-02  0.8648653E-01
       -2   -1    0    0    0  501  0.00000000000E+00  0.00000000000E+00  0.53839796709E+03  0.53839796710E+03  0.25500000920E-02 0. -1.
        2   -1    0    0  501    0  0.00000000000E+00  0.00000000000E+00 -0.16984212972E+04  0.16984212972E+04  0.25500000920E-02 0.  1.
    10030    2    1    2    0    0  0.00000000000E+00  0.00000000000E+00 -0.11600233301E+04  0.22368192643E+04  0.19125130835E+04 0.  0.
        2    1    3    3  502    0  0.21647370082E+03  0.14205548155E+03  0.49661990178E+03  0.56006423725E+03  0.25500000920E-02 0. -1.
       -2    1    3    3    0  502 -0.21647370082E+03 -0.14205548155E+03 -0.16566432319E+04  0.16767550270E+04  0.25500000920E-02 0.  1.
</event>
<event>
 5   0  0.5579109E-05  0.1915065E+04  0.7818609E-02  0.8647394E-01
       -1   -1    0    0    0  501  0.00000000000E+00  0.00000000000E+00  0.95375291083E+03  0.95375291085E+03  0.50400001928E-02 0. -1.
        1   -1    0    0  501    0  0.00000000000E+00  0.00000000000E+00 -0.96132704284E+03  0.96132704285E+03  0.50400001928E-02 0.  1.
    10030    2    1    2    0    0  0.00000000000E+00  0.00000000000E+00 -0.75741320091E+01  0.19150799537E+04  0.19150649758E+04 0.  0.
        3    1    3    3  502    0  0.67237638809E+03 -0.52517952755E+03 -0.43849141106E+03  0.95925923044E+03  0.10100000352E+00 0.  1.
       -3    1    3    3    0  502 -0.67237638809E+03  0.52517952755E+03  0.43091727905E+03  0.95582072326E+03  0.10100000352E+00 0. -1.
</event>
<event>
 5   0  0.1182630E-04  0.1926192E+04  0.7818609E-02  0.8641928E-01
        2   -1    0    0  501    0  0.00000000000E+00  0.00000000000E+00  0.14031705679E+04  0.14031705679E+04  0.25500000920E-02 0. -1.
       -2   -1    0    0    0  501  0.00000000000E+00  0.00000000000E+00 -0.66104158561E+03  0.66104158561E+03  0.25500000920E-02 0.  1.
    10030    2    1    2    0    0  0.00000000000E+00  0.00000000000E+00  0.74212898225E+03  0.20642121535E+04  0.19261921992E+04 0.  0.
        5    1    3    3  502    0 -0.63399565363E+03 -0.58592651487E+03 -0.86459907168E+02  0.86761614507E+03  0.46999998093E+01 0.  1.
       -5    1    3    3    0  502  0.63399565363E+03  0.58592651487E+03  0.82858888942E+03  0.11965960084E+04  0.46999998093E+01 0. -1.
</event>
<event>
 5   0  0.1141890E-04  0.1895882E+04  0.7818609E-02  0.8656909E-01
        2   -1    0    0  501    0  0.00000000000E+00  0.00000000000E+00  0.14234547812E+04  0.14234547812E+04  0.25500000920E-02 0. -1.
       -2   -1    0    0    0  501  0.00000000000E+00  0.00000000000E+00 -0.63127576832E+03  0.63127576832E+03  0.25500000920E-02 0.  1.
    10030    2    1    2    0    0  0.00000000000E+00  0.00000000000E+00  0.79217901290E+03  0.20547305495E+04  0.18958823916E+04 0.  0.
        2    1    3    3  502    0 -0.58941413811E+03 -0.47396342174E+03  0.10154066687E+04  0.12661362700E+04  0.25500000920E-02 0. -1.
       -2    1    3    3    0  502  0.58941413811E+03  0.47396342174E+03 -0.22322765583E+03  0.78859427952E+03  0.25500000920E-02 0.  1.
</event>
<event>
 5   0  0.1182630E-04  0.1902316E+04  0.7818609E-02  0.8653704E-01
       -2   -1    0    0    0  501  0.00000000000E+00  0.00000000000E+00  0.68859344622E+03  0.68859344622E+03  0.25500000920E-02 0.  1.
        2   -1    0    0  501    0  0.00000000000E+00  0.00000000000E+00 -0.13138404230E+04  0.13138404230E+04  0.25500000920E-02 0. -1.
    10030    2    1    2    0    0  0.00000000000E+00  0.00000000000E+00 -0.62524697676E+03  0.20024338692E+04  0.19023163824E+04 0.  0.
        5    1    3    3  502    0  0.78779835857E+03  0.59891331814E+02 -0.87008642839E+03  0.11752811188E+04  0.46999998093E+01 0.  1.
       -5    1    3    3    0  502 -0.78779835857E+03 -0.59891331814E+02  0.24483945163E+03  0.82715275038E+03  0.46999998093E+01 0. -1.
</event>
<event>
 5   0  0.5841424E-05  0.1907075E+04  0.7818609E-02  0.8651343E-01
       -1   -1    0    0    0  501  0.00000000000E+00  0.00000000000E+00  0.10017145748E+04  0.10017145748E+04  0.50400001928E-02 0.  1.
        1   -1    0    0  501    0  0.00000000000E+00  0.00000000000E+00 -0.90767770551E+03  0.90767770552E+03  0.50400001928E-02 0. -1.
    10030    2    1    2    0    0  0.00000000000E+00  0.00000000000E+00  0.94036869246E+02  0.19093922803E+04  0.19070752338E+04 0.  0.
        1    1    3    3  502    0  0.53591816814E+03  0.13319203736E+00 -0.74262584870E+03  0.91580644891E+03  0.50400001928E-02 0. -1.
       -1    1    3    3    0  502 -0.53591816814E+03 -0.13319203736E+00  0.83666271795E+03  0.99358583137E+03  0.50400001928E-02 0.  1.
</event>
<event>
 5   0  0.1101678E-04  0.1906333E+04  0.7818609E-02  0.8651711E-01
        2   -1    0    0  501    0  0.00000000000E+00  0.00000000000E+00  0.11396922609E+04  0.11396922609E+04  0.25500000920E-02 0.  1.
       -2   -1    0    0    0  501  0.00000000000E+00  0.00000000000E+00 -0.79716799936E+03  0.79716799936E+03  0.25500000920E-02 0. -1.
    10030    2    1    2    0    0  0.00000000000E+00  0.00000000000E+00  0.34252426158E+03  0.19368602603E+04  0.19063328141E+04 0.  0.
        4    1    3    3  502    0 -0.14868979130E+03 -0.61349548613E+03 -0.55434468242E+03  0.84011011503E+03  0.12699999809E+01 0. -1.
       -4    1    3    3    0  502  0.14868979130E+03  0.61349548613E+03  0.89686894401E+03  0.10967501453E+04  0.12699999809E+01 0.  1.
</event>
<event>
 5   0  0.1133638E-04  0.1912229E+04  0.7818609E-02  0.8648793E-01
        2   -1    0    0  501    0  0.00000000000E+00  0.00000000000E+00  0.12299988306E+04  0.12299988306E+04  0.25500000920E-02 0.  1.
       -2   -1    0    0    0  501  0.00000000000E+00  0.00000000000E+00 -0.74321644837E+03  0.74321644837E+03  0.25500000920E-02 0. -1.
    10030    2    1    2    0    0  0.00000000000E+00  0.00000000000E+00  0.48678238221E+03  0.19732152790E+04  0.19122294448E+04 0.  0.
        3    1    3    3  502    0  0.77782443814E+03 -0.50185751505E+03  0.49036412191E+03  0.10475346315E+04  0.10100000352E+00 0. -1.
       -3    1    3    3    0  502 -0.77782443814E+03  0.50185751505E+03 -0.35817396966E+01  0.92568064744E+03  0.10100000352E+00 0.  1.
</event>
<event>
 5   0  0.1182630E-04  0.1901220E+04  0.7818609E-02  0.8654249E-01
       -2   -1    0    0    0  501  0.00000000000E+00  0.00000000000E+00  0.47530435849E+03  0.47530435850E+03  0.25500000920E-02 0. -1.
        2   -1    0    0  501    0  0.00000000000E+00  0.00000000000E+00 -0.19012233942E+04  0.19012233942E+04  0.25500000920E-02 0.  1.
    10030    2    1    2    0    0  0.00000000000E+00  0.00000000000E+00 -0.14259190357E+04  0.23765277527E+04  0.19012204141E+04 0.  0.
        5    1    3    3  502    0  0.53121865267E+03  0.61116450070E+03 -0.90561385859E+02  0.81482437278E+03  0.46999998093E+01 0. -1.
       -5    1    3    3    0  502 -0.53121865267E+03 -0.61116450070E+03 -0.13353576499E+04  0.15617033799E+04  0.46999998093E+01 0.  1.
</event>
<event>
 5   0  0.1133638E-04  0.1898211E+04  0.7818609E-02  0.8655747E-01
       -2   -1    0    0    0  501  0.00000000000E+00  0.00000000000E+00  0.13590729926E+04  0.13590729926E+04  0.25500000920E-02 0. -1.
        2   -1    0    0  501    0  0.00000000000E+00  0.00000000000E+00 -0.66280583623E+03  0.66280583624E+03  0.25500000920E-02 0.  1.
    10030    2    1    2    0    0  0.00000000000E+00  0.00000000000E+00  0.69626715632E+03  0.20218788288E+04  0.18982112752E+04 0.  0.
        3    1    3    3  502    0 -0.54372455944E+03 -0.73266163854E+03  0.62664935861E+03  0.11068508942E+04  0.10100000352E+00 0.  1.
       -3    1    3    3    0  502  0.54372455944E+03  0.73266163854E+03  0.69617797709E+02  0.91502793460E+03  0.10100000352E+00 0. -1.
</event>
<event>
 5   0  0.5579109E-05  0.1912479E+04  0.7818609E-02  0.8648670E-01
       -1   -1    0    0    0  501  0.00000000000E+00  0.00000000000E+00  0.49561319068E+03  0.49561319071E+03  0.50400001928E-02 0. -1.
        1   -1    0    0  501    0  0.00000000000E+00  0.00000000000E+00 -0.18449750333E+04  0.18449750333E+04  0.50400001928E-02 0.  1.
    10030    2    1    2    0    0  0.00000000000E+00  0.00000000000E+00 -0.13493618426E+04  0.23405882240E+04  0.19124789808E+04 0.  0.
        3    1    3    3  502    0 -0.55188484326E+03 -0.77213507472E+03 -0.81753367474E+03  0.12526495014E+04  0.10100000352E+00 0.  1.
       -3    1    3    3    0  502  0.55188484326E+03  0.77213507472E+03 -0.53182816789E+03  0.10879387226E+04  0.10100000352E+00 0. -1.
</event>
<event>
 5   0  0.5579109E-05  0.1905127E+04  0.7818609E-02  0.8652309E-01
       -1   -1    0    0    0  501  0.00000000000E+00  0.00000000000E+00  0.71197515295E+03  0.71197515297E+03  0.50400001928E-02 0.  1.
        1   -1    0    0  501    0  0.00000000000E+00  0.00000000000E+00 -0.12744506428E+04  0.12744506429E+04  0.50400001928E-02 0. -1.
    10030    2    1    2    0    0  0.00000000000E+00  0.00000000000E+00 -0.56247548989E+03  0.19864257958E+04  0.19051269684E+04 0.  0.
        3    1    3    3  502    0 -0.19989768874E+03  0.63310524518E+03  0.43098994564E+03  0.79153880567E+03  0.10100000352E+00 0.  1.
       -3    1    3    3    0  502  0.19989768874E+03 -0.63310524518E+03 -0.99346543553E+03  0.11948869902E+04  0.10100000352E+00 0. -1.
</event>
<event>
 5   0  0.1101678E-04  0.1892851E+04  0.7818609E-02  0.8658423E-01
        2   -1    0    0  501    0  0.00000000000E+00  0.00000000000E+00  0.24984127140E+04  0.24984127140E+04  0.25500000920E-02 0. -1.
       -2   -1    0    0    0  501  0.00000000000E+00  0.00000000000E+00 -0.35851599058E+03  0.35851599059E+03  0.25500000920E-02 0.  1.
    10030    2    1    2    0    0  0.00000000000E+00  0.00000000000E+00  0.21398967234E+04  0.28569287046E+04  0.18928506640E+04 0.  0.
        4    1    3    3  502    0  0.60197727218E+03  0.50014075134E+03  0.18731620917E+04  0.20300874961E+04  0.12699999809E+01 0. -1.
       -4    1    3    3    0  502 -0.60197727218E+03 -0.50014075134E+03  0.26673463176E+03  0.82684120848E+03  0.12699999809E+01 0.  1.
</event>
<event>
 5   0  0.5628936E-05  0.1902825E+04  0.7818609E-02  0.8653452E-01
       -1   -1    0    0    0  501  0.00000000000E+00  0.00000000000E+00  0.84564127052E+03  0.84564127053E+03  0.50400001928E-02 0. -1.
        1   -1    0    0  501    0  0.00000000000E+00  0.00000000000E+00 -0.10704130471E+04  0.10704130471E+04  0.50400001928E-02 0.  1.
    10030    2    1    2    0    0  0.00000000000E+00  0.00000000000E+00 -0.22477177657E+03  0.19160543176E+04  0.19028246889E+04 0.  0.
        5    1    3    3  502    0 -0.61058659008E+03 -0.68210656219E+03 -0.37318081185E+03  0.98862093570E+03  0.46999998093E+01 0.  1.
       -5    1    3    3    0  502  0.61058659008E+03  0.68210656219E+03  0.14840903528E+03  0.92743338193E+03  0.46999998093E+01 0. -1.
</event>
<event>
 5   0  0.5628936E-05  0.1909384E+04  0.7818609E-02  0.8650199E-01
       -1   -1    0    0    0  501  0.00000000000E+00  0.00000000000E+00  0.14473493484E+04  0.14473493484E+04  0.50400001928E-02 0. -1.
        1   -1    0    0  501    0  0.00000000000E+00  0.00000000000E+00 -0.62972837912E+03  0.62972837914E+03  0.50400001928E-02 0.  1.
    10030    2    1    2    0    0  0.00000000000E+00  0.00000000000E+00  0.81762096926E+03  0.20770777275E+04  0.19093841512E+04 0.  0.
        5    1    3    3  502    0  0.14455261758E+02  0.63889904502E+03 -0.36271351357E+03  0.73483612271E+03  0.46999998093E+01 0.  1.
       -5    1    3    3    0  502 -0.14455261758E+02 -0.63889904502E+03  0.11803344828E+04  0.13422416048E+04  0.46999998093E+01 0. -1.
</event>
<event>
 5   0  0.5579109E-05  0.1899602E+04  0.7818609E-02  0.8655054E-01
       -1   -1    0    0    0  501  0.00000000000E+00  0.00000000000E+00  0.54764589724E+03  0.54764589726E+03  0.50400001928E-02 0.  1.
        1   -1    0    0  501    0  0.00000000000E+00  0.00000000000E+00 -0.16472727401E+04  0.16472727401E+04  0.50400001928E-02 0. -1.
    10030    2    1    2    0    0  0.00000000000E+00  0.00000000000E+00 -0.10996268428E+04  0.21949186374E+04  0.18996022297E+04 0.  0.
        3    1    3    3  502    0  0.56638569302E+03  0.26885852731E+03  0.27457830491E+03  0.68444935290E+03  0.10100000352E+00 0.  1.
       -3    1    3    3    0  502 -0.56638569302E+03 -0.26885852731E+03 -0.13742051477E+04  0.15104692844E+04  0.10100000352E+00 0. -1.
</event>
<event>
 5   0  0.1118206E-04  0.1896702E+04  0.7818609E-02  0.8656500E-01
       -2   -1    0    0    0  501  0.00000000000E+00  0.00000000000E+00  0.60171206676E+03  0.60171206676E+03  0.25500000920E-02 0. -1.
        2   -1    0    0  501    0  0.00000000000E+00  0.00000000000E+00 -0.14946845317E+04  0.14946845317E+04  0.25500000920E-02 0.  1.
    10030    2    1    2    0    0  0.00000000000E+00  0.00000000000E+00 -0.89297246497E+03  0.20963965985E+04  0.18967021050E+04 0.  0.
        1    1    3    3  502    0  0.56680562839E+03  0.13985423073E+03  0.37955589449E+03  0.69634079537E+03  0.50400001928E-02 0. -1.
       -1    1    3    3    0  502 -0.56680562839E+03 -0.13985423073E+03 -0.12725283595E+04  0.14000558031E+04  0.50400001928E-02 0.  1.
</event>
<event>
 5   0  0.5824956E-05  0.1907059E+04  0.7818609E-02  0.8651351E-01
       -1   -1    0    0    0  501  0.00000000000E+00  0.00000000000E+00  0.13553261711E+04  0.13553261711E+04  0.50400001928E-02 0.  1.
        1   -1    0    0  501    0  0.00000000000E+00  0.00000000000E+00 -0.67084817857E+03  0.67084817859E+03  0.50400001928E-02 0. -1.
    10030    2    1    2    0    0  0.00000000000E+00  0.00000000000E+00  0.68447799249E+03  0.20261743497E+04  0.19070585657E+04 0.  0.
        2    1    3    3  502    0 -0.84197749196E+03  0.40523331270E+03  0.14043314215E+03  0.94491354214E+03  0.25500000920E-02 0. -1.
       -2    1    3    3    0  502  0.84197749196E+03 -0.40523331270E+03  0.54404485034E+03  0.10812608075E+04  0.25500000920E-02 0.  1.
</event>
<event>
 5   0  0.5579109E-05  0.1902768E+04  0.7818609E-02  0.8653480E-01
       -1   -1    0    0    0  501  0.00000000000E+00  0.00000000000E+00  0.52674371372E+03  0.52674371374E+03  0.50400001928E-02 0. -1.
        1   -1    0    0  501    0  0.00000000000E+00  0.00000000000E+00 -0.17183526724E+04  0.17183526724E+04  0.50400001928E-02 0.  1.
    10030    2    1    2    0    0  0.00000000000E+00  0.00000000000E+00 -0.11916089587E+04  0.22450963861E+04  0.19027679503E+04 0.  0.
        3    1    3    3  502    0  0.16154483939E+03 -0.61088200088E+03  0.24339157482E+03  0.67713589702E+03  0.10100000352E+00 0. -1.
       -3    1    3    3    0  502 -0.16154483939E+03  0.61088200088E+03 -0.14350005335E+04  0.15679604891E+04  0.10100000352E+00 0.  1.
</event>
<event>
 5   0  0.5824956E-05  0.1885250E+04  0.7818609E-02  0.8662233E-01
        1   -1    0    0  501    0  0.00000000000E+00  0.00000000000E+00  0.13041193767E+04  0.13041193767E+04  0.50400001928E-02 0.  1.
       -1   -1    0    0    0  501  0.00000000000E+00  0.00000000000E+00 -0.68133501098E+03  0.68133501100E+03  0.50400001928E-02 0. -1.
    10030    2    1    2    0    0  0.00000000000E+00  0.00000000000E+00  0.62278436573E+03  0.19854543877E+04  0.18852503175E+04 0.  0.
        2    1    3    3  502    0  0.40089613024E+03  0.77133687619E+03 -0.72486856918E+02  0.87231452369E+03  0.25500000920E-02 0.  1.
       -2    1    3    3    0  502 -0.40089613024E+03 -0.77133687619E+03  0.69527122265E+03  0.11131398640E+04  0.25500000920E-02 0. -1.
</event>
<event>
 5   0  0.5579109E-05  0.1916786E+04  0.7818609E-02  0.8646546E-01
       -1   -1    0    0    0  501  0.00000000000E+00  0.00000000000E+00  0.67694134276E+03  0.67694134278E+03  0.50400001928E-02 0. -1.
        1   -1    0    0  501    0  0.00000000000E+00  0.00000000000E+00 -0.13568637682E+04  0.13568637682E+04  0.50400001928E-02 0.  1.
    10030    2    1    2    0    0  0.00000000000E+00  0.00000000000E+00 -0.67992242545E+03  0.20338051110E+04  0.19167860405E+04 0.  0.
        3    1    3    3  502    0  0.81901876341E+03 -0.43175725909E+03 -0.60268855333E+03  0.11047350669E+04  0.10100000352E+00 0.  1.
       -3    1    3    3    0  502 -0.81901876341E+03  0.43175725909E+03 -0.77233872123E+02  0.92907004407E+03  0.10100000352E+00 0. -1.
</event>
<event>
 5   0  0.1182630E-04  0.1907299E+04  0.7818609E-02  0.8651232E-01
        2   -1    0    0  501    0  0.00000000000E+00  0.00000000000E+00  0.10276362828E+04  0.10276362828E+04  0.25500000920E-02 0.  1.
       -2   -1    0    0    0  501  0.00000000000E+00  0.00000000000E+00 -0.88498962526E+03  0.88498962526E+03  0.25500000920E-02 0. -1.
    10030    2    1    2    0    0  0.00000000000E+00  0.00000000000E+00  0.14264665753E+03  0.19126259081E+04  0.19072990839E+04 0.  0.
        5    1    3    3  502    0  0.55458879174E+03  0.12391218103E+03  0.83929664749E+03  0.10135896157E+04  0.46999998093E+01 0.  1.
       -5    1    3    3    0  502 -0.55458879174E+03 -0.12391218103E+03 -0.69664998995E+03  0.89903629238E+03  0.46999998093E+01 0. -1.
</event>
<event>
 5   0  0.1118206E-04  0.1942477E+04  0.7818609E-02  0.8633997E-01
        2   -1    0    0  501    0  0.00000000000E+00  0.00000000000E+00  0.11444742750E+04  0.11444742750E+04  0.25500000920E-02 0. -1.
       -2   -1    0    0    0  501  0.00000000000E+00  0.00000000000E+00 -0.82422488756E+03  0.82422488757E+03  0.25500000920E-02 0.  1.
    10030    2    1    2    0    0  0.00000000000E+00  0.00000000000E+00  0.32024938744E+03  0.19686991626E+04  0.19424769555E+04 0.  0.
        1    1    3    3  502    0  0.20925040955E+03 -0.33497256200E+03 -0.73915931280E+03  0.83806255191E+03  0.50400001928E-02 0.  1.
       -1    1    3    3    0  502 -0.20925040955E+03  0.33497256200E+03  0.10594087002E+04  0.11306366107E+04  0.50400001928E-02 0. -1.
</event>
<event>
 5   0  0.5841424E-05  0.1903233E+04  0.7818609E-02  0.8653249E-01
       -1   -1    0    0    0  501  0.00000000000E+00  0.00000000000E+00  0.83963850075E+03  0.83963850077E+03  0.50400001928E-02 0.  1.
        1   -1    0    0  501    0  0.00000000000E+00  0.00000000000E+00 -0.10785279292E+04  0.10785279292E+04  0.50400001928E-02 0. -1.
    10030    2    1    2    0    0  0.00000000000E+00  0.00000000000E+00 -0.23888942846E+03  0.19181664300E+04  0.19032325907E+04 0.  0.
        1    1    3    3  502    0 -0.35780453127E+02  0.11202797732E+03 -0.10711758786E+04  0.10776123011E+04  0.50400001928E-02 0. -1.
       -1    1    3    3    0  502  0.35780453127E+02 -0.11202797732E+03  0.83228645014E+03  0.84055412891E+03  0.50400001928E-02 0.  1.
</event>
<event>
 5   0  0.1141890E-04  0.1940103E+04  0.7818609E-02  0.8635148E-01
        2   -1    0    0  501    0  0.00000000000E+00  0.00000000000E+00  0.20309875799E+04  0.20309875799E+04  0.25500000920E-02 0.  1.
       -2   -1    0    0    0  501  0.00000000000E+00  0.00000000000E+00 -0.46332122055E+03  0.46332122055E+03  0.25500000920E-02 0. -1.
    10030    2    1    2    0    0  0.00000000000E+00  0.00000000000E+00  0.15676663594E+04  0.24943088005E+04  0.19401027235E+04 0.  0.
        2    1    3    3  502    0  0.39548007850E+02 -0.27682736066E+03 -0.41037796161E+03  0.49659591613E+03  0.25500000920E-02 0. -1.
       -2    1    3    3    0  502 -0.39548007850E+02  0.27682736066E+03  0.19780443210E+04  0.19977128843E+04  0.25500000920E-02 0.  1.
</event>
<event>
 5   0  0.1182630E-04  0.1883915E+04  0.7818609E-02  0.8662905E-01
       -2   -1    0    0    0  501  0.00000000000E+00  0.00000000000E+00  0.13048513391E+04  0.13048513391E+04  0.25500000920E-02 0. -1.
        2   -1    0    0  501    0  0.00000000000E+00  0.00000000000E+00 -0.67998847838E+03  0.67998847838E+03  0.25500000920E-02 0.  1.
    10030    2    1    2    0    0  0.00000000000E+00  0.00000000000E+00  0.62486286075E+03  0.19848398175E+04  0.18839149414E+04 0.  0.
        5    1    3    3  502    0 -0.54628757356E+03 -0.18648839806E+03 -0.47179255830E+03  0.74553225530E+03  0.46999998093E+01 0.  1.
       -5    1    3    3    0  502  0.54628757356E+03  0.18648839806E+03  0.10966554190E+04  0.12393075622E+04  0.46999998093E+01 0. -1.
</event>
<event>
 5   0  0.5824956E-05  0.1880521E+04  0.7818609E-02  0.8664614E-01
        1   -1    0    0  501    0  0.00000000000E+00  0.00000000000E+00  0.65260897996E+03  0.65260897998E+03  0.50400001928E-02 0.  1.
       -1   -1    0    0    0  501  0.00000000000E+00  0.00000000000E+00 -0.13547005707E+04  0.13547005707E+04  0.50400001928E-02 0. -1.
    10030    2    1    2    0    0  0.00000000000E+00  0.00000000000E+00 -0.70209159075E+03  0.20073095507E+04  0.18805209466E+04 0.  0.
        2    1    3    3  502    0  0.17931035387E+03 -0.86289437026E+03 -0.13109212965E+01  0.88132889193E+03  0.25500000920E-02 0.  1.
       -2    1    3    3    0  502 -0.17931035387E+03  0.86289437026E+03 -0.70078066945E+03  0.11259806588E+04  0.25500000920E-02 0. -1.
</event>
<event>
 5   0  0.1141890E-04  0.1909102E+04  0.7818609E-02  0.8650339E-01
       -2   -1    0    0    0  501  0.00000000000E+00  0.00000000000E+00  0.14342475754E+04  0.14342475754E+04  0.25500000920E-02 0. -1.
        2   -1    0    0  501    0  0.00000000000E+00  0.00000000000E+00 -0.63529283394E+03  0.63529283395E+03  0.25500000920E-02 0.  1.
    10030    2    1    2    0    0  0.00000000000E+00  0.00000000000E+00  0.79895474145E+03  0.20695404093E+04  0.19091015759E+04 0.  0.
        2    1    3    3  502    0  0.17017770488E+03  0.52887659526E+02 -0.61710011789E+03  0.64231620817E+03  0.25500000920E-02 0.  1.
       -2    1    3    3    0  502 -0.17017770488E+03 -0.52887659526E+02  0.14160548593E+04  0.14272242012E+04  0.25500000920E-02 0. -1.
</event>
<event>
 5   0  0.1133638E-04  0.1893827E+04  0.7818609E-02  0.8657935E-01
        2   -1    0    0  501    0  0.00000000000E+00  0.00000000000E+00  0.12306693023E+04  0.12306693023E+04  0.25500000920E-02 0. -1.
       -2   -1    0    0    0  501  0.00000000000E+00  0.00000000000E+00 -0.72858360192E+03  0.72858360193E+03  0.25500000920E-02 0.  1.
    10030    2    1    2    0    0  0.00000000000E+00  0.00000000000E+00  0.50208570041E+03  0.19592529043E+04  0.18938273132E+04 0.  0.
        3    1    3    3  502    0  0.82951108143E+03 -0.32490021416E+02 -0.22021701880E+03  0.85885958182E+03  0.10100000352E+00 0.  1.
       -3    1    3    3    0  502 -0.82951108143E+03  0.32490021416E+02  0.72230271921E+03  0.11003933224E+04  0.10100000352E+00 0. -1.
</event>
<event>
 5   0  0.4061125E-05  0.1895183E+04  0.7818609E-02  0.8657258E-01
        3   -1    0    0  501    0  0.00000000000E+00  0.00000000000E+00  0.11404092131E+04  0.11404092175E+04  0.10100000352E+00 0.  1.
       -3   -1    0    0    0  501  0.00000000000E+00  0.00000000000E+00 -0.78737480280E+03  0.78737480928E+03  0.10100000352E+00 0. -1.
    10030    2    1    2    0    0  0.00000000000E+00  0.00000000000E+00  0.35303441026E+03  0.19277840268E+04  0.18951828300E+04 0.  0.
        5    1    3    3  502    0  0.52280506188E+02 -0.71563814944E+02 -0.78313782084E+03  0.78815072629E+03  0.46999998093E+01 0. -1.
       -5    1    3    3    0  502 -0.52280506188E+02  0.71563814944E+02  0.11361722311E+04  0.11396333005E+04  0.46999998093E+01 0.  1.
</event>
<event>
 5   0  0.5628936E-05  0.1897793E+04  0.7818609E-02  0.8655956E-01
        1   -1    0    0  501    0  0.00000000000E+00  0.00000000000E+00  0.69078249109E+03  0.69078249111E+03  0.50400001928E-02 0.  1.
       -1   -1    0    0    0  501  0.00000000000E+00  0.00000000000E+00 -0.13034553255E+04  0.13034553255E+04  0.50400001928E-02 0. -1.
    10030    2    1    2    0    0  0.00000000000E+00  0.00000000000E+00 -0.61267283439E+03  0.19942378166E+04  0.18977925248E+04 0.  0.
        5    1    3    3  502    0  0.14027323829E+03  0.12614403667E+03 -0.12835383800E+04  0.12973364106E+04  0.46999998093E+01 0. -1.
       -5    1    3    3    0  502 -0.14027323829E+03 -0.12614403667E+03  0.67086554562E+03  0.69690140598E+03  0.46999998093E+01 0.  1.
</event>
<event>
 5   0  0.1118206E-04  0.1744224E+04  0.7818609E-02  0.8736536E-01
        2   -1    0    0  501    0  0.00000000000E+00  0.00000000000E+00  0.18084284011E+04  0.18084284011E+04  0.25500000920E-02 0. -1.
       -2   -1    0    0    0  501  0.00000000000E+00  0.00000000000E+00 -0.42057481572E+03  0.42057481573E+03  0.25500000920E-02 0.  1.
    10030    2    1    2    0    0  0.00000000000E+00  0.00000000000E+00  0.13878535854E+04  0.22290032168E+04  0.17442241158E+04 0.  0.
        1    1    3    3  502    0 -0.53878361154E+03 -0.78332696361E+02  0.15645700264E+04  0.16565938424E+04  0.50400001928E-02 0.  1.
       -1    1    3    3    0  502  0.53878361154E+03  0.78332696361E+02 -0.17671644097E+03  0.57240937442E+03  0.50400001928E-02 0. -1.
</event>
<event>
 5   0  0.5614989E-05  0.1909674E+04  0.7818609E-02  0.8650056E-01
       -1   -1    0    0    0  501  0.00000000000E+00  0.00000000000E+00  0.10611819849E+04  0.10611819849E+04  0.50400001928E-02 0. -1.
        1   -1    0    0  501    0  0.00000000000E+00  0.00000000000E+00 -0.85914903343E+03  0.85914903344E+03  0.50400001928E-02 0.  1.
    10030    2    1    2    0    0  0.00000000000E+00  0.00000000000E+00  0.20203295146E+03  0.19203310183E+04  0.19096737697E+04 0.  0.
        4    1    3    3  502    0  0.58481769950E+03 -0.68615404943E+02  0.85687076490E+03  0.10396869414E+04  0.12699999809E+01 0. -1.
       -4    1    3    3    0  502 -0.58481769950E+03  0.68615404943E+02 -0.65483781344E+03  0.88064407695E+03  0.12699999809E+01 0.  1.
</event>
<event>
 5   0  0.5824956E-05  0.1900878E+04  0.7818609E-02  0.8654420E-01
       -1   -1    0    0    0  501  0.00000000000E+00  0.00000000000E+00  0.78490304267E+03  0.78490304268E+03  0.50400001928E-02 0. -1.
        1   -1    0    0  501    0  0.00000000000E+00  0.00000000000E+00 -0.11508860799E+04  0.11508860799E+04  0.50400001928E-02 0.  1.
    10030    2    1    2    0    0  0.00000000000E+00  0.00000000000E+00 -0.36598303720E+03  0.19357891226E+04  0.19008776772E+04 0.  0.
        2    1    3    3  502    0  0.93961129078E+03 -0.89362174918E+02 -0.29675265909E+03  0.98940240386E+03  0.25500000920E-02 0.  1.
       -2    1    3    3    0  502 -0.93961129078E+03  0.89362174918E+02 -0.69230378107E+02  0.94638671870E+03  0.25500000920E-02 0. -1.
</event>
<event>
 5   0  0.1101678E-04  0.1896681E+04  0.7818609E-02  0.8656510E-01
        2   -1    0    0  501    0  0.00000000000E+00  0.00000000000E+00  0.76182374649E+03  0.76182374649E+03  0.25500000920E-02 0. -1.
       -2   -1    0    0    0  501  0.00000000000E+00  0.00000000000E+00 -0.11805221358E+04  0.11805221358E+04  0.25500000920E-02 0.  1.
    10030    2    1    2    0    0  0.00000000000E+00  0.00000000000E+00 -0.41869838929E+03  0.19423458823E+04  0.18966810974E+04 0.  0.
        4    1    3    3  502    0  0.37149519054E+03  0.29495755169E+03 -0.10503018941E+04  0.11524514374E+04  0.12699999809E+01 0.  1.
       -4    1    3    3    0  502 -0.37149519054E+03 -0.29495755169E+03  0.63160350480E+03  0.78989444489E+03  0.12699999809E+01 0. -1.
</event>
<event>
 5   0  0.1141890E-04  0.1889718E+04  0.7818609E-02  0.8659992E-01
       -2   -1    0    0    0  501  0.00000000000E+00  0.00000000000E+00  0.12123595097E+04  0.12123595097E+04  0.25500000920E-02 0. -1.
        2   -1    0    0  501    0  0.00000000000E+00  0.00000000000E+00 -0.73638076639E+03  0.73638076640E+03  0.25500000920E-02 0.  1.
    10030    2    1    2    0    0  0.00000000000E+00  0.00000000000E+00  0.47597874332E+03  0.19487402761E+04  0.18897176772E+04 0.  0.
        2    1    3    3  502    0  0.21019155184E+02  0.80810652906E+03 -0.26645173451E+03  0.85116067462E+03  0.25500000920E-02 0.  1.
       -2    1    3    3    0  502 -0.21019155184E+02 -0.80810652906E+03  0.74243047783E+03  0.10975796015E+04  0.25500000920E-02 0. -1.
</event>
<event>
 5   0  0.1133638E-04  0.1866608E+04  0.7818609E-02  0.8671659E-01
       -2   -1    0    0    0  501  0.00000000000E+00  0.00000000000E+00  0.89295758291E+03  0.89295758291E+03  0.25500000920E-02 0. -1.
        2   -1    0    0  501    0  0.00000000000E+00  0.00000000000E+00 -0.97547296308E+03  0.97547296308E+03  0.25500000920E-02 0.  1.
    10030    2    1    2    0    0  0.00000000000E+00  0.00000000000E+00 -0.82515380170E+02  0.18684305460E+04  0.18666075959E+04 0.  0.
        3    1    3    3  502    0  0.30454999865E+03  0.61110485343E+03 -0.67816214587E+03  0.96234284424E+03  0.10100000352E+00 0.  1.
       -3    1    3    3    0  502 -0.30454999865E+03 -0.61110485343E+03  0.59564676570E+03  0.90608770175E+03  0.10100000352E+00 0. -1.
</event>
<event>
 5   0  0.5824956E-05  0.1914540E+04  0.7818609E-02  0.8647652E-01
       -1   -1    0    0    0  501  0.00000000000E+00  0.00000000000E+00  0.58995697211E+03  0.58995697214E+03  0.50400001928E-02 0.  1.
        1   -1    0    0  501    0  0.00000000000E+00  0.00000000000E+00 -0.15532760590E+04  0.15532760590E+04  0.50400001928E-02 0. -1.
    10030    2    1    2    0    0  0.00000000000E+00  0.00000000000E+00 -0.96331908692E+03  0.21432330312E+04  0.19145401962E+04 0.  0.
        2    1    3    3  502    0  0.92032147944E+03 -0.22635296751E+03 -0.33089175175E+03  0.10038509067E+04  0.25500000920E-02 0.  1.
       -2    1    3    3    0  502 -0.92032147944E+03  0.22635296751E+03 -0.63242733517E+03  0.11393821245E+04  0.25500000920E-02 0. -1.
</event>
<event>
 5   0  0.1101678E-04  0.1922397E+04  0.7818609E-02  0.8643788E-01
       -2   -1    0    0    0  501  0.00000000000E+00  0.00000000000E+00  0.92182888119E+03  0.92182888119E+03  0.25500000920E-02 0. -1.
        2   -1    0    0  501    0  0.00000000000E+00  0.00000000000E+00 -0.10022491390E+04  0.10022491390E+04  0.25500000920E-02 0.  1.
    10030    2    1    2    0    0  0.00000000000E+00  0.00000000000E+00 -0.80420257817E+02  0.19240780202E+04  0.19223966318E+04 0.  0.
        4    1    3    3  502    0  0.86801466801E+03 -0.48506320468E+02  0.37014634930E+03  0.94488743234E+03  0.12699999809E+01 0. -1.
       -4    1    3    3    0  502 -0.86801466801E+03  0.48506320468E+02 -0.45056660711E+03  0.97919058786E+03  0.12699999809E+01 0.  1.
</event>
<event>
 5   0  0.1133638E-04  0.1871941E+04  0.7818609E-02  0.8668950E-01
       -2   -1    0    0    0  501  0.00000000000E+00  0.00000000000E+00  0.72609399093E+03  0.72609399093E+03  0.25500000920E-02 0. -1.
        2   -1    0    0  501    0  0.00000000000E+00  0.00000000000E+00 -0.12065118852E+04  0.12065118852E+04  0.25500000920E-02 0.  1.
    10030    2    1    2    0    0  0.00000000000E+00  0.00000000000E+00 -0.48041789428E+03  0.19326058761E+04  0.18719412703E+04 0.  0.
        3    1    3    3  502    0 -0.39607956698E+03  0.31092976863E+03  0.57433666507E+03  0.76381866922E+03  0.10100000352E+00 0. -1.
       -3    1    3    3    0  502  0.39607956698E+03 -0.31092976863E+03 -0.10547545593E+04  0.11687872069E+04  0.10100000352E+00 0.  1.
</event>
<event>
 5   0  0.5628936E-05  0.1896577E+04  0.7818609E-02  0.8656562E-01
       -1   -1    0    0    0  501  0.00000000000E+00  0.00000000000E+00  0.57188453902E+03  0.57188453904E+03  0.50400001928E-02 0. -1.
        1   -1    0    0  501    0  0.00000000000E+00  0.00000000000E+00 -0.15724341600E+04  0.15724341600E+04  0.50400001928E-02 0.  1.
    10030    2    1    2    0    0  0.00000000000E+00  0.00000000000E+00 -0.10005496209E+04  0.21443186990E+04  0.18965766895E+04 0.  0.
        5    1    3    3  502    0  0.12906518015E+03  0.26702473873E+02 -0.15620149037E+04  0.15675724839E+04  0.46999998093E+01 0.  1.
       -5    1    3    3    0  502 -0.12906518015E+03 -0.26702473873E+02  0.56146528280E+03  0.57674621509E+03  0.46999998093E+01 0. -1.
</event>
<event>
 5   0  0.1133638E-04  0.1855780E+04  0.7818609E-02  0.8677186E-01
        2   -1    0    0  501    0  0.00000000000E+00  0.00000000000E+00  0.18434841343E+04  0.18434841343E+04  0.25500000920E-02 0.  1.
       -2   -1    0    0    0  501  0.00000000000E+00  0.00000000000E+00 -0.46703938148E+03  0.46703938149E+03  0.25500000920E-02 0. -1.
    10030    2    1    2    0    0  0.00000000000E+00  0.00000000000E+00  0.13764447528E+04  0.23105235158E+04  0.18557798252E+04 0.  0.
        3    1    3    3  502    0 -0.45442315657E+03  0.18976060079E+03  0.16673590770E+04  0.17385614147E+04  0.10100000352E+00 0.  1.
       -3    1    3    3    0  502  0.45442315657E+03 -0.18976060079E+03 -0.29091432419E+03  0.57196210107E+03  0.10100000352E+00 0. -1.
</event>
<event>
 5   0  0.5824956E-05  0.1895350E+04  0.7818609E-02  0.8657175E-01
       -1   -1    0    0    0  501  0.00000000000E+00  0.00000000000E+00  0.91342146565E+03  0.91342146566E+03  0.50400001928E-02 0.  1.
        1   -1    0    0  501    0  0.00000000000E+00  0.00000000000E+00 -0.98321256868E+03  0.98321256869E+03  0.50400001928E-02 0. -1.
    10030    2    1    2    0    0  0.00000000000E+00  0.00000000000E+00 -0.69791103030E+02  0.18966340344E+04  0.18953495356E+04 0.  0.
        2    1    3    3  502    0  0.23606409329E+03 -0.91315832830E+03 -0.12717017432E+03  0.95171247861E+03  0.25500000920E-02 0.  1.
       -2    1    3    3    0  502 -0.23606409329E+03  0.91315832830E+03  0.57379071289E+02  0.94492155575E+03  0.25500000920E-02 0. -1.
</event>
<event>
 5   0  0.5841424E-05  0.1913095E+04  0.7818609E-02  0.8648366E-01
       -1   -1    0    0    0  501  0.00000000000E+00  0.00000000000E+00  0.81906878909E+03  0.81906878911E+03  0.50400001928E-02 0.  1.
        1   -1    0    0  501    0  0.00000000000E+00  0.00000000000E+00 -0.11171012750E+04  0.11171012751E+04  0.50400001928E-02 0. -1.
    10030    2    1    2    0    0  0.00000000000E+00  0.00000000000E+00 -0.29803248596E+03  0.19361700642E+04  0.19130946539E+04 0.  0.
        1    1    3    3  502    0 -0.62724843944E+03  0.55667899339E+03 -0.61462043231E+03  0.10397549626E+04  0.50400001928E-02 0. -1.
       -1    1    3    3    0  502  0.62724843944E+03 -0.55667899339E+03  0.31658794635E+03  0.89641510154E+03  0.50400001928E-02 0.  1.
</event>
<event>
 5   0  0.1101678E-04  0.1900682E+04  0.7818609E-02  0.8654517E-01
        2   -1    0    0  501    0  0.00000000000E+00  0.00000000000E+00  0.99785868364E+03  0.99785868365E+03  0.25500000920E-02 0.  1.
       -2   -1    0    0    0  501  0.00000000000E+00  0.00000000000E+00 -0.90508649171E+03  0.90508649171E+03  0.25500000920E-02 0. -1.
    10030    2    1    2    0    0  0.00000000000E+00  0.00000000000E+00  0.92772191937E+02  0.19029451754E+04  0.19006824198E+04 0.  0.
        4    1    3    3  502    0 -0.39363692936E+03  0.55942763661E+03  0.70689681029E+03  0.98367373964E+03  0.12699999809E+01 0.  1.
       -4    1    3    3    0  502  0.39363692936E+03 -0.55942763661E+03 -0.61412461835E+03  0.91927143572E+03  0.12699999809E+01 0. -1.
</event>
<event>
 5   0  0.1101678E-04  0.1897251E+04  0.7818609E-02  0.8656226E-01
        2   -1    0    0  501    0  0.00000000000E+00  0.00000000000E+00  0.11432855939E+04  0.11432855939E+04  0.25500000920E-02 0. -1.
       -2   -1    0    0    0  501  0.00000000000E+00  0.00000000000E+00 -0.78710867308E+03  0.78710867308E+03  0.25500000920E-02 0.  1.
    10030    2    1    2    0    0  0.00000000000E+00  0.00000000000E+00  0.35617692080E+03  0.19303942670E+04  0.18972506495E+04 0.  0.
        4    1    3    3  502    0 -0.38780164098E+02 -0.22236343791E+03  0.11155631476E+04  0.11381705271E+04  0.12699999809E+01 0. -1.
       -4    1    3    3    0  502  0.38780164098E+02  0.22236343791E+03 -0.75938622679E+03  0.79222373985E+03  0.12699999809E+01 0.  1.
</event>
<event>
 5   0  0.1101678E-04  0.1911800E+04  0.7818609E-02  0.8649005E-01
        2   -1    0    0  501    0  0.00000000000E+00  0.00000000000E+00  0.17040703303E+04  0.17040703303E+04  0.25500000920E-02 0. -1.
       -2   -1    0    0    0  501  0.00000000000E+00  0.00000000000E+00 -0.53621296765E+03  0.53621296766E+03  0.25500000920E-02 0.  1.
    10030    2    1    2    0    0  0.00000000000E+00  0.00000000000E+00  0.11678573627E+04  0.22402832980E+04  0.19117997896E+04 0.  0.
        4    1    3    3  502    0  0.28889314759E+02 -0.89547455131E+03  0.97439897512E+03  0.13236934087E+04  0.12699999809E+01 0. -1.
       -4    1    3    3    0  502 -0.28889314759E+02  0.89547455131E+03  0.19345838754E+03  0.91658988930E+03  0.12699999809E+01 0.  1.
</event>
<event>
 5   0  0.5579109E-05  0.1899648E+04  0.7818609E-02  0.8655032E-01
        1   -1    0    0  501    0  0.00000000000E+00  0.00000000000E+00  0.95538348077E+03  0.95538348078E+03  0.50400001928E-02 0.  1.
       -1   -1    0    0    0  501  0.00000000000E+00  0.00000000000E+00 -0.94429646580E+03  0.94429646582E+03  0.50400001928E-02 0. -1.
    10030    2    1    2    0    0  0.00000000000E+00  0.00000000000E+00  0.11087014968E+02  0.18996799466E+04  0.18996475930E+04 0.  0.
        3    1    3    3  502    0 -0.17883220021E+03  0.50524141739E+03 -0.77863525683E+03  0.94526330673E+03  0.10100000352E+00 0. -1.
       -3    1    3    3    0  502  0.17883220021E+03 -0.50524141739E+03  0.78972227180E+03  0.95441663986E+03  0.10100000352E+00 0.  1.
</event>
<event>
 5   0  0.1133638E-04  0.1884545E+04  0.7818609E-02  0.8662588E-01
        2   -1    0    0  501    0  0.00000000000E+00  0.00000000000E+00  0.46028399739E+03  0.46028399739E+03  0.25500000920E-02 0. -1.
       -2   -1    0    0    0  501  0.00000000000E+00  0.00000000000E+00 -0.19289773995E+04  0.19289773995E+04  0.25500000920E-02 0.  1.
    10030    2    1    2    0    0  0.00000000000E+00  0.00000000000E+00 -0.14686934021E+04  0.23892613969E+04  0.18845449619E+04 0.  0.
        3    1    3    3  502    0  0.44344068298E+03  0.62508487268E+03 -0.39347622727E+02  0.76741057003E+03  0.10100000352E+00 0. -1.
       -3    1    3    3    0  502 -0.44344068298E+03 -0.62508487268E+03 -0.14293457794E+04  0.16218508269E+04  0.10100000352E+00 0.  1.
</event>
<event>
 5   0  0.1118206E-04  0.1900064E+04  0.7818609E-02  0.8654825E-01
       -2   -1    0    0    0  501  0.00000000000E+00  0.00000000000E+00  0.43605496301E+03  0.43605496301E+03  0.25500000920E-02 0.  1.
        2   -1    0    0  501    0  0.00000000000E+00  0.00000000000E+00 -0.20698320683E+04  0.20698320683E+04  0.25500000920E-02 0. -1.
    10030    2    1    2    0    0  0.00000000000E+00  0.00000000000E+00 -0.16337771053E+04  0.25058870313E+04  0.19000637315E+04 0.  0.
        1    1    3    3  502    0  0.90242714841E+03 -0.19740949488E+02 -0.42610984731E+03  0.99816534967E+03  0.50400001928E-02 0.  1.
       -1    1    3    3    0  502 -0.90242714841E+03  0.19740949488E+02 -0.12076672579E+04  0.15077216816E+04  0.50400001928E-02 0. -1.
</event>
<event>
 5   0  0.5824956E-05  0.1897007E+04  0.7818609E-02  0.8656348E-01
        1   -1    0    0  501    0  0.00000000000E+00  0.00000000000E+00  0.79851154883E+03  0.79851154885E+03  0.50400001928E-02 0.  1.
       -1   -1    0    0    0  501  0.00000000000E+00  0.00000000000E+00 -0.11266700339E+04  0.11266700339E+04  0.50400001928E-02 0. -1.
    10030    2    1    2    0    0  0.00000000000E+00  0.00000000000E+00 -0.32815848505E+03  0.19251815827E+04  0.18970071521E+04 0.  0.
        2    1    3    3  502    0  0.54399035994E+03 -0.17582170001E+03  0.60401040570E+03  0.83166540875E+03  0.25500000920E-02 0.  1.
       -2    1    3    3    0  502 -0.54399035994E+03  0.17582170001E+03 -0.93216889075E+03  0.10935161740E+04  0.25500000920E-02 0. -1.
</event>
<event>
 5   0  0.5841424E-05  0.1910361E+04  0.7818609E-02  0.8649716E-01
       -1   -1    0    0    0  501  0.00000000000E+00  0.00000000000E+00  0.19400394994E+04  0.19400394994E+04  0.50400001928E-02 0. -1.
        1   -1    0    0  501    0  0.00000000000E+00  0.00000000000E+00 -0.47028427820E+03  0.47028427823E+03  0.50400001928E-02 0.  1.
    10030    2    1    2    0    0  0.00000000000E+00  0.00000000000E+00  0.14697552212E+04  0.24103237777E+04  0.19103613017E+04 0.  0.
        1    1    3    3  502    0  0.57462722904E+03 -0.41423570815E+03 -0.73585183648E+02  0.71218147514E+03  0.50400001928E-02 0.  1.
       -1    1    3    3    0  502 -0.57462722904E+03  0.41423570815E+03  0.15433404049E+04  0.16981423025E+04  0.50400001928E-02 0. -1.
</event>
<event>
 5   0  0.5824956E-05  0.1897089E+04  0.7818609E-02  0.8656307E-01
       -1   -1    0    0    0  501  0.00000000000E+00  0.00000000000E+00  0.90750452830E+03  0.90750452831E+03  0.50400001928E-02 0. -1.
        1   -1    0    0  501    0  0.00000000000E+00  0.00000000000E+00 -0.99144011244E+03  0.99144011245E+03  0.50400001928E-02 0.  1.
    10030    2    1    2    0    0  0.00000000000E+00  0.00000000000E+00 -0.83935584139E+02  0.18989446408E+04  0.18970887081E+04 0.  0.
        2    1    3    3  502    0 -0.75178851386E+02  0.80802693615E+03  0.44961040398E+03  0.92774398657E+03  0.25500000920E-02 0. -1.
       -2    1    3    3    0  502  0.75178851386E+02 -0.80802693615E+03 -0.53354598812E+03  0.97120065419E+03  0.25500000920E-02 0.  1.
</event>
<event>
 5   0  0.1133638E-04  0.1898697E+04  0.7818609E-02  0.8655505E-01
        2   -1    0    0  501    0  0.00000000000E+00  0.00000000000E+00  0.26250600306E+04  0.26250600306E+04  0.25500000920E-02 0.  1.
       -2   -1    0    0    0  501  0.00000000000E+00  0.00000000000E+00 -0.34333023194E+03  0.34333023195E+03  0.25500000920E-02 0. -1.
    10030    2    1    2    0    0  0.00000000000E+00  0.00000000000E+00  0.22817297987E+04  0.29683902626E+04  0.18986968891E+04 0.  0.
        3    1    3    3  502    0  0.15159943378E+03  0.60439438249E+03  0.21120880633E+02  0.62347498724E+03  0.10100000352E+00 0. -1.
       -3    1    3    3    0  502 -0.15159943378E+03 -0.60439438249E+03  0.22606089181E+04  0.23449152753E+04  0.10100000352E+00 0.  1.
</event>
<event>
 5   0  0.5824956E-05  0.1887164E+04  0.7818609E-02  0.8661272E-01
       -1   -1    0    0    0  501  0.00000000000E+00  0.00000000000E+00  0.84139474764E+03  0.84139474766E+03  0.50400001928E-02 0. -1.
        1   -1    0    0  501    0  0.00000000000E+00  0.00000000000E+00 -0.10581795415E+04  0.10581795415E+04  0.50400001928E-02 0.  1.
    10030    2    1    2    0    0  0.00000000000E+00  0.00000000000E+00 -0.21678479381E+03  0.18995742891E+04  0.18871637007E+04 0.  0.
        2    1    3    3  502    0 -0.77269076227E+03  0.15810433093E+02  0.43650458575E+03  0.88760195881E+03  0.25500000920E-02 0. -1.
       -2    1    3    3    0  502  0.77269076227E+03 -0.15810433093E+02 -0.65328937957E+03  0.10119723303E+04  0.25500000920E-02 0.  1.
</event>
<event>
 5   0  0.1101678E-04  0.1900078E+04  0.7818609E-02  0.8654817E-01
       -2   -1    0    0    0  501  0.00000000000E+00  0.00000000000E+00  0.57536529346E+03  0.57536529347E+03  0.25500000920E-02 0. -1.
        2   -1    0    0  501    0  0.00000000000E+00  0.00000000000E+00 -0.15686979685E+04  0.15686979685E+04  0.25500000920E-02 0.  1.
    10030    2    1    2    0    0  0.00000000000E+00  0.00000000000E+00 -0.99333267506E+03  0.21440632620E+04  0.19000782795E+04 0.  0.
        4    1    3    3  502    0  0.72036225599E+02 -0.24160881816E+03 -0.15302588107E+04  0.15508893189E+04  0.12699999809E+01 0.  1.
       -4    1    3    3    0  502 -0.72036225599E+02  0.24160881816E+03  0.53692613561E+03  0.59317394313E+03  0.12699999809E+01 0. -1.
</event>
<event>
 5   0  0.5579109E-05  0.1873788E+04  0.7818609E-02  0.8668015E-01
        1   -1    0    0  501    0  0.00000000000E+00  0.00000000000E+00  0.20518164630E+04  0.20518164630E+04  0.50400001928E-02 0. -1.
       -1   -1    0    0    0  501  0.00000000000E+00  0.00000000000E+00 -0.42780152288E+03  0.42780152291E+03  0.50400001928E-02 0.  1.
    10030    2    1    2    0    0  0.00000000000E+00  0.00000000000E+00  0.16240149401E+04  0.24796179859E+04  0.18737878296E+04 0.  0.
        3    1    3    3  502    0 -0.89361309583E+03  0.17920263337E+03  0.52477648995E+03  0.10516883205E+04  0.10100000352E+00 0.  1.
       -3    1    3    3    0  502  0.89361309583E+03 -0.17920263337E+03  0.10992384501E+04  0.14279296654E+04  0.10100000352E+00 0. -1.
</event>
<event>
 5   0  0.5841424E-05  0.1882161E+04  0.7818609E-02  0.8663787E-01
        1   -1    0    0  501    0  0.00000000000E+00  0.00000000000E+00  0.10977308580E+04  0.10977308580E+04  0.50400001928E-02 0. -1.
       -1   -1    0    0    0  501  0.00000000000E+00  0.00000000000E+00 -0.80678456968E+03  0.80678456970E+03  0.50400001928E-02 0.  1.
    10030    2    1    2    0    0  0.00000000000E+00  0.00000000000E+00  0.29094628835E+03  0.19045154277E+04  0.18821607986E+04 0.  0.
        1    1    3    3  502    0 -0.80456652379E+03  0.14918844640E+03  0.61580319694E+03  0.10241084225E+04  0.50400001928E-02 0.  1.
       -1    1    3    3    0  502  0.80456652379E+03 -0.14918844640E+03 -0.32485690859E+03  0.88040700521E+03  0.50400001928E-02 0. -1.
</event>
<event>
 5   0  0.1101678E-04  0.1853125E+04  0.7818609E-02  0.8678547E-01
       -2   -1    0    0    0  501  0.00000000000E+00  0.00000000000E+00  0.80581645303E+03  0.80581645303E+03  0.25500000920E-02 0. -1.
        2   -1    0    0  501    0  0.00000000000E+00  0.00000000000E+00 -0.10654015936E+04  0.10654015936E+04  0.25500000920E-02 0.  1.
    10030    2    1    2    0    0  0.00000000000E+00  0.00000000000E+00 -0.25958514059E+03  0.18712180467E+04  0.18531250721E+04 0.  0.
        4    1    3    3  502    0  0.50704499681E+03  0.20763539792E+03  0.62470378845E+03  0.83094134779E+03  0.12699999809E+01 0. -1.
       -4    1    3    3    0  502 -0.50704499681E+03 -0.20763539792E+03 -0.88428892904E+03  0.10402766989E+04  0.12699999809E+01 0.  1.
</event>
<event>
 5   0  0.1182630E-04  0.1904441E+04  0.7818609E-02  0.8652649E-01
       -2   -1    0    0    0  501  0.00000000000E+00  0.00000000000E+00  0.68540164642E+03  0.68540164642E+03  0.25500000920E-02 0. -1.
        2   -1    0    0  501    0  0.00000000000E+00  0.00000000000E+00 -0.13229083175E+04  0.13229083175E+04  0.25500000920E-02 0.  1.
    10030    2    1    2    0    0  0.00000000000E+00  0.00000000000E+00 -0.63750667108E+03  0.20083099639E+04  0.19044406411E+04 0.  0.
        5    1    3    3  502    0  0.65559489282E+03 -0.19962971524E+03  0.37839671309E+03  0.78285557364E+03  0.46999998093E+01 0. -1.
       -5    1    3    3    0  502 -0.65559489282E+03  0.19962971524E+03 -0.10159033842E+04  0.12254543903E+04  0.46999998093E+01 0.  1.
</event>
<event>
 5   0  0.5824956E-05  0.1862202E+04  0.7818609E-02  0.8673903E-01
        1   -1    0    0  501    0  0.00000000000E+00  0.00000000000E+00  0.34971865233E+03  0.34971865237E+03  0.50400001928E-02 0. -1.
       -1   -1    0    0    0  501  0.00000000000E+00  0.00000000000E+00 -0.24789903027E+04  0.24789903027E+04  0.50400001928E-02 0.  1.
    10030    2    1    2    0    0  0.00000000000E+00  0.00000000000E+00 -0.21292716503E+04  0.28287089551E+04  0.18622020812E+04 0.  0.
        2    1    3    3  502    0 -0.16405360043E+03 -0.84991296724E+03 -0.54353799098E+03  0.10221052702E+04  0.25500000920E-02 0. -1.
       -2    1    3    3    0  502  0.16405360043E+03  0.84991296724E+03 -0.15857336594E+04  0.18066036849E+04  0.25500000920E-02 0.  1.
</event>
<event>
 5   0  0.5614989E-05  0.1901376E+04  0.7818609E-02  0.8654172E-01
       -1   -1    0    0    0  501  0.00000000000E+00  0.00000000000E+00  0.60256600840E+03  0.60256600842E+03  0.50400001928E-02 0. -1.
        1   -1    0    0  501    0  0.00000000000E+00  0.00000000000E+00 -0.14999321683E+04  0.14999321683E+04  0.50400001928E-02 0.  1.
    10030    2    1    2    0    0  0.00000000000E+00  0.00000000000E+00 -0.89736615986E+03  0.21024981767E+04  0.19013764904E+04 0.  0.
        4    1    3    3  502    0 -0.62501224658E+03 -0.38208135692E+03  0.22136666983E+03  0.76526550104E+03  0.12699999809E+01 0. -1.
       -4    1    3    3    0  502  0.62501224658E+03  0.38208135692E+03 -0.11187328297E+04  0.13372326756E+04  0.12699999809E+01 0.  1.
</event>
<event>
 5   0  0.5841424E-05  0.1866428E+04  0.7818609E-02  0.8671750E-01
        1   -1    0    0  501    0  0.00000000000E+00  0.00000000000E+00  0.67956593472E+03  0.67956593474E+03  0.50400001928E-02 0.  1.
       -1   -1    0    0    0  501  0.00000000000E+00  0.00000000000E+00 -0.12815359755E+04  0.12815359756E+04  0.50400001928E-02 0. -1.
    10030    2    1    2    0    0  0.00000000000E+00  0.00000000000E+00 -0.60197004083E+03  0.19611019103E+04  0.18664278107E+04 0.  0.
        1    1    3    3  502    0 -0.35549377299E+03 -0.17123636228E+03  0.58760171871E+03  0.70779481085E+03  0.50400001928E-02 0.  1.
       -1    1    3    3    0  502  0.35549377299E+03  0.17123636228E+03 -0.11895717595E+04  0.12533070994E+04  0.50400001928E-02 0. -1.
</event>
<event>
 5   0  0.5628936E-05  0.1955160E+04  0.7818609E-02  0.8627877E-01
        1   -1    0    0  501    0  0.00000000000E+00  0.00000000000E+00  0.11343338274E+04  0.11343338274E+04  0.50400001928E-02 0.  1.
       -1   -1    0    0    0  501  0.00000000000E+00  0.00000000000E+00 -0.84248789734E+03  0.84248789736E+03  0.50400001928E-02 0. -1.
    10030    2    1    2    0    0  0.00000000000E+00  0.00000000000E+00  0.29184593006E+03  0.19768217248E+04  0.19551598617E+04 0.  0.
        5    1    3    3  502    0 -0.75679688323E+03  0.92478640087E+02  0.76454044085E+03  0.10797397821E+04  0.46999998093E+01 0.  1.
       -5    1    3    3    0  502  0.75679688323E+03 -0.92478640087E+02 -0.47269451079E+03  0.89708194268E+03  0.46999998093E+01 0. -1.
</event>
<event>
 5   0  0.5579109E-05  0.1895338E+04  0.7818609E-02  0.8657181E-01
       -1   -1    0    0    0  501  0.00000000000E+00  0.00000000000E+00  0.68277848976E+03  0.68277848978E+03  0.50400001928E-02 0.  1.
        1   -1    0    0  501    0  0.00000000000E+00  0.00000000000E+00 -0.13153256906E+04  0.13153256906E+04  0.50400001928E-02 0. -1.
    10030    2    1    2    0    0  0.00000000000E+00  0.00000000000E+00 -0.63254720086E+03  0.19981041804E+04  0.18953375305E+04 0.  0.
        3    1    3    3  502    0 -0.55035568178E+03  0.65564182803E+03  0.11236599655E+03  0.86335607400E+03  0.10100000352E+00 0.  1.
       -3    1    3    3    0  502  0.55035568178E+03 -0.65564182803E+03 -0.74491319741E+03  0.11347481064E+04  0.10100000352E+00 0. -1.
</event>
<event>
 5   0  0.1118206E-04  0.1896804E+04  0.7818609E-02  0.8656449E-01
       -2   -1    0    0    0  501  0.00000000000E+00  0.00000000000E+00  0.40711780797E+03  0.40711780798E+03  0.25500000920E-02 0.  1.
        2   -1    0    0  501    0  0.00000000000E+00  0.00000000000E+00 -0.22093511494E+04  0.22093511494E+04  0.25500000920E-02 0. -1.
    10030    2    1    2    0    0  0.00000000000E+00  0.00000000000E+00 -0.18022333415E+04  0.26164689574E+04  0.18968038349E+04 0.  0.
        1    1    3    3  502    0 -0.66357070719E+03  0.24988351887E+02  0.32933643664E+02  0.66485722233E+03  0.50400001928E-02 0.  1.
       -1    1    3    3    0  502  0.66357070719E+03 -0.24988351887E+02 -0.18351669851E+04  0.19516117351E+04  0.50400001928E-02 0. -1.
</event>
<event>
 5   0  0.5628936E-05  0.1894868E+04  0.7818609E-02  0.8657415E-01
       -1   -1    0    0    0  501  0.00000000000E+00  0.00000000000E+00  0.66411727669E+03  0.66411727671E+03  0.50400001928E-02 0.  1.
        1   -1    0    0  501    0  0.00000000000E+00  0.00000000000E+00 -0.13516154540E+04  0.13516154540E+04  0.50400001928E-02 0. -1.
    10030    2    1    2    0    0  0.00000000000E+00  0.00000000000E+00 -0.68749817727E+03  0.20157327307E+04  0.18948679895E+04 0.  0.
        5    1    3    3  502    0 -0.43339031197E+03 -0.78444984586E+03 -0.16870241600E+02  0.89637905945E+03  0.46999998093E+01 0.  1.
       -5    1    3    3    0  502  0.43339031197E+03  0.78444984586E+03 -0.67062793567E+03  0.11193536712E+04  0.46999998093E+01 0. -1.
</event>
<event>
 5   0  0.5841424E-05  0.1899229E+04  0.7818609E-02  0.8655240E-01
        1   -1    0    0  501    0  0.00000000000E+00  0.00000000000E+00  0.19334170004E+04  0.19334170004E+04  0.50400001928E-02 0. -1.
       -1   -1    0    0    0  501  0.00000000000E+00  0.00000000000E+00 -0.46641146714E+03  0.46641146717E+03  0.50400001928E-02 0.  1.
    10030    2    1    2    0    0  0.00000000000E+00  0.00000000000E+00  0.14670055332E+04  0.23998284675E+04  0.18992291697E+04 0.  0.
        1    1    3    3  502    0 -0.68697748268E+03  0.31563967058E+03  0.74097135049E+01  0.75605645770E+03  0.50400001928E-02 0.  1.
       -1    1    3    3    0  502  0.68697748268E+03 -0.31563967058E+03  0.14595958197E+04  0.16437720098E+04  0.50400001928E-02 0. -1.
</event>
<event>
 5   0  0.5579109E-05  0.1896874E+04  0.7818609E-02  0.8656414E-01
        1   -1    0    0  501    0  0.00000000000E+00  0.00000000000E+00  0.14732581215E+04  0.14732581215E+04  0.50400001928E-02 0. -1.
       -1   -1    0    0    0  501  0.00000000000E+00  0.00000000000E+00 -0.61057348030E+03  0.61057348032E+03  0.50400001928E-02 0.  1.
    10030    2    1    2    0    0  0.00000000000E+00  0.00000000000E+00  0.86268464124E+03  0.20838316019E+04  0.18968735737E+04 0.  0.
        3    1    3    3  502    0 -0.50933089168E+03  0.62411649572E+03 -0.11858928016E+03  0.81424982961E+03  0.10100000352E+00 0.  1.
       -3    1    3    3    0  502  0.50933089168E+03 -0.62411649572E+03  0.98127392140E+03  0.12695817723E+04  0.10100000352E+00 0. -1.
</event>
<event>
 5   0  0.5614989E-05  0.1860496E+04  0.7818609E-02  0.8674774E-01
        1   -1    0    0  501    0  0.00000000000E+00  0.00000000000E+00  0.59052800096E+03  0.59052800099E+03  0.50400001928E-02 0. -1.
       -1   -1    0    0    0  501  0.00000000000E+00  0.00000000000E+00 -0.14654031697E+04  0.14654031697E+04  0.50400001928E-02 0.  1.
    10030    2    1    2    0    0  0.00000000000E+00  0.00000000000E+00 -0.87487516877E+03  0.20559311707E+04  0.18604962827E+04 0.  0.
        4    1    3    3  502    0  0.56227254492E+03  0.16695453541E+02  0.38128841005E+03  0.67956722808E+03  0.12699999809E+01 0. -1.
       -4    1    3    3    0  502 -0.56227254492E+03 -0.16695453541E+02 -0.12561635788E+04  0.13763639426E+04  0.12699999809E+01 0.  1.
</event>
<event>
 5   0  0.5579109E-05  0.1879860E+04  0.7818609E-02  0.8664947E-01
       -1   -1    0    0    0  501  0.00000000000E+00  0.00000000000E+00  0.94365318551E+03  0.94365318553E+03  0.50400001928E-02 0.  1.
        1   -1    0    0  501    0  0.00000000000E+00  0.00000000000E+00 -0.93622111475E+03  0.93622111476E+03  0.50400001928E-02 0. -1.
    10030    2    1    2    0    0  0.00000000000E+00  0.00000000000E+00  0.74320707623E+01  0.18798743003E+04  0.18798596089E+04 0.  0.
        3    1    3    3  502    0  0.75579756064E+03 -0.24655283725E+02  0.56195886991E+03  0.94214415954E+03  0.10100000352E+00 0.  1.
       -3    1    3    3    0  502 -0.75579756064E+03  0.24655283725E+02 -0.55452679915E+03  0.93773014075E+03  0.10100000352E+00 0. -1.
</event>
<event>
 5   0  0.1118206E-04  0.1883624E+04  0.7818609E-02  0.8663051E-01
       -2   -1    0    0    0  501  0.00000000000E+00  0.00000000000E+00  0.45181183834E+03  0.45181183835E+03  0.25500000920E-02 0.  1.
        2   -1    0    0  501    0  0.00000000000E+00  0.00000000000E+00 -0.19632280175E+04  0.19632280175E+04  0.25500000920E-02 0. -1.
    10030    2    1    2    0    0  0.00000000000E+00  0.00000000000E+00 -0.15114161792E+04  0.24150398559E+04  0.18836238050E+04 0.  0.
        1    1    3    3  502    0  0.34303231114E+03 -0.85951068724E+03 -0.53150171224E+03  0.10672037566E+04  0.50400001928E-02 0.  1.
       -1    1    3    3    0  502 -0.34303231114E+03  0.85951068724E+03 -0.97991446693E+03  0.13478360993E+04  0.50400001928E-02 0. -1.
</event>
<event>
 5   0  0.1133638E-04  0.1863462E+04  0.7818609E-02  0.8673261E-01
       -2   -1    0    0    0  501  0.00000000000E+00  0.00000000000E+00  0.83492994377E+03  0.83492994377E+03  0.25500000920E-02 0.  1.
        2   -1    0    0  501    0  0.00000000000E+00  0.00000000000E+00 -0.10397546748E+04  0.10397546748E+04  0.25500000920E-02 0. -1.
    10030    2    1    2    0    0  0.00000000000E+00  0.00000000000E+00 -0.20482473101E+03  0.18746846186E+04  0.18634616306E+04 0.  0.
        3    1    3    3  502    0  0.26389842781E+02  0.36093408367E+03 -0.96615910778E+03  0.10317137531E+04  0.10100000352E+00 0. -1.
       -3    1    3    3    0  502 -0.26389842781E+02 -0.36093408367E+03  0.76133437678E+03  0.84297086546E+03  0.10100000352E+00 0.  1.
</event>
<event>
 5   0  0.5579109E-05  0.1978218E+04  0.7818609E-02  0.8616873E-01
       -1   -1    0    0    0  501  0.00000000000E+00  0.00000000000E+00  0.14856640592E+04  0.14856640592E+04  0.50400001928E-02 0.  1.
        1   -1    0    0  501    0  0.00000000000E+00  0.00000000000E+00 -0.65851778332E+03  0.65851778334E+03  0.50400001928E-02 0. -1.
    10030    2    1    2    0    0  0.00000000000E+00  0.00000000000E+00  0.82714627583E+03  0.21441818425E+04  0.19782175846E+04 0.  0.
        3    1    3    3  502    0 -0.88110343303E+03  0.29092817548E+03  0.42263686037E+02  0.92885342888E+03  0.10100000352E+00 0. -1.
       -3    1    3    3    0  502  0.88110343303E+03 -0.29092817548E+03  0.78488258980E+03  0.12153284136E+04  0.10100000352E+00 0.  1.
</event>
<event>
 5   0  0.4061125E-05  0.1900331E+04  0.7818609E-02  0.8654692E-01
        4   -1    0    0  501    0  0.00000000000E+00  0.00000000000E+00  0.10960607271E+04  0.10960614628E+04  0.12699999809E+01 0.  1.
       -4   -1    0    0    0  501  0.00000000000E+00  0.00000000000E+00 -0.82368843544E+03  0.82368941451E+03  0.12699999809E+01 0. -1.
    10030    2    1    2    0    0  0.00000000000E+00  0.00000000000E+00  0.27237229162E+03  0.19197508773E+04  0.19003306991E+04 0.  0.
        1    1    3    3  502    0  0.77763395096E+03 -0.54173542538E+03  0.67503422193E+02  0.95013080407E+03  0.50400001928E-02 0. -1.
       -1    1    3    3    0  502 -0.77763395096E+03  0.54173542538E+03  0.20486886942E+03  0.96962007327E+03  0.50400001928E-02 0.  1.
</event>
<event>
 5   0  0.5614989E-05  0.1893493E+04  0.7818609E-02  0.8658102E-01
        1   -1    0    0  501    0  0.00000000000E+00  0.00000000000E+00  0.87008661262E+03  0.87008661263E+03  0.50400001928E-02 0.  1.
       -1   -1    0    0    0  501  0.00000000000E+00  0.00000000000E+00 -0.10301605067E+04  0.10301605067E+04  0.50400001928E-02 0. -1.
    10030    2    1    2    0    0  0.00000000000E+00  0.00000000000E+00 -0.16007389411E+03  0.19002471194E+04  0.18934929266E+04 0.  0.
        4    1    3    3  502    0  0.91010215233E+03 -0.24593794530E+03  0.71975225064E+01  0.94277506217E+03  0.12699999809E+01 0. -1.
       -4    1    3    3    0  502 -0.91010215233E+03  0.24593794530E+03 -0.16727141662E+03  0.95747205721E+03  0.12699999809E+01 0.  1.
</event>
<event>
 5   0  0.5824956E-05  0.1869877E+04  0.7818609E-02  0.8669997E-01
       -1   -1    0    0    0  501  0.00000000000E+00  0.00000000000E+00  0.82183579988E+03  0.82183579990E+03  0.50400001928E-02 0. -1.
        1   -1    0    0  501    0  0.00000000000E+00  0.00000000000E+00 -0.10636070802E+04  0.10636070802E+04  0.50400001928E-02 0.  1.
    10030    2    1    2    0    0  0.00000000000E+00  0.00000000000E+00 -0.24177128028E+03  0.18854428801E+04  0.18698774029E+04 0.  0.
        2    1    3    3  502    0 -0.15445504437E+03  0.23037299545E+03  0.77939740179E+03  0.82727769684E+03  0.25500000920E-02 0. -1.
       -2    1    3    3    0  502  0.15445504437E+03 -0.23037299545E+03 -0.10211686821E+04  0.10581651832E+04  0.25500000920E-02 0.  1.
</event>
<event>
 5   0  0.5841424E-05  0.1894831E+04  0.7818609E-02  0.8657433E-01
       -1   -1    0    0    0  501  0.00000000000E+00  0.00000000000E+00  0.13129820815E+04  0.13129820815E+04  0.50400001928E-02 0.  1.
        1   -1    0    0  501    0  0.00000000000E+00  0.00000000000E+00 -0.68363194412E+03  0.68363194414E+03  0.50400001928E-02 0. -1.
    10030    2    1    2    0    0  0.00000000000E+00  0.00000000000E+00  0.62935013738E+03  0.19966140257E+04  0.18948313835E+04 0.  0.
        1    1    3    3  502    0 -0.68884343980E+03 -0.34662330252E+03  0.89464351203E+03  0.11811181194E+04  0.50400001928E-02 0.  1.
       -1    1    3    3    0  502  0.68884343980E+03  0.34662330252E+03 -0.26529337465E+03  0.81549590622E+03  0.50400001928E-02 0. -1.
</event>
<event>
 5   0  0.5628936E-05  0.1894209E+04  0.7818609E-02  0.8657744E-01
       -1   -1    0    0    0  501  0.00000000000E+00  0.00000000000E+00  0.86839166897E+03  0.86839166899E+03  0.50400001928E-02 0. -1.
        1   -1    0    0  501    0  0.00000000000E+00  0.00000000000E+00 -0.10329519816E+04  0.10329519816E+04  0.50400001928E-02 0.  1.
    10030    2    1    2    0    0  0.00000000000E+00  0.00000000000E+00 -0.16456031261E+03  0.19013436506E+04  0.18942089592E+04 0.  0.
        5    1    3    3  502    0 -0.29267941152E+03 -0.48865221448E+03 -0.84179563300E+03  0.10164074982E+04  0.46999998093E+01 0.  1.
       -5    1    3    3    0  502  0.29267941152E+03  0.48865221448E+03  0.67723532039E+03  0.88493615240E+03  0.46999998093E+01 0. -1.
</event>
<event>
 5   0  0.1182630E-04  0.1897566E+04  0.7818609E-02  0.8656069E-01
        2   -1    0    0  501    0  0.00000000000E+00  0.00000000000E+00  0.79953813560E+03  0.79953813560E+03  0.25500000920E-02 0. -1.
       -2   -1    0    0    0  501  0.00000000000E+00  0.00000000000E+00 -0.11258858983E+04  0.11258858983E+04  0.25500000920E-02 0.  1.
    10030    2    1    2    0    0  0.00000000000E+00  0.00000000000E+00 -0.32634776267E+03  0.19254240339E+04  0.18975655056E+04 0.  0.
        5    1    3    3  502    0 -0.84814521910E+03  0.10080546441E+03 -0.58234231517E+03  0.10337585387E+04  0.46999998093E+01 0.  1.
       -5    1    3    3    0  502  0.84814521910E+03 -0.10080546441E+03  0.25599455250E+03  0.89166549515E+03  0.46999998093E+01 0. -1.
</event>
<event>
 5   0  0.1101678E-04  0.1903489E+04  0.7818609E-02  0.8653122E-01
       -2   -1    0    0    0  501  0.00000000000E+00  0.00000000000E+00  0.64836067303E+03  0.64836067303E+03  0.25500000920E-02 0.  1.
        2   -1    0    0  501    0  0.00000000000E+00  0.00000000000E+00 -0.13970887777E+04  0.13970887777E+04  0.25500000920E-02 0. -1.
    10030    2    1    2    0    0  0.00000000000E+00  0.00000000000E+00 -0.74872810470E+03  0.20454494508E+04  0.19034888182E+04 0.  0.
        4    1    3    3  502    0 -0.34253234426E+03  0.32089437257E+03  0.51534221452E+03  0.69705151616E+03  0.12699999809E+01 0.  1.
       -4    1    3    3    0  502  0.34253234426E+03 -0.32089437257E+03 -0.12640703192E+04  0.13483979346E+04  0.12699999809E+01 0. -1.
</event>
<event>
 5   0  0.5628936E-05  0.1889353E+04  0.7818609E-02  0.8660174E-01
        1   -1    0    0  501    0  0.00000000000E+00  0.00000000000E+00  0.65133574881E+03  0.65133574883E+03  0.50400001928E-02 0.  1.
       -1   -1    0    0    0  501  0.00000000000E+00  0.00000000000E+00 -0.13701282891E+04  0.13701282891E+04  0.50400001928E-02 0. -1.
    10030    2    1    2    0    0  0.00000000000E+00  0.00000000000E+00 -0.71879254031E+03  0.20214640380E+04  0.18893528365E+04 0.  0.
        5    1    3    3  502    0 -0.57891712107E+03  0.68798852351E+03 -0.66933870399E+03  0.11209414044E+04  0.46999998093E+01 0. -1.
       -5    1    3    3    0  502  0.57891712107E+03 -0.68798852351E+03 -0.49453836328E+02  0.90052263352E+03  0.46999998093E+01 0.  1.
</event>
<event>
 5   0  0.1118206E-04  0.1857976E+04  0.7818609E-02  0.8676062E-01
        2   -1    0    0  501    0  0.00000000000E+00  0.00000000000E+00  0.18708580115E+04  0.18708580115E+04  0.25500000920E-02 0.  1.
       -2   -1    0    0    0  501  0.00000000000E+00  0.00000000000E+00 -0.46129550120E+03  0.46129550121E+03  0.25500000920E-02 0. -1.
    10030    2    1    2    0    0  0.00000000000E+00  0.00000000000E+00  0.14095625103E+04  0.23321535127E+04  0.18579756555E+04 0.  0.
        1    1    3    3  502    0 -0.14071932004E+03 -0.56399680788E+03  0.16143762723E+04  0.17158394666E+04  0.50400001928E-02 0.  1.
       -1    1    3    3    0  502  0.14071932004E+03  0.56399680788E+03 -0.20481376204E+03  0.61631404614E+03  0.50400001928E-02 0. -1.
</event>
<event>
 5   0  0.1101678E-04  0.1875569E+04  0.7818609E-02  0.8667114E-01
        2   -1    0    0  501    0  0.00000000000E+00  0.00000000000E+00  0.38147885576E+03  0.38147885577E+03  0.25500000920E-02 0.  1.
       -2   -1    0    0    0  501  0.00000000000E+00  0.00000000000E+00 -0.23053432282E+04  0.23053432282E+04  0.25500000920E-02 0. -1.
    10030    2    1    2    0    0  0.00000000000E+00  0.00000000000E+00 -0.19238643724E+04  0.26868220840E+04  0.18755689236E+04 0.  0.
        4    1    3    3  502    0  0.19472772381E+03 -0.82118803971E+02  0.34692053441E+03  0.40622389699E+03  0.12699999809E+01 0.  1.
       -4    1    3    3    0  502 -0.19472772381E+03  0.82118803971E+02 -0.22707849068E+04  0.22805981870E+04  0.12699999809E+01 0. -1.
</event>
<event>
 5   0  0.1101678E-04  0.1941283E+04  0.7818609E-02  0.8634576E-01
       -2   -1    0    0    0  501  0.00000000000E+00  0.00000000000E+00  0.46232349284E+03  0.46232349285E+03  0.25500000920E-02 0. -1.
        2   -1    0    0  501    0  0.00000000000E+00  0.00000000000E+00 -0.20378475631E+04  0.20378475631E+04  0.25500000920E-02 0.  1.
    10030    2    1    2    0    0  0.00000000000E+00  0.00000000000E+00 -0.15755240702E+04  0.25001710559E+04  0.19412828781E+04 0.  0.
        4    1    3    3  502    0 -0.68641019680E+03  0.30358554926E+03  0.49170061184E+01  0.75056574251E+03  0.12699999809E+01 0. -1.
       -4    1    3    3    0  502  0.68641019680E+03 -0.30358554926E+03 -0.15804410763E+04  0.17496053134E+04  0.12699999809E+01 0.  1.
</event>
<event>
 5   0  0.5841424E-05  0.1894402E+04  0.7818609E-02  0.8657648E-01
        1   -1    0    0  501    0  0.00000000000E+00  0.00000000000E+00  0.65835069414E+03  0.65835069416E+03  0.50400001928E-02 0.  1.
       -1   -1    0    0    0  501  0.00000000000E+00  0.00000000000E+00 -0.13627834115E+04  0.13627834115E+04  0.50400001928E-02 0. -1.
    10030    2    1    2    0    0  0.00000000000E+00  0.00000000000E+00 -0.70443271738E+03  0.20211341057E+04  0.18944016522E+04 0.  0.
        1    1    3    3  502    0 -0.58023078581E+03  0.50865077314E+03 -0.93832730025E+03  0.12148462850E+04  0.50400001928E-02 0. -1.
       -1    1    3    3    0  502  0.58023078581E+03 -0.50865077314E+03  0.23389458287E+03  0.80628782066E+03  0.50400001928E-02 0.  1.
</event>
<event>
 5   0  0.5628936E-05  0.1885994E+04  0.7818609E-02  0.8661860E-01
        1   -1    0    0  501    0  0.00000000000E+00  0.00000000000E+00  0.83243072054E+03  0.83243072055E+03  0.50400001928E-02 0.  1.
       -1   -1    0    0    0  501  0.00000000000E+00  0.00000000000E+00 -0.10682491063E+04  0.10682491063E+04  0.50400001928E-02 0. -1.
    10030    2    1    2    0    0  0.00000000000E+00  0.00000000000E+00 -0.23581838580E+03  0.19006798269E+04  0.18859940332E+04 0.  0.
        5    1    3    3  502    0 -0.39283748818E+03  0.85648887701E+03 -0.81200364449E+02  0.94578542902E+03  0.46999998093E+01 0. -1.
       -5    1    3    3    0  502  0.39283748818E+03 -0.85648887701E+03 -0.15461802135E+03  0.95489439787E+03  0.46999998093E+01 0.  1.
</event>
<event>
 5   0  0.5579109E-05  0.1908645E+04  0.7818609E-02  0.8650565E-01
        1   -1    0    0  501    0  0.00000000000E+00  0.00000000000E+00  0.15725669201E+04  0.15725669201E+04  0.50400001928E-02 0. -1.
       -1   -1    0    0    0  501  0.00000000000E+00  0.00000000000E+00 -0.57913663144E+03  0.57913663147E+03  0.50400001928E-02 0.  1.
    10030    2    1    2    0    0  0.00000000000E+00  0.00000000000E+00  0.99343028870E+03  0.21517035516E+04  0.19086446593E+04 0.  0.
        3    1    3    3  502    0 -0.37949081475E+02 -0.45387716636E+03  0.14421323260E+04  0.15123459495E+04  0.10100000352E+00 0. -1.
       -3    1    3    3    0  502  0.37949081475E+02  0.45387716636E+03 -0.44870203732E+03  0.63935760215E+03  0.10100000352E+00 0.  1.
</event>
<event>
 5   0  0.1101678E-04  0.1901448E+04  0.7818609E-02  0.8654136E-01
        2   -1    0    0  501    0  0.00000000000E+00  0.00000000000E+00  0.84745272306E+03  0.84745272307E+03  0.25500000920E-02 0.  1.
       -2   -1    0    0    0  501  0.00000000000E+00  0.00000000000E+00 -0.10665803065E+04  0.10665803065E+04  0.25500000920E-02 0. -1.
    10030    2    1    2    0    0  0.00000000000E+00  0.00000000000E+00 -0.21912758340E+03  0.19140330295E+04  0.19014482744E+04 0.  0.
        4    1    3    3  502    0  0.67413044764E+03  0.64275545700E+03 -0.30131955633E+03  0.97896962459E+03  0.12699999809E+01 0. -1.
       -4    1    3    3    0  502 -0.67413044764E+03 -0.64275545700E+03  0.82191972931E+02  0.93506340494E+03  0.12699999809E+01 0.  1.
</event>
<event>
 5   0  0.5614989E-05  0.1900911E+04  0.7818609E-02  0.8654403E-01
       -1   -1    0    0    0  501  0.00000000000E+00  0.00000000000E+00  0.10129380620E+04  0.10129380620E+04  0.50400001928E-02 0.  1.
        1   -1    0    0  501    0  0.00000000000E+00  0.00000000000E+00 -0.89182702533E+03  0.89182702534E+03  0.50400001928E-02 0. -1.
    10030    2    1    2    0    0  0.00000000000E+00  0.00000000000E+00  0.12111103663E+03  0.19047650873E+04  0.19009108750E+04 0.  0.
        4    1    3    3  502    0  0.23562389271E+03 -0.15056018966E+03  0.97078984052E+03  0.10102581437E+04  0.12699999809E+01 0.  1.
       -4    1    3    3    0  502 -0.23562389271E+03  0.15056018966E+03 -0.84967880389E+03  0.89450694363E+03  0.12699999809E+01 0. -1.
</event>
<event>
 5   0  0.1118206E-04  0.1733228E+04  0.7818609E-02  0.8742637E-01
       -2   -1    0    0    0  501  0.00000000000E+00  0.00000000000E+00  0.52816277933E+03  0.52816277933E+03  0.25500000920E-02 0. -1.
        2   -1    0    0  501    0  0.00000000000E+00  0.00000000000E+00 -0.14219484612E+04  0.14219484612E+04  0.25500000920E-02 0.  1.
    10030    2    1    2    0    0  0.00000000000E+00  0.00000000000E+00 -0.89378568187E+03  0.19501112405E+04  0.17332284920E+04 0.  0.
        1    1    3    3  502    0 -0.63872289325E+03 -0.57719929372E+03 -0.33497587355E+03  0.92376122181E+03  0.50400001928E-02 0. -1.
       -1    1    3    3    0  502  0.63872289325E+03  0.57719929372E+03 -0.55880980831E+03  0.10263500187E+04  0.50400001928E-02 0.  1.
</event>
<event>
 5   0  0.5628936E-05  0.1927500E+04  0.7818609E-02  0.8641288E-01
       -1   -1    0    0    0  501  0.00000000000E+00  0.00000000000E+00  0.79594305251E+03  0.79594305253E+03  0.50400001928E-02 0.  1.
        1   -1    0    0  501    0  0.00000000000E+00  0.00000000000E+00 -0.11669348528E+04  0.11669348528E+04  0.50400001928E-02 0. -1.
    10030    2    1    2    0    0  0.00000000000E+00  0.00000000000E+00 -0.37099180029E+03  0.19628779053E+04  0.19274996123E+04 0.  0.
        5    1    3    3  502    0  0.12514155433E+03 -0.90328244126E+03  0.13201524504E+03  0.92142807219E+03  0.46999998093E+01 0.  1.
       -5    1    3    3    0  502 -0.12514155433E+03  0.90328244126E+03 -0.50300704533E+03  0.10414498331E+04  0.46999998093E+01 0. -1.
</event>
<event>
 5   0  0.1133638E-04  0.1897533E+04  0.7818609E-02  0.8656086E-01
       -2   -1    0    0    0  501  0.00000000000E+00  0.00000000000E+00  0.64953904446E+03  0.64953904447E+03  0.25500000920E-02 0.  1.
        2   -1    0    0  501    0  0.00000000000E+00  0.00000000000E+00 -0.13858403646E+04  0.13858403646E+04  0.25500000920E-02 0. -1.
    10030    2    1    2    0    0  0.00000000000E+00  0.00000000000E+00 -0.73630132018E+03  0.20353794091E+04  0.18975325307E+04 0.  0.
        3    1    3    3  502    0 -0.75310744393E+03  0.50849014382E+03 -0.66077720737E+03  0.11235477633E+04  0.10100000352E+00 0. -1.
       -3    1    3    3    0  502  0.75310744393E+03 -0.50849014382E+03 -0.75524112810E+02  0.91183164580E+03  0.10100000352E+00 0.  1.
</event>
<event>
 5   0  0.1118206E-04  0.1908189E+04  0.7818609E-02  0.8650791E-01
       -2   -1    0    0    0  501  0.00000000000E+00  0.00000000000E+00  0.51903125738E+03  0.51903125739E+03  0.25500000920E-02 0.  1.
        2   -1    0    0  501    0  0.00000000000E+00  0.00000000000E+00 -0.17538368315E+04  0.17538368315E+04  0.25500000920E-02 0. -1.
    10030    2    1    2    0    0  0.00000000000E+00  0.00000000000E+00 -0.12348055741E+04  0.22728680889E+04  0.19081888124E+04 0.  0.
        1    1    3    3  502    0  0.13112541268E+03 -0.40180338471E+03  0.40143828644E+03  0.58291725970E+03  0.50400001928E-02 0.  1.
       -1    1    3    3    0  502 -0.13112541268E+03  0.40180338471E+03 -0.16362438606E+04  0.16899508292E+04  0.50400001928E-02 0. -1.
</event>
<event>
 5   0  0.5628936E-05  0.1884163E+04  0.7818609E-02  0.8662780E-01
        1   -1    0    0  501    0  0.00000000000E+00  0.00000000000E+00  0.23469417585E+04  0.23469417585E+04  0.50400001928E-02 0. -1.
       -1   -1    0    0    0  501  0.00000000000E+00  0.00000000000E+00 -0.37815903748E+03  0.37815903752E+03  0.50400001928E-02 0.  1.
    10030    2    1    2    0    0  0.00000000000E+00  0.00000000000E+00  0.19687827210E+04  0.27251007960E+04  0.18841626644E+04 0.  0.
        5    1    3    3  502    0  0.38845620954E+03 -0.68919061918E+03  0.24462596568E+03  0.82809775352E+03  0.46999998093E+01 0.  1.
       -5    1    3    3    0  502 -0.38845620954E+03  0.68919061918E+03  0.17241567553E+04  0.18970030425E+04  0.46999998093E+01 0. -1.
</event>
<event>
 5   0  0.5824956E-05  0.1907261E+04  0.7818609E-02  0.8651251E-01
       -1   -1    0    0    0  501  0.00000000000E+00  0.00000000000E+00  0.74413571638E+03  0.74413571639E+03  0.50400001928E-02 0. -1.
        1   -1    0    0  501    0  0.00000000000E+00  0.00000000000E+00 -0.12221035655E+04  0.12221035655E+04  0.50400001928E-02 0.  1.
    10030    2    1    2    0    0  0.00000000000E+00  0.00000000000E+00 -0.47796784908E+03  0.19662392819E+04  0.19072607711E+04 0.  0.
        2    1    3    3  502    0 -0.53141540867E+03 -0.39477607094E+02  0.57632580152E+03  0.78492817985E+03  0.25500000920E-02 0. -1.
       -2    1    3    3    0  502  0.53141540867E+03  0.39477607094E+02 -0.10542936506E+04  0.11813111020E+04  0.25500000920E-02 0.  1.
</event>
<event>
 5   0  0.1141890E-04  0.1858083E+04  0.7818609E-02  0.8676007E-01
       -2   -1    0    0    0  501  0.00000000000E+00  0.00000000000E+00  0.54671053361E+03  0.54671053361E+03  0.25500000920E-02 0. -1.
        2   -1    0    0  501    0  0.00000000000E+00  0.00000000000E+00 -0.15787477432E+04  0.15787477432E+04  0.25500000920E-02 0.  1.
    10030    2    1    2    0    0  0.00000000000E+00  0.00000000000E+00 -0.10320372095E+04  0.21254582768E+04  0.18580829057E+04 0.  0.
        2    1    3    3  502    0 -0.19766997116E+01 -0.71894968316E+03 -0.11890990929E+04  0.13895500016E+04  0.25500000920E-02 0.  1.
       -2    1    3    3    0  502  0.19766997116E+01  0.71894968316E+03  0.15706188333E+03  0.73590827517E+03  0.25500000920E-02 0. -1.
</event>
<event>
 5   0  0.1141890E-04  0.1900201E+04  0.7818609E-02  0.8654756E-01
        2   -1    0    0  501    0  0.00000000000E+00  0.00000000000E+00  0.22261377734E+04  0.22261377734E+04  0.25500000920E-02 0.  1.
       -2   -1    0    0    0  501  0.00000000000E+00  0.00000000000E+00 -0.40549651679E+03  0.40549651680E+03  0.25500000920E-02 0. -1.
    10030    2    1    2    0    0  0.00000000000E+00  0.00000000000E+00  0.18206412566E+04  0.26316342902E+04  0.19002011609E+04 0.  0.
        2    1    3    3  502    0 -0.77792098455E+03  0.22086875639E+03  0.16010452299E+04  0.17936805440E+04  0.25500000920E-02 0.  1.
       -2    1    3    3    0  502  0.77792098455E+03 -0.22086875639E+03  0.21959602666E+03  0.83795374615E+03  0.25500000920E-02 0. -1.
</event>
<event>
 5   0  0.5579109E-05  0.1892073E+04  0.7818609E-02  0.8658812E-01
       -1   -1    0    0    0  501  0.00000000000E+00  0.00000000000E+00  0.90147561584E+03  0.90147561585E+03  0.50400001928E-02 0. -1.
        1   -1    0    0  501    0  0.00000000000E+00  0.00000000000E+00 -0.99280039939E+03  0.99280039941E+03  0.50400001928E-02 0.  1.
    10030    2    1    2    0    0  0.00000000000E+00  0.00000000000E+00 -0.91324783557E+02  0.18942760153E+04  0.18920733088E+04 0.  0.
        3    1    3    3  502    0  0.65995109421E+01  0.41815166523E+03 -0.89523203217E+03  0.98809653896E+03  0.10100000352E+00 0.  1.
       -3    1    3    3    0  502 -0.65995109421E+01 -0.41815166523E+03  0.80390724862E+03  0.90617947630E+03  0.10100000352E+00 0. -1.
</event>
<event>
 5   0  0.5824956E-05  0.1889728E+04  0.7818609E-02  0.8659987E-01
       -1   -1    0    0    0  501  0.00000000000E+00  0.00000000000E+00  0.46330823765E+03  0.46330823768E+03  0.50400001928E-02 0. -1.
        1   -1    0    0  501    0  0.00000000000E+00  0.00000000000E+00 -0.19269410264E+04  0.19269410264E+04  0.50400001928E-02 0.  1.
    10030    2    1    2    0    0  0.00000000000E+00  0.00000000000E+00 -0.14636327888E+04  0.23902492641E+04  0.18897276534E+04 0.  0.
        2    1    3    3  502    0 -0.21745251237E+03  0.29533384028E+03  0.36960381771E+03  0.52068671428E+03  0.25500000920E-02 0. -1.
       -2    1    3    3    0  502  0.21745251237E+03 -0.29533384028E+03 -0.18332366065E+04  0.18695625498E+04  0.25500000920E-02 0.  1.
</event>
<event>
 5   0  0.1118206E-04  0.1906731E+04  0.7818609E-02  0.8651513E-01
       -2   -1    0    0    0  501  0.00000000000E+00  0.00000000000E+00  0.88017375960E+03  0.88017375961E+03  0.25500000920E-02 0. -1.
        2   -1    0    0  501    0  0.00000000000E+00  0.00000000000E+00 -0.10326439170E+04  0.10326439170E+04  0.25500000920E-02 0.  1.
    10030    2    1    2    0    0  0.00000000000E+00  0.00000000000E+00 -0.15247015741E+03  0.19128176766E+04  0.19067313170E+04 0.  0.
        1    1    3    3  502    0 -0.74840740637E+03  0.31318786171E+03 -0.57853864794E+03  0.99644731412E+03  0.50400001928E-02 0.  1.
       -1    1    3    3    0  502  0.74840740637E+03 -0.31318786171E+03  0.42606849053E+03  0.91637036251E+03  0.50400001928E-02 0. -1.
</event>
<event>
 5   0  0.5614989E-05  0.1891541E+04  0.7818609E-02  0.8659078E-01
       -1   -1    0    0    0  501  0.00000000000E+00  0.00000000000E+00  0.65689414763E+03  0.65689414765E+03  0.50400001928E-02 0. -1.
        1   -1    0    0  501    0  0.00000000000E+00  0.00000000000E+00 -0.13616840779E+04  0.13616840780E+04  0.50400001928E-02 0.  1.
    10030    2    1    2    0    0  0.00000000000E+00  0.00000000000E+00 -0.70478993032E+03  0.20185782256E+04  0.18915414896E+04 0.  0.
        4    1    3    3  502    0  0.74898259788E+03  0.30498842087E+03 -0.87572571693E+03  0.11920109114E+04  0.12699999809E+01 0.  1.
       -4    1    3    3    0  502 -0.74898259788E+03 -0.30498842087E+03  0.17093578661E+03  0.82656731416E+03  0.12699999809E+01 0. -1.
</event>
<event>
 5   0  0.1118206E-04  0.1905750E+04  0.7818609E-02  0.8652000E-01
        2   -1    0    0  501    0  0.00000000000E+00  0.00000000000E+00  0.18898250530E+04  0.18898250530E+04  0.25500000920E-02 0.  1.
       -2   -1    0    0    0  501  0.00000000000E+00  0.00000000000E+00 -0.48045216927E+03  0.48045216927E+03  0.25500000920E-02 0. -1.
    10030    2    1    2    0    0  0.00000000000E+00  0.00000000000E+00  0.14093728838E+04  0.23702772223E+04  0.19057497698E+04 0.  0.
        1    1    3    3  502    0 -0.63155360034E+03 -0.19928558448E+03 -0.14743774153E+03  0.67846339764E+03  0.50400001928E-02 0. -1.
       -1    1    3    3    0  502  0.63155360034E+03  0.19928558448E+03  0.15568106253E+04  0.16918138247E+04  0.50400001928E-02 0.  1.
</event>
<event>
 5   0  0.5841424E-05  0.1901381E+04  0.7818609E-02  0.8654169E-01
       -1   -1    0    0    0  501  0.00000000000E+00  0.00000000000E+00  0.41021849252E+03  0.41021849255E+03  0.50400001928E-02 0.  1.
        1   -1    0    0  501    0  0.00000000000E+00  0.00000000000E+00 -0.22032467944E+04  0.22032467944E+04  0.50400001928E-02 0. -1.
    10030    2    1    2    0    0  0.00000000000E+00  0.00000000000E+00 -0.17930283019E+04  0.26134652870E+04  0.19013811598E+04 0.  0.
        1    1    3    3  502    0  0.28281425713E+03 -0.30039777699E+03 -0.20737790804E+04  0.21144224750E+04  0.50400001928E-02 0. -1.
       -1    1    3    3    0  502 -0.28281425713E+03  0.30039777699E+03  0.28075077855E+03  0.49904281193E+03  0.50400001928E-02 0.  1.
</event>
<event>
 5   0  0.1101678E-04  0.1895734E+04  0.7818609E-02  0.8656983E-01
       -2   -1    0    0    0  501  0.00000000000E+00  0.00000000000E+00  0.84947745936E+03  0.84947745936E+03  0.25500000920E-02 0.  1.
        2   -1    0    0  501    0  0.00000000000E+00  0.00000000000E+00 -0.10576519653E+04  0.10576519653E+04  0.25500000920E-02 0. -1.
    10030    2    1    2    0    0  0.00000000000E+00  0.00000000000E+00 -0.20817450593E+03  0.19071294247E+04  0.18957336357E+04 0.  0.
        4    1    3    3  502    0  0.53051993748E+03 -0.78541644068E+03 -0.11508466888E+03  0.95476514561E+03  0.12699999809E+01 0.  1.
       -4    1    3    3    0  502 -0.53051993748E+03  0.78541644068E+03 -0.93089837056E+02  0.95236427905E+03  0.12699999809E+01 0. -1.
</event>
<event>
 5   0  0.4061125E-05  0.1918366E+04  0.7818609E-02  0.8645768E-01
       -3   -1    0    0    0  501  0.00000000000E+00  0.00000000000E+00  0.53897169987E+03  0.53897170933E+03  0.10100000352E+00 0.  1.
        3   -1    0    0  501    0  0.00000000000E+00  0.00000000000E+00 -0.17070135317E+04  0.17070135346E+04  0.10100000352E+00 0. -1.
    10030    2    1    2    0    0  0.00000000000E+00  0.00000000000E+00 -0.11680418318E+04  0.22459852440E+04  0.19183659701E+04 0.  0.
        5    1    3    3  502    0 -0.40279459782E+02 -0.45448697341E+03  0.40376605901E+03  0.60928643862E+03  0.46999998093E+01 0.  1.
       -5    1    3    3    0  502  0.40279459782E+02  0.45448697341E+03 -0.15718078908E+04  0.16366988054E+04  0.46999998093E+01 0. -1.
</event>
<event>
 5   0  0.1133638E-04  0.1952487E+04  0.7818609E-02  0.8629163E-01
       -2   -1    0    0    0  501  0.00000000000E+00  0.00000000000E+00  0.69953067163E+03  0.69953067164E+03  0.25500000920E-02 0.  1.
        2   -1    0    0  501    0  0.00000000000E+00  0.00000000000E+00 -0.13624147202E+04  0.13624147202E+04  0.25500000920E-02 0. -1.
    10030    2    1    2    0    0  0.00000000000E+00  0.00000000000E+00 -0.66288404858E+03  0.20619453918E+04  0.19524865011E+04 0.  0.
        3    1    3    3  502    0 -0.66706633885E+03 -0.20397184494E+03  0.38983225895E+03  0.79909399589E+03  0.10100000352E+00 0.  1.
       -3    1    3    3    0  502  0.66706633885E+03  0.20397184494E+03 -0.10527163075E+04  0.12628513960E+04  0.10100000352E+00 0. -1.
</event>
<event>
 5   0  0.1141890E-04  0.1897531E+04  0.7818609E-02  0.8656086E-01
       -2   -1    0    0    0  501  0.00000000000E+00  0.00000000000E+00  0.60725928063E+03  0.60725928064E+03  0.25500000920E-02 0. -1.
        2   -1    0    0  501    0  0.00000000000E+00  0.00000000000E+00 -0.14823257645E+04  0.14823257645E+04  0.25500000920E-02 0.  1.
    10030    2    1    2    0    0  0.00000000000E+00  0.00000000000E+00 -0.87506648391E+03  0.20895850452E+04  0.18975311090E+04 0.  0.
        2    1    3    3  502    0 -0.12170296889E+03  0.89709188509E+03 -0.12495446702E+03  0.91389227033E+03  0.25500000920E-02 0. -1.
       -2    1    3    3    0  502  0.12170296889E+03 -0.89709188509E+03 -0.75011201689E+03  0.11756927748E+04  0.25500000920E-02 0.  1.
</event>
<event>
 5   0  0.1118206E-04  0.1893947E+04  0.7818609E-02  0.8657875E-01
       -2   -1    0    0    0  501  0.00000000000E+00  0.00000000000E+00  0.65831496252E+03  0.65831496253E+03  0.25500000920E-02 0.  1.
        2   -1    0    0  501    0  0.00000000000E+00  0.00000000000E+00 -0.13622033389E+04  0.13622033389E+04  0.25500000920E-02 0. -1.
    10030    2    1    2    0    0  0.00000000000E+00  0.00000000000E+00 -0.70388837635E+03  0.20205183014E+04  0.18939470320E+04 0.  0.
        1    1    3    3  502    0 -0.12566021152E+03  0.91333249234E+03 -0.12117316658E+03  0.92986540243E+03  0.50400001928E-02 0. -1.
       -1    1    3    3    0  502  0.12566021152E+03 -0.91333249234E+03 -0.58271520977E+03  0.10906528990E+04  0.50400001928E-02 0.  1.
</event>
<event>
 5   0  0.5614989E-05  0.1878119E+04  0.7818609E-02  0.8665825E-01
        1   -1    0    0  501    0  0.00000000000E+00  0.00000000000E+00  0.12549284317E+04  0.12549284317E+04  0.50400001928E-02 0. -1.
       -1   -1    0    0    0  501  0.00000000000E+00  0.00000000000E+00 -0.70269547420E+03  0.70269547422E+03  0.50400001928E-02 0.  1.
    10030    2    1    2    0    0  0.00000000000E+00  0.00000000000E+00  0.55223295753E+03  0.19576239060E+04  0.18781187710E+04 0.  0.
        4    1    3    3  502    0  0.97245994618E+02 -0.68790526097E+03 -0.38242021269E+03  0.79304304014E+03  0.12699999809E+01 0.  1.
       -4    1    3    3    0  502 -0.97245994618E+02  0.68790526097E+03  0.93465317022E+03  0.11645808658E+04  0.12699999809E+01 0. -1.
</event>
<event>
 5   0  0.1141890E-04  0.1964653E+04  0.7818609E-02  0.8623327E-01
        2   -1    0    0  501    0  0.00000000000E+00  0.00000000000E+00  0.22563473764E+04  0.22563473764E+04  0.25500000920E-02 0. -1.
       -2   -1    0    0    0  501  0.00000000000E+00  0.00000000000E+00 -0.42766723367E+03  0.42766723367E+03  0.25500000920E-02 0.  1.
    10030    2    1    2    0    0  0.00000000000E+00  0.00000000000E+00  0.18286801427E+04  0.26840146101E+04  0.19646534968E+04 0.  0.
        2    1    3    3  502    0 -0.24738893576E+03  0.65012335024E+03 -0.33245582771E+02  0.69639566688E+03  0.25500000920E-02 0.  1.
       -2    1    3    3    0  502  0.24738893576E+03 -0.65012335024E+03  0.18619257255E+04  0.19876189432E+04  0.25500000920E-02 0. -1.
</event>
<event>
 5   0  0.5628936E-05  0.1900643E+04  0.7818609E-02  0.8654536E-01
        1   -1    0    0  501    0  0.00000000000E+00  0.00000000000E+00  0.66363533033E+03  0.66363533035E+03  0.50400001928E-02 0.  1.
       -1   -1    0    0    0  501  0.00000000000E+00  0.00000000000E+00 -0.13608545582E+04  0.13608545582E+04  0.50400001928E-02 0. -1.
    10030    2    1    2    0    0  0.00000000000E+00  0.00000000000E+00 -0.69721922787E+03  0.20244898886E+04  0.19006432220E+04 0.  0.
        5    1    3    3  502    0 -0.57672509678E+03 -0.49075219430E+03  0.26294415620E+03  0.80163038412E+03  0.46999998093E+01 0.  1.
       -5    1    3    3    0  502  0.57672509678E+03  0.49075219430E+03 -0.96016338407E+03  0.12228595044E+04  0.46999998093E+01 0. -1.
</event>
<event>
 5   0  0.5614989E-05  0.1869844E+04  0.7818609E-02  0.8670014E-01
       -1   -1    0    0    0  501  0.00000000000E+00  0.00000000000E+00  0.67973857790E+03  0.67973857792E+03  0.50400001928E-02 0.  1.
        1   -1    0    0  501    0  0.00000000000E+00  0.00000000000E+00 -0.12859055327E+04  0.12859055327E+04  0.50400001928E-02 0. -1.
    10030    2    1    2    0    0  0.00000000000E+00  0.00000000000E+00 -0.60616695475E+03  0.19656441106E+04  0.18698444835E+04 0.  0.
        4    1    3    3  502    0  0.13444834327E+03 -0.16371355279E+02  0.66936969221E+03  0.68293614345E+03  0.12699999809E+01 0.  1.
       -4    1    3    3    0  502 -0.13444834327E+03  0.16371355279E+02 -0.12755366470E+04  0.12827079671E+04  0.12699999809E+01 0. -1.
</event>
<event>
 5   0  0.5824956E-05  0.1928777E+04  0.7818609E-02  0.8640663E-01
        1   -1    0    0  501    0  0.00000000000E+00  0.00000000000E+00  0.83068753334E+03  0.83068753335E+03  0.50400001928E-02 0. -1.
       -1   -1    0    0    0  501  0.00000000000E+00  0.00000000000E+00 -0.11196095050E+04  0.11196095050E+04  0.50400001928E-02 0.  1.
    10030    2    1    2    0    0  0.00000000000E+00  0.00000000000E+00 -0.28892197163E+03  0.19502970383E+04  0.19287774968E+04 0.  0.
        2    1    3    3  502    0 -0.29264590283E+03 -0.32296033905E+03  0.72542838553E+03  0.84628089166E+03  0.25500000920E-02 0. -1.
       -2    1    3    3    0  502  0.29264590283E+03  0.32296033905E+03 -0.10143503572E+04  0.11040161467E+04  0.25500000920E-02 0.  1.
</event>
<event>
 5   0  0.5628936E-05  0.1891870E+04  0.7818609E-02  0.8658914E-01
       -1   -1    0    0    0  501  0.00000000000E+00  0.00000000000E+00  0.74648890866E+03  0.74648890868E+03  0.50400001928E-02 0.  1.
        1   -1    0    0  501    0  0.00000000000E+00  0.00000000000E+00 -0.11986687312E+04  0.11986687312E+04  0.50400001928E-02 0. -1.
    10030    2    1    2    0    0  0.00000000000E+00  0.00000000000E+00 -0.45217982256E+03  0.19451576399E+04  0.18918698825E+04 0.  0.
        5    1    3    3  502    0 -0.53501981812E+03 -0.70847233242E+03 -0.56176952923E+03  0.10506123669E+04  0.46999998093E+01 0. -1.
       -5    1    3    3    0  502  0.53501981812E+03  0.70847233242E+03  0.10958970668E+03  0.89454527297E+03  0.46999998093E+01 0.  1.
</event>
<event>
 5   0  0.1118206E-04  0.1907541E+04  0.7818609E-02  0.8651112E-01
       -2   -1    0    0    0  501  0.00000000000E+00  0.00000000000E+00  0.59698650509E+03  0.59698650509E+03  0.25500000920E-02 0. -1.
        2   -1    0    0  501    0  0.00000000000E+00  0.00000000000E+00 -0.15237833984E+04  0.15237833984E+04  0.25500000920E-02 0.  1.
    10030    2    1    2    0    0  0.00000000000E+00  0.00000000000E+00 -0.92679689333E+03  0.21207699035E+04  0.19075409569E+04 0.  0.
        1    1    3    3  502    0 -0.68573857168E+03  0.64671156256E+03 -0.30150185376E+03  0.98963457987E+03  0.50400001928E-02 0. -1.
       -1    1    3    3    0  502  0.68573857168E+03 -0.64671156256E+03 -0.62529503957E+03  0.11311353236E+04  0.50400001928E-02 0.  1.
</event>
<event>
 5   0  0.1101678E-04  0.1900289E+04  0.7818609E-02  0.8654713E-01
        2   -1    0    0  501    0  0.00000000000E+00  0.00000000000E+00  0.14053291020E+04  0.14053291020E+04  0.25500000920E-02 0.  1.
       -2   -1    0    0    0  501  0.00000000000E+00  0.00000000000E+00 -0.64239365431E+03  0.64239365432E+03  0.25500000920E-02 0. -1.
    10030    2    1    2    0    0  0.00000000000E+00  0.00000000000E+00  0.76293544766E+03  0.20477227563E+04  0.19002889226E+04 0.  0.
        4    1    3    3  502    0 -0.43591139268E+03  0.69466648502E+02  0.12881314201E+04  0.13616638814E+04  0.12699999809E+01 0.  1.
       -4    1    3    3    0  502  0.43591139268E+03 -0.69466648502E+02 -0.52519597242E+03  0.68605887493E+03  0.12699999809E+01 0. -1.
</event>
<event>
 5   0  0.1133638E-04  0.1898642E+04  0.7818609E-02  0.8655533E-01
       -2   -1    0    0    0  501  0.00000000000E+00  0.00000000000E+00  0.13147196380E+04  0.13147196380E+04  0.25500000920E-02 0. -1.
        2   -1    0    0  501    0  0.00000000000E+00  0.00000000000E+00 -0.68547728630E+03  0.68547728631E+03  0.25500000920E-02 0.  1.
    10030    2    1    2    0    0  0.00000000000E+00  0.00000000000E+00  0.62924235169E+03  0.20001969243E+04  0.18986420934E+04 0.  0.
        3    1    3    3  502    0 -0.24135975907E+03 -0.36869904700E+03 -0.57119693098E+03  0.72142876622E+03  0.10100000352E+00 0.  1.
       -3    1    3    3    0  502  0.24135975907E+03  0.36869904700E+03  0.12004392827E+04  0.12787681581E+04  0.10100000352E+00 0. -1.
</event>
<event>
 5   0  0.5824956E-05  0.1935095E+04  0.7818609E-02  0.8637582E-01
       -1   -1    0    0    0  501  0.00000000000E+00  0.00000000000E+00  0.62498912625E+03  0.62498912627E+03  0.50400001928E-02 0. -1.
        1   -1    0    0  501    0  0.00000000000E+00  0.00000000000E+00 -0.14978629074E+04  0.14978629074E+04  0.50400001928E-02 0.  1.
    10030    2    1    2    0    0  0.00000000000E+00  0.00000000000E+00 -0.87287378110E+03  0.21228520336E+04  0.19350948605E+04 0.  0.
        2    1    3    3  502    0  0.35466042020E+03  0.18311325941E+03 -0.14033366487E+04  0.14589956234E+04  0.25500000920E-02 0.  1.
       -2    1    3    3    0  502 -0.35466042020E+03 -0.18311325941E+03  0.53046286765E+03  0.66385641022E+03  0.25500000920E-02 0. -1.
</event>
<event>
 5   0  0.5824956E-05  0.1907232E+04  0.7818609E-02  0.8651265E-01
        1   -1    0    0  501    0  0.00000000000E+00  0.00000000000E+00  0.12077754751E+04  0.12077754751E+04  0.50400001928E-02 0.  1.
       -1   -1    0    0    0  501  0.00000000000E+00  0.00000000000E+00 -0.75294058613E+03  0.75294058614E+03  0.50400001928E-02 0. -1.
    10030    2    1    2    0    0  0.00000000000E+00  0.00000000000E+00  0.45483488897E+03  0.19607160612E+04  0.19072316840E+04 0.  0.
        2    1    3    3  502    0 -0.42146496831E+03 -0.59719039919E+03  0.85705835377E+03  0.11264182679E+04  0.25500000920E-02 0.  1.
       -2    1    3    3    0  502  0.42146496831E+03  0.59719039919E+03 -0.40222346481E+03  0.83429779338E+03  0.25500000920E-02 0. -1.
</event>
<event>
 5   0  0.4061125E-05  0.1897623E+04  0.7818609E-02  0.8656040E-01
        3   -1    0    0  501    0  0.00000000000E+00  0.00000000000E+00  0.80445991117E+03  0.80445991751E+03  0.10100000352E+00 0. -1.
       -3   -1    0    0    0  501  0.00000000000E+00  0.00000000000E+00 -0.11190656957E+04  0.11190657002E+04  0.10100000352E+00 0.  1.
    10030    2    1    2    0    0  0.00000000000E+00  0.00000000000E+00 -0.31460578449E+03  0.19235256177E+04  0.18976232509E+04 0.  0.
        5    1    3    3  502    0 -0.13266387232E+03 -0.90619207616E+03  0.93946606609E+02  0.92066923311E+03  0.46999998093E+01 0. -1.
       -5    1    3    3    0  502  0.13266387232E+03  0.90619207616E+03 -0.40855239110E+03  0.10028563846E+04  0.46999998093E+01 0.  1.
</event>
<event>
 5   0  0.5614989E-05  0.1881710E+04  0.7818609E-02  0.8664014E-01
       -1   -1    0    0    0  501  0.00000000000E+00  0.00000000000E+00  0.73751047363E+03  0.73751047364E+03  0.50400001928E-02 0.  1.
        1   -1    0    0  501    0  0.00000000000E+00  0.00000000000E+00 -0.12002655910E+04  0.12002655910E+04  0.50400001928E-02 0. -1.
    10030    2    1    2    0    0  0.00000000000E+00  0.00000000000E+00 -0.46275511737E+03  0.19377760647E+04  0.18817103332E+04 0.  0.
        4    1    3    3  502    0  0.27121603004E+03  0.43306024570E+03  0.58216546502E+03  0.77460799952E+03  0.12699999809E+01 0.  1.
       -4    1    3    3    0  502 -0.27121603004E+03 -0.43306024570E+03 -0.10449205824E+04  0.11631680651E+04  0.12699999809E+01 0. -1.
</event>
<event>
 5   0  0.5579109E-05  0.1916028E+04  0.7818609E-02  0.8646919E-01
        1   -1    0    0  501    0  0.00000000000E+00  0.00000000000E+00  0.42771481500E+03  0.42771481503E+03  0.50400001928E-02 0. -1.
       -1   -1    0    0    0  501  0.00000000000E+00  0.00000000000E+00 -0.21458007503E+04  0.21458007503E+04  0.50400001928E-02 0.  1.
    10030    2    1    2    0    0  0.00000000000E+00  0.00000000000E+00 -0.17180859353E+04  0.25735155653E+04  0.19160279444E+04 0.  0.
        3    1    3    3  502    0 -0.51507500840E+03  0.12593854552E+03 -0.19307296190E+04  0.20022186828E+04  0.10100000352E+00 0.  1.
       -3    1    3    3    0  502  0.51507500840E+03 -0.12593854552E+03  0.21264368379E+03  0.57129688253E+03  0.10100000352E+00 0. -1.
</event>
<event>
 5   0  0.1101678E-04  0.1897850E+04  0.7818609E-02  0.8655927E-01
        2   -1    0    0  501    0  0.00000000000E+00  0.00000000000E+00  0.20178394835E+04  0.20178394835E+04  0.25500000920E-02 0.  1.
       -2   -1    0    0    0  501  0.00000000000E+00  0.00000000000E+00 -0.44624883499E+03  0.44624883500E+03  0.25500000920E-02 0. -1.
    10030    2    1    2    0    0  0.00000000000E+00  0.00000000000E+00  0.15715906485E+04  0.24640883185E+04  0.18978498557E+04 0.  0.
        4    1    3    3  502    0 -0.40083533101E+03 -0.73627988148E+03  0.13630608900E+04  0.16002229936E+04  0.12699999809E+01 0.  1.
       -4    1    3    3    0  502  0.40083533101E+03  0.73627988148E+03  0.20852975846E+03  0.86386532487E+03  0.12699999809E+01 0. -1.
</event>
<event>
 5   0  0.1182630E-04  0.1911126E+04  0.7818609E-02  0.8649338E-01
        2   -1    0    0  501    0  0.00000000000E+00  0.00000000000E+00  0.18010807278E+04  0.18010807279E+04  0.25500000920E-02 0. -1.
       -2   -1    0    0    0  501  0.00000000000E+00  0.00000000000E+00 -0.50697393026E+03  0.50697393026E+03  0.25500000920E-02 0.  1.
    10030    2    1    2    0    0  0.00000000000E+00  0.00000000000E+00  0.12941067976E+04  0.23080546581E+04  0.19111263436E+04 0.  0.
        5    1    3    3  502    0 -0.19404567792E+03 -0.89940291186E+03  0.95848744188E+03  0.13286457727E+04  0.46999998093E+01 0. -1.
       -5    1    3    3    0  502  0.19404567792E+03  0.89940291186E+03  0.33561935572E+03  0.97940888545E+03  0.46999998093E+01 0.  1.
</event>
<event>
 5   0  0.5628936E-05  0.1897256E+04  0.7818609E-02  0.8656223E-01
        1   -1    0    0  501    0  0.00000000000E+00  0.00000000000E+00  0.86004132423E+03  0.86004132424E+03  0.50400001928E-02 0.  1.
       -1   -1    0    0    0  501  0.00000000000E+00  0.00000000000E+00 -0.10463395127E+04  0.10463395128E+04  0.50400001928E-02 0. -1.
    10030    2    1    2    0    0  0.00000000000E+00  0.00000000000E+00 -0.18629818852E+03  0.19063808370E+04  0.18972561452E+04 0.  0.
        5    1    3    3  502    0 -0.27287012838E+03  0.53497147951E+03  0.64469891326E+03  0.88108533617E+03  0.46999998093E+01 0.  1.
       -5    1    3    3    0  502  0.27287012838E+03 -0.53497147951E+03 -0.83099710178E+03  0.10252955008E+04  0.46999998093E+01 0. -1.
</event>
<event>
 5   0  0.1118206E-04  0.1915549E+04  0.7818609E-02  0.8647155E-01
       -2   -1    0    0    0  501  0.00000000000E+00  0.00000000000E+00  0.38327948952E+03  0.38327948953E+03  0.25500000920E-02 0. -1.
        2   -1    0    0  501    0  0.00000000000E+00  0.00000000000E+00 -0.23933751545E+04  0.23933751546E+04  0.25500000920E-02 0.  1.
    10030    2    1    2    0    0  0.00000000000E+00  0.00000000000E+00 -0.20100956650E+04  0.27766546441E+04  0.19155485976E+04 0.  0.
        1    1    3    3  502    0 -0.45506938452E+03  0.34136167925E+03 -0.21219572330E+04  0.21968883539E+04  0.50400001928E-02 0.  1.
       -1    1    3    3    0  502  0.45506938452E+03 -0.34136167925E+03  0.11186156799E+03  0.57976629016E+03  0.50400001928E-02 0. -1.
</event>
<event>
 5   0  0.1141890E-04  0.1895043E+04  0.7818609E-02  0.8657328E-01
       -2   -1    0    0    0  501  0.00000000000E+00  0.00000000000E+00  0.90544970652E+03  0.90544970653E+03  0.25500000920E-02 0.  1.
        2   -1    0    0  501    0  0.00000000000E+00  0.00000000000E+00 -0.99154808417E+03  0.99154808418E+03  0.25500000920E-02 0. -1.
    10030    2    1    2    0    0  0.00000000000E+00  0.00000000000E+00 -0.86098377648E+02  0.18969977907E+04  0.18950429249E+04 0.  0.
        2    1    3    3  502    0 -0.61133120669E+03  0.62280797863E+03  0.32635899297E+03  0.93173269494E+03  0.25500000920E-02 0.  1.
       -2    1    3    3    0  502  0.61133120669E+03 -0.62280797863E+03 -0.41245737062E+03  0.96526509577E+03  0.25500000920E-02 0. -1.
</event>
<event>
 5   0  0.1141890E-04  0.1896799E+04  0.7818609E-02  0.8656451E-01
       -2   -1    0    0    0  501  0.00000000000E+00  0.00000000000E+00  0.31968038057E+03  0.31968038058E+03  0.25500000920E-02 0.  1.
        2   -1    0    0  501    0  0.00000000000E+00  0.00000000000E+00 -0.28136281621E+04  0.28136281621E+04  0.25500000920E-02 0. -1.
    10030    2    1    2    0    0  0.00000000000E+00  0.00000000000E+00 -0.24939477815E+04  0.31333085427E+04  0.18967991160E+04 0.  0.
        2    1    3    3  502    0  0.85342838597E+03  0.15201060194E+03 -0.61144698942E+03  0.10608084907E+04  0.25500000920E-02 0.  1.
       -2    1    3    3    0  502 -0.85342838597E+03 -0.15201060194E+03 -0.18825007921E+04  0.20725000519E+04  0.25500000920E-02 0. -1.
</event>
<event>
 5   0  0.5614989E-05  0.1907573E+04  0.7818609E-02  0.8651096E-01
        1   -1    0    0  501    0  0.00000000000E+00  0.00000000000E+00  0.19762764908E+04  0.19762764908E+04  0.50400001928E-02 0.  1.
       -1   -1    0    0    0  501  0.00000000000E+00  0.00000000000E+00 -0.46031440744E+03  0.46031440746E+03  0.50400001928E-02 0. -1.
    10030    2    1    2    0    0  0.00000000000E+00  0.00000000000E+00  0.15159620834E+04  0.24365908983E+04  0.19075728472E+04 0.  0.
        4    1    3    3  502    0  0.87721596660E+03  0.37341303253E+03  0.79323577323E+03  0.12402297165E+04  0.12699999809E+01 0.  1.
       -4    1    3    3    0  502 -0.87721596660E+03 -0.37341303253E+03  0.72272631013E+03  0.11963611817E+04  0.12699999809E+01 0. -1.
</event>
<event>
 5   0  0.5841424E-05  0.1892777E+04  0.7818609E-02  0.8658460E-01
       -1   -1    0    0    0  501  0.00000000000E+00  0.00000000000E+00  0.11432691164E+04  0.11432691164E+04  0.50400001928E-02 0. -1.
        1   -1    0    0  501    0  0.00000000000E+00  0.00000000000E+00 -0.78341203317E+03  0.78341203319E+03  0.50400001928E-02 0.  1.
    10030    2    1    2    0    0  0.00000000000E+00  0.00000000000E+00  0.35985708320E+03  0.19266811496E+04  0.18927765668E+04 0.  0.
        1    1    3    3  502    0  0.40163202450E+03  0.22145672749E+03 -0.66272816008E+03  0.80595283947E+03  0.50400001928E-02 0.  1.
       -1    1    3    3    0  502 -0.40163202450E+03 -0.22145672749E+03  0.10225852433E+04  0.11207283101E+04  0.50400001928E-02 0. -1.
</event>
<event>
 5   0  0.1182630E-04  0.1911933E+04  0.7818609E-02  0.8648939E-01
       -2   -1    0    0    0  501  0.00000000000E+00  0.00000000000E+00  0.10037967414E+04  0.10037967414E+04  0.25500000920E-02 0. -1.
        2   -1    0    0  501    0  0.00000000000E+00  0.00000000000E+00 -0.91041534759E+03  0.91041534760E+03  0.25500000920E-02 0.  1.
    10030    2    1    2    0    0  0.00000000000E+00  0.00000000000E+00  0.93381393783E+02  0.19142120890E+04  0.19119330106E+04 0.  0.
        5    1    3    3  502    0 -0.70961959310E+02 -0.94726034263E+03 -0.60731715633E+02  0.95186563531E+03  0.46999998093E+01 0. -1.
       -5    1    3    3    0  502  0.70961959310E+02  0.94726034263E+03  0.15411310942E+03  0.96234645367E+03  0.46999998093E+01 0.  1.
</event>
<event>
 5   0  0.5628936E-05  0.1918295E+04  0.7818609E-02  0.8645803E-01
        1   -1    0    0  501    0  0.00000000000E+00  0.00000000000E+00  0.62274040810E+03  0.62274040812E+03  0.50400001928E-02 0.  1.
       -1   -1    0    0    0  501  0.00000000000E+00  0.00000000000E+00 -0.14772827594E+04  0.14772827594E+04  0.50400001928E-02 0. -1.
    10030    2    1    2    0    0  0.00000000000E+00  0.00000000000E+00 -0.85454235131E+03  0.21000231675E+04  0.19182947307E+04 0.  0.
        5    1    3    3  502    0 -0.32959331177E+03 -0.50138333263E+03  0.39189784339E+03  0.71667496611E+03  0.46999998093E+01 0.  1.
       -5    1    3    3    0  502  0.32959331177E+03  0.50138333263E+03 -0.12464401947E+04  0.13833482014E+04  0.46999998093E+01 0. -1.
</event>
<event>
 5   0  0.1141890E-04  0.1892900E+04  0.7818609E-02  0.8658398E-01
       -2   -1    0    0    0  501  0.00000000000E+00  0.00000000000E+00  0.71894419402E+03  0.71894419402E+03  0.25500000920E-02 0.  1.
        2   -1    0    0  501    0  0.00000000000E+00  0.00000000000E+00 -0.12459490769E+04  0.12459490769E+04  0.25500000920E-02 0. -1.
    10030    2    1    2    0    0  0.00000000000E+00  0.00000000000E+00 -0.52700488288E+03  0.19648932709E+04  0.18929002667E+04 0.  0.
        2    1    3    3  502    0  0.68240130473E+03  0.35463102796E+03  0.30914307170E+03  0.82885713213E+03  0.25500000920E-02 0.  1.
       -2    1    3    3    0  502 -0.68240130473E+03 -0.35463102796E+03 -0.83614795457E+03  0.11360361388E+04  0.25500000920E-02 0. -1.
</event>
<event>
 5   0  0.1101678E-04  0.1899509E+04  0.7818609E-02  0.8655101E-01
       -2   -1    0    0    0  501  0.00000000000E+00  0.00000000000E+00  0.86180494455E+03  0.86180494456E+03  0.25500000920E-02 0. -1.
        2   -1    0    0  501    0  0.00000000000E+00  0.00000000000E+00 -0.10466790494E+04  0.10466790494E+04  0.25500000920E-02 0.  1.
    10030    2    1    2    0    0  0.00000000000E+00  0.00000000000E+00 -0.18487410486E+03  0.19084839940E+04  0.18995085471E+04 0.  0.
        4    1    3    3  502    0  0.65451930352E+03 -0.51360378118E+03  0.36781831721E+03  0.90965723770E+03  0.12699999809E+01 0. -1.
       -4    1    3    3    0  502 -0.65451930352E+03  0.51360378118E+03 -0.55269242207E+03  0.99882675627E+03  0.12699999809E+01 0.  1.
</event>
<event>
 5   0  0.5614989E-05  0.1888871E+04  0.7818609E-02  0.8660416E-01
       -1   -1    0    0    0  501  0.00000000000E+00  0.00000000000E+00  0.11920210355E+04  0.11920210355E+04  0.50400001928E-02 0.  1.
        1   -1    0    0  501    0  0.00000000000E+00  0.00000000000E+00 -0.74827436284E+03  0.74827436286E+03  0.50400001928E-02 0. -1.
    10030    2    1    2    0    0  0.00000000000E+00  0.00000000000E+00  0.44374667264E+03  0.19402953983E+04  0.18888713888E+04 0.  0.
        4    1    3    3  502    0  0.45700594245E+03 -0.41251283300E+03  0.95756699572E+03  0.11384012619E+04  0.12699999809E+01 0.  1.
       -4    1    3    3    0  502 -0.45700594245E+03  0.41251283300E+03 -0.51382032308E+03  0.80189413649E+03  0.12699999809E+01 0. -1.
</event>
<event>
 5   0  0.1182630E-04  0.1889512E+04  0.7818609E-02  0.8660094E-01
        2   -1    0    0  501    0  0.00000000000E+00  0.00000000000E+00  0.42929328645E+03  0.42929328645E+03  0.25500000920E-02 0. -1.
       -2   -1    0    0    0  501  0.00000000000E+00  0.00000000000E+00 -0.20791480951E+04  0.20791480951E+04  0.25500000920E-02 0.  1.
    10030    2    1    2    0    0  0.00000000000E+00  0.00000000000E+00 -0.16498548087E+04  0.25084413816E+04  0.18895124438E+04 0.  0.
        5    1    3    3  502    0 -0.26767607425E+03 -0.28538207477E+03  0.31665761294E+03  0.50337614480E+03  0.46999998093E+01 0. -1.
       -5    1    3    3    0  502  0.26767607425E+03  0.28538207477E+03 -0.19665124216E+04  0.20050652368E+04  0.46999998093E+01 0.  1.
</event>
<event>
 5   0  0.1133638E-04  0.1890040E+04  0.7818609E-02  0.8659830E-01
       -2   -1    0    0    0  501  0.00000000000E+00  0.00000000000E+00  0.39306776712E+03  0.39306776713E+03  0.25500000920E-02 0.  1.
        2   -1    0    0  501    0  0.00000000000E+00  0.00000000000E+00 -0.22720335142E+04  0.22720335142E+04  0.25500000920E-02 0. -1.
    10030    2    1    2    0    0  0.00000000000E+00  0.00000000000E+00 -0.18789657470E+04  0.26651012813E+04  0.18900403596E+04 0.  0.
        3    1    3    3  502    0 -0.14930651450E+03  0.29179784519E+03  0.31034500554E+03  0.45138946642E+03  0.10100000352E+00 0.  1.
       -3    1    3    3    0  502  0.14930651450E+03 -0.29179784519E+03 -0.21893107526E+04  0.22137118149E+04  0.10100000352E+00 0. -1.
</event>
<event>
 5   0  0.1101678E-04  0.1902244E+04  0.7818609E-02  0.8653740E-01
       -2   -1    0    0    0  501  0.00000000000E+00  0.00000000000E+00  0.82592236368E+03  0.82592236368E+03  0.25500000920E-02 0. -1.
        2   -1    0    0  501    0  0.00000000000E+00  0.00000000000E+00 -0.10953006314E+04  0.10953006314E+04  0.25500000920E-02 0.  1.
    10030    2    1    2    0    0  0.00000000000E+00  0.00000000000E+00 -0.26937826776E+03  0.19212229951E+04  0.19022442393E+04 0.  0.
        4    1    3    3  502    0 -0.94551090736E+03  0.84762698340E+02 -0.75314143046E+02  0.95228641910E+03  0.12699999809E+01 0. -1.
       -4    1    3    3    0  502  0.94551090736E+03 -0.84762698340E+02 -0.19406412472E+03  0.96893657603E+03  0.12699999809E+01 0.  1.
</event>
<event>
 5   0  0.5824956E-05  0.1879952E+04  0.7818609E-02  0.8664901E-01
        1   -1    0    0  501    0  0.00000000000E+00  0.00000000000E+00  0.16315184997E+04  0.16315184997E+04  0.50400001928E-02 0.  1.
       -1   -1    0    0    0  501  0.00000000000E+00  0.00000000000E+00 -0.54155355634E+03  0.54155355636E+03  0.50400001928E-02 0. -1.
    10030    2    1    2    0    0  0.00000000000E+00  0.00000000000E+00  0.10899649433E+04  0.21730720561E+04  0.18799517502E+04 0.  0.
        2    1    3    3  502    0  0.59732003842E+03  0.99720658175E+02 -0.28600934521E+03  0.66972888807E+03  0.25500000920E-02 0. -1.
       -2    1    3    3    0  502 -0.59732003842E+03 -0.99720658175E+02  0.13759742886E+04  0.15033431680E+04  0.25500000920E-02 0.  1.
</event>
<event>
 5   0  0.1133638E-04  0.1917629E+04  0.7818609E-02  0.8646131E-01
       -2   -1    0    0    0  501  0.00000000000E+00  0.00000000000E+00  0.76122371960E+03  0.76122371960E+03  0.25500000920E-02 0. -1.
        2   -1    0    0  501    0  0.00000000000E+00  0.00000000000E+00 -0.12076938960E+04  0.12076938960E+04  0.25500000920E-02 0.  1.
    10030    2    1    2    0    0  0.00000000000E+00  0.00000000000E+00 -0.44647017643E+03  0.19689176156E+04  0.19176289940E+04 0.  0.
        3    1    3    3  502    0 -0.44307915124E+03 -0.62886875133E+03  0.36437416332E+03  0.85121300610E+03  0.10100000352E+00 0. -1.
       -3    1    3    3    0  502  0.44307915124E+03  0.62886875133E+03 -0.81084433976E+03  0.11177046095E+04  0.10100000352E+00 0.  1.
</event>
<event>
 5   0  0.5628936E-05  0.1898601E+04  0.7818609E-02  0.8655553E-01
        1   -1    0    0  501    0  0.00000000000E+00  0.00000000000E+00  0.10778714761E+04  0.10778714761E+04  0.50400001928E-02 0.  1.
       -1   -1    0    0    0  501  0.00000000000E+00  0.00000000000E+00 -0.83606614736E+03  0.83606614738E+03  0.50400001928E-02 0. -1.
    10030    2    1    2    0    0  0.00000000000E+00  0.00000000000E+00  0.24180532876E+03  0.19139376235E+04  0.18986014352E+04 0.  0.
        5    1    3    3  502    0 -0.70265565562E+03  0.30846849473E+03 -0.44242422664E+03  0.88579854873E+03  0.46999998093E+01 0. -1.
       -5    1    3    3    0  502  0.70265565562E+03 -0.30846849473E+03  0.68422955540E+03  0.10281390748E+04  0.46999998093E+01 0.  1.
</event>
<event>
 5   0  0.1101678E-04  0.1806036E+04  0.7818609E-02  0.8703096E-01
       -2   -1    0    0    0  501  0.00000000000E+00  0.00000000000E+00  0.75053090110E+03  0.75053090111E+03  0.25500000920E-02 0.  1.
        2   -1    0    0  501    0  0.00000000000E+00  0.00000000000E+00 -0.10864863657E+04  0.10864863657E+04  0.25500000920E-02 0. -1.
    10030    2    1    2    0    0  0.00000000000E+00  0.00000000000E+00 -0.33595546460E+03  0.18370172668E+04  0.18060360917E+04 0.  0.
        4    1    3    3  502    0 -0.11976204766E+03  0.23204797604E+02 -0.10780656910E+04  0.10849463847E+04  0.12699999809E+01 0. -1.
       -4    1    3    3    0  502  0.11976204766E+03 -0.23204797604E+02  0.74211022639E+03  0.75207088210E+03  0.12699999809E+01 0.  1.
</event>
<event>
 5   0  0.5841424E-05  0.1869492E+04  0.7818609E-02  0.8670193E-01
       -1   -1    0    0    0  501  0.00000000000E+00  0.00000000000E+00  0.10632042311E+04  0.10632042311E+04  0.50400001928E-02 0.  1.
        1   -1    0    0  501    0  0.00000000000E+00  0.00000000000E+00 -0.82180874960E+03  0.82180874961E+03  0.50400001928E-02 0. -1.
    10030    2    1    2    0    0  0.00000000000E+00  0.00000000000E+00  0.24139548150E+03  0.18850129807E+04  0.18694924870E+04 0.  0.
        1    1    3    3  502    0  0.13311337653E+03  0.10224941861E+03  0.10478841437E+04  0.10612423349E+04  0.50400001928E-02 0.  1.
       -1    1    3    3    0  502 -0.13311337653E+03 -0.10224941861E+03 -0.80648866223E+03  0.82377064584E+03  0.50400001928E-02 0. -1.
</event>
<event>
 5   0  0.1182630E-04  0.1930929E+04  0.7818609E-02  0.8639612E-01
       -2   -1    0    0    0  501  0.00000000000E+00  0.00000000000E+00  0.13923372061E+04  0.13923372061E+04  0.25500000920E-02 0. -1.
        2   -1    0    0  501    0  0.00000000000E+00  0.00000000000E+00 -0.66946539514E+03  0.66946539515E+03  0.25500000920E-02 0.  1.
    10030    2    1    2    0    0  0.00000000000E+00  0.00000000000E+00  0.72287181093E+03  0.20618026012E+04  0.19309288727E+04 0.  0.
        5    1    3    3  502    0  0.44147644031E+03 -0.84454581710E+03  0.19622202265E+03  0.97297700728E+03  0.46999998093E+01 0. -1.
       -5    1    3    3    0  502 -0.44147644031E+03  0.84454581710E+03  0.52664978828E+03  0.10888255939E+04  0.46999998093E+01 0.  1.
</event>
<event>
 5   0  0.5628936E-05  0.1895119E+04  0.7818609E-02  0.8657290E-01
       -1   -1    0    0    0  501  0.00000000000E+00  0.00000000000E+00  0.98441218397E+03  0.98441218398E+03  0.50400001928E-02 0.  1.
        1   -1    0    0  501    0  0.00000000000E+00  0.00000000000E+00 -0.91208638159E+03  0.91208638160E+03  0.50400001928E-02 0. -1.
    10030    2    1    2    0    0  0.00000000000E+00  0.00000000000E+00  0.72325802386E+02  0.18964985656E+04  0.18951189376E+04 0.  0.
        5    1    3    3  502    0 -0.35871241633E+03 -0.61946767626E+03  0.65744660702E+03  0.97194286387E+03  0.46999998093E+01 0.  1.
       -5    1    3    3    0  502  0.35871241633E+03  0.61946767626E+03 -0.58512080464E+03  0.92455570171E+03  0.46999998093E+01 0. -1.
</event>
<event>
 5   0  0.5628936E-05  0.1907399E+04  0.7818609E-02  0.8651182E-01
       -1   -1    0    0    0  501  0.00000000000E+00  0.00000000000E+00  0.49843063270E+03  0.49843063273E+03  0.50400001928E-02 0. -1.
        1   -1    0    0  501    0  0.00000000000E+00  0.00000000000E+00 -0.18248137999E+04  0.18248137999E+04  0.50400001928E-02 0.  1.
    10030    2    1    2    0    0  0.00000000000E+00  0.00000000000E+00 -0.13263831672E+04  0.23232444327E+04  0.19073993781E+04 0.  0.
        5    1    3    3  502    0  0.16406891084E+03 -0.64278352767E+03 -0.14977168533E+04  0.16380681102E+04  0.46999998093E+01 0.  1.
       -5    1    3    3    0  502 -0.16406891084E+03  0.64278352767E+03  0.17133368604E+03  0.68517632250E+03  0.46999998093E+01 0. -1.
</event>
<event>
 5   0  0.1182630E-04  0.1896001E+04  0.7818609E-02  0.8656849E-01
       -2   -1    0    0    0  501  0.00000000000E+00  0.00000000000E+00  0.11295900443E+04  0.11295900443E+04  0.25500000920E-02 0. -1.
        2   -1    0    0  501    0  0.00000000000E+00  0.00000000000E+00 -0.79560280254E+03  0.79560280255E+03  0.25500000920E-02 0.  1.
    10030    2    1    2    0    0  0.00000000000E+00  0.00000000000E+00  0.33398724172E+03  0.19251928468E+04  0.18960010601E+04 0.  0.
        5    1    3    3  502    0  0.68255068748E+03  0.12303211516E+03  0.82321836526E+03  0.10764399237E+04  0.46999998093E+01 0. -1.
       -5    1    3    3    0  502 -0.68255068748E+03 -0.12303211516E+03 -0.48923112354E+03  0.84875292316E+03  0.46999998093E+01 0.  1.
</event>
<event>
 5   0  0.5841424E-05  0.1895242E+04  0.7818609E-02  0.8657229E-01
        1   -1    0    0  501    0  0.00000000000E+00  0.00000000000E+00  0.10483655547E+04  0.10483655547E+04  0.50400001928E-02 0. -1.
       -1   -1    0    0    0  501  0.00000000000E+00  0.00000000000E+00 -0.85655727829E+03  0.85655727831E+03  0.50400001928E-02 0.  1.
    10030    2    1    2    0    0  0.00000000000E+00  0.00000000000E+00  0.19180827640E+03  0.19049228330E+04  0.18952415637E+04 0.  0.
        1    1    3    3  502    0 -0.31404418904E+03  0.11632970471E+03 -0.79509397444E+03  0.86274606988E+03  0.50400001928E-02 0.  1.
       -1    1    3    3    0  502  0.31404418904E+03 -0.11632970471E+03  0.98690225084E+03  0.10421767631E+04  0.50400001928E-02 0. -1.
</event>
<event>
 5   0  0.5614989E-05  0.1912713E+04  0.7818609E-02  0.8648554E-01
       -1   -1    0    0    0  501  0.00000000000E+00  0.00000000000E+00  0.70312448895E+03  0.70312448896E+03  0.50400001928E-02 0.  1.
        1   -1    0    0  501    0  0.00000000000E+00  0.00000000000E+00 -0.13007902740E+04  0.13007902740E+04  0.50400001928E-02 0. -1.
    10030    2    1    2    0    0  0.00000000000E+00  0.00000000000E+00 -0.59766578502E+03  0.20039147629E+04  0.19127127297E+04 0.  0.
        4    1    3    3  502    0  0.89896449908E+03 -0.26490621904E+03 -0.99213285524E+02  0.94242101230E+03  0.12699999809E+01 0.  1.
       -4    1    3    3    0  502 -0.89896449908E+03  0.26490621904E+03 -0.49845249950E+03  0.10614937506E+04  0.12699999809E+01 0. -1.
</event>
<event>
 5   0  0.5628936E-05  0.1902357E+04  0.7818609E-02  0.8653684E-01
        1   -1    0    0  501    0  0.00000000000E+00  0.00000000000E+00  0.16425647910E+04  0.16425647910E+04  0.50400001928E-02 0. -1.
       -1   -1    0    0    0  501  0.00000000000E+00  0.00000000000E+00 -0.55080985344E+03  0.55080985346E+03  0.50400001928E-02 0.  1.
    10030    2    1    2    0    0  0.00000000000E+00  0.00000000000E+00  0.10917549375E+04  0.21933746444E+04  0.19023573500E+04 0.  0.
        5    1    3    3  502    0  0.38688394002E+03 -0.84131478091E+03  0.29530966373E+03  0.97196688787E+03  0.46999998093E+01 0. -1.
       -5    1    3    3    0  502 -0.38688394002E+03  0.84131478091E+03  0.79644527378E+03  0.12214077565E+04  0.46999998093E+01 0.  1.
</event>
<event>
 5   0  0.5614989E-05  0.1895694E+04  0.7818609E-02  0.8657003E-01
       -1   -1    0    0    0  501  0.00000000000E+00  0.00000000000E+00  0.75904752187E+03  0.75904752189E+03  0.50400001928E-02 0. -1.
        1   -1    0    0  501    0  0.00000000000E+00  0.00000000000E+00 -0.11836067197E+04  0.11836067197E+04  0.50400001928E-02 0.  1.
    10030    2    1    2    0    0  0.00000000000E+00  0.00000000000E+00 -0.42455919781E+03  0.19426542416E+04  0.18956938017E+04 0.  0.
        4    1    3    3  502    0  0.14957891669E+03  0.63146371426E+01 -0.11714129198E+04  0.11809418142E+04  0.12699999809E+01 0.  1.
       -4    1    3    3    0  502 -0.14957891669E+03 -0.63146371426E+01  0.74685372202E+03  0.76171242734E+03  0.12699999809E+01 0. -1.
</event>
<event>
 5   0  0.5614989E-05  0.1896801E+04  0.7818609E-02  0.8656450E-01
       -1   -1    0    0    0  501  0.00000000000E+00  0.00000000000E+00  0.10207993642E+04  0.10207993642E+04  0.50400001928E-02 0. -1.
        1   -1    0    0  501    0  0.00000000000E+00  0.00000000000E+00 -0.88113645207E+03  0.88113645209E+03  0.50400001928E-02 0.  1.
    10030    2    1    2    0    0  0.00000000000E+00  0.00000000000E+00  0.13966291214E+03  0.19019358163E+04  0.18968010229E+04 0.  0.
        4    1    3    3  502    0  0.30974937748E+03  0.80023293313E+03 -0.33517345656E+03  0.92122759566E+03  0.12699999809E+01 0.  1.
       -4    1    3    3    0  502 -0.30974937748E+03 -0.80023293313E+03  0.47483636870E+03  0.98070822066E+03  0.12699999809E+01 0. -1.
</event>
<event>
 5   0  0.5614989E-05  0.1896223E+04  0.7818609E-02  0.8656739E-01
       -1   -1    0    0    0  501  0.00000000000E+00  0.00000000000E+00  0.74592504875E+03  0.74592504877E+03  0.50400001928E-02 0.  1.
        1   -1    0    0  501    0  0.00000000000E+00  0.00000000000E+00 -0.12051020334E+04  0.12051020334E+04  0.50400001928E-02 0. -1.
    10030    2    1    2    0    0  0.00000000000E+00  0.00000000000E+00 -0.45917698463E+03  0.19510270822E+04  0.18962233972E+04 0.  0.
        4    1    3    3  502    0  0.12971985173E+03  0.74840885774E+03 -0.81341291334E+03  0.11129174447E+04  0.12699999809E+01 0. -1.
       -4    1    3    3    0  502 -0.12971985173E+03 -0.74840885774E+03  0.35423592871E+03  0.83810963743E+03  0.12699999809E+01 0.  1.
</event>
<event>
 5   0  0.5579109E-05  0.1908141E+04  0.7818609E-02  0.8650815E-01
        1   -1    0    0  501    0  0.00000000000E+00  0.00000000000E+00  0.84632911263E+03  0.84632911265E+03  0.50400001928E-02 0.  1.
       -1   -1    0    0    0  501  0.00000000000E+00  0.00000000000E+00 -0.10755280026E+04  0.10755280026E+04  0.50400001928E-02 0. -1.
    10030    2    1    2    0    0  0.00000000000E+00  0.00000000000E+00 -0.22919888999E+03  0.19218571153E+04  0.19081411479E+04 0.  0.
        3    1    3    3  502    0  0.95042533552E+03  0.73152649065E+02 -0.15477377230E+03  0.96571971051E+03  0.10100000352E+00 0. -1.
       -3    1    3    3    0  502 -0.95042533552E+03 -0.73152649065E+02 -0.74425117683E+02  0.95613740477E+03  0.10100000352E+00 0.  1.
</event>
<event>
 5   0  0.1141890E-04  0.1924351E+04  0.7818609E-02  0.8642829E-01
       -2   -1    0    0    0  501  0.00000000000E+00  0.00000000000E+00  0.71414438288E+03  0.71414438288E+03  0.25500000920E-02 0. -1.
        2   -1    0    0  501    0  0.00000000000E+00  0.00000000000E+00 -0.12963513025E+04  0.12963513025E+04  0.25500000920E-02 0.  1.
    10030    2    1    2    0    0  0.00000000000E+00  0.00000000000E+00 -0.58220691962E+03  0.20104956854E+04  0.19243513202E+04 0.  0.
        2    1    3    3  502    0  0.36082024274E+03  0.48620068093E+03  0.49016848495E+03  0.77900416774E+03  0.25500000920E-02 0. -1.
       -2    1    3    3    0  502 -0.36082024274E+03 -0.48620068093E+03 -0.10723754046E+04  0.12314915177E+04  0.25500000920E-02 0.  1.
</event>
<event>
 5   0  0.5579109E-05  0.1898346E+04  0.7818609E-02  0.8655680E-01
       -1   -1    0    0    0  501  0.00000000000E+00  0.00000000000E+00  0.94215674371E+03  0.94215674372E+03  0.50400001928E-02 0.  1.
        1   -1    0    0  501    0  0.00000000000E+00  0.00000000000E+00 -0.95624182315E+03  0.95624182316E+03  0.50400001928E-02 0. -1.
    10030    2    1    2    0    0  0.00000000000E+00  0.00000000000E+00 -0.14085079441E+02  0.18983985669E+04  0.18983463144E+04 0.  0.
        3    1    3    3  502    0 -0.72800974887E+03  0.58827665852E+03  0.15063884596E+03  0.94802937377E+03  0.10100000352E+00 0. -1.
       -3    1    3    3    0  502  0.72800974887E+03 -0.58827665852E+03 -0.16472392540E+03  0.95036919311E+03  0.10100000352E+00 0.  1.
</event>
<event>
 5   0  0.5841424E-05  0.1913649E+04  0.7818609E-02  0.8648092E-01
        1   -1    0    0  501    0  0.00000000000E+00  0.00000000000E+00  0.22271629391E+04  0.22271629391E+04  0.50400001928E-02 0.  1.
       -1   -1    0    0    0  501  0.00000000000E+00  0.00000000000E+00 -0.41106708924E+03  0.41106708927E+03  0.50400001928E-02 0. -1.
    10030    2    1    2    0    0  0.00000000000E+00  0.00000000000E+00  0.18160958498E+04  0.26382300284E+04  0.19136492747E+04 0.  0.
        1    1    3    3  502    0  0.26308449022E+03  0.21198228578E+03 -0.32609392281E+03  0.46956062973E+03  0.50400001928E-02 0. -1.
       -1    1    3    3    0  502 -0.26308449022E+03 -0.21198228578E+03  0.21421897726E+04  0.21686693986E+04  0.50400001928E-02 0.  1.
</event>
<event>
 5   0  0.1182630E-04  0.1882519E+04  0.7818609E-02  0.8663607E-01
        2   -1    0    0  501    0  0.00000000000E+00  0.00000000000E+00  0.13900461303E+04  0.13900461303E+04  0.25500000920E-02 0.  1.
       -2   -1    0    0    0  501  0.00000000000E+00  0.00000000000E+00 -0.63736703796E+03  0.63736703797E+03  0.25500000920E-02 0. -1.
    10030    2    1    2    0    0  0.00000000000E+00  0.00000000000E+00  0.75267909233E+03  0.20274131683E+04  0.18825191470E+04 0.  0.
        5    1    3    3  502    0 -0.59283646244E+03 -0.63925553186E+03 -0.57106952706E+01  0.87187006385E+03  0.46999998093E+01 0. -1.
       -5    1    3    3    0  502  0.59283646244E+03  0.63925553186E+03  0.75838978760E+03  0.11555431044E+04  0.46999998093E+01 0.  1.
</event>
<event>
 5   0  0.4061125E-05  0.1913654E+04  0.7818609E-02  0.8648089E-01
        4   -1    0    0  501    0  0.00000000000E+00  0.00000000000E+00  0.12706969572E+04  0.12706975919E+04  0.12699999809E+01 0. -1.
       -4   -1    0    0    0  501  0.00000000000E+00  0.00000000000E+00 -0.72048369381E+03  0.72048481313E+03  0.12699999809E+01 0.  1.
    10030    2    1    2    0    0  0.00000000000E+00  0.00000000000E+00  0.55021326341E+03  0.19911824050E+04  0.19136542882E+04 0.  0.
        3    1    3    3  502    0 -0.20511422081E+03  0.45042142629E+03  0.11271635539E+04  0.12310357397E+04  0.10100000352E+00 0. -1.
       -3    1    3    3    0  502  0.20511422081E+03 -0.45042142629E+03 -0.57695029053E+03  0.76014666532E+03  0.10100000352E+00 0.  1.
</event>
<event>
 5   0  0.5628936E-05  0.1871642E+04  0.7818609E-02  0.8669102E-01
       -1   -1    0    0    0  501  0.00000000000E+00  0.00000000000E+00  0.38461554768E+03  0.38461554771E+03  0.50400001928E-02 0.  1.
        1   -1    0    0  501    0  0.00000000000E+00  0.00000000000E+00 -0.22769772648E+04  0.22769772648E+04  0.50400001928E-02 0. -1.
    10030    2    1    2    0    0  0.00000000000E+00  0.00000000000E+00 -0.18923617171E+04  0.26615928125E+04  0.18716419078E+04 0.  0.
        5    1    3    3  502    0  0.79680161159E+03  0.63295155299E+02 -0.25411712775E+03  0.83874709509E+03  0.46999998093E+01 0. -1.
       -5    1    3    3    0  502 -0.79680161159E+03 -0.63295155299E+02 -0.16382445894E+04  0.18228457174E+04  0.46999998093E+01 0.  1.
</event>
<event>
 5   0  0.5614989E-05  0.1912192E+04  0.7818609E-02  0.8648811E-01
        1   -1    0    0  501    0  0.00000000000E+00  0.00000000000E+00  0.76393417683E+03  0.76393417685E+03  0.50400001928E-02 0.  1.
       -1   -1    0    0    0  501  0.00000000000E+00  0.00000000000E+00 -0.11965947961E+04  0.11965947961E+04  0.50400001928E-02 0. -1.
    10030    2    1    2    0    0  0.00000000000E+00  0.00000000000E+00 -0.43266061928E+03  0.19605289730E+04  0.19121921039E+04 0.  0.
        4    1    3    3  502    0 -0.52039214926E+03 -0.49836897845E+03 -0.86065746681E+03  0.11224582468E+04  0.12699999809E+01 0. -1.
       -4    1    3    3    0  502  0.52039214926E+03  0.49836897845E+03  0.42799684753E+03  0.83807072619E+03  0.12699999809E+01 0.  1.
</event>
<event>
 5   0  0.5614989E-05  0.1913095E+04  0.7818609E-02  0.8648365E-01
       -1   -1    0    0    0  501  0.00000000000E+00  0.00000000000E+00  0.74801487586E+03  0.74801487588E+03  0.50400001928E-02 0.  1.
        1   -1    0    0  501    0  0.00000000000E+00  0.00000000000E+00 -0.12232157444E+04  0.12232157444E+04  0.50400001928E-02 0. -1.
    10030    2    1    2    0    0  0.00000000000E+00  0.00000000000E+00 -0.47520086856E+03  0.19712306203E+04  0.19130954741E+04 0.  0.
        4    1    3    3  502    0 -0.43752159535E+03  0.10133120462E+03 -0.11078293205E+04  0.11953997556E+04  0.12699999809E+01 0. -1.
       -4    1    3    3    0  502  0.43752159535E+03 -0.10133120462E+03  0.63262845198E+03  0.77583086468E+03  0.12699999809E+01 0.  1.
</event>
<event>
 5   0  0.1101678E-04  0.1891847E+04  0.7818609E-02  0.8658925E-01
        2   -1    0    0  501    0  0.00000000000E+00  0.00000000000E+00  0.15807160565E+04  0.15807160565E+04  0.25500000920E-02 0. -1.
       -2   -1    0    0    0  501  0.00000000000E+00  0.00000000000E+00 -0.56605424373E+03  0.56605424373E+03  0.25500000920E-02 0.  1.
    10030    2    1    2    0    0  0.00000000000E+00  0.00000000000E+00  0.10146618128E+04  0.21467703002E+04  0.18918467506E+04 0.  0.
        4    1    3    3  502    0  0.50987935320E+02  0.51324152891E+03 -0.39245582577E+03  0.64810479448E+03  0.12699999809E+01 0.  1.
       -4    1    3    3    0  502 -0.50987935320E+02 -0.51324152891E+03  0.14071176385E+04  0.14986655058E+04  0.12699999809E+01 0. -1.
</event>
<event>
 5   0  0.5579109E-05  0.1901238E+04  0.7818609E-02  0.8654241E-01
        1   -1    0    0  501    0  0.00000000000E+00  0.00000000000E+00  0.94998925561E+03  0.94998925562E+03  0.50400001928E-02 0. -1.
       -1   -1    0    0    0  501  0.00000000000E+00  0.00000000000E+00 -0.95124875726E+03  0.95124875727E+03  0.50400001928E-02 0.  1.
    10030    2    1    2    0    0  0.00000000000E+00  0.00000000000E+00 -0.12595016491E+01  0.19012380129E+04  0.19012375957E+04 0.  0.
        3    1    3    3  502    0  0.90121719566E+03 -0.30218400081E+03 -0.13609913199E+02  0.95062760534E+03  0.10100000352E+00 0.  1.
       -3    1    3    3    0  502 -0.90121719566E+03  0.30218400081E+03  0.12350411550E+02  0.95061040756E+03  0.10100000352E+00 0. -1.
</event>
<event>
 5   0  0.1141890E-04  0.1879379E+04  0.7818609E-02  0.8665189E-01
       -2   -1    0    0    0  501  0.00000000000E+00  0.00000000000E+00  0.95143446717E+03  0.95143446717E+03  0.25500000920E-02 0.  1.
        2   -1    0    0  501    0  0.00000000000E+00  0.00000000000E+00 -0.92808949872E+03  0.92808949872E+03  0.25500000920E-02 0. -1.
    10030    2    1    2    0    0  0.00000000000E+00  0.00000000000E+00  0.23344968449E+02  0.18795239659E+04  0.18793789801E+04 0.  0.
        2    1    3    3  502    0 -0.19029679593E+03 -0.68758017525E+03 -0.59996031623E+03  0.93216508677E+03  0.25500000920E-02 0. -1.
       -2    1    3    3    0  502  0.19029679593E+03  0.68758017525E+03  0.62330528468E+03  0.94735887912E+03  0.25500000920E-02 0.  1.
</event>
<event>
 5   0  0.1182630E-04  0.1906603E+04  0.7818609E-02  0.8651577E-01
        2   -1    0    0  501    0  0.00000000000E+00  0.00000000000E+00  0.10625942883E+04  0.10625942883E+04  0.25500000920E-02 0. -1.
       -2   -1    0    0    0  501  0.00000000000E+00  0.00000000000E+00 -0.85524991318E+03  0.85524991318E+03  0.25500000920E-02 0.  1.
    10030    2    1    2    0    0  0.00000000000E+00  0.00000000000E+00  0.20734437515E+03  0.19178442015E+04  0.19066029192E+04 0.  0.
        5    1    3    3  502    0  0.16611432444E+03  0.64953561090E+03 -0.57801892368E+03  0.88522225726E+03  0.46999998093E+01 0.  1.
       -5    1    3    3    0  502 -0.16611432444E+03 -0.64953561090E+03  0.78536329883E+03  0.10326219443E+04  0.46999998093E+01 0. -1.
</event>
<event>
 5   0  0.1133638E-04  0.1864726E+04  0.7818609E-02  0.8672616E-01
       -2   -1    0    0    0  501  0.00000000000E+00  0.00000000000E+00  0.89428783963E+03  0.89428783963E+03  0.25500000920E-02 0.  1.
        2   -1    0    0  501    0  0.00000000000E+00  0.00000000000E+00 -0.97205970166E+03  0.97205970166E+03  0.25500000920E-02 0. -1.
    10030    2    1    2    0    0  0.00000000000E+00  0.00000000000E+00 -0.77771862032E+02  0.18663475413E+04  0.18647264363E+04 0.  0.
        3    1    3    3  502    0 -0.11213767232E+03  0.60141336140E+03  0.66530818571E+03  0.90382956413E+03  0.10100000352E+00 0.  1.
       -3    1    3    3    0  502  0.11213767232E+03 -0.60141336140E+03 -0.74308004774E+03  0.96251797717E+03  0.10100000352E+00 0. -1.
</event>
<event>
 5   0  0.5824956E-05  0.1952296E+04  0.7818609E-02  0.8629254E-01
        1   -1    0    0  501    0  0.00000000000E+00  0.00000000000E+00  0.98458508985E+03  0.98458508986E+03  0.50400001928E-02 0.  1.
       -1   -1    0    0    0  501  0.00000000000E+00  0.00000000000E+00 -0.96778335761E+03  0.96778335763E+03  0.50400001928E-02 0. -1.
    10030    2    1    2    0    0  0.00000000000E+00  0.00000000000E+00  0.16801732234E+02  0.19523684475E+04  0.19522961498E+04 0.  0.
        2    1    3    3  502    0 -0.57547273314E+02 -0.87387461635E+03  0.43957403192E+03  0.97989482257E+03  0.25500000920E-02 0.  1.
       -2    1    3    3    0  502  0.57547273314E+02  0.87387461635E+03 -0.42277229968E+03  0.97247362491E+03  0.25500000920E-02 0. -1.
</event>
<event>
 5   0  0.1133638E-04  0.1898166E+04  0.7818609E-02  0.8655770E-01
       -2   -1    0    0    0  501  0.00000000000E+00  0.00000000000E+00  0.14168243438E+04  0.14168243438E+04  0.25500000920E-02 0.  1.
        2   -1    0    0  501    0  0.00000000000E+00  0.00000000000E+00 -0.63575905208E+03  0.63575905209E+03  0.25500000920E-02 0. -1.
    10030    2    1    2    0    0  0.00000000000E+00  0.00000000000E+00  0.78106529169E+03  0.20525833959E+04  0.18981663802E+04 0.  0.
        3    1    3    3  502    0  0.29466848891E+03  0.61544011312E+03  0.11038658431E+04  0.12977348962E+04  0.10100000352E+00 0.  1.
       -3    1    3    3    0  502 -0.29466848891E+03 -0.61544011312E+03 -0.32280055139E+03  0.75484849962E+03  0.10100000352E+00 0. -1.
</event>
<event>
 5   0  0.5628936E-05  0.1889387E+04  0.7818609E-02  0.8660157E-01
        1   -1    0    0  501    0  0.00000000000E+00  0.00000000000E+00  0.19456104242E+04  0.19456104242E+04  0.50400001928E-02 0. -1.
       -1   -1    0    0    0  501  0.00000000000E+00  0.00000000000E+00 -0.45869695952E+03  0.45869695955E+03  0.50400001928E-02 0.  1.
    10030    2    1    2    0    0  0.00000000000E+00  0.00000000000E+00  0.14869134647E+04  0.24043073837E+04  0.18893867640E+04 0.  0.
        5    1    3    3  502    0 -0.15101711578E+03  0.40802499611E+03  0.18105142756E+04  0.18620619213E+04  0.46999998093E+01 0. -1.
       -5    1    3    3    0  502  0.15101711578E+03 -0.40802499611E+03 -0.32360081091E+03  0.54224546243E+03  0.46999998093E+01 0.  1.
</event>
<event>
 5   0  0.5579109E-05  0.1901142E+04  0.7818609E-02  0.8654288E-01
       -1   -1    0    0    0  501  0.00000000000E+00  0.00000000000E+00  0.16222409294E+04  0.16222409294E+04  0.50400001928E-02 0. -1.
        1   -1    0    0  501    0  0.00000000000E+00  0.00000000000E+00 -0.55699791880E+03  0.55699791883E+03  0.50400001928E-02 0.  1.
    10030    2    1    2    0    0  0.00000000000E+00  0.00000000000E+00  0.10652430106E+04  0.21792388483E+04  0.19011415744E+04 0.  0.
        3    1    3    3  502    0 -0.13272226036E+03 -0.50821599532E+03 -0.37553695677E+03  0.64569862351E+03  0.10100000352E+00 0.  1.
       -3    1    3    3    0  502  0.13272226036E+03  0.50821599532E+03  0.14407799674E+04  0.15335402248E+04  0.10100000352E+00 0. -1.
</event>
<event>
 5   0  0.5841424E-05  0.1920421E+04  0.7818609E-02  0.8644758E-01
       -1   -1    0    0    0  501  0.00000000000E+00  0.00000000000E+00  0.85829833118E+03  0.85829833120E+03  0.50400001928E-02 0. -1.
        1   -1    0    0  501    0  0.00000000000E+00  0.00000000000E+00 -0.10742237087E+04  0.10742237087E+04  0.50400001928E-02 0.  1.
    10030    2    1    2    0    0  0.00000000000E+00  0.00000000000E+00 -0.21592537750E+03  0.19325220399E+04  0.19204212210E+04 0.  0.
        1    1    3    3  502    0 -0.63288545217E+03 -0.72211077868E+03 -0.11204338916E+03  0.96671696650E+03  0.50400001928E-02 0.  1.
       -1    1    3    3    0  502  0.63288545217E+03  0.72211077868E+03 -0.10388198834E+03  0.96580507338E+03  0.50400001928E-02 0. -1.
</event>
<event>
 5   0  0.1101678E-04  0.1721417E+04  0.7818609E-02  0.8749243E-01
       -2   -1    0    0    0  501  0.00000000000E+00  0.00000000000E+00  0.57859582985E+03  0.57859582986E+03  0.25500000920E-02 0. -1.
        2   -1    0    0  501    0  0.00000000000E+00  0.00000000000E+00 -0.12803741402E+04  0.12803741402E+04  0.25500000920E-02 0.  1.
    10030    2    1    2    0    0  0.00000000000E+00  0.00000000000E+00 -0.70177831037E+03  0.18589699701E+04  0.17214170188E+04 0.  0.
        4    1    3    3  502    0  0.10083943295E+03 -0.44781165368E+03 -0.11371574764E+04  0.12263085286E+04  0.12699999809E+01 0.  1.
       -4    1    3    3    0  502 -0.10083943295E+03  0.44781165368E+03  0.43537916600E+03  0.63266144145E+03  0.12699999809E+01 0. -1.
</event>
<event>
 5   0  0.5614989E-05  0.1900128E+04  0.7818609E-02  0.8654792E-01
        1   -1    0    0  501    0  0.00000000000E+00  0.00000000000E+00  0.54951660517E+03  0.54951660520E+03  0.50400001928E-02 0. -1.
       -1   -1    0    0    0  501  0.00000000000E+00  0.00000000000E+00 -0.16425746984E+04  0.16425746984E+04  0.50400001928E-02 0.  1.
    10030    2    1    2    0    0  0.00000000000E+00  0.00000000000E+00 -0.10930580932E+04  0.21920913036E+04  0.19001284925E+04 0.  0.
        4    1    3    3  502    0  0.54963864228E+02 -0.93078140450E+03 -0.33617953205E+03  0.99115757577E+03  0.12699999809E+01 0.  1.
       -4    1    3    3    0  502 -0.54963864228E+02  0.93078140450E+03 -0.75687856114E+03  0.12009337278E+04  0.12699999809E+01 0. -1.
</event>
<event>
 5   0  0.4061125E-05  0.1911624E+04  0.7818609E-02  0.8649092E-01
        4   -1    0    0  501    0  0.00000000000E+00  0.00000000000E+00  0.16633750833E+04  0.16633755681E+04  0.12699999809E+01 0. -1.
       -4   -1    0    0    0  501  0.00000000000E+00  0.00000000000E+00 -0.54922951508E+03  0.54923098341E+03  0.12699999809E+01 0.  1.
    10030    2    1    2    0    0  0.00000000000E+00  0.00000000000E+00  0.11141455682E+04  0.22126065515E+04  0.19116242844E+04 0.  0.
        2    1    3    3  502    0 -0.44589113240E+03  0.82597990675E+03  0.76578337524E+03  0.12113983185E+04  0.25500000920E-02 0.  1.
       -2    1    3    3    0  502  0.44589113240E+03 -0.82597990675E+03  0.34836219294E+03  0.10012082330E+04  0.25500000920E-02 0. -1.
</event>
<event>
 5   0  0.5628936E-05  0.1908449E+04  0.7818609E-02  0.8650662E-01
        1   -1    0    0  501    0  0.00000000000E+00  0.00000000000E+00  0.10812868795E+04  0.10812868795E+04  0.50400001928E-02 0.  1.
       -1   -1    0    0    0  501  0.00000000000E+00  0.00000000000E+00 -0.84209346911E+03  0.84209346912E+03  0.50400001928E-02 0. -1.
    10030    2    1    2    0    0  0.00000000000E+00  0.00000000000E+00  0.23919341036E+03  0.19233803486E+04  0.19084492338E+04 0.  0.
        5    1    3    3  502    0 -0.24480785961E+03  0.13927359314E+03 -0.79923483603E+03  0.84742340951E+03  0.46999998093E+01 0. -1.
       -5    1    3    3    0  502  0.24480785961E+03 -0.13927359314E+03  0.10384282464E+04  0.10759569391E+04  0.46999998093E+01 0.  1.
</event>
<event>
 5   0  0.1141890E-04  0.1905873E+04  0.7818609E-02  0.8651938E-01
        2   -1    0    0  501    0  0.00000000000E+00  0.00000000000E+00  0.86600506793E+03  0.86600506793E+03  0.25500000920E-02 0.  1.
       -2   -1    0    0    0  501  0.00000000000E+00  0.00000000000E+00 -0.10485943690E+04  0.10485943690E+04  0.25500000920E-02 0. -1.
    10030    2    1    2    0    0  0.00000000000E+00  0.00000000000E+00 -0.18258930105E+03  0.19145994369E+04  0.19058730679E+04 0.  0.
        2    1    3    3  502    0  0.12669496845E+03 -0.84726810324E+03  0.32795682454E+03  0.91731702948E+03  0.25500000920E-02 0.  1.
       -2    1    3    3    0  502 -0.12669496845E+03  0.84726810324E+03 -0.51054612559E+03  0.99728240743E+03  0.25500000920E-02 0. -1.
</event>
<event>
 5   0  0.1101678E-04  0.1889873E+04  0.7818609E-02  0.8659914E-01
       -2   -1    0    0    0  501  0.00000000000E+00  0.00000000000E+00  0.10393420170E+04  0.10393420170E+04  0.25500000920E-02 0.  1.
        2   -1    0    0  501    0  0.00000000000E+00  0.00000000000E+00 -0.85910581128E+03  0.85910581128E+03  0.25500000920E-02 0. -1.
    10030    2    1    2    0    0  0.00000000000E+00  0.00000000000E+00  0.18023620574E+03  0.18984478283E+04  0.18898727647E+04 0.  0.
        4    1    3    3  502    0  0.63464860821E+03 -0.69951110930E+03  0.11868135782E+03  0.95193567300E+03  0.12699999809E+01 0.  1.
       -4    1    3    3    0  502 -0.63464860821E+03  0.69951110930E+03  0.61554847917E+02  0.94651215530E+03  0.12699999809E+01 0. -1.
</event>
<event>
 5   0  0.1141890E-04  0.1913145E+04  0.7818609E-02  0.8648341E-01
       -2   -1    0    0    0  501  0.00000000000E+00  0.00000000000E+00  0.11599773967E+04  0.11599773967E+04  0.25500000920E-02 0.  1.
        2   -1    0    0  501    0  0.00000000000E+00  0.00000000000E+00 -0.78883535727E+03  0.78883535728E+03  0.25500000920E-02 0. -1.
    10030    2    1    2    0    0  0.00000000000E+00  0.00000000000E+00  0.37114203943E+03  0.19488127540E+04  0.19131452471E+04 0.  0.
        2    1    3    3  502    0  0.93685821788E+03  0.11637091962E+03  0.34267236009E+03  0.10043255736E+04  0.25500000920E-02 0.  1.
       -2    1    3    3    0  502 -0.93685821788E+03 -0.11637091962E+03  0.28469679341E+02  0.94448718043E+03  0.25500000920E-02 0. -1.
</event>
<event>
 5   0  0.5614989E-05  0.1900581E+04  0.7818609E-02  0.8654567E-01
       -1   -1    0    0    0  501  0.00000000000E+00  0.00000000000E+00  0.87352322571E+03  0.87352322572E+03  0.50400001928E-02 0.  1.
        1   -1    0    0  501    0  0.00000000000E+00  0.00000000000E+00 -0.10338047576E+04  0.10338047576E+04  0.50400001928E-02 0. -1.
    10030    2    1    2    0    0  0.00000000000E+00  0.00000000000E+00 -0.16028153187E+03  0.19073279833E+04  0.19005814548E+04 0.  0.
        4    1    3    3  502    0 -0.83897857862E+03 -0.41595544075E+03  0.82133160302E+02  0.94002736822E+03  0.12699999809E+01 0.  1.
       -4    1    3    3    0  502  0.83897857862E+03  0.41595544075E+03 -0.24241469217E+03  0.96730061509E+03  0.12699999809E+01 0. -1.
</event>
<event>
 5   0  0.1182630E-04  0.1897228E+04  0.7818609E-02  0.8656238E-01
        2   -1    0    0  501    0  0.00000000000E+00  0.00000000000E+00  0.91981020929E+03  0.91981020930E+03  0.25500000920E-02 0. -1.
       -2   -1    0    0    0  501  0.00000000000E+00  0.00000000000E+00 -0.97831953000E+03  0.97831953000E+03  0.25500000920E-02 0.  1.
    10030    2    1    2    0    0  0.00000000000E+00  0.00000000000E+00 -0.58509320706E+02  0.18981297393E+04  0.18972277582E+04 0.  0.
        5    1    3    3  502    0  0.80019334152E+02  0.98310943252E+02  0.91128699131E+03  0.92007293512E+03  0.46999998093E+01 0. -1.
       -5    1    3    3    0  502 -0.80019334152E+02 -0.98310943252E+02 -0.96979631202E+03  0.97805680418E+03  0.46999998093E+01 0.  1.
</event>
<event>
 5   0  0.5824956E-05  0.1905260E+04  0.7818609E-02  0.8652243E-01
        1   -1    0    0  501    0  0.00000000000E+00  0.00000000000E+00  0.26510622277E+04  0.26510622277E+04  0.50400001928E-02 0. -1.
       -1   -1    0    0    0  501  0.00000000000E+00  0.00000000000E+00 -0.34231703417E+03  0.34231703420E+03  0.50400001928E-02 0.  1.
    10030    2    1    2    0    0  0.00000000000E+00  0.00000000000E+00  0.23087451935E+04  0.29933792619E+04  0.19052598345E+04 0.  0.
        2    1    3    3  502    0  0.27439679069E+03 -0.80934401428E+02 -0.27323253064E+03  0.39560079864E+03  0.25500000920E-02 0.  1.
       -2    1    3    3    0  502 -0.27439679069E+03  0.80934401428E+02  0.25819777242E+04  0.25977784633E+04  0.25500000920E-02 0. -1.
</event>
<event>
 5   0  0.5841424E-05  0.1924796E+04  0.7818609E-02  0.8642611E-01
       -1   -1    0    0    0  501  0.00000000000E+00  0.00000000000E+00  0.44254745544E+03  0.44254745547E+03  0.50400001928E-02 0. -1.
        1   -1    0    0  501    0  0.00000000000E+00  0.00000000000E+00 -0.20929059593E+04  0.20929059593E+04  0.50400001928E-02 0.  1.
    10030    2    1    2    0    0  0.00000000000E+00  0.00000000000E+00 -0.16503585038E+04  0.25354534147E+04  0.19247963080E+04 0.  0.
        1    1    3    3  502    0 -0.71338271826E+03  0.58456185293E+03 -0.46303450804E+03  0.10320021406E+04  0.50400001928E-02 0. -1.
       -1    1    3    3    0  502  0.71338271826E+03 -0.58456185293E+03 -0.11873239958E+04  0.15034512741E+04  0.50400001928E-02 0.  1.
</event>
<event>
 5   0  0.5628936E-05  0.1896698E+04  0.7818609E-02  0.8656502E-01
       -1   -1    0    0    0  501  0.00000000000E+00  0.00000000000E+00  0.89497192488E+03  0.89497192490E+03  0.50400001928E-02 0. -1.
        1   -1    0    0  501    0  0.00000000000E+00  0.00000000000E+00 -0.10049092177E+04  0.10049092177E+04  0.50400001928E-02 0.  1.
    10030    2    1    2    0    0  0.00000000000E+00  0.00000000000E+00 -0.10993729284E+03  0.18998811426E+04  0.18966976954E+04 0.  0.
        5    1    3    3  502    0 -0.35407568680E+03  0.87975278119E+03 -0.51980528389E+02  0.94976766281E+03  0.46999998093E+01 0. -1.
       -5    1    3    3    0  502  0.35407568680E+03 -0.87975278119E+03 -0.57956764453E+02  0.95011347982E+03  0.46999998093E+01 0.  1.
</event>
<event>
 5   0  0.5614989E-05  0.1898237E+04  0.7818609E-02  0.8655734E-01
       -1   -1    0    0    0  501  0.00000000000E+00  0.00000000000E+00  0.15754007339E+04  0.15754007339E+04  0.50400001928E-02 0.  1.
        1   -1    0    0  501    0  0.00000000000E+00  0.00000000000E+00 -0.57180741386E+03  0.57180741388E+03  0.50400001928E-02 0. -1.
    10030    2    1    2    0    0  0.00000000000E+00  0.00000000000E+00  0.10035933200E+04  0.21472081478E+04  0.18982368867E+04 0.  0.
        4    1    3    3  502    0 -0.62514438806E+02  0.94558450491E+03  0.44209014195E+03  0.10456975746E+04  0.12699999809E+01 0. -1.
       -4    1    3    3    0  502  0.62514438806E+02 -0.94558450491E+03  0.56150317808E+03  0.11015105732E+04  0.12699999809E+01 0.  1.
</event>
<event>
 5   0  0.1118206E-04  0.1899824E+04  0.7818609E-02  0.8654944E-01
       -2   -1    0    0    0  501  0.00000000000E+00  0.00000000000E+00  0.48296638110E+03  0.48296638110E+03  0.25500000920E-02 0. -1.
        2   -1    0    0  501    0  0.00000000000E+00  0.00000000000E+00 -0.18683141310E+04  0.18683141310E+04  0.25500000920E-02 0.  1.
    10030    2    1    2    0    0  0.00000000000E+00  0.00000000000E+00 -0.13853477499E+04  0.23512805121E+04  0.18998241125E+04 0.  0.
        1    1    3    3  502    0 -0.67209039338E+03  0.65940190720E+03 -0.84832305082E+03  0.12673469812E+04  0.50400001928E-02 0. -1.
       -1    1    3    3    0  502  0.67209039338E+03 -0.65940190720E+03 -0.53702469912E+03  0.10839335310E+04  0.50400001928E-02 0.  1.
</event>
<event>
 5   0  0.5841424E-05  0.1899801E+04  0.7818609E-02  0.8654955E-01
        1   -1    0    0  501    0  0.00000000000E+00  0.00000000000E+00  0.18054773550E+04  0.18054773550E+04  0.50400001928E-02 0.  1.
       -1   -1    0    0    0  501  0.00000000000E+00  0.00000000000E+00 -0.49976334380E+03  0.49976334382E+03  0.50400001928E-02 0. -1.
    10030    2    1    2    0    0  0.00000000000E+00  0.00000000000E+00  0.13057140112E+04  0.23052406988E+04  0.18998014634E+04 0.  0.
        1    1    3    3  502    0  0.57350577122E+02 -0.46992716960E+03 -0.34641563500E+03  0.58662119431E+03  0.50400001928E-02 0. -1.
       -1    1    3    3    0  502 -0.57350577122E+02  0.46992716960E+03  0.16521296462E+04  0.17186195045E+04  0.50400001928E-02 0.  1.
</event>
<event>
 5   0  0.1133638E-04  0.1870286E+04  0.7818609E-02  0.8669790E-01
       -2   -1    0    0    0  501  0.00000000000E+00  0.00000000000E+00  0.29961049608E+03  0.29961049609E+03  0.25500000920E-02 0. -1.
        2   -1    0    0  501    0  0.00000000000E+00  0.00000000000E+00 -0.29187629366E+04  0.29187629366E+04  0.25500000920E-02 0.  1.
    10030    2    1    2    0    0  0.00000000000E+00  0.00000000000E+00 -0.26191524405E+04  0.32183734327E+04  0.18702855519E+04 0.  0.
        3    1    3    3  502    0  0.43936217982E+03 -0.56536841549E+03 -0.27450637264E+03  0.76683396450E+03  0.10100000352E+00 0. -1.
       -3    1    3    3    0  502 -0.43936217982E+03  0.56536841549E+03 -0.23446460679E+04  0.24515394682E+04  0.10100000352E+00 0.  1.
</event>
<event>
 5   0  0.1118206E-04  0.1899382E+04  0.7818609E-02  0.8655164E-01
       -2   -1    0    0    0  501  0.00000000000E+00  0.00000000000E+00  0.56460676936E+03  0.56460676936E+03  0.25500000920E-02 0. -1.
        2   -1    0    0  501    0  0.00000000000E+00  0.00000000000E+00 -0.15974178973E+04  0.15974178973E+04  0.25500000920E-02 0.  1.
    10030    2    1    2    0    0  0.00000000000E+00  0.00000000000E+00 -0.10328111279E+04  0.21620246667E+04  0.18993819609E+04 0.  0.
        1    1    3    3  502    0  0.44060670996E+03  0.37840473786E+03 -0.13716974751E+04  0.14895900046E+04  0.50400001928E-02 0.  1.
       -1    1    3    3    0  502 -0.44060670996E+03 -0.37840473786E+03  0.33888634714E+03  0.67243466211E+03  0.50400001928E-02 0. -1.
</event>
<event>
 5   0  0.1118206E-04  0.1900423E+04  0.7818609E-02  0.8654646E-01
        2   -1    0    0  501    0  0.00000000000E+00  0.00000000000E+00  0.15405455352E+04  0.15405455352E+04  0.25500000920E-02 0. -1.
       -2   -1    0    0    0  501  0.00000000000E+00  0.00000000000E+00 -0.58609253583E+03  0.58609253583E+03  0.25500000920E-02 0.  1.
    10030    2    1    2    0    0  0.00000000000E+00  0.00000000000E+00  0.95445299934E+03  0.21266380710E+04  0.19004233626E+04 0.  0.
        1    1    3    3  502    0 -0.20201068015E+03 -0.92722951049E+03  0.53135072359E+03  0.10876104411E+04  0.50400001928E-02 0. -1.
       -1    1    3    3    0  502  0.20201068015E+03  0.92722951049E+03  0.42310227575E+03  0.10390276299E+04  0.50400001928E-02 0.  1.
</event>
<event>
 5   0  0.1182630E-04  0.1903262E+04  0.7818609E-02  0.8653235E-01
        2   -1    0    0  501    0  0.00000000000E+00  0.00000000000E+00  0.67459678475E+03  0.67459678475E+03  0.25500000920E-02 0.  1.
       -2   -1    0    0    0  501  0.00000000000E+00  0.00000000000E+00 -0.13424333333E+04  0.13424333333E+04  0.25500000920E-02 0. -1.
    10030    2    1    2    0    0  0.00000000000E+00  0.00000000000E+00 -0.66783654852E+03  0.20170301180E+04  0.19032616324E+04 0.  0.
        5    1    3    3  502    0  0.88675814245E+03  0.98003897956E+02  0.16984837566E+02  0.89233140812E+03  0.46999998093E+01 0.  1.
       -5    1    3    3    0  502 -0.88675814245E+03 -0.98003897956E+02 -0.68482138609E+03  0.11246987099E+04  0.46999998093E+01 0. -1.
</event>
<event>
 5   0  0.5628936E-05  0.1930550E+04  0.7818609E-02  0.8639797E-01
       -1   -1    0    0    0  501  0.00000000000E+00  0.00000000000E+00  0.83003305492E+03  0.83003305494E+03  0.50400001928E-02 0. -1.
        1   -1    0    0  501    0  0.00000000000E+00  0.00000000000E+00 -0.11225529874E+04  0.11225529874E+04  0.50400001928E-02 0.  1.
    10030    2    1    2    0    0  0.00000000000E+00  0.00000000000E+00 -0.29251993245E+03  0.19525860423E+04  0.19305502692E+04 0.  0.
        5    1    3    3  502    0  0.29924348822E+03  0.39724774584E+03  0.69045630612E+03  0.85094326337E+03  0.46999998093E+01 0. -1.
       -5    1    3    3    0  502 -0.29924348822E+03 -0.39724774584E+03 -0.98297623857E+03  0.11016427789E+04  0.46999998093E+01 0.  1.
</event>
<event>
 5   0  0.1133638E-04  0.1910308E+04  0.7818609E-02  0.8649742E-01
        2   -1    0    0  501    0  0.00000000000E+00  0.00000000000E+00  0.99170409274E+03  0.99170409274E+03  0.25500000920E-02 0. -1.
       -2   -1    0    0    0  501  0.00000000000E+00  0.00000000000E+00 -0.91995120577E+03  0.91995120577E+03  0.25500000920E-02 0.  1.
    10030    2    1    2    0    0  0.00000000000E+00  0.00000000000E+00  0.71752886973E+02  0.19116552985E+04  0.19103082221E+04 0.  0.
        3    1    3    3  502    0  0.55054421961E+03  0.44324283883E+03  0.67879054260E+03  0.97995906182E+03  0.10100000352E+00 0. -1.
       -3    1    3    3    0  502 -0.55054421961E+03 -0.44324283883E+03 -0.60703765563E+03  0.93169623669E+03  0.10100000352E+00 0.  1.
</event>
<event>
 5   0  0.5824956E-05  0.1901817E+04  0.7818609E-02  0.8653952E-01
        1   -1    0    0  501    0  0.00000000000E+00  0.00000000000E+00  0.75942883760E+03  0.75942883761E+03  0.50400001928E-02 0.  1.
       -1   -1    0    0    0  501  0.00000000000E+00  0.00000000000E+00 -0.11906673065E+04  0.11906673065E+04  0.50400001928E-02 0. -1.
    10030    2    1    2    0    0  0.00000000000E+00  0.00000000000E+00 -0.43123846894E+03  0.19500961442E+04  0.19018171191E+04 0.  0.
        2    1    3    3  502    0  0.46451312729E+03 -0.74993431319E+03  0.14843338103E+03  0.89454255804E+03  0.25500000920E-02 0.  1.
       -2    1    3    3    0  502 -0.46451312729E+03  0.74993431319E+03 -0.57967184997E+03  0.10555535861E+04  0.25500000920E-02 0. -1.
</event>
<event>
 5   0  0.5841424E-05  0.1904217E+04  0.7818609E-02  0.8652760E-01
       -1   -1    0    0    0  501  0.00000000000E+00  0.00000000000E+00  0.65062735929E+03  0.65062735931E+03  0.50400001928E-02 0. -1.
        1   -1    0    0  501    0  0.00000000000E+00  0.00000000000E+00 -0.13932869992E+04  0.13932869992E+04  0.50400001928E-02 0.  1.
    10030    2    1    2    0    0  0.00000000000E+00  0.00000000000E+00 -0.74265963986E+03  0.20439143585E+04  0.19042170475E+04 0.  0.
        1    1    3    3  502    0 -0.28672288510E+03 -0.29648701719E+02  0.60266661836E+03  0.66805397332E+03  0.50400001928E-02 0. -1.
       -1    1    3    3    0  502  0.28672288510E+03  0.29648701719E+02 -0.13453262582E+04  0.13758603852E+04  0.50400001928E-02 0.  1.
</event>
<event>
 5   0  0.5579109E-05  0.1905253E+04  0.7818609E-02  0.8652246E-01
        1   -1    0    0  501    0  0.00000000000E+00  0.00000000000E+00  0.96233041972E+03  0.96233041974E+03  0.50400001928E-02 0. -1.
       -1   -1    0    0    0  501  0.00000000000E+00  0.00000000000E+00 -0.94302001111E+03  0.94302001112E+03  0.50400001928E-02 0.  1.
    10030    2    1    2    0    0  0.00000000000E+00  0.00000000000E+00  0.19310408616E+02  0.19053504309E+04  0.19052525745E+04 0.  0.
        3    1    3    3  502    0  0.39635630106E+03  0.85926813798E+03  0.11946422541E+03  0.95378811153E+03  0.10100000352E+00 0.  1.
       -3    1    3    3    0  502 -0.39635630106E+03 -0.85926813798E+03 -0.10015381680E+03  0.95156231933E+03  0.10100000352E+00 0. -1.
</event>
<event>
 5   0  0.5579109E-05  0.1861043E+04  0.7818609E-02  0.8674494E-01
       -1   -1    0    0    0  501  0.00000000000E+00  0.00000000000E+00  0.42727519254E+03  0.42727519257E+03  0.50400001928E-02 0.  1.
        1   -1    0    0  501    0  0.00000000000E+00  0.00000000000E+00 -0.20264931143E+04  0.20264931143E+04  0.50400001928E-02 0. -1.
    10030    2    1    2    0    0  0.00000000000E+00  0.00000000000E+00 -0.15992179218E+04  0.24537683069E+04  0.18610429717E+04 0.  0.
        3    1    3    3  502    0  0.38377389741E+03 -0.84755121596E+03 -0.82023638952E+03  0.12403278651E+04  0.10100000352E+00 0. -1.
       -3    1    3    3    0  502 -0.38377389741E+03  0.84755121596E+03 -0.77898153225E+03  0.12134404418E+04  0.10100000352E+00 0.  1.
</event>
<event>
 5   0  0.1141890E-04  0.1892808E+04  0.7818609E-02  0.8658445E-01
       -2   -1    0    0    0  501  0.00000000000E+00  0.00000000000E+00  0.50060227408E+03  0.50060227409E+03  0.25500000920E-02 0. -1.
        2   -1    0    0  501    0  0.00000000000E+00  0.00000000000E+00 -0.17892061583E+04  0.17892061583E+04  0.25500000920E-02 0.  1.
    10030    2    1    2    0    0  0.00000000000E+00  0.00000000000E+00 -0.12886038842E+04  0.22898084324E+04  0.18928081484E+04 0.  0.
        2    1    3    3  502    0 -0.28032342521E+03 -0.44893707864E+03 -0.15934325238E+04  0.16790333323E+04  0.25500000920E-02 0.  1.
       -2    1    3    3    0  502  0.28032342521E+03  0.44893707864E+03  0.30482863958E+03  0.61077510003E+03  0.25500000920E-02 0. -1.
</event>
<event>
 5   0  0.5628936E-05  0.1913563E+04  0.7818609E-02  0.8648135E-01
       -1   -1    0    0    0  501  0.00000000000E+00  0.00000000000E+00  0.65691194320E+03  0.65691194322E+03  0.50400001928E-02 0. -1.
        1   -1    0    0  501    0  0.00000000000E+00  0.00000000000E+00 -0.13935362665E+04  0.13935362665E+04  0.50400001928E-02 0.  1.
    10030    2    1    2    0    0  0.00000000000E+00  0.00000000000E+00 -0.73662432328E+03  0.20504482097E+04  0.19135627680E+04 0.  0.
        5    1    3    3  502    0  0.20259973740E+03  0.57756931503E+03 -0.11562911184E+04  0.13083058540E+04  0.46999998093E+01 0.  1.
       -5    1    3    3    0  502 -0.20259973740E+03 -0.57756931503E+03  0.41966679507E+03  0.74214235571E+03  0.46999998093E+01 0. -1.
</event>
<event>
 5   0  0.1182630E-04  0.1889289E+04  0.7818609E-02  0.8660206E-01
        2   -1    0    0  501    0  0.00000000000E+00  0.00000000000E+00  0.13768398500E+04  0.13768398500E+04  0.25500000920E-02 0.  1.
       -2   -1    0    0    0  501  0.00000000000E+00  0.00000000000E+00 -0.64811684115E+03  0.64811684115E+03  0.25500000920E-02 0. -1.
    10030    2    1    2    0    0  0.00000000000E+00  0.00000000000E+00  0.72872300881E+03  0.20249566911E+04  0.18892888549E+04 0.  0.
        5    1    3    3  502    0 -0.17793455444E+03 -0.49920487625E+03 -0.47375251177E+03  0.71086549118E+03  0.46999998093E+01 0. -1.
       -5    1    3    3    0  502  0.17793455444E+03  0.49920487625E+03  0.12024755206E+04  0.13140911999E+04  0.46999998093E+01 0.  1.
</event>
<event>
 5   0  0.5824956E-05  0.1902201E+04  0.7818609E-02  0.8653762E-01
        1   -1    0    0  501    0  0.00000000000E+00  0.00000000000E+00  0.16974592061E+04  0.16974592061E+04  0.50400001928E-02 0. -1.
       -1   -1    0    0    0  501  0.00000000000E+00  0.00000000000E+00 -0.53290956940E+03  0.53290956943E+03  0.50400001928E-02 0.  1.
    10030    2    1    2    0    0  0.00000000000E+00  0.00000000000E+00  0.11645496367E+04  0.22303687755E+04  0.19022010983E+04 0.  0.
        2    1    3    3  502    0 -0.35908173501E+03  0.69776653100E+03 -0.47810871587E+02  0.78619571587E+03  0.25500000920E-02 0.  1.
       -2    1    3    3    0  502  0.35908173501E+03 -0.69776653100E+03  0.12123605082E+04  0.14441730596E+04  0.25500000920E-02 0. -1.
</event>
<event>
 5   0  0.4061125E-05  0.1884337E+04  0.7818609E-02  0.8662692E-01
        4   -1    0    0  501    0  0.00000000000E+00  0.00000000000E+00  0.13278466635E+04  0.13278472709E+04  0.12699999809E+01 0.  1.
       -4   -1    0    0    0  501  0.00000000000E+00  0.00000000000E+00 -0.66851068947E+03  0.66851189581E+03  0.12699999809E+01 0. -1.
    10030    2    1    2    0    0  0.00000000000E+00  0.00000000000E+00  0.65933597408E+03  0.19963591667E+04  0.18843370176E+04 0.  0.
        5    1    3    3  502    0  0.59360101413E+03  0.63879907132E+03  0.70757066326E+03  0.11229892034E+04  0.46999998093E+01 0.  1.
       -5    1    3    3    0  502 -0.59360101413E+03 -0.63879907132E+03 -0.48234689186E+02  0.87336996327E+03  0.46999998093E+01 0. -1.
</event>
<event>
 5   0  0.5841424E-05  0.1904546E+04  0.7818609E-02  0.8652597E-01
        1   -1    0    0  501    0  0.00000000000E+00  0.00000000000E+00  0.64139670145E+03  0.64139670147E+03  0.50400001928E-02 0. -1.
       -1   -1    0    0    0  501  0.00000000000E+00  0.00000000000E+00 -0.14138270505E+04  0.14138270505E+04  0.50400001928E-02 0.  1.
    10030    2    1    2    0    0  0.00000000000E+00  0.00000000000E+00 -0.77243034907E+03  0.20552237520E+04  0.19045461471E+04 0.  0.
        1    1    3    3  502    0 -0.92449048631E+03  0.20113084417E+03 -0.50287805943E+03  0.10714581739E+04  0.50400001928E-02 0.  1.
       -1    1    3    3    0  502  0.92449048631E+03 -0.20113084417E+03 -0.26955228963E+03  0.98376557809E+03  0.50400001928E-02 0. -1.
</event>
<event>
 5   0  0.5824956E-05  0.1888104E+04  0.7818609E-02  0.8660800E-01
       -1   -1    0    0    0  501  0.00000000000E+00  0.00000000000E+00  0.92783388030E+03  0.92783388031E+03  0.50400001928E-02 0.  1.
        1   -1    0    0  501    0  0.00000000000E+00  0.00000000000E+00 -0.96055374986E+03  0.96055374987E+03  0.50400001928E-02 0. -1.
    10030    2    1    2    0    0  0.00000000000E+00  0.00000000000E+00 -0.32719869558E+02  0.18883876302E+04  0.18881041422E+04 0.  0.
        2    1    3    3  502    0 -0.20611360628E+03  0.28463978644E+02 -0.93733547317E+03  0.96015144953E+03  0.25500000920E-02 0. -1.
       -2    1    3    3    0  502  0.20611360628E+03 -0.28463978644E+02  0.90461560361E+03  0.92823618065E+03  0.25500000920E-02 0.  1.
</event>
<event>
 5   0  0.1118206E-04  0.1863001E+04  0.7818609E-02  0.8673496E-01
       -2   -1    0    0    0  501  0.00000000000E+00  0.00000000000E+00  0.51838232709E+03  0.51838232709E+03  0.25500000920E-02 0.  1.
        2   -1    0    0  501    0  0.00000000000E+00  0.00000000000E+00 -0.16738470328E+04  0.16738470328E+04  0.25500000920E-02 0. -1.
    10030    2    1    2    0    0  0.00000000000E+00  0.00000000000E+00 -0.11554647057E+04  0.21922293599E+04  0.18630005046E+04 0.  0.
        1    1    3    3  502    0 -0.12780821601E+03 -0.80748507895E+03 -0.52375275787E+02  0.81921319712E+03  0.50400001928E-02 0.  1.
       -1    1    3    3    0  502  0.12780821601E+03  0.80748507895E+03 -0.11030894299E+04  0.13730161628E+04  0.50400001928E-02 0. -1.
</event>
<event>
 5   0  0.1118206E-04  0.1895408E+04  0.7818609E-02  0.8657146E-01
       -2   -1    0    0    0  501  0.00000000000E+00  0.00000000000E+00  0.80031816020E+03  0.80031816021E+03  0.25500000920E-02 0.  1.
        2   -1    0    0  501    0  0.00000000000E+00  0.00000000000E+00 -0.11222321258E+04  0.11222321258E+04  0.25500000920E-02 0. -1.
    10030    2    1    2    0    0  0.00000000000E+00  0.00000000000E+00 -0.32191396562E+03  0.19225502860E+04  0.18954078720E+04 0.  0.
        1    1    3    3  502    0 -0.25164122912E+03  0.30605253573E+03  0.71227264338E+03  0.81506059981E+03  0.50400001928E-02 0.  1.
       -1    1    3    3    0  502  0.25164122912E+03 -0.30605253573E+03 -0.10341866090E+04  0.11074896862E+04  0.50400001928E-02 0. -1.
</event>
<event>
 5   0  0.5614989E-05  0.1888879E+04  0.7818609E-02  0.8660412E-01
       -1   -1    0    0    0  501  0.00000000000E+00  0.00000000000E+00  0.62995510651E+03  0.62995510653E+03  0.50400001928E-02 0.  1.
        1   -1    0    0  501    0  0.00000000000E+00  0.00000000000E+00 -0.14159203572E+04  0.14159203572E+04  0.50400001928E-02 0. -1.
    10030    2    1    2    0    0  0.00000000000E+00  0.00000000000E+00 -0.78596525067E+03  0.20458754637E+04  0.18888793074E+04 0.  0.
        4    1    3    3  502    0  0.47819454198E+03  0.12051484619E+03  0.47942736817E+03  0.68778344149E+03  0.12699999809E+01 0.  1.
       -4    1    3    3    0  502 -0.47819454198E+03 -0.12051484619E+03 -0.12653926188E+04  0.13580920222E+04  0.12699999809E+01 0. -1.
</event>
<event>
 5   0  0.1182630E-04  0.1896371E+04  0.7818609E-02  0.8656665E-01
       -2   -1    0    0    0  501  0.00000000000E+00  0.00000000000E+00  0.10210680674E+04  0.10210680674E+04  0.25500000920E-02 0.  1.
        2   -1    0    0  501    0  0.00000000000E+00  0.00000000000E+00 -0.88050542578E+03  0.88050542578E+03  0.25500000920E-02 0. -1.
    10030    2    1    2    0    0  0.00000000000E+00  0.00000000000E+00  0.14056264166E+03  0.19015734932E+04  0.18963712437E+04 0.  0.
        5    1    3    3  502    0 -0.25029451642E+03  0.90768622239E+03 -0.41794070746E+02  0.94250223215E+03  0.46999998093E+01 0. -1.
       -5    1    3    3    0  502  0.25029451642E+03 -0.90768622239E+03  0.18235671240E+03  0.95907126107E+03  0.46999998093E+01 0.  1.
</event>
<event>
 5   0  0.5628936E-05  0.1920692E+04  0.7818609E-02  0.8644625E-01
       -1   -1    0    0    0  501  0.00000000000E+00  0.00000000000E+00  0.53577071292E+03  0.53577071294E+03  0.50400001928E-02 0.  1.
        1   -1    0    0  501    0  0.00000000000E+00  0.00000000000E+00 -0.17213781022E+04  0.17213781022E+04  0.50400001928E-02 0. -1.
    10030    2    1    2    0    0  0.00000000000E+00  0.00000000000E+00 -0.11856073893E+04  0.22571488152E+04  0.19206915141E+04 0.  0.
        5    1    3    3  502    0 -0.64220626923E+03 -0.42245265728E+03  0.83659120853E+02  0.77325033358E+03  0.46999998093E+01 0.  1.
       -5    1    3    3    0  502  0.64220626923E+03  0.42245265728E+03 -0.12692665102E+04  0.14838984816E+04  0.46999998093E+01 0. -1.
</event>
<event>
 5   0  0.5824956E-05  0.1902555E+04  0.7818609E-02  0.8653586E-01
        1   -1    0    0  501    0  0.00000000000E+00  0.00000000000E+00  0.12620696836E+04  0.12620696836E+04  0.50400001928E-02 0. -1.
       -1   -1    0    0    0  501  0.00000000000E+00  0.00000000000E+00 -0.71701975303E+03  0.71701975305E+03  0.50400001928E-02 0.  1.
    10030    2    1    2    0    0  0.00000000000E+00  0.00000000000E+00  0.54504993054E+03  0.19790894366E+04  0.19025550114E+04 0.  0.
        2    1    3    3  502    0  0.52759874174E+03  0.34081349377E+03  0.10156976722E+04  0.11942177487E+04  0.25500000920E-02 0.  1.
       -2    1    3    3    0  502 -0.52759874174E+03 -0.34081349377E+03 -0.47064774170E+03  0.78487168798E+03  0.25500000920E-02 0. -1.
</event>
<event>
 5   0  0.1182630E-04  0.1928087E+04  0.7818609E-02  0.8641001E-01
        2   -1    0    0  501    0  0.00000000000E+00  0.00000000000E+00  0.11357461079E+04  0.11357461079E+04  0.25500000920E-02 0.  1.
       -2   -1    0    0    0  501  0.00000000000E+00  0.00000000000E+00 -0.81829914481E+03  0.81829914482E+03  0.25500000920E-02 0. -1.
    10030    2    1    2    0    0  0.00000000000E+00  0.00000000000E+00  0.31744696311E+03  0.19540452527E+04  0.19280872064E+04 0.  0.
        5    1    3    3  502    0 -0.63782831435E+03 -0.72019918865E+03  0.95871207905E+02  0.96681187851E+03  0.46999998093E+01 0. -1.
       -5    1    3    3    0  502  0.63782831435E+03  0.72019918865E+03  0.22157575521E+03  0.98723337424E+03  0.46999998093E+01 0.  1.
</event>
<event>
 5   0  0.1118206E-04  0.1866322E+04  0.7818609E-02  0.8671804E-01
       -2   -1    0    0    0  501  0.00000000000E+00  0.00000000000E+00  0.31182837376E+03  0.31182837377E+03  0.25500000920E-02 0. -1.
        2   -1    0    0  501    0  0.00000000000E+00  0.00000000000E+00 -0.27925288982E+04  0.27925288983E+04  0.25500000920E-02 0.  1.
    10030    2    1    2    0    0  0.00000000000E+00  0.00000000000E+00 -0.24807005245E+04  0.31043572720E+04  0.18663223141E+04 0.  0.
        1    1    3    3  502    0  0.60633978975E+03 -0.68697998472E+03 -0.15341588381E+04  0.17869618856E+04  0.50400001928E-02 0.  1.
       -1    1    3    3    0  502 -0.60633978975E+03  0.68697998472E+03 -0.94654168636E+03  0.13173953864E+04  0.50400001928E-02 0. -1.
</event>
<event>
 5   0  0.5614989E-05  0.1901650E+04  0.7818609E-02  0.8654035E-01
       -1   -1    0    0    0  501  0.00000000000E+00  0.00000000000E+00  0.70584798709E+03  0.70584798711E+03  0.50400001928E-02 0. -1.
        1   -1    0    0  501    0  0.00000000000E+00  0.00000000000E+00 -0.12808259956E+04  0.12808259956E+04  0.50400001928E-02 0.  1.
    10030    2    1    2    0    0  0.00000000000E+00  0.00000000000E+00 -0.57497800847E+03  0.19866739827E+04  0.19016502842E+04 0.  0.
        4    1    3    3  502    0 -0.10573038921E+02  0.45154230919E+03 -0.11615968287E+04  0.12463190007E+04  0.12699999809E+01 0.  1.
       -4    1    3    3    0  502  0.10573038921E+02 -0.45154230919E+03  0.58661882026E+03  0.74035498197E+03  0.12699999809E+01 0. -1.
</event>
<event>
 5   0  0.4061125E-05  0.1895154E+04  0.7818609E-02  0.8657272E-01
        3   -1    0    0  501    0  0.00000000000E+00  0.00000000000E+00  0.59083287140E+03  0.59083288004E+03  0.10100000352E+00 0. -1.
       -3   -1    0    0    0  501  0.00000000000E+00  0.00000000000E+00 -0.15197230951E+04  0.15197230984E+04  0.10100000352E+00 0.  1.
    10030    2    1    2    0    0  0.00000000000E+00  0.00000000000E+00 -0.92889022367E+03  0.21105559785E+04  0.18951542129E+04 0.  0.
        1    1    3    3  502    0  0.37602865078E+03  0.64116920003E+03  0.19006719082E+03  0.76721641427E+03  0.50400001928E-02 0. -1.
       -1    1    3    3    0  502 -0.37602865078E+03 -0.64116920003E+03 -0.11189574145E+04  0.13433395642E+04  0.50400001928E-02 0.  1.
</event>
<event>
 5   0  0.5628936E-05  0.1751662E+04  0.7818609E-02  0.8732436E-01
        1   -1    0    0  501    0  0.00000000000E+00  0.00000000000E+00  0.84626804783E+03  0.84626804785E+03  0.50400001928E-02 0. -1.
       -1   -1    0    0    0  501  0.00000000000E+00  0.00000000000E+00 -0.90642641679E+03  0.90642641680E+03  0.50400001928E-02 0.  1.
    10030    2    1    2    0    0  0.00000000000E+00  0.00000000000E+00 -0.60158368955E+02  0.17526944646E+04  0.17516617416E+04 0.  0.
        5    1    3    3  502    0 -0.11183608092E+03  0.35556613688E+03 -0.82308857780E+03  0.90356598187E+03  0.46999998093E+01 0.  1.
       -5    1    3    3    0  502  0.11183608092E+03 -0.35556613688E+03  0.76293020885E+03  0.84912848278E+03  0.46999998093E+01 0. -1.
</event>
<event>
 5   0  0.5579109E-05  0.1894002E+04  0.7818609E-02  0.8657848E-01
       -1   -1    0    0    0  501  0.00000000000E+00  0.00000000000E+00  0.48270262581E+03  0.48270262584E+03  0.50400001928E-02 0. -1.
        1   -1    0    0  501    0  0.00000000000E+00  0.00000000000E+00 -0.18578945017E+04  0.18578945017E+04  0.50400001928E-02 0.  1.
    10030    2    1    2    0    0  0.00000000000E+00  0.00000000000E+00 -0.13751918759E+04  0.23405971276E+04  0.18940016415E+04 0.  0.
        3    1    3    3  502    0 -0.12839228224E+03 -0.69980183762E+03  0.84754328741E+02  0.71651273298E+03  0.10100000352E+00 0. -1.
       -3    1    3    3    0  502  0.12839228224E+03  0.69980183762E+03 -0.14599462047E+04  0.16240843946E+04  0.10100000352E+00 0.  1.
</event>
<event>
 5   0  0.5628936E-05  0.1904398E+04  0.7818609E-02  0.8652670E-01
        1   -1    0    0  501    0  0.00000000000E+00  0.00000000000E+00  0.13941196860E+04  0.13941196860E+04  0.50400001928E-02 0.  1.
       -1   -1    0    0    0  501  0.00000000000E+00  0.00000000000E+00 -0.65036259722E+03  0.65036259723E+03  0.50400001928E-02 0. -1.
    10030    2    1    2    0    0  0.00000000000E+00  0.00000000000E+00  0.74375708878E+03  0.20444822832E+04  0.19043983825E+04 0.  0.
        5    1    3    3  502    0 -0.39204458638E+03  0.72889617876E+03 -0.13357537390E+03  0.83836332675E+03  0.46999998093E+01 0. -1.
       -5    1    3    3    0  502  0.39204458638E+03 -0.72889617876E+03  0.87733246269E+03  0.12061189565E+04  0.46999998093E+01 0.  1.
</event>
<event>
 5   0  0.5614989E-05  0.1896271E+04  0.7818609E-02  0.8656715E-01
       -1   -1    0    0    0  501  0.00000000000E+00  0.00000000000E+00  0.11716112033E+04  0.11716112033E+04  0.50400001928E-02 0.  1.
        1   -1    0    0  501    0  0.00000000000E+00  0.00000000000E+00 -0.76728594953E+03  0.76728594955E+03  0.50400001928E-02 0. -1.
    10030    2    1    2    0    0  0.00000000000E+00  0.00000000000E+00  0.40432525381E+03  0.19388971529E+04  0.18962708822E+04 0.  0.
        4    1    3    3  502    0 -0.88937784987E+03 -0.30263501315E+03  0.71308120197E+02  0.94216101168E+03  0.12699999809E+01 0.  1.
       -4    1    3    3    0  502  0.88937784987E+03  0.30263501315E+03  0.33301713361E+03  0.99673614121E+03  0.12699999809E+01 0. -1.
</event>
<event>
 5   0  0.5628936E-05  0.1889939E+04  0.7818609E-02  0.8659880E-01
       -1   -1    0    0    0  501  0.00000000000E+00  0.00000000000E+00  0.63581022161E+03  0.63581022163E+03  0.50400001928E-02 0. -1.
        1   -1    0    0  501    0  0.00000000000E+00  0.00000000000E+00 -0.14044562876E+04  0.14044562876E+04  0.50400001928E-02 0.  1.
    10030    2    1    2    0    0  0.00000000000E+00  0.00000000000E+00 -0.76864606601E+03  0.20402665093E+04  0.18899393255E+04 0.  0.
        5    1    3    3  502    0  0.87116601888E+03  0.29227533469E+03 -0.62228885621E+03  0.11097840395E+04  0.46999998093E+01 0.  1.
       -5    1    3    3    0  502 -0.87116601888E+03 -0.29227533469E+03 -0.14635720980E+03  0.93048246978E+03  0.46999998093E+01 0. -1.
</event>
<event>
 5   0  0.1101678E-04  0.1905227E+04  0.7818609E-02  0.8652259E-01
        2   -1    0    0  501    0  0.00000000000E+00  0.00000000000E+00  0.15802604003E+04  0.15802604003E+04  0.25500000920E-02 0. -1.
       -2   -1    0    0    0  501  0.00000000000E+00  0.00000000000E+00 -0.57425522724E+03  0.57425522725E+03  0.25500000920E-02 0.  1.
    10030    2    1    2    0    0  0.00000000000E+00  0.00000000000E+00  0.10060051730E+04  0.21545156275E+04  0.19052273305E+04 0.  0.
        4    1    3    3  502    0  0.84338363049E+02  0.89194389882E+03  0.86907894691E+03  0.12481893714E+04  0.12699999809E+01 0.  1.
       -4    1    3    3    0  502 -0.84338363049E+02 -0.89194389882E+03  0.13692622610E+03  0.90632625606E+03  0.12699999809E+01 0. -1.
</event>
<event>
 5   0  0.5628936E-05  0.1908259E+04  0.7818609E-02  0.8650756E-01
        1   -1    0    0  501    0  0.00000000000E+00  0.00000000000E+00  0.12550823781E+04  0.12550823781E+04  0.50400001928E-02 0.  1.
       -1   -1    0    0    0  501  0.00000000000E+00  0.00000000000E+00 -0.72534119031E+03  0.72534119033E+03  0.50400001928E-02 0. -1.
    10030    2    1    2    0    0  0.00000000000E+00  0.00000000000E+00  0.52974118775E+03  0.19804235684E+04  0.19082588358E+04 0.  0.
        5    1    3    3  502    0 -0.10170919904E+03 -0.56678607900E+03  0.10543961085E+04  0.12014010422E+04  0.46999998093E+01 0.  1.
       -5    1    3    3    0  502  0.10170919904E+03  0.56678607900E+03 -0.52465492075E+03  0.77902252623E+03  0.46999998093E+01 0. -1.
</event>
<event>
 5   0  0.1133638E-04  0.1902690E+04  0.7818609E-02  0.8653519E-01
        2   -1    0    0  501    0  0.00000000000E+00  0.00000000000E+00  0.26041193201E+04  0.26041193201E+04  0.25500000920E-02 0.  1.
       -2   -1    0    0    0  501  0.00000000000E+00  0.00000000000E+00 -0.34754835585E+03  0.34754835586E+03  0.25500000920E-02 0. -1.
    10030    2    1    2    0    0  0.00000000000E+00  0.00000000000E+00  0.22565709643E+04  0.29516676760E+04  0.19026900832E+04 0.  0.
        3    1    3    3  502    0  0.71704195997E+03  0.54426417103E+03  0.65093281979E+03  0.11108943272E+04  0.10100000352E+00 0.  1.
       -3    1    3    3    0  502 -0.71704195997E+03 -0.54426417103E+03  0.16056381445E+04  0.18407733488E+04  0.10100000352E+00 0. -1.
</event>
<event>
 5   0  0.1133638E-04  0.1842628E+04  0.7818609E-02  0.8683953E-01
       -2   -1    0    0    0  501  0.00000000000E+00  0.00000000000E+00  0.53702802969E+03  0.53702802970E+03  0.25500000920E-02 0.  1.
        2   -1    0    0  501    0  0.00000000000E+00  0.00000000000E+00 -0.15805870221E+04  0.15805870221E+04  0.25500000920E-02 0. -1.
    10030    2    1    2    0    0  0.00000000000E+00  0.00000000000E+00 -0.10435589924E+04  0.21176150518E+04  0.18426280517E+04 0.  0.
        3    1    3    3  502    0 -0.63084956111E+03  0.49769115414E+03 -0.37914358778E+01  0.80354342686E+03  0.10100000352E+00 0.  1.
       -3    1    3    3    0  502  0.63084956111E+03 -0.49769115414E+03 -0.10397675565E+04  0.13140716249E+04  0.10100000352E+00 0. -1.
</event>
<event>
 5   0  0.5824956E-05  0.1899999E+04  0.7818609E-02  0.8654857E-01
        1   -1    0    0  501    0  0.00000000000E+00  0.00000000000E+00  0.77418352840E+03  0.77418352842E+03  0.50400001928E-02 0.  1.
       -1   -1    0    0    0  501  0.00000000000E+00  0.00000000000E+00 -0.11657432346E+04  0.11657432346E+04  0.50400001928E-02 0. -1.
    10030    2    1    2    0    0  0.00000000000E+00  0.00000000000E+00 -0.39155970616E+03  0.19399267630E+04  0.18999991690E+04 0.  0.
        2    1    3    3  502    0 -0.54743663467E+02 -0.89812338063E+03 -0.50694102144E+03  0.10327689358E+04  0.25500000920E-02 0. -1.
       -2    1    3    3    0  502  0.54743663467E+02  0.89812338063E+03  0.11538131528E+03  0.90715782719E+03  0.25500000920E-02 0.  1.
</event>
<event>
 5   0  0.1182630E-04  0.1899188E+04  0.7818609E-02  0.8655261E-01
        2   -1    0    0  501    0  0.00000000000E+00  0.00000000000E+00  0.10495135928E+04  0.10495135928E+04  0.25500000920E-02 0.  1.
       -2   -1    0    0    0  501  0.00000000000E+00  0.00000000000E+00 -0.85918717543E+03  0.85918717544E+03  0.25500000920E-02 0. -1.
    10030    2    1    2    0    0  0.00000000000E+00  0.00000000000E+00  0.19032641733E+03  0.19087007682E+04  0.18991878468E+04 0.  0.
        5    1    3    3  502    0  0.47030462990E+03 -0.61884744649E+03  0.64337501828E+03  0.10090154167E+04  0.46999998093E+01 0.  1.
       -5    1    3    3    0  502 -0.47030462990E+03  0.61884744649E+03 -0.45304860095E+03  0.89968535153E+03  0.46999998093E+01 0. -1.
</event>
<event>
 5   0  0.5628936E-05  0.1899086E+04  0.7818609E-02  0.8655311E-01
       -1   -1    0    0    0  501  0.00000000000E+00  0.00000000000E+00  0.11233647888E+04  0.11233647888E+04  0.50400001928E-02 0. -1.
        1   -1    0    0  501    0  0.00000000000E+00  0.00000000000E+00 -0.80261718671E+03  0.80261718673E+03  0.50400001928E-02 0.  1.
    10030    2    1    2    0    0  0.00000000000E+00  0.00000000000E+00  0.32074760210E+03  0.19259819755E+04  0.18990859764E+04 0.  0.
        5    1    3    3  502    0  0.90079180474E+03  0.17266250644E+03  0.40955992921E+03  0.10044897422E+04  0.46999998093E+01 0. -1.
       -5    1    3    3    0  502 -0.90079180474E+03 -0.17266250644E+03 -0.88812327113E+02  0.92149223332E+03  0.46999998093E+01 0.  1.
</event>
<event>
 5   0  0.5824956E-05  0.1992216E+04  0.7818609E-02  0.8610268E-01
       -1   -1    0    0    0  501  0.00000000000E+00  0.00000000000E+00  0.15468934136E+04  0.15468934136E+04  0.50400001928E-02 0.  1.
        1   -1    0    0  501    0  0.00000000000E+00  0.00000000000E+00 -0.64143498869E+03  0.64143498871E+03  0.50400001928E-02 0. -1.
    10030    2    1    2    0    0  0.00000000000E+00  0.00000000000E+00  0.90545842489E+03  0.21883284023E+04  0.19922164132E+04 0.  0.
        2    1    3    3  502    0  0.36248475774E+03  0.81405950955E+03 -0.36222386303E+02  0.89185208749E+03  0.25500000920E-02 0. -1.
       -2    1    3    3    0  502 -0.36248475774E+03 -0.81405950955E+03  0.94168081119E+03  0.12964763148E+04  0.25500000920E-02 0.  1.
</event>
<event>
 5   0  0.1182630E-04  0.1906746E+04  0.7818609E-02  0.8651506E-01
       -2   -1    0    0    0  501  0.00000000000E+00  0.00000000000E+00  0.10008741934E+04  0.10008741934E+04  0.25500000920E-02 0.  1.
        2   -1    0    0  501    0  0.00000000000E+00  0.00000000000E+00 -0.90812658816E+03  0.90812658817E+03  0.25500000920E-02 0. -1.
    10030    2    1    2    0    0  0.00000000000E+00  0.00000000000E+00  0.92747605264E+02  0.19090007816E+04  0.19067464084E+04 0.  0.
        5    1    3    3  502    0  0.92869220597E+03 -0.20244365534E+03  0.12025623756E+03  0.95808992255E+03  0.46999998093E+01 0. -1.
       -5    1    3    3    0  502 -0.92869220597E+03  0.20244365534E+03 -0.27508632297E+02  0.95091085905E+03  0.46999998093E+01 0.  1.
</event>
<event>
 5   0  0.1118206E-04  0.1886940E+04  0.7818609E-02  0.8661384E-01
        2   -1    0    0  501    0  0.00000000000E+00  0.00000000000E+00  0.75658715653E+03  0.75658715653E+03  0.25500000920E-02 0.  1.
       -2   -1    0    0    0  501  0.00000000000E+00  0.00000000000E+00 -0.11765147232E+04  0.11765147232E+04  0.25500000920E-02 0. -1.
    10030    2    1    2    0    0  0.00000000000E+00  0.00000000000E+00 -0.41992756669E+03  0.19331018798E+04  0.18869403054E+04 0.  0.
        1    1    3    3  502    0  0.29422690296E+03  0.76999711835E+02 -0.11249180034E+04  0.11653063719E+04  0.50400001928E-02 0. -1.
       -1    1    3    3    0  502 -0.29422690296E+03 -0.76999711835E+02  0.70499043668E+03  0.76779550786E+03  0.50400001928E-02 0.  1.
</event>
<event>
 5   0  0.5824956E-05  0.1896024E+04  0.7818609E-02  0.8656838E-01
        1   -1    0    0  501    0  0.00000000000E+00  0.00000000000E+00  0.16476753622E+04  0.16476753622E+04  0.50400001928E-02 0. -1.
       -1   -1    0    0    0  501  0.00000000000E+00  0.00000000000E+00 -0.54545119499E+03  0.54545119501E+03  0.50400001928E-02 0.  1.
    10030    2    1    2    0    0  0.00000000000E+00  0.00000000000E+00  0.11022241673E+04  0.21931265573E+04  0.18960237291E+04 0.  0.
        2    1    3    3  502    0  0.78750074970E+03 -0.11714765192E+03 -0.44160962664E+02  0.79739023932E+03  0.25500000920E-02 0.  1.
       -2    1    3    3    0  502 -0.78750074970E+03  0.11714765192E+03  0.11463851299E+04  0.13957363179E+04  0.25500000920E-02 0. -1.
</event>
<event>
 5   0  0.1118206E-04  0.1903586E+04  0.7818609E-02  0.8653073E-01
       -2   -1    0    0    0  501  0.00000000000E+00  0.00000000000E+00  0.53807757264E+03  0.53807757265E+03  0.25500000920E-02 0.  1.
        2   -1    0    0  501    0  0.00000000000E+00  0.00000000000E+00 -0.16836050345E+04  0.16836050345E+04  0.25500000920E-02 0. -1.
    10030    2    1    2    0    0  0.00000000000E+00  0.00000000000E+00 -0.11455274619E+04  0.22216826072E+04  0.19035862053E+04 0.  0.
        1    1    3    3  502    0  0.48638553845E+03 -0.25535035718E+02 -0.15271429289E+04  0.16029312074E+04  0.50400001928E-02 0. -1.
       -1    1    3    3    0  502 -0.48638553845E+03  0.25535035718E+02  0.38161546706E+03  0.61875139983E+03  0.50400001928E-02 0.  1.
</event>
<event>
 5   0  0.5614989E-05  0.1881242E+04  0.7818609E-02  0.8664250E-01
       -1   -1    0    0    0  501  0.00000000000E+00  0.00000000000E+00  0.68455607406E+03  0.68455607408E+03  0.50400001928E-02 0. -1.
        1   -1    0    0  501    0  0.00000000000E+00  0.00000000000E+00 -0.12924691188E+04  0.12924691188E+04  0.50400001928E-02 0.  1.
    10030    2    1    2    0    0  0.00000000000E+00  0.00000000000E+00 -0.60791304473E+03  0.19770251929E+04  0.18812417025E+04 0.  0.
        4    1    3    3  502    0  0.79896345823E+03 -0.25105628917E+02 -0.82497416009E+03  0.11487196690E+04  0.12699999809E+01 0.  1.
       -4    1    3    3    0  502 -0.79896345823E+03  0.25105628917E+02  0.21706111537E+03  0.82830552389E+03  0.12699999809E+01 0. -1.
</event>
<event>
 5   0  0.1133638E-04  0.1834523E+04  0.7818609E-02  0.8688153E-01
       -2   -1    0    0    0  501  0.00000000000E+00  0.00000000000E+00  0.70405877019E+03  0.70405877019E+03  0.25500000920E-02 0. -1.
        2   -1    0    0  501    0  0.00000000000E+00  0.00000000000E+00 -0.11950267238E+04  0.11950267238E+04  0.25500000920E-02 0.  1.
    10030    2    1    2    0    0  0.00000000000E+00  0.00000000000E+00 -0.49096795358E+03  0.18990854940E+04  0.18345234209E+04 0.  0.
        3    1    3    3  502    0 -0.24997710939E+03 -0.21394426226E+03 -0.11318341496E+04  0.11786896347E+04  0.10100000352E+00 0.  1.
       -3    1    3    3    0  502  0.24997710939E+03  0.21394426226E+03  0.64086619604E+03  0.72039585923E+03  0.10100000352E+00 0. -1.
</event>
<event>
 5   0  0.5614989E-05  0.1897481E+04  0.7818609E-02  0.8656111E-01
        1   -1    0    0  501    0  0.00000000000E+00  0.00000000000E+00  0.93224400364E+03  0.93224400366E+03  0.50400001928E-02 0.  1.
       -1   -1    0    0    0  501  0.00000000000E+00  0.00000000000E+00 -0.96552852363E+03  0.96552852364E+03  0.50400001928E-02 0. -1.
    10030    2    1    2    0    0  0.00000000000E+00  0.00000000000E+00 -0.33284519983E+02  0.18977725273E+04  0.18974806207E+04 0.  0.
        4    1    3    3  502    0 -0.19643470781E+03  0.77365588216E+03  0.49624901846E+03  0.93989080199E+03  0.12699999809E+01 0.  1.
       -4    1    3    3    0  502  0.19643470781E+03 -0.77365588216E+03 -0.52953353845E+03  0.95788172531E+03  0.12699999809E+01 0. -1.
</event>
<event>
 5   0  0.1133638E-04  0.1893987E+04  0.7818609E-02  0.8657855E-01
        2   -1    0    0  501    0  0.00000000000E+00  0.00000000000E+00  0.17620139607E+04  0.17620139607E+04  0.25500000920E-02 0. -1.
       -2   -1    0    0    0  501  0.00000000000E+00  0.00000000000E+00 -0.50896094648E+03  0.50896094649E+03  0.25500000920E-02 0.  1.
    10030    2    1    2    0    0  0.00000000000E+00  0.00000000000E+00  0.12530530142E+04  0.22709749072E+04  0.18939865819E+04 0.  0.
        3    1    3    3  502    0 -0.41891693635E+03 -0.63067848991E+03 -0.55507173006E+02  0.75916257393E+03  0.10100000352E+00 0.  1.
       -3    1    3    3    0  502  0.41891693635E+03  0.63067848991E+03  0.13085601872E+04  0.15118123332E+04  0.10100000352E+00 0. -1.
</event>
<event>
 5   0  0.1101678E-04  0.1893542E+04  0.7818609E-02  0.8658078E-01
       -2   -1    0    0    0  501  0.00000000000E+00  0.00000000000E+00  0.12365250631E+04  0.12365250631E+04  0.25500000920E-02 0. -1.
        2   -1    0    0  501    0  0.00000000000E+00  0.00000000000E+00 -0.72491492788E+03  0.72491492788E+03  0.25500000920E-02 0.  1.
    10030    2    1    2    0    0  0.00000000000E+00  0.00000000000E+00  0.51161013525E+03  0.19614399910E+04  0.18935421590E+04 0.  0.
        4    1    3    3  502    0 -0.50882963842E+03 -0.73437441694E+02 -0.56773310967E+03  0.76591328197E+03  0.12699999809E+01 0.  1.
       -4    1    3    3    0  502  0.50882963842E+03  0.73437441694E+02  0.10793432449E+04  0.11955267090E+04  0.12699999809E+01 0. -1.
</event>
<event>
 5   0  0.1141890E-04  0.1859602E+04  0.7818609E-02  0.8675231E-01
        2   -1    0    0  501    0  0.00000000000E+00  0.00000000000E+00  0.26581879548E+03  0.26581879549E+03  0.25500000920E-02 0.  1.
       -2   -1    0    0    0  501  0.00000000000E+00  0.00000000000E+00 -0.32523270992E+04  0.32523270992E+04  0.25500000920E-02 0. -1.
    10030    2    1    2    0    0  0.00000000000E+00  0.00000000000E+00 -0.29865083038E+04  0.35181458947E+04  0.18596017553E+04 0.  0.
        2    1    3    3  502    0 -0.51675445519E+03 -0.59621295321E+03 -0.56252424131E+03  0.96898842852E+03  0.25500000920E-02 0.  1.
       -2    1    3    3    0  502  0.51675445519E+03  0.59621295321E+03 -0.24239840624E+04  0.25491574662E+04  0.25500000920E-02 0. -1.
</event>
<event>
 5   0  0.1141890E-04  0.1900633E+04  0.7818609E-02  0.8654542E-01
        2   -1    0    0  501    0  0.00000000000E+00  0.00000000000E+00  0.21147697551E+04  0.21147697551E+04  0.25500000920E-02 0. -1.
       -2   -1    0    0    0  501  0.00000000000E+00  0.00000000000E+00 -0.42704460447E+03  0.42704460448E+03  0.25500000920E-02 0.  1.
    10030    2    1    2    0    0  0.00000000000E+00  0.00000000000E+00  0.16877251506E+04  0.25418143596E+04  0.19006325406E+04 0.  0.
        2    1    3    3  502    0 -0.46200739538E+03  0.11433400659E+03  0.19438926960E+04  0.20013100490E+04  0.25500000920E-02 0. -1.
       -2    1    3    3    0  502  0.46200739538E+03 -0.11433400659E+03 -0.25616754540E+03  0.54050431060E+03  0.25500000920E-02 0.  1.
</event>
<event>
 5   0  0.5614989E-05  0.1904892E+04  0.7818609E-02  0.8652425E-01
        1   -1    0    0  501    0  0.00000000000E+00  0.00000000000E+00  0.82407587479E+03  0.82407587480E+03  0.50400001928E-02 0. -1.
       -1   -1    0    0    0  501  0.00000000000E+00  0.00000000000E+00 -0.11008130977E+04  0.11008130977E+04  0.50400001928E-02 0.  1.
    10030    2    1    2    0    0  0.00000000000E+00  0.00000000000E+00 -0.27673722287E+03  0.19248889725E+04  0.19048921402E+04 0.  0.
        4    1    3    3  502    0  0.39593049646E+03 -0.89080687232E+02  0.73233537220E+03  0.83726521314E+03  0.12699999809E+01 0. -1.
       -4    1    3    3    0  502 -0.39593049646E+03  0.89080687232E+02 -0.10090725951E+04  0.10876237593E+04  0.12699999809E+01 0.  1.
</event>
<event>
 5   0  0.1141890E-04  0.1892845E+04  0.7818609E-02  0.8658426E-01
        2   -1    0    0  501    0  0.00000000000E+00  0.00000000000E+00  0.10147421693E+04  0.10147421693E+04  0.25500000920E-02 0.  1.
       -2   -1    0    0    0  501  0.00000000000E+00  0.00000000000E+00 -0.88270227611E+03  0.88270227611E+03  0.25500000920E-02 0. -1.
    10030    2    1    2    0    0  0.00000000000E+00  0.00000000000E+00  0.13203989316E+03  0.18974444454E+04  0.18928446555E+04 0.  0.
        2    1    3    3  502    0  0.23921396904E+03  0.53718785949E+03  0.80938867756E+03  0.10004519732E+04  0.25500000920E-02 0.  1.
       -2    1    3    3    0  502 -0.23921396904E+03 -0.53718785949E+03 -0.67734878440E+03  0.89699247216E+03  0.25500000920E-02 0. -1.
</event>
<event>
 5   0  0.1182630E-04  0.1903294E+04  0.7818609E-02  0.8653219E-01
        2   -1    0    0  501    0  0.00000000000E+00  0.00000000000E+00  0.42521128203E+03  0.42521128204E+03  0.25500000920E-02 0.  1.
       -2   -1    0    0    0  501  0.00000000000E+00  0.00000000000E+00 -0.21298399142E+04  0.21298399142E+04  0.25500000920E-02 0. -1.
    10030    2    1    2    0    0  0.00000000000E+00  0.00000000000E+00 -0.17046286322E+04  0.25550511963E+04  0.19032939452E+04 0.  0.
        5    1    3    3  502    0 -0.14605395910E+03  0.43215007778E+03  0.26886079805E+03  0.52952211231E+03  0.46999998093E+01 0.  1.
       -5    1    3    3    0  502  0.14605395910E+03 -0.43215007778E+03 -0.19734894303E+04  0.20255290840E+04  0.46999998093E+01 0. -1.
</event>
<event>
 5   0  0.1182630E-04  0.1837618E+04  0.7818609E-02  0.8686547E-01
       -2   -1    0    0    0  501  0.00000000000E+00  0.00000000000E+00  0.32302111094E+03  0.32302111095E+03  0.25500000920E-02 0. -1.
        2   -1    0    0  501    0  0.00000000000E+00  0.00000000000E+00 -0.26134823988E+04  0.26134823988E+04  0.25500000920E-02 0.  1.
    10030    2    1    2    0    0  0.00000000000E+00  0.00000000000E+00 -0.22904612879E+04  0.29365035098E+04  0.18376180103E+04 0.  0.
        5    1    3    3  502    0 -0.24223469129E+03 -0.23070361358E+00  0.27105613075E+03  0.36355359289E+03  0.46999998093E+01 0. -1.
       -5    1    3    3    0  502  0.24223469129E+03  0.23070361358E+00 -0.25615174186E+04  0.25729499169E+04  0.46999998093E+01 0.  1.
</event>
<event>
 5   0  0.1133638E-04  0.1971409E+04  0.7818609E-02  0.8620106E-01
        2   -1    0    0  501    0  0.00000000000E+00  0.00000000000E+00  0.14741199923E+04  0.14741199923E+04  0.25500000920E-02 0. -1.
       -2   -1    0    0    0  501  0.00000000000E+00  0.00000000000E+00 -0.65911385629E+03  0.65911385629E+03  0.25500000920E-02 0.  1.
    10030    2    1    2    0    0  0.00000000000E+00  0.00000000000E+00  0.81500613598E+03  0.21332338486E+04  0.19714085449E+04 0.  0.
        3    1    3    3  502    0  0.82732379125E+03  0.53152104261E+03  0.33384464372E+03  0.10384755802E+04  0.10100000352E+00 0.  1.
       -3    1    3    3    0  502 -0.82732379125E+03 -0.53152104261E+03  0.48116149226E+03  0.10947582684E+04  0.10100000352E+00 0. -1.
</event>
<event>
 5   0  0.5628936E-05  0.1903386E+04  0.7818609E-02  0.8653173E-01
       -1   -1    0    0    0  501  0.00000000000E+00  0.00000000000E+00  0.34401105022E+03  0.34401105025E+03  0.50400001928E-02 0.  1.
        1   -1    0    0  501    0  0.00000000000E+00  0.00000000000E+00 -0.26328218765E+04  0.26328218765E+04  0.50400001928E-02 0. -1.
    10030    2    1    2    0    0  0.00000000000E+00  0.00000000000E+00 -0.22888108262E+04  0.29768329267E+04  0.19033862654E+04 0.  0.
        5    1    3    3  502    0 -0.65818997269E+03  0.25353264843E+03 -0.14517273522E+03  0.72013197195E+03  0.46999998093E+01 0.  1.
       -5    1    3    3    0  502  0.65818997269E+03 -0.25353264843E+03 -0.21436380910E+04  0.22567009548E+04  0.46999998093E+01 0. -1.
</event>
<event>
 5   0  0.5841424E-05  0.1890954E+04  0.7818609E-02  0.8659372E-01
       -1   -1    0    0    0  501  0.00000000000E+00  0.00000000000E+00  0.65831985948E+03  0.65831985950E+03  0.50400001928E-02 0.  1.
        1   -1    0    0  501    0  0.00000000000E+00  0.00000000000E+00 -0.13578916376E+04  0.13578916376E+04  0.50400001928E-02 0. -1.
    10030    2    1    2    0    0  0.00000000000E+00  0.00000000000E+00 -0.69957177809E+03  0.20162114971E+04  0.18909542904E+04 0.  0.
        1    1    3    3  502    0  0.31226450010E+03  0.70546285002E+03 -0.93256208385E+03  0.12103135920E+04  0.50400001928E-02 0. -1.
       -1    1    3    3    0  502 -0.31226450010E+03 -0.70546285002E+03  0.23299030576E+03  0.80589790506E+03  0.50400001928E-02 0.  1.
</event>
<event>
 5   0  0.1133638E-04  0.1855772E+04  0.7818609E-02  0.8677190E-01
       -2   -1    0    0    0  501  0.00000000000E+00  0.00000000000E+00  0.73381519032E+03  0.73381519033E+03  0.25500000920E-02 0.  1.
        2   -1    0    0  501    0  0.00000000000E+00  0.00000000000E+00 -0.11732824932E+04  0.11732824932E+04  0.25500000920E-02 0. -1.
    10030    2    1    2    0    0  0.00000000000E+00  0.00000000000E+00 -0.43946730286E+03  0.19070976835E+04  0.18557720938E+04 0.  0.
        3    1    3    3  502    0 -0.50330557696E+03 -0.19518879932E+03 -0.99529654697E+03  0.11322678119E+04  0.10100000352E+00 0. -1.
       -3    1    3    3    0  502  0.50330557696E+03  0.19518879932E+03  0.55582924411E+03  0.77482987164E+03  0.10100000352E+00 0.  1.
</event>
<event>
 5   0  0.5824956E-05  0.1860318E+04  0.7818609E-02  0.8674865E-01
        1   -1    0    0  501    0  0.00000000000E+00  0.00000000000E+00  0.83392151387E+03  0.83392151389E+03  0.50400001928E-02 0. -1.
       -1   -1    0    0    0  501  0.00000000000E+00  0.00000000000E+00 -0.10375025730E+04  0.10375025730E+04  0.50400001928E-02 0.  1.
    10030    2    1    2    0    0  0.00000000000E+00  0.00000000000E+00 -0.20358105914E+03  0.18714240869E+04  0.18603179474E+04 0.  0.
        2    1    3    3  502    0  0.21564493000E+03 -0.15147460799E+03  0.79558233419E+03  0.83809220446E+03  0.25500000920E-02 0. -1.
       -2    1    3    3    0  502 -0.21564493000E+03  0.15147460799E+03 -0.99916339333E+03  0.10333318825E+04  0.25500000920E-02 0.  1.
</event>
<event>
 5   0  0.1101678E-04  0.1893828E+04  0.7818609E-02  0.8657935E-01
       -2   -1    0    0    0  501  0.00000000000E+00  0.00000000000E+00  0.70410258696E+03  0.70410258696E+03  0.25500000920E-02 0. -1.
        2   -1    0    0  501    0  0.00000000000E+00  0.00000000000E+00 -0.12734595859E+04  0.12734595859E+04  0.25500000920E-02 0.  1.
    10030    2    1    2    0    0  0.00000000000E+00  0.00000000000E+00 -0.56935699893E+03  0.19775621729E+04  0.18938280691E+04 0.  0.
        4    1    3    3  502    0  0.57336953836E+03 -0.65427045966E+03 -0.67513937986E+03  0.11011981007E+04  0.12699999809E+01 0.  1.
       -4    1    3    3    0  502 -0.57336953836E+03  0.65427045966E+03  0.10578238093E+03  0.87636407213E+03  0.12699999809E+01 0. -1.
</event>
<event>
 5   0  0.5614989E-05  0.1896419E+04  0.7818609E-02  0.8656641E-01
       -1   -1    0    0    0  501  0.00000000000E+00  0.00000000000E+00  0.76537428463E+03  0.76537428464E+03  0.50400001928E-02 0. -1.
        1   -1    0    0  501    0  0.00000000000E+00  0.00000000000E+00 -0.11747214327E+04  0.11747214327E+04  0.50400001928E-02 0.  1.
    10030    2    1    2    0    0  0.00000000000E+00  0.00000000000E+00 -0.40934714809E+03  0.19400957174E+04  0.18964193378E+04 0.  0.
        4    1    3    3  502    0 -0.18863630067E+03 -0.58256161501E+03 -0.94532134303E+03  0.11263195567E+04  0.12699999809E+01 0.  1.
       -4    1    3    3    0  502  0.18863630067E+03  0.58256161501E+03  0.53597419494E+03  0.81377616072E+03  0.12699999809E+01 0. -1.
</event>
<event>
 5   0  0.1101678E-04  0.1901051E+04  0.7818609E-02  0.8654334E-01
        2   -1    0    0  501    0  0.00000000000E+00  0.00000000000E+00  0.89462685856E+03  0.89462685856E+03  0.25500000920E-02 0. -1.
       -2   -1    0    0    0  501  0.00000000000E+00  0.00000000000E+00 -0.10099165360E+04  0.10099165360E+04  0.25500000920E-02 0.  1.
    10030    2    1    2    0    0  0.00000000000E+00  0.00000000000E+00 -0.11528967741E+03  0.19045433945E+04  0.19010507179E+04 0.  0.
        4    1    3    3  502    0 -0.11874789499E+03 -0.90558305592E+03  0.20611649581E+03  0.93630516205E+03  0.12699999809E+01 0. -1.
       -4    1    3    3    0  502  0.11874789499E+03  0.90558305592E+03 -0.32140617322E+03  0.96823823247E+03  0.12699999809E+01 0.  1.
</event>
<event>
 5   0  0.1118206E-04  0.1678765E+04  0.7818609E-02  0.8773569E-01
       -2   -1    0    0    0  501  0.00000000000E+00  0.00000000000E+00  0.88732449991E+03  0.88732449991E+03  0.25500000920E-02 0.  1.
        2   -1    0    0  501    0  0.00000000000E+00  0.00000000000E+00 -0.79403055532E+03  0.79403055533E+03  0.25500000920E-02 0. -1.
    10030    2    1    2    0    0  0.00000000000E+00  0.00000000000E+00  0.93293944587E+02  0.16813550552E+04  0.16787647428E+04 0.  0.
        1    1    3    3  502    0  0.12366707572E+03  0.73853291616E+03 -0.33319849027E+03  0.81960090765E+03  0.50400001928E-02 0. -1.
       -1    1    3    3    0  502 -0.12366707572E+03 -0.73853291616E+03  0.42649243486E+03  0.86175414759E+03  0.50400001928E-02 0.  1.
</event>
<event>
 5   0  0.1141890E-04  0.1900195E+04  0.7818609E-02  0.8654759E-01
        2   -1    0    0  501    0  0.00000000000E+00  0.00000000000E+00  0.13629103004E+04  0.13629103004E+04  0.25500000920E-02 0. -1.
       -2   -1    0    0    0  501  0.00000000000E+00  0.00000000000E+00 -0.66232160119E+03  0.66232160120E+03  0.25500000920E-02 0.  1.
    10030    2    1    2    0    0  0.00000000000E+00  0.00000000000E+00  0.70058869920E+03  0.20252319016E+04  0.19001946558E+04 0.  0.
        2    1    3    3  502    0 -0.65128413552E+03  0.51787175145E+03 -0.13849282271E+03  0.84352974938E+03  0.25500000920E-02 0.  1.
       -2    1    3    3    0  502  0.65128413552E+03 -0.51787175145E+03  0.83908152192E+03  0.11817021522E+04  0.25500000920E-02 0. -1.
</event>
<event>
 5   0  0.5579109E-05  0.1901235E+04  0.7818609E-02  0.8654242E-01
       -1   -1    0    0    0  501  0.00000000000E+00  0.00000000000E+00  0.88324484476E+03  0.88324484477E+03  0.50400001928E-02 0.  1.
        1   -1    0    0  501    0  0.00000000000E+00  0.00000000000E+00 -0.10231295461E+04  0.10231295461E+04  0.50400001928E-02 0. -1.
    10030    2    1    2    0    0  0.00000000000E+00  0.00000000000E+00 -0.13988470135E+03  0.19063743909E+04  0.19012352796E+04 0.  0.
        3    1    3    3  502    0 -0.48078252046E+03  0.31701775625E+03  0.68842324055E+03  0.89754033786E+03  0.10100000352E+00 0.  1.
       -3    1    3    3    0  502  0.48078252046E+03 -0.31701775625E+03 -0.82830794189E+03  0.10088340530E+04  0.10100000352E+00 0. -1.
</event>
<event>
 5   0  0.5841424E-05  0.1902290E+04  0.7818609E-02  0.8653717E-01
       -1   -1    0    0    0  501  0.00000000000E+00  0.00000000000E+00  0.99064420606E+03  0.99064420607E+03  0.50400001928E-02 0. -1.
        1   -1    0    0  501    0  0.00000000000E+00  0.00000000000E+00 -0.91322098943E+03  0.91322098944E+03  0.50400001928E-02 0.  1.
    10030    2    1    2    0    0  0.00000000000E+00  0.00000000000E+00  0.77423216634E+02  0.19038651955E+04  0.19022902849E+04 0.  0.
        1    1    3    3  502    0 -0.45924502686E+03 -0.22051065768E+03  0.84258648376E+03  0.98462324139E+03  0.50400001928E-02 0. -1.
       -1    1    3    3    0  502  0.45924502686E+03  0.22051065768E+03 -0.76516326713E+03  0.91924195412E+03  0.50400001928E-02 0.  1.
</event>
<event>
 5   0  0.5824956E-05  0.1875534E+04  0.7818609E-02  0.8667132E-01
       -1   -1    0    0    0  501  0.00000000000E+00  0.00000000000E+00  0.16621135703E+04  0.16621135703E+04  0.50400001928E-02 0. -1.
        1   -1    0    0  501    0  0.00000000000E+00  0.00000000000E+00 -0.52908937284E+03  0.52908937286E+03  0.50400001928E-02 0.  1.
    10030    2    1    2    0    0  0.00000000000E+00  0.00000000000E+00  0.11330241975E+04  0.21912029432E+04  0.18755336590E+04 0.  0.
        2    1    3    3  502    0 -0.12674480812E+03  0.90099875315E+03  0.83175589044E+03  0.12327533658E+04  0.25500000920E-02 0. -1.
       -2    1    3    3    0  502  0.12674480812E+03 -0.90099875315E+03  0.30126830702E+03  0.95844957738E+03  0.25500000920E-02 0.  1.
</event>
<event>
 5   0  0.1141890E-04  0.1898699E+04  0.7818609E-02  0.8655504E-01
       -2   -1    0    0    0  501  0.00000000000E+00  0.00000000000E+00  0.66764414888E+03  0.66764414889E+03  0.25500000920E-02 0. -1.
        2   -1    0    0  501    0  0.00000000000E+00  0.00000000000E+00 -0.13499177163E+04  0.13499177163E+04  0.25500000920E-02 0.  1.
    10030    2    1    2    0    0  0.00000000000E+00  0.00000000000E+00 -0.68227356746E+03  0.20175618652E+04  0.18986992019E+04 0.  0.
        2    1    3    3  502    0 -0.36103413243E+03  0.63290921497E+03  0.30552009789E+03  0.79010268282E+03  0.25500000920E-02 0. -1.
       -2    1    3    3    0  502  0.36103413243E+03 -0.63290921497E+03 -0.98779366535E+03  0.12274591824E+04  0.25500000920E-02 0.  1.
</event>
<event>
 5   0  0.1182630E-04  0.1906144E+04  0.7818609E-02  0.8651804E-01
        2   -1    0    0  501    0  0.00000000000E+00  0.00000000000E+00  0.79663495507E+03  0.79663495507E+03  0.25500000920E-02 0.  1.
       -2   -1    0    0    0  501  0.00000000000E+00  0.00000000000E+00 -0.11402289471E+04  0.11402289471E+04  0.25500000920E-02 0. -1.
    10030    2    1    2    0    0  0.00000000000E+00  0.00000000000E+00 -0.34359399204E+03  0.19368639022E+04  0.19061439988E+04 0.  0.
        5    1    3    3  502    0 -0.12127285778E+03 -0.76244409139E+03  0.39604386814E+03  0.86769864240E+03  0.46999998093E+01 0.  1.
       -5    1    3    3    0  502  0.12127285778E+03  0.76244409139E+03 -0.73963786018E+03  0.10691652598E+04  0.46999998093E+01 0. -1.
</event>
<event>
 5   0  0.5841424E-05  0.1875619E+04  0.7818609E-02  0.8667088E-01
       -1   -1    0    0    0  501  0.00000000000E+00  0.00000000000E+00  0.57893945535E+03  0.57893945538E+03  0.50400001928E-02 0. -1.
        1   -1    0    0  501    0  0.00000000000E+00  0.00000000000E+00 -0.15191346059E+04  0.15191346059E+04  0.50400001928E-02 0.  1.
    10030    2    1    2    0    0  0.00000000000E+00  0.00000000000E+00 -0.94019515053E+03  0.20980740613E+04  0.18756193232E+04 0.  0.
        1    1    3    3  502    0  0.25086395306E+03  0.79834865099E+03  0.34214665836E+01  0.83684227781E+03  0.50400001928E-02 0. -1.
       -1    1    3    3    0  502 -0.25086395306E+03 -0.79834865099E+03 -0.94361661711E+03  0.12612317835E+04  0.50400001928E-02 0.  1.
</event>
<event>
 5   0  0.1118206E-04  0.1903482E+04  0.7818609E-02  0.8653125E-01
        2   -1    0    0  501    0  0.00000000000E+00  0.00000000000E+00  0.15516860735E+04  0.15516860735E+04  0.25500000920E-02 0.  1.
       -2   -1    0    0    0  501  0.00000000000E+00  0.00000000000E+00 -0.58375939584E+03  0.58375939585E+03  0.25500000920E-02 0. -1.
    10030    2    1    2    0    0  0.00000000000E+00  0.00000000000E+00  0.96792667769E+03  0.21354454694E+04  0.19034824137E+04 0.  0.
        1    1    3    3  502    0  0.71409446916E+03  0.25413108873E+03  0.11296902635E+04  0.13604093548E+04  0.50400001928E-02 0.  1.
       -1    1    3    3    0  502 -0.71409446916E+03 -0.25413108873E+03 -0.16176358584E+03  0.77503611456E+03  0.50400001928E-02 0. -1.
</event>
<event>
 5   0  0.5841424E-05  0.1904012E+04  0.7818609E-02  0.8652862E-01
       -1   -1    0    0    0  501  0.00000000000E+00  0.00000000000E+00  0.77500698450E+03  0.77500698451E+03  0.50400001928E-02 0. -1.
        1   -1    0    0  501    0  0.00000000000E+00  0.00000000000E+00 -0.11694289189E+04  0.11694289189E+04  0.50400001928E-02 0.  1.
    10030    2    1    2    0    0  0.00000000000E+00  0.00000000000E+00 -0.39442193441E+03  0.19444359034E+04  0.19040121639E+04 0.  0.
        1    1    3    3  502    0 -0.79536878222E+03 -0.39119732790E+03 -0.55196005362E+03  0.10441775471E+04  0.50400001928E-02 0.  1.
       -1    1    3    3    0  502  0.79536878222E+03  0.39119732790E+03  0.15753811922E+03  0.90025835631E+03  0.50400001928E-02 0. -1.
</event>
<event>
 5   0  0.1182630E-04  0.1869306E+04  0.7818609E-02  0.8670288E-01
       -2   -1    0    0    0  501  0.00000000000E+00  0.00000000000E+00  0.81045895210E+03  0.81045895210E+03  0.25500000920E-02 0.  1.
        2   -1    0    0  501    0  0.00000000000E+00  0.00000000000E+00 -0.10778779643E+04  0.10778779643E+04  0.25500000920E-02 0. -1.
    10030    2    1    2    0    0  0.00000000000E+00  0.00000000000E+00 -0.26741901220E+03  0.18883369164E+04  0.18693055881E+04 0.  0.
        5    1    3    3  502    0 -0.63113513195E+03 -0.23198295453E+03 -0.78947655912E+03  0.10370356664E+04  0.46999998093E+01 0. -1.
       -5    1    3    3    0  502  0.63113513195E+03  0.23198295453E+03  0.52205754692E+03  0.85130125001E+03  0.46999998093E+01 0.  1.
</event>
<event>
 5   0  0.1101678E-04  0.1934210E+04  0.7818609E-02  0.8638013E-01
       -2   -1    0    0    0  501  0.00000000000E+00  0.00000000000E+00  0.10019077908E+04  0.10019077908E+04  0.25500000920E-02 0. -1.
        2   -1    0    0  501    0  0.00000000000E+00  0.00000000000E+00 -0.93351105035E+03  0.93351105036E+03  0.25500000920E-02 0.  1.
    10030    2    1    2    0    0  0.00000000000E+00  0.00000000000E+00  0.68396740466E+02  0.19354188412E+04  0.19342099102E+04 0.  0.
        4    1    3    3  502    0  0.57212214230E+03  0.77910448676E+03  0.31494050803E+01  0.96661216558E+03  0.12699999809E+01 0.  1.
       -4    1    3    3    0  502 -0.57212214230E+03 -0.77910448676E+03  0.65247335386E+02  0.96880667560E+03  0.12699999809E+01 0. -1.
</event>
<event>
 5   0  0.1182630E-04  0.1941021E+04  0.7818609E-02  0.8634703E-01
        2   -1    0    0  501    0  0.00000000000E+00  0.00000000000E+00  0.12780340900E+04  0.12780340900E+04  0.25500000920E-02 0.  1.
       -2   -1    0    0    0  501  0.00000000000E+00  0.00000000000E+00 -0.73698390013E+03  0.73698390014E+03  0.25500000920E-02 0. -1.
    10030    2    1    2    0    0  0.00000000000E+00  0.00000000000E+00  0.54105018984E+03  0.20150179901E+04  0.19410209150E+04 0.  0.
        5    1    3    3  502    0  0.52259983567E+03  0.45896790759E+03 -0.43211326995E+03  0.81884436647E+03  0.46999998093E+01 0. -1.
       -5    1    3    3    0  502 -0.52259983567E+03 -0.45896790759E+03  0.97316345978E+03  0.11961736236E+04  0.46999998093E+01 0.  1.
</event>
<event>
 5   0  0.1182630E-04  0.1885446E+04  0.7818609E-02  0.8662135E-01
       -2   -1    0    0    0  501  0.00000000000E+00  0.00000000000E+00  0.40691039016E+03  0.40691039017E+03  0.25500000920E-02 0.  1.
        2   -1    0    0  501    0  0.00000000000E+00  0.00000000000E+00 -0.21840834523E+04  0.21840834523E+04  0.25500000920E-02 0. -1.
    10030    2    1    2    0    0  0.00000000000E+00  0.00000000000E+00 -0.17771730622E+04  0.25909938425E+04  0.18854455704E+04 0.  0.
        5    1    3    3  502    0  0.39615568060E+03  0.42209786252E+03  0.13388147659E+03  0.59418201638E+03  0.46999998093E+01 0.  1.
       -5    1    3    3    0  502 -0.39615568060E+03 -0.42209786252E+03 -0.19110545388E+04  0.19968118261E+04  0.46999998093E+01 0. -1.
</event>
<event>
 5   0  0.5824956E-05  0.1897630E+04  0.7818609E-02  0.8656037E-01
        1   -1    0    0  501    0  0.00000000000E+00  0.00000000000E+00  0.99793778500E+03  0.99793778501E+03  0.50400001928E-02 0.  1.
       -1   -1    0    0    0  501  0.00000000000E+00  0.00000000000E+00 -0.90211060641E+03  0.90211060642E+03  0.50400001928E-02 0. -1.
    10030    2    1    2    0    0  0.00000000000E+00  0.00000000000E+00  0.95827178592E+02  0.19000483914E+04  0.18976303754E+04 0.  0.
        2    1    3    3  502    0 -0.53921704470E+03 -0.70053442222E+03  0.39294920539E+03  0.96742574704E+03  0.25500000920E-02 0.  1.
       -2    1    3    3    0  502  0.53921704470E+03  0.70053442222E+03 -0.29712202680E+03  0.93262264439E+03  0.25500000920E-02 0. -1.
</event>
<event>
 5   0  0.1118206E-04  0.1914126E+04  0.7818609E-02  0.8647857E-01
       -2   -1    0    0    0  501  0.00000000000E+00  0.00000000000E+00  0.45913031253E+03  0.45913031253E+03  0.25500000920E-02 0.  1.
        2   -1    0    0  501    0  0.00000000000E+00  0.00000000000E+00 -0.19950098178E+04  0.19950098178E+04  0.25500000920E-02 0. -1.
    10030    2    1    2    0    0  0.00000000000E+00  0.00000000000E+00 -0.15358795053E+04  0.24541401303E+04  0.19141258905E+04 0.  0.
        1    1    3    3  502    0  0.75746969496E+03 -0.33801761738E+03 -0.15579837401E+03  0.84397238214E+03  0.50400001928E-02 0. -1.
       -1    1    3    3    0  502 -0.75746969496E+03  0.33801761738E+03 -0.13800811313E+04  0.16101677482E+04  0.50400001928E-02 0.  1.
</event>
<event>
 5   0  0.5824956E-05  0.1891593E+04  0.7818609E-02  0.8659053E-01
        1   -1    0    0  501    0  0.00000000000E+00  0.00000000000E+00  0.14049195599E+04  0.14049195599E+04  0.50400001928E-02 0. -1.
       -1   -1    0    0    0  501  0.00000000000E+00  0.00000000000E+00 -0.63671300666E+03  0.63671300668E+03  0.50400001928E-02 0.  1.
    10030    2    1    2    0    0  0.00000000000E+00  0.00000000000E+00  0.76820655323E+03  0.20416325666E+04  0.18915925112E+04 0.  0.
        2    1    3    3  502    0 -0.86224197394E+03  0.23069778829E+02  0.80286965044E+03  0.11783858078E+04  0.25500000920E-02 0. -1.
       -2    1    3    3    0  502  0.86224197394E+03 -0.23069778829E+02 -0.34663097209E+02  0.86324675883E+03  0.25500000920E-02 0.  1.
</event>
<event>
 5   0  0.1101678E-04  0.1879234E+04  0.7818609E-02  0.8665262E-01
        2   -1    0    0  501    0  0.00000000000E+00  0.00000000000E+00  0.88147874121E+03  0.88147874122E+03  0.25500000920E-02 0. -1.
       -2   -1    0    0    0  501  0.00000000000E+00  0.00000000000E+00 -0.10015901725E+04  0.10015901725E+04  0.25500000920E-02 0.  1.
    10030    2    1    2    0    0  0.00000000000E+00  0.00000000000E+00 -0.12011143125E+03  0.18830689137E+04  0.18792343595E+04 0.  0.
        4    1    3    3  502    0 -0.46075932458E+03  0.29855030406E+03  0.70402718922E+03  0.89279747721E+03  0.12699999809E+01 0. -1.
       -4    1    3    3    0  502  0.46075932458E+03 -0.29855030406E+03 -0.82413862047E+03  0.99027143648E+03  0.12699999809E+01 0.  1.
</event>
<event>
 5   0  0.5579109E-05  0.1902163E+04  0.7818609E-02  0.8653781E-01
       -1   -1    0    0    0  501  0.00000000000E+00  0.00000000000E+00  0.60021393693E+03  0.60021393695E+03  0.50400001928E-02 0. -1.
        1   -1    0    0  501    0  0.00000000000E+00  0.00000000000E+00 -0.15070556021E+04  0.15070556021E+04  0.50400001928E-02 0.  1.
    10030    2    1    2    0    0  0.00000000000E+00  0.00000000000E+00 -0.90684166513E+03  0.21072695390E+04  0.19021627439E+04 0.  0.
        3    1    3    3  502    0 -0.58642045397E+03 -0.49513127167E+03  0.16885115266E+03  0.78584645254E+03  0.10100000352E+00 0. -1.
       -3    1    3    3    0  502  0.58642045397E+03  0.49513127167E+03 -0.10756928178E+04  0.13214230865E+04  0.10100000352E+00 0.  1.
</event>
<event>
 5   0  0.1133638E-04  0.1895050E+04  0.7818609E-02  0.8657324E-01
        2   -1    0    0  501    0  0.00000000000E+00  0.00000000000E+00  0.71297100826E+03  0.71297100827E+03  0.25500000920E-02 0.  1.
       -2   -1    0    0    0  501  0.00000000000E+00  0.00000000000E+00 -0.12592425629E+04  0.12592425629E+04  0.25500000920E-02 0. -1.
    10030    2    1    2    0    0  0.00000000000E+00  0.00000000000E+00 -0.54627155465E+03  0.19722135712E+04  0.18950498038E+04 0.  0.
        3    1    3    3  502    0 -0.23721650892E+03 -0.81355253993E+03 -0.71426301447E+03  0.11082919612E+04  0.10100000352E+00 0. -1.
       -3    1    3    3    0  502  0.23721650892E+03  0.81355253993E+03  0.16799145982E+03  0.86392160993E+03  0.10100000352E+00 0.  1.
</event>
<event>
 5   0  0.5614989E-05  0.1882333E+04  0.7818609E-02  0.8663701E-01
       -1   -1    0    0    0  501  0.00000000000E+00  0.00000000000E+00  0.38947799968E+03  0.38947799971E+03  0.50400001928E-02 0.  1.
        1   -1    0    0  501    0  0.00000000000E+00  0.00000000000E+00 -0.22743107846E+04  0.22743107846E+04  0.50400001928E-02 0. -1.
    10030    2    1    2    0    0  0.00000000000E+00  0.00000000000E+00 -0.18848327849E+04  0.26637887843E+04  0.18823326115E+04 0.  0.
        4    1    3    3  502    0  0.35290261698E+03 -0.40594721552E+03  0.15051705939E+03  0.55856100555E+03  0.12699999809E+01 0.  1.
       -4    1    3    3    0  502 -0.35290261698E+03  0.40594721552E+03 -0.20353498443E+04  0.21052277787E+04  0.12699999809E+01 0. -1.
</event>
<event>
 5   0  0.1118206E-04  0.1906733E+04  0.7818609E-02  0.8651512E-01
       -2   -1    0    0    0  501  0.00000000000E+00  0.00000000000E+00  0.49329082356E+03  0.49329082357E+03  0.25500000920E-02 0.  1.
        2   -1    0    0  501    0  0.00000000000E+00  0.00000000000E+00 -0.18425396050E+04  0.18425396050E+04  0.25500000920E-02 0. -1.
    10030    2    1    2    0    0  0.00000000000E+00  0.00000000000E+00 -0.13492487814E+04  0.23358304285E+04  0.19067332054E+04 0.  0.
        1    1    3    3  502    0 -0.90453506213E+02  0.78010977282E+03 -0.13367766778E+04  0.15503951048E+04  0.50400001928E-02 0. -1.
       -1    1    3    3    0  502  0.90453506213E+02 -0.78010977282E+03 -0.12472103567E+02  0.78543532377E+03  0.50400001928E-02 0.  1.
</event>
<event>
 5   0  0.5628936E-05  0.1899444E+04  0.7818609E-02  0.8655133E-01
       -1   -1    0    0    0  501  0.00000000000E+00  0.00000000000E+00  0.42889770384E+03  0.42889770387E+03  0.50400001928E-02 0. -1.
        1   -1    0    0  501    0  0.00000000000E+00  0.00000000000E+00 -0.21030003700E+04  0.21030003700E+04  0.50400001928E-02 0.  1.
    10030    2    1    2    0    0  0.00000000000E+00  0.00000000000E+00 -0.16741026661E+04  0.25318980739E+04  0.18994441607E+04 0.  0.
        5    1    3    3  502    0 -0.24364012864E+03 -0.25632503068E+03  0.33784240336E+03  0.48910388788E+03  0.46999998093E+01 0. -1.
       -5    1    3    3    0  502  0.24364012864E+03  0.25632503068E+03 -0.20119450695E+04  0.20427941860E+04  0.46999998093E+01 0.  1.
</event>
<event>
 5   0  0.5614989E-05  0.1915081E+04  0.7818609E-02  0.8647386E-01
        1   -1    0    0  501    0  0.00000000000E+00  0.00000000000E+00  0.15774150517E+04  0.15774150517E+04  0.50400001928E-02 0.  1.
       -1   -1    0    0    0  501  0.00000000000E+00  0.00000000000E+00 -0.58125721427E+03  0.58125721429E+03  0.50400001928E-02 0. -1.
    10030    2    1    2    0    0  0.00000000000E+00  0.00000000000E+00  0.99615783744E+03  0.21586722660E+04  0.19150810727E+04 0.  0.
        4    1    3    3  502    0  0.68728114773E+01  0.17751070133E+03 -0.56251933393E+03  0.58990414354E+03  0.12699999809E+01 0. -1.
       -4    1    3    3    0  502 -0.68728114773E+01 -0.17751070133E+03  0.15586771714E+04  0.15687681225E+04  0.12699999809E+01 0.  1.
</event>
<event>
 5   0  0.1133638E-04  0.1886083E+04  0.7818609E-02  0.8661815E-01
        2   -1    0    0  501    0  0.00000000000E+00  0.00000000000E+00  0.85414395107E+03  0.85414395107E+03  0.25500000920E-02 0.  1.
       -2   -1    0    0    0  501  0.00000000000E+00  0.00000000000E+00 -0.10411910154E+04  0.10411910154E+04  0.25500000920E-02 0. -1.
    10030    2    1    2    0    0  0.00000000000E+00  0.00000000000E+00 -0.18704706437E+03  0.18953349665E+04  0.18860827211E+04 0.  0.
        3    1    3    3  502    0  0.39533759405E+02  0.93448222583E+03 -0.21455959213E+03  0.95961230573E+03  0.10100000352E+00 0.  1.
       -3    1    3    3    0  502 -0.39533759405E+02 -0.93448222583E+03  0.27512527759E+02  0.93572266079E+03  0.10100000352E+00 0. -1.
</event>
<event>
 5   0  0.4061125E-05  0.1892413E+04  0.7818609E-02  0.8658642E-01
       -3   -1    0    0    0  501  0.00000000000E+00  0.00000000000E+00  0.58599134097E+03  0.58599134968E+03  0.10100000352E+00 0. -1.
        3   -1    0    0  501    0  0.00000000000E+00  0.00000000000E+00 -0.15278498224E+04  0.15278498258E+04  0.10100000352E+00 0.  1.
    10030    2    1    2    0    0  0.00000000000E+00  0.00000000000E+00 -0.94185848147E+03  0.21138411755E+04  0.18924130405E+04 0.  0.
        2    1    3    3  502    0  0.26751565028E+03  0.61468366113E+03 -0.12168250267E+04  0.13892673508E+04  0.25500000920E-02 0.  1.
       -2    1    3    3    0  502 -0.26751565028E+03 -0.61468366113E+03  0.27496654521E+03  0.72457382467E+03  0.25500000920E-02 0. -1.
</event>
<event>
 5   0  0.5579109E-05  0.1898323E+04  0.7818609E-02  0.8655691E-01
        1   -1    0    0  501    0  0.00000000000E+00  0.00000000000E+00  0.70668516758E+03  0.70668516760E+03  0.50400001928E-02 0. -1.
       -1   -1    0    0    0  501  0.00000000000E+00  0.00000000000E+00 -0.12748362936E+04  0.12748362937E+04  0.50400001928E-02 0.  1.
    10030    2    1    2    0    0  0.00000000000E+00  0.00000000000E+00 -0.56815112606E+03  0.19815214613E+04  0.18983233653E+04 0.  0.
        3    1    3    3  502    0  0.51154632773E+03  0.22783697702E+03  0.51587923647E+03  0.76139393899E+03  0.10100000352E+00 0. -1.
       -3    1    3    3    0  502 -0.51154632773E+03 -0.22783697702E+03 -0.10840303625E+04  0.12201275223E+04  0.10100000352E+00 0.  1.
</event>
<event>
 5   0  0.5824956E-05  0.1888662E+04  0.7818609E-02  0.8660521E-01
       -1   -1    0    0    0  501  0.00000000000E+00  0.00000000000E+00  0.17320256920E+04  0.17320256920E+04  0.50400001928E-02 0.  1.
        1   -1    0    0  501    0  0.00000000000E+00  0.00000000000E+00 -0.51486570429E+03  0.51486570431E+03  0.50400001928E-02 0. -1.
    10030    2    1    2    0    0  0.00000000000E+00  0.00000000000E+00  0.12171599877E+04  0.22468913963E+04  0.18886615661E+04 0.  0.
        2    1    3    3  502    0 -0.86970683929E+03 -0.18713309892E+03  0.98544917060E+03  0.13275989044E+04  0.25500000920E-02 0. -1.
       -2    1    3    3    0  502  0.86970683929E+03  0.18713309892E+03  0.23171081712E+03  0.91929249197E+03  0.25500000920E-02 0.  1.
</event>
<event>
 5   0  0.1141890E-04  0.1917854E+04  0.7818609E-02  0.8646020E-01
       -2   -1    0    0    0  501  0.00000000000E+00  0.00000000000E+00  0.14759791895E+04  0.14759791895E+04  0.25500000920E-02 0.  1.
        2   -1    0    0  501    0  0.00000000000E+00  0.00000000000E+00 -0.62300398482E+03  0.62300398483E+03  0.25500000920E-02 0. -1.
    10030    2    1    2    0    0  0.00000000000E+00  0.00000000000E+00  0.85297520467E+03  0.20989831743E+04  0.19178539220E+04 0.  0.
        2    1    3    3  502    0  0.64491324154E+03 -0.48520694986E+03  0.99328059622E+03  0.12798223377E+04  0.25500000920E-02 0.  1.
       -2    1    3    3    0  502 -0.64491324154E+03  0.48520694986E+03 -0.14030539154E+03  0.81916083660E+03  0.25500000920E-02 0. -1.
</event>
<event>
 5   0  0.5614989E-05  0.1867664E+04  0.7818609E-02  0.8671121E-01
       -1   -1    0    0    0  501  0.00000000000E+00  0.00000000000E+00  0.88423354647E+03  0.88423354648E+03  0.50400001928E-02 0.  1.
        1   -1    0    0  501    0  0.00000000000E+00  0.00000000000E+00 -0.98621297834E+03  0.98621297835E+03  0.50400001928E-02 0. -1.
    10030    2    1    2    0    0  0.00000000000E+00  0.00000000000E+00 -0.10197943187E+03  0.18704465248E+04  0.18676644232E+04 0.  0.
        4    1    3    3  502    0  0.39023353727E+03 -0.37708703880E+03 -0.81209819474E+03  0.97671999019E+03  0.12699999809E+01 0. -1.
       -4    1    3    3    0  502 -0.39023353727E+03  0.37708703880E+03  0.71011876287E+03  0.89372653464E+03  0.12699999809E+01 0.  1.
</event>
<event>
 5   0  0.5824956E-05  0.1892274E+04  0.7818609E-02  0.8658712E-01
       -1   -1    0    0    0  501  0.00000000000E+00  0.00000000000E+00  0.58698317482E+03  0.58698317484E+03  0.50400001928E-02 0. -1.
        1   -1    0    0  501    0  0.00000000000E+00  0.00000000000E+00 -0.15250437416E+04  0.15250437416E+04  0.50400001928E-02 0.  1.
    10030    2    1    2    0    0  0.00000000000E+00  0.00000000000E+00 -0.93806056679E+03  0.21120269165E+04  0.18922737828E+04 0.  0.
        2    1    3    3  502    0 -0.26330183297E+03  0.38975539977E+03  0.44724382241E+03  0.64904866042E+03  0.25500000920E-02 0. -1.
       -2    1    3    3    0  502  0.26330183297E+03 -0.38975539977E+03 -0.13853043892E+04  0.14629782560E+04  0.25500000920E-02 0.  1.
</event>
<event>
 5   0  0.5579109E-05  0.1906896E+04  0.7818609E-02  0.8651431E-01
       -1   -1    0    0    0  501  0.00000000000E+00  0.00000000000E+00  0.76126188663E+03  0.76126188665E+03  0.50400001928E-02 0.  1.
        1   -1    0    0  501    0  0.00000000000E+00  0.00000000000E+00 -0.11941531248E+04  0.11941531248E+04  0.50400001928E-02 0. -1.
    10030    2    1    2    0    0  0.00000000000E+00  0.00000000000E+00 -0.43289123814E+03  0.19554150114E+04  0.19068961804E+04 0.  0.
        3    1    3    3  502    0 -0.50153040856E+02  0.91711392889E+03  0.45895642987E+02  0.91963020085E+03  0.10100000352E+00 0.  1.
       -3    1    3    3    0  502  0.50153040856E+02 -0.91711392889E+03 -0.47878688113E+03  0.10357848106E+04  0.10100000352E+00 0. -1.
</event>
<event>
 5   0  0.1118206E-04  0.1941240E+04  0.7818609E-02  0.8634596E-01
       -2   -1    0    0    0  501  0.00000000000E+00  0.00000000000E+00  0.93549380984E+03  0.93549380984E+03  0.25500000920E-02 0. -1.
        2   -1    0    0  501    0  0.00000000000E+00  0.00000000000E+00 -0.10070654080E+04  0.10070654080E+04  0.25500000920E-02 0.  1.
    10030    2    1    2    0    0  0.00000000000E+00  0.00000000000E+00 -0.71571598178E+02  0.19425592179E+04  0.19412402791E+04 0.  0.
        1    1    3    3  502    0 -0.29652127091E+03  0.72772357749E+03  0.53433543212E+03  0.95027407803E+03  0.50400001928E-02 0. -1.
       -1    1    3    3    0  502  0.29652127091E+03 -0.72772357749E+03 -0.60590703030E+03  0.99228513983E+03  0.50400001928E-02 0.  1.
</event>
<event>
 5   0  0.1101678E-04  0.1919763E+04  0.7818609E-02  0.8645081E-01
        2   -1    0    0  501    0  0.00000000000E+00  0.00000000000E+00  0.16722997030E+04  0.16722997030E+04  0.25500000920E-02 0.  1.
       -2   -1    0    0    0  501  0.00000000000E+00  0.00000000000E+00 -0.55096148662E+03  0.55096148663E+03  0.25500000920E-02 0. -1.
    10030    2    1    2    0    0  0.00000000000E+00  0.00000000000E+00  0.11213382164E+04  0.22232611896E+04  0.19197632463E+04 0.  0.
        4    1    3    3  502    0  0.84451417213E+03  0.97336775862E+01  0.10889316649E+04  0.13780684726E+04  0.12699999809E+01 0.  1.
       -4    1    3    3    0  502 -0.84451417213E+03 -0.97336775862E+01  0.32406551440E+02  0.84519271701E+03  0.12699999809E+01 0. -1.
</event>
<event>
 5   0  0.5841424E-05  0.1914132E+04  0.7818609E-02  0.8647854E-01
        1   -1    0    0  501    0  0.00000000000E+00  0.00000000000E+00  0.11773237159E+04  0.11773237159E+04  0.50400001928E-02 0.  1.
       -1   -1    0    0    0  501  0.00000000000E+00  0.00000000000E+00 -0.77801471165E+03  0.77801471166E+03  0.50400001928E-02 0. -1.
    10030    2    1    2    0    0  0.00000000000E+00  0.00000000000E+00  0.39930900423E+03  0.19553384276E+04  0.19141318360E+04 0.  0.
        1    1    3    3  502    0  0.25561375360E+03 -0.79654956118E+03 -0.27526856647E+03  0.88068290443E+03  0.50400001928E-02 0. -1.
       -1    1    3    3    0  502 -0.25561375360E+03  0.79654956118E+03  0.67457757070E+03  0.10746555231E+04  0.50400001928E-02 0.  1.
</event>
<event>
 5   0  0.1118206E-04  0.1900893E+04  0.7818609E-02  0.8654412E-01
       -2   -1    0    0    0  501  0.00000000000E+00  0.00000000000E+00  0.58038879172E+03  0.58038879172E+03  0.25500000920E-02 0.  1.
        2   -1    0    0  501    0  0.00000000000E+00  0.00000000000E+00 -0.15564546876E+04  0.15564546876E+04  0.25500000920E-02 0. -1.
    10030    2    1    2    0    0  0.00000000000E+00  0.00000000000E+00 -0.97606589586E+03  0.21368434793E+04  0.19008933221E+04 0.  0.
        1    1    3    3  502    0 -0.44225373221E+03 -0.66471452047E+03  0.91644580594E+02  0.80363703657E+03  0.50400001928E-02 0.  1.
       -1    1    3    3    0  502  0.44225373221E+03  0.66471452047E+03 -0.10677104765E+04  0.13332064427E+04  0.50400001928E-02 0. -1.
</event>
<event>
 5   0  0.1101678E-04  0.1882805E+04  0.7818609E-02  0.8663463E-01
        2   -1    0    0  501    0  0.00000000000E+00  0.00000000000E+00  0.58297536418E+03  0.58297536419E+03  0.25500000920E-02 0. -1.
       -2   -1    0    0    0  501  0.00000000000E+00  0.00000000000E+00 -0.15201986457E+04  0.15201986457E+04  0.25500000920E-02 0.  1.
    10030    2    1    2    0    0  0.00000000000E+00  0.00000000000E+00 -0.93722328156E+03  0.21031740099E+04  0.18828046730E+04 0.  0.
        4    1    3    3  502    0  0.79227006996E+02 -0.53925252022E+03 -0.13260224980E+04  0.14336692356E+04  0.12699999809E+01 0.  1.
       -4    1    3    3    0  502 -0.79227006996E+02  0.53925252022E+03  0.38879921642E+03  0.66950477428E+03  0.12699999809E+01 0. -1.
</event>
<event>
 5   0  0.1182630E-04  0.1904695E+04  0.7818609E-02  0.8652523E-01
        2   -1    0    0  501    0  0.00000000000E+00  0.00000000000E+00  0.63053790142E+03  0.63053790143E+03  0.25500000920E-02 0. -1.
       -2   -1    0    0    0  501  0.00000000000E+00  0.00000000000E+00 -0.14383996486E+04  0.14383996486E+04  0.25500000920E-02 0.  1.
    10030    2    1    2    0    0  0.00000000000E+00  0.00000000000E+00 -0.80786174714E+03  0.20689375500E+04  0.19046947218E+04 0.  0.
        5    1    3    3  502    0  0.11167884507E+03  0.31178853216E+03 -0.13738192630E+04  0.14131828299E+04  0.46999998093E+01 0.  1.
       -5    1    3    3    0  502 -0.11167884507E+03 -0.31178853216E+03  0.56595751586E+03  0.65575472014E+03  0.46999998093E+01 0. -1.
</event>
<event>
 5   0  0.1118206E-04  0.1902551E+04  0.7818609E-02  0.8653587E-01
        2   -1    0    0  501    0  0.00000000000E+00  0.00000000000E+00  0.14230567589E+04  0.14230567589E+04  0.25500000920E-02 0. -1.
       -2   -1    0    0    0  501  0.00000000000E+00  0.00000000000E+00 -0.63590255385E+03  0.63590255385E+03  0.25500000920E-02 0.  1.
    10030    2    1    2    0    0  0.00000000000E+00  0.00000000000E+00  0.78715420508E+03  0.20589593128E+04  0.19025513683E+04 0.  0.
        1    1    3    3  502    0 -0.25137228642E+03  0.63176550341E+03 -0.32640526595E+03  0.75422548044E+03  0.50400001928E-02 0.  1.
       -1    1    3    3    0  502  0.25137228642E+03 -0.63176550341E+03  0.11135594710E+04  0.13047338323E+04  0.50400001928E-02 0. -1.
</event>
<event>
 5   0  0.1182630E-04  0.1897255E+04  0.7818609E-02  0.8656224E-01
       -2   -1    0    0    0  501  0.00000000000E+00  0.00000000000E+00  0.52688850496E+03  0.52688850496E+03  0.25500000920E-02 0.  1.
        2   -1    0    0  501    0  0.00000000000E+00  0.00000000000E+00 -0.17079397901E+04  0.17079397901E+04  0.25500000920E-02 0. -1.
    10030    2    1    2    0    0  0.00000000000E+00  0.00000000000E+00 -0.11810512851E+04  0.22348282951E+04  0.18972546930E+04 0.  0.
        5    1    3    3  502    0 -0.52818689663E+03  0.72664817049E+03 -0.94949946072E+03  0.13071229006E+04  0.46999998093E+01 0. -1.
       -5    1    3    3    0  502  0.52818689663E+03 -0.72664817049E+03 -0.23155182441E+03  0.92770539442E+03  0.46999998093E+01 0.  1.
</event>
<event>
 5   0  0.1118206E-04  0.1916702E+04  0.7818609E-02  0.8646587E-01
       -2   -1    0    0    0  501  0.00000000000E+00  0.00000000000E+00  0.65051298416E+03  0.65051298416E+03  0.25500000920E-02 0. -1.
        2   -1    0    0  501    0  0.00000000000E+00  0.00000000000E+00 -0.14118645587E+04  0.14118645587E+04  0.25500000920E-02 0.  1.
    10030    2    1    2    0    0  0.00000000000E+00  0.00000000000E+00 -0.76135157457E+03  0.20623775429E+04  0.19167015702E+04 0.  0.
        1    1    3    3  502    0  0.20629198826E+02  0.92684415000E+03 -0.11938061201E+03  0.93472850217E+03  0.50400001928E-02 0.  1.
       -1    1    3    3    0  502 -0.20629198826E+02 -0.92684415000E+03 -0.64197096256E+03  0.11276490407E+04  0.50400001928E-02 0. -1.
</event>
<event>
 5   0  0.5614989E-05  0.1900832E+04  0.7818609E-02  0.8654442E-01
        1   -1    0    0  501    0  0.00000000000E+00  0.00000000000E+00  0.56746877830E+03  0.56746877832E+03  0.50400001928E-02 0. -1.
       -1   -1    0    0    0  501  0.00000000000E+00  0.00000000000E+00 -0.15917890462E+04  0.15917890462E+04  0.50400001928E-02 0.  1.
    10030    2    1    2    0    0  0.00000000000E+00  0.00000000000E+00 -0.10243202679E+04  0.21592578245E+04  0.19008320130E+04 0.  0.
        4    1    3    3  502    0  0.23711068569E+03 -0.82662445410E+03 -0.52471224803E+02  0.86155923053E+03  0.12699999809E+01 0. -1.
       -4    1    3    3    0  502 -0.23711068569E+03  0.82662445410E+03 -0.97184904311E+03  0.12976985940E+04  0.12699999809E+01 0.  1.
</event>
<event>
 5   0  0.5579109E-05  0.1895599E+04  0.7818609E-02  0.8657050E-01
       -1   -1    0    0    0  501  0.00000000000E+00  0.00000000000E+00  0.12019555006E+04  0.12019555006E+04  0.50400001928E-02 0. -1.
        1   -1    0    0  501    0  0.00000000000E+00  0.00000000000E+00 -0.74738507745E+03  0.74738507747E+03  0.50400001928E-02 0.  1.
    10030    2    1    2    0    0  0.00000000000E+00  0.00000000000E+00  0.45457042318E+03  0.19493405781E+04  0.18955986969E+04 0.  0.
        3    1    3    3  502    0 -0.22579916822E+03 -0.85552577078E+03  0.57664309023E+03  0.10561377148E+04  0.10100000352E+00 0. -1.
       -3    1    3    3    0  502  0.22579916822E+03  0.85552577078E+03 -0.12207266705E+03  0.89320286335E+03  0.10100000352E+00 0.  1.
</event>
<event>
 5   0  0.1118206E-04  0.1707139E+04  0.7818609E-02  0.8757303E-01
        2   -1    0    0  501    0  0.00000000000E+00  0.00000000000E+00  0.15114804288E+04  0.15114804289E+04  0.25500000920E-02 0. -1.
       -2   -1    0    0    0  501  0.00000000000E+00  0.00000000000E+00 -0.48203146532E+03  0.48203146533E+03  0.25500000920E-02 0.  1.
    10030    2    1    2    0    0  0.00000000000E+00  0.00000000000E+00  0.10294489635E+04  0.19935118942E+04  0.17071392748E+04 0.  0.
        1    1    3    3  502    0  0.14669908662E+02 -0.62674318753E+03  0.11911722310E+04  0.13460733684E+04  0.50400001928E-02 0. -1.
       -1    1    3    3    0  502 -0.14669908662E+02  0.62674318753E+03 -0.16172326746E+03  0.64743852573E+03  0.50400001928E-02 0.  1.
</event>
<event>
 5   0  0.5824956E-05  0.1921142E+04  0.7818609E-02  0.8644404E-01
        1   -1    0    0  501    0  0.00000000000E+00  0.00000000000E+00  0.13548217706E+04  0.13548217706E+04  0.50400001928E-02 0. -1.
       -1   -1    0    0    0  501  0.00000000000E+00  0.00000000000E+00 -0.68104646937E+03  0.68104646939E+03  0.50400001928E-02 0.  1.
    10030    2    1    2    0    0  0.00000000000E+00  0.00000000000E+00  0.67377530123E+03  0.20358682400E+04  0.19211419349E+04 0.  0.
        2    1    3    3  502    0 -0.74188440132E+03 -0.40289519766E+03 -0.14871242422E+03  0.85722365246E+03  0.25500000920E-02 0.  1.
       -2    1    3    3    0  502  0.74188440132E+03  0.40289519766E+03  0.82248772545E+03  0.11786445875E+04  0.25500000920E-02 0. -1.
</event>
<event>
 5   0  0.1141890E-04  0.1895383E+04  0.7818609E-02  0.8657158E-01
        2   -1    0    0  501    0  0.00000000000E+00  0.00000000000E+00  0.21492793834E+04  0.21492793834E+04  0.25500000920E-02 0. -1.
       -2   -1    0    0    0  501  0.00000000000E+00  0.00000000000E+00 -0.41786976618E+03  0.41786976619E+03  0.25500000920E-02 0.  1.
    10030    2    1    2    0    0  0.00000000000E+00  0.00000000000E+00  0.17314096172E+04  0.25671491496E+04  0.18953826774E+04 0.  0.
        2    1    3    3  502    0  0.82459596436E+02  0.71450372379E+03  0.29900156798E+02  0.71986747095E+03  0.25500000920E-02 0.  1.
       -2    1    3    3    0  502 -0.82459596436E+02 -0.71450372379E+03  0.17015094604E+04  0.18472816786E+04  0.25500000920E-02 0. -1.
</event>
<event>
 5   0  0.5614989E-05  0.1859785E+04  0.7818609E-02  0.8675137E-01
       -1   -1    0    0    0  501  0.00000000000E+00  0.00000000000E+00  0.10946174112E+04  0.10946174112E+04  0.50400001928E-02 0. -1.
        1   -1    0    0  501    0  0.00000000000E+00  0.00000000000E+00 -0.78995601381E+03  0.78995601383E+03  0.50400001928E-02 0.  1.
    10030    2    1    2    0    0  0.00000000000E+00  0.00000000000E+00  0.30466139737E+03  0.18845734250E+04  0.18597845110E+04 0.  0.
        4    1    3    3  502    0 -0.64888993909E+03 -0.11125960691E+03 -0.51312722396E+03  0.83470834071E+03  0.12699999809E+01 0.  1.
       -4    1    3    3    0  502  0.64888993909E+03  0.11125960691E+03  0.81778862133E+03  0.10498650843E+04  0.12699999809E+01 0. -1.
</event>
<event>
 5   0  0.1182630E-04  0.1910386E+04  0.7818609E-02  0.8649704E-01
       -2   -1    0    0    0  501  0.00000000000E+00  0.00000000000E+00  0.64172164069E+03  0.64172164069E+03  0.25500000920E-02 0.  1.
        2   -1    0    0  501    0  0.00000000000E+00  0.00000000000E+00 -0.14217910109E+04  0.14217910109E+04  0.25500000920E-02 0. -1.
    10030    2    1    2    0    0  0.00000000000E+00  0.00000000000E+00 -0.78006937022E+03  0.20635126516E+04  0.19103864114E+04 0.  0.
        5    1    3    3  502    0  0.64491249413E+03  0.70079485165E+03 -0.31105461855E+03  0.10018995034E+04  0.46999998093E+01 0.  1.
       -5    1    3    3    0  502 -0.64491249413E+03 -0.70079485165E+03 -0.46901475167E+03  0.10616131482E+04  0.46999998093E+01 0. -1.
</event>
<event>
 5   0  0.5841424E-05  0.1901944E+04  0.7818609E-02  0.8653889E-01
       -1   -1    0    0    0  501  0.00000000000E+00  0.00000000000E+00  0.11167967362E+04  0.11167967362E+04  0.50400001928E-02 0. -1.
        1   -1    0    0  501    0  0.00000000000E+00  0.00000000000E+00 -0.80976916634E+03  0.80976916635E+03  0.50400001928E-02 0.  1.
    10030    2    1    2    0    0  0.00000000000E+00  0.00000000000E+00  0.30702756981E+03  0.19265659025E+04  0.19019438078E+04 0.  0.
        1    1    3    3  502    0  0.62721264099E+03 -0.22979839701E+03  0.83914006501E+03  0.10725479239E+04  0.50400001928E-02 0. -1.
       -1    1    3    3    0  502 -0.62721264099E+03  0.22979839701E+03 -0.53211249519E+03  0.85401797864E+03  0.50400001928E-02 0.  1.
</event>
<event>
 5   0  0.1118206E-04  0.1892301E+04  0.7818609E-02  0.8658698E-01
        2   -1    0    0  501    0  0.00000000000E+00  0.00000000000E+00  0.20942526313E+04  0.20942526313E+04  0.25500000920E-02 0. -1.
       -2   -1    0    0    0  501  0.00000000000E+00  0.00000000000E+00 -0.42745611814E+03  0.42745611815E+03  0.25500000920E-02 0.  1.
    10030    2    1    2    0    0  0.00000000000E+00  0.00000000000E+00  0.16667965132E+04  0.25217087495E+04  0.18923013504E+04 0.  0.
        1    1    3    3  502    0 -0.18299946245E+03  0.37054094956E+03 -0.30082188298E+03  0.51115868755E+03  0.50400001928E-02 0.  1.
       -1    1    3    3    0  502  0.18299946245E+03 -0.37054094956E+03  0.19676183962E+04  0.20105500619E+04  0.50400001928E-02 0. -1.
</event>
<event>
 5   0  0.5824956E-05  0.1807103E+04  0.7818609E-02  0.8702531E-01
       -1   -1    0    0    0  501  0.00000000000E+00  0.00000000000E+00  0.52545757651E+03  0.52545757653E+03  0.50400001928E-02 0.  1.
        1   -1    0    0  501    0  0.00000000000E+00  0.00000000000E+00 -0.15537029627E+04  0.15537029627E+04  0.50400001928E-02 0. -1.
    10030    2    1    2    0    0  0.00000000000E+00  0.00000000000E+00 -0.10282453861E+04  0.20791605392E+04  0.18071026461E+04 0.  0.
        2    1    3    3  502    0  0.46100896660E+03 -0.71371868524E+03 -0.16046893257E+03  0.86468139061E+03  0.25500000920E-02 0.  1.
       -2    1    3    3    0  502 -0.46100896660E+03  0.71371868524E+03 -0.86777645358E+03  0.12144791486E+04  0.25500000920E-02 0. -1.
</event>
<event>
 5   0  0.5824956E-05  0.1905419E+04  0.7818609E-02  0.8652164E-01
        1   -1    0    0  501    0  0.00000000000E+00  0.00000000000E+00  0.11083968139E+04  0.11083968139E+04  0.50400001928E-02 0. -1.
       -1   -1    0    0    0  501  0.00000000000E+00  0.00000000000E+00 -0.81889013446E+03  0.81889013448E+03  0.50400001928E-02 0.  1.
    10030    2    1    2    0    0  0.00000000000E+00  0.00000000000E+00  0.28950667940E+03  0.19272869484E+04  0.19054188159E+04 0.  0.
        2    1    3    3  502    0  0.12880167671E+03 -0.74890516116E+02 -0.80703330916E+03  0.82067120300E+03  0.25500000920E-02 0.  1.
       -2    1    3    3    0  502 -0.12880167671E+03  0.74890516116E+02  0.10965399886E+04  0.11066157454E+04  0.25500000920E-02 0. -1.
</event>
<event>
 5   0  0.5628936E-05  0.1894250E+04  0.7818609E-02  0.8657724E-01
        1   -1    0    0  501    0  0.00000000000E+00  0.00000000000E+00  0.13120111901E+04  0.13120111901E+04  0.50400001928E-02 0.  1.
       -1   -1    0    0    0  501  0.00000000000E+00  0.00000000000E+00 -0.68371834844E+03  0.68371834846E+03  0.50400001928E-02 0. -1.
    10030    2    1    2    0    0  0.00000000000E+00  0.00000000000E+00  0.62829284162E+03  0.19957295385E+04  0.18942503784E+04 0.  0.
        5    1    3    3  502    0  0.25638128050E+03  0.28275811334E+03  0.12273817599E+04  0.12853682687E+04  0.46999998093E+01 0.  1.
       -5    1    3    3    0  502 -0.25638128050E+03 -0.28275811334E+03 -0.59908891829E+03  0.71036126982E+03  0.46999998093E+01 0. -1.
</event>
<event>
 5   0  0.5628936E-05  0.1902477E+04  0.7818609E-02  0.8653625E-01
        1   -1    0    0  501    0  0.00000000000E+00  0.00000000000E+00  0.10218869106E+04  0.10218869106E+04  0.50400001928E-02 0.  1.
       -1   -1    0    0    0  501  0.00000000000E+00  0.00000000000E+00 -0.88547419286E+03  0.88547419288E+03  0.50400001928E-02 0. -1.
    10030    2    1    2    0    0  0.00000000000E+00  0.00000000000E+00  0.13641271778E+03  0.19073611035E+04  0.19024767935E+04 0.  0.
        5    1    3    3  502    0 -0.51319637502E+03  0.77826833425E+03 -0.12138301710E+03  0.94012129338E+03  0.46999998093E+01 0. -1.
       -5    1    3    3    0  502  0.51319637502E+03 -0.77826833425E+03  0.25779573488E+03  0.96723981015E+03  0.46999998093E+01 0.  1.
</event>
<event>
 5   0  0.5614989E-05  0.1898713E+04  0.7818609E-02  0.8655497E-01
       -1   -1    0    0    0  501  0.00000000000E+00  0.00000000000E+00  0.77046532620E+03  0.77046532622E+03  0.50400001928E-02 0. -1.
        1   -1    0    0  501    0  0.00000000000E+00  0.00000000000E+00 -0.11697833193E+04  0.11697833193E+04  0.50400001928E-02 0.  1.
    10030    2    1    2    0    0  0.00000000000E+00  0.00000000000E+00 -0.39931799312E+03  0.19402486456E+04  0.18987127078E+04 0.  0.
        4    1    3    3  502    0  0.18984745207E+03 -0.25609321212E+03  0.71413463253E+03  0.78205861329E+03  0.12699999809E+01 0. -1.
       -4    1    3    3    0  502 -0.18984745207E+03  0.25609321212E+03 -0.11134526257E+04  0.11581900323E+04  0.12699999809E+01 0.  1.
</event>
<event>
 5   0  0.1101678E-04  0.1885150E+04  0.7818609E-02  0.8662284E-01
        2   -1    0    0  501    0  0.00000000000E+00  0.00000000000E+00  0.20679526728E+04  0.20679526728E+04  0.25500000920E-02 0. -1.
       -2   -1    0    0    0  501  0.00000000000E+00  0.00000000000E+00 -0.42962674397E+03  0.42962674398E+03  0.25500000920E-02 0.  1.
    10030    2    1    2    0    0  0.00000000000E+00  0.00000000000E+00  0.16383259288E+04  0.24975794167E+04  0.18851501516E+04 0.  0.
        4    1    3    3  502    0 -0.39751834581E+03 -0.24593225013E+03  0.19035696186E+04  0.19601230606E+04  0.12699999809E+01 0. -1.
       -4    1    3    3    0  502  0.39751834581E+03  0.24593225013E+03 -0.26524368979E+03  0.53745635617E+03  0.12699999809E+01 0.  1.
</event>
<event>
 5   0  0.1118206E-04  0.1909490E+04  0.7818609E-02  0.8650147E-01
        2   -1    0    0  501    0  0.00000000000E+00  0.00000000000E+00  0.81472035028E+03  0.81472035028E+03  0.25500000920E-02 0.  1.
       -2   -1    0    0    0  501  0.00000000000E+00  0.00000000000E+00 -0.11188359226E+04  0.11188359226E+04  0.25500000920E-02 0. -1.
    10030    2    1    2    0    0  0.00000000000E+00  0.00000000000E+00 -0.30411557234E+03  0.19335562729E+04  0.19094903978E+04 0.  0.
        1    1    3    3  502    0 -0.27878142681E+03 -0.68322030059E+03 -0.76552269252E+03  0.10632657503E+04  0.50400001928E-02 0. -1.
       -1    1    3    3    0  502  0.27878142681E+03  0.68322030059E+03  0.46140712018E+03  0.87029052255E+03  0.50400001928E-02 0.  1.
</event>
<event>
 5   0  0.1182630E-04  0.1900541E+04  0.7818609E-02  0.8654587E-01
        2   -1    0    0  501    0  0.00000000000E+00  0.00000000000E+00  0.16037560992E+04  0.16037560992E+04  0.25500000920E-02 0. -1.
       -2   -1    0    0    0  501  0.00000000000E+00  0.00000000000E+00 -0.56306202939E+03  0.56306202940E+03  0.25500000920E-02 0.  1.
    10030    2    1    2    0    0  0.00000000000E+00  0.00000000000E+00  0.10406940698E+04  0.21668181286E+04  0.19005411481E+04 0.  0.
        5    1    3    3  502    0 -0.78498934721E+03 -0.40957582354E+03  0.12699986155E+03  0.89448962280E+03  0.46999998093E+01 0. -1.
       -5    1    3    3    0  502  0.78498934721E+03  0.40957582354E+03  0.91369420828E+03  0.12723285058E+04  0.46999998093E+01 0.  1.
</event>
<event>
 5   0  0.1141890E-04  0.1887854E+04  0.7818609E-02  0.8660926E-01
        2   -1    0    0  501    0  0.00000000000E+00  0.00000000000E+00  0.96533689079E+03  0.96533689079E+03  0.25500000920E-02 0. -1.
       -2   -1    0    0    0  501  0.00000000000E+00  0.00000000000E+00 -0.92299159951E+03  0.92299159951E+03  0.25500000920E-02 0.  1.
    10030    2    1    2    0    0  0.00000000000E+00  0.00000000000E+00  0.42345291279E+02  0.18883284903E+04  0.18878536393E+04 0.  0.
        2    1    3    3  502    0  0.14072187443E+03 -0.81206175157E+03 -0.43910709886E+03  0.93384258769E+03  0.25500000920E-02 0.  1.
       -2    1    3    3    0  502 -0.14072187443E+03  0.81206175157E+03  0.48145239014E+03  0.95448590261E+03  0.25500000920E-02 0. -1.
</event>
<event>
 5   0  0.5824956E-05  0.1908056E+04  0.7818609E-02  0.8650857E-01
       -1   -1    0    0    0  501  0.00000000000E+00  0.00000000000E+00  0.11754089642E+04  0.11754089642E+04  0.50400001928E-02 0.  1.
        1   -1    0    0  501    0  0.00000000000E+00  0.00000000000E+00 -0.77434315872E+03  0.77434315873E+03  0.50400001928E-02 0. -1.
    10030    2    1    2    0    0  0.00000000000E+00  0.00000000000E+00  0.40106580550E+03  0.19497521230E+04  0.19080564878E+04 0.  0.
        2    1    3    3  502    0 -0.29487521502E+03 -0.89331190275E+03  0.36278666281E+03  0.10082518092E+04  0.25500000920E-02 0. -1.
       -2    1    3    3    0  502  0.29487521502E+03  0.89331190275E+03  0.38279142684E+02  0.94150031376E+03  0.25500000920E-02 0.  1.
</event>
<event>
 5   0  0.5841424E-05  0.1894878E+04  0.7818609E-02  0.8657410E-01
       -1   -1    0    0    0  501  0.00000000000E+00  0.00000000000E+00  0.21499272872E+04  0.21499272872E+04  0.50400001928E-02 0. -1.
        1   -1    0    0  501    0  0.00000000000E+00  0.00000000000E+00 -0.41752139097E+03  0.41752139100E+03  0.50400001928E-02 0.  1.
    10030    2    1    2    0    0  0.00000000000E+00  0.00000000000E+00  0.17324058963E+04  0.25674486782E+04  0.18948779713E+04 0.  0.
        1    1    3    3  502    0 -0.33642981238E+03  0.57848175281E+03 -0.42532014286E+02  0.67054837951E+03  0.50400001928E-02 0.  1.
       -1    1    3    3    0  502  0.33642981238E+03 -0.57848175281E+03  0.17749379105E+04  0.18969002987E+04  0.50400001928E-02 0. -1.
</event>
<event>
 5   0  0.1182630E-04  0.1933759E+04  0.7818609E-02  0.8638232E-01
        2   -1    0    0  501    0  0.00000000000E+00  0.00000000000E+00  0.10405078708E+04  0.10405078708E+04  0.25500000920E-02 0.  1.
       -2   -1    0    0    0  501  0.00000000000E+00  0.00000000000E+00 -0.89846154789E+03  0.89846154789E+03  0.25500000920E-02 0. -1.
    10030    2    1    2    0    0  0.00000000000E+00  0.00000000000E+00  0.14204632288E+03  0.19389694187E+04  0.19337593565E+04 0.  0.
        5    1    3    3  502    0 -0.12377948900E+03  0.16018224608E+03  0.10190092165E+04  0.10389329079E+04  0.46999998093E+01 0.  1.
       -5    1    3    3    0  502  0.12377948900E+03 -0.16018224608E+03 -0.87696289363E+03  0.90003651073E+03  0.46999998093E+01 0. -1.
</event>
<event>
 5   0  0.1118206E-04  0.1924399E+04  0.7818609E-02  0.8642806E-01
       -2   -1    0    0    0  501  0.00000000000E+00  0.00000000000E+00  0.48534406162E+03  0.48534406163E+03  0.25500000920E-02 0.  1.
        2   -1    0    0  501    0  0.00000000000E+00  0.00000000000E+00 -0.19075700553E+04  0.19075700553E+04  0.25500000920E-02 0. -1.
    10030    2    1    2    0    0  0.00000000000E+00  0.00000000000E+00 -0.14222259937E+04  0.23929141170E+04  0.19243989176E+04 0.  0.
        1    1    3    3  502    0 -0.89815395283E+03 -0.31099929078E+03 -0.52489791356E+03  0.10857803192E+04  0.50400001928E-02 0. -1.
       -1    1    3    3    0  502  0.89815395283E+03  0.31099929078E+03 -0.89732808015E+03  0.13071337978E+04  0.50400001928E-02 0.  1.
</event>
<event>
 5   0  0.4061125E-05  0.1895799E+04  0.7818609E-02  0.8656950E-01
        3   -1    0    0  501    0  0.00000000000E+00  0.00000000000E+00  0.91016035356E+03  0.91016035916E+03  0.10100000352E+00 0. -1.
       -3   -1    0    0    0  501  0.00000000000E+00  0.00000000000E+00 -0.98720333004E+03  0.98720333521E+03  0.10100000352E+00 0.  1.
    10030    2    1    2    0    0  0.00000000000E+00  0.00000000000E+00 -0.77042976479E+02  0.18973636944E+04  0.18957988734E+04 0.  0.
        4    1    3    3  502    0 -0.37141192006E+03  0.68104070252E+02  0.83163664230E+03  0.91334883613E+03  0.12699999809E+01 0. -1.
       -4    1    3    3    0  502  0.37141192006E+03 -0.68104070252E+02 -0.90867961878E+03  0.98401485824E+03  0.12699999809E+01 0.  1.
</event>
<event>
 5   0  0.5579109E-05  0.1892798E+04  0.7818609E-02  0.8658449E-01
       -1   -1    0    0    0  501  0.00000000000E+00  0.00000000000E+00  0.79188561443E+03  0.79188561445E+03  0.50400001928E-02 0.  1.
        1   -1    0    0  501    0  0.00000000000E+00  0.00000000000E+00 -0.11310616861E+04  0.11310616861E+04  0.50400001928E-02 0. -1.
    10030    2    1    2    0    0  0.00000000000E+00  0.00000000000E+00 -0.33917607170E+03  0.19229473006E+04  0.18927984344E+04 0.  0.
        3    1    3    3  502    0 -0.40507581431E+03  0.18011219637E+03 -0.10190550776E+04  0.11113055745E+04  0.10100000352E+00 0. -1.
       -3    1    3    3    0  502  0.40507581431E+03 -0.18011219637E+03  0.67987900589E+03  0.81164172606E+03  0.10100000352E+00 0.  1.
</event>
<event>
 5   0  0.1182630E-04  0.1902160E+04  0.7818609E-02  0.8653782E-01
       -2   -1    0    0    0  501  0.00000000000E+00  0.00000000000E+00  0.13001652644E+04  0.13001652644E+04  0.25500000920E-02 0.  1.
        2   -1    0    0  501    0  0.00000000000E+00  0.00000000000E+00 -0.69572151297E+03  0.69572151298E+03  0.25500000920E-02 0. -1.
    10030    2    1    2    0    0  0.00000000000E+00  0.00000000000E+00  0.60444375140E+03  0.19958867774E+04  0.19021597671E+04 0.  0.
        5    1    3    3  502    0  0.72861620899E+03 -0.11223871255E+03 -0.32826149208E+03  0.80700483628E+03  0.46999998093E+01 0. -1.
       -5    1    3    3    0  502 -0.72861620899E+03  0.11223871255E+03  0.93270524348E+03  0.11888819411E+04  0.46999998093E+01 0.  1.
</event>
<event>
 5   0  0.5579109E-05  0.1906036E+04  0.7818609E-02  0.8651858E-01
       -1   -1    0    0    0  501  0.00000000000E+00  0.00000000000E+00  0.10592481263E+04  0.10592481264E+04  0.50400001928E-02 0. -1.
        1   -1    0    0  501    0  0.00000000000E+00  0.00000000000E+00 -0.85744163898E+03  0.85744163899E+03  0.50400001928E-02 0.  1.
    10030    2    1    2    0    0  0.00000000000E+00  0.00000000000E+00  0.20180648736E+03  0.19166897653E+04  0.19060361482E+04 0.  0.
        3    1    3    3  502    0  0.22420435397E+03 -0.79449825166E+03  0.57974584649E+03  0.10087617761E+04  0.10100000352E+00 0. -1.
       -3    1    3    3    0  502 -0.22420435397E+03  0.79449825166E+03 -0.37793935912E+03  0.90792798922E+03  0.10100000352E+00 0.  1.
</event>
<event>
 5   0  0.1182630E-04  0.1908183E+04  0.7818609E-02  0.8650794E-01
        2   -1    0    0  501    0  0.00000000000E+00  0.00000000000E+00  0.86491324225E+03  0.86491324225E+03  0.25500000920E-02 0. -1.
       -2   -1    0    0    0  501  0.00000000000E+00  0.00000000000E+00 -0.10524647265E+04  0.10524647265E+04  0.25500000920E-02 0.  1.
    10030    2    1    2    0    0  0.00000000000E+00  0.00000000000E+00 -0.18755148429E+03  0.19173779688E+04  0.19081830929E+04 0.  0.
        5    1    3    3  502    0 -0.13008575586E+02 -0.84433754592E+03 -0.53998025563E+03  0.10023352139E+04  0.46999998093E+01 0.  1.
       -5    1    3    3    0  502  0.13008575586E+02  0.84433754592E+03  0.35242877134E+03  0.91504275493E+03  0.46999998093E+01 0. -1.
</event>
<event>
 5   0  0.5824956E-05  0.1900692E+04  0.7818609E-02  0.8654512E-01
       -1   -1    0    0    0  501  0.00000000000E+00  0.00000000000E+00  0.53088113607E+03  0.53088113610E+03  0.50400001928E-02 0. -1.
        1   -1    0    0  501    0  0.00000000000E+00  0.00000000000E+00 -0.17012415934E+04  0.17012415934E+04  0.50400001928E-02 0.  1.
    10030    2    1    2    0    0  0.00000000000E+00  0.00000000000E+00 -0.11703604573E+04  0.22321227295E+04  0.19006915267E+04 0.  0.
        2    1    3    3  502    0 -0.82798280699E+03  0.46293187098E+03 -0.51776232222E+03  0.10807123892E+04  0.25500000920E-02 0.  1.
       -2    1    3    3    0  502  0.82798280699E+03 -0.46293187098E+03 -0.65259813510E+03  0.11514103403E+04  0.25500000920E-02 0. -1.
</event>
<event>
 5   0  0.1118206E-04  0.1868967E+04  0.7818609E-02  0.8670459E-01
        2   -1    0    0  501    0  0.00000000000E+00  0.00000000000E+00  0.17607667845E+04  0.17607667845E+04  0.25500000920E-02 0.  1.
       -2   -1    0    0    0  501  0.00000000000E+00  0.00000000000E+00 -0.49595423788E+03  0.49595423789E+03  0.25500000920E-02 0. -1.
    10030    2    1    2    0    0  0.00000000000E+00  0.00000000000E+00  0.12648125466E+04  0.22567210223E+04  0.18689673605E+04 0.  0.
        1    1    3    3  502    0 -0.47357639905E+03 -0.61684046611E+03  0.12580723768E+04  0.14790242972E+04  0.50400001928E-02 0.  1.
       -1    1    3    3    0  502  0.47357639905E+03  0.61684046611E+03  0.67401697373E+01  0.77769672513E+03  0.50400001928E-02 0. -1.
</event>
<event>
 5   0  0.5824956E-05  0.1881068E+04  0.7818609E-02  0.8664338E-01
        1   -1    0    0  501    0  0.00000000000E+00  0.00000000000E+00  0.13547443789E+04  0.13547443789E+04  0.50400001928E-02 0.  1.
       -1   -1    0    0    0  501  0.00000000000E+00  0.00000000000E+00 -0.65296761410E+03  0.65296761411E+03  0.50400001928E-02 0. -1.
    10030    2    1    2    0    0  0.00000000000E+00  0.00000000000E+00  0.70177676476E+03  0.20077119930E+04  0.18810679996E+04 0.  0.
        2    1    3    3  502    0  0.53277515579E+03 -0.47443550995E+03  0.10050691001E+04  0.12325186878E+04  0.25500000920E-02 0.  1.
       -2    1    3    3    0  502 -0.53277515579E+03  0.47443550995E+03 -0.30329233535E+03  0.77519330520E+03  0.25500000920E-02 0. -1.
</event>
<event>
 5   0  0.1101678E-04  0.1888569E+04  0.7818609E-02  0.8660567E-01
        2   -1    0    0  501    0  0.00000000000E+00  0.00000000000E+00  0.11487057168E+04  0.11487057168E+04  0.25500000920E-02 0.  1.
       -2   -1    0    0    0  501  0.00000000000E+00  0.00000000000E+00 -0.77624137116E+03  0.77624137117E+03  0.25500000920E-02 0. -1.
    10030    2    1    2    0    0  0.00000000000E+00  0.00000000000E+00  0.37246434560E+03  0.19249470879E+04  0.18885686650E+04 0.  0.
        4    1    3    3  502    0 -0.58973828771E+03  0.56649388790E+03 -0.29505477750E+03  0.86934774840E+03  0.12699999809E+01 0. -1.
       -4    1    3    3    0  502  0.58973828771E+03 -0.56649388790E+03  0.66751912309E+03  0.10555993395E+04  0.12699999809E+01 0.  1.
</event>
<event>
 5   0  0.5614989E-05  0.1897439E+04  0.7818609E-02  0.8656132E-01
        1   -1    0    0  501    0  0.00000000000E+00  0.00000000000E+00  0.50585840483E+03  0.50585840486E+03  0.50400001928E-02 0.  1.
       -1   -1    0    0    0  501  0.00000000000E+00  0.00000000000E+00 -0.17792898330E+04  0.17792898330E+04  0.50400001928E-02 0. -1.
    10030    2    1    2    0    0  0.00000000000E+00  0.00000000000E+00 -0.12734314281E+04  0.22851482378E+04  0.18974390285E+04 0.  0.
        4    1    3    3  502    0 -0.52302332371E+03 -0.36094301404E+03 -0.14850943831E+04  0.16153452250E+04  0.12699999809E+01 0. -1.
       -4    1    3    3    0  502  0.52302332371E+03  0.36094301404E+03  0.21166295495E+03  0.66980301278E+03  0.12699999809E+01 0.  1.
</event>
<event>
 5   0  0.5824956E-05  0.1952620E+04  0.7818609E-02  0.8629098E-01
        1   -1    0    0  501    0  0.00000000000E+00  0.00000000000E+00  0.80071035331E+03  0.80071035333E+03  0.50400001928E-02 0.  1.
       -1   -1    0    0    0  501  0.00000000000E+00  0.00000000000E+00 -0.11904200529E+04  0.11904200529E+04  0.50400001928E-02 0. -1.
    10030    2    1    2    0    0  0.00000000000E+00  0.00000000000E+00 -0.38970969959E+03  0.19911304062E+04  0.19526204559E+04 0.  0.
        2    1    3    3  502    0 -0.71397961688E+03 -0.55672182146E+03  0.17769361691E+03  0.92264895887E+03  0.25500000920E-02 0.  1.
       -2    1    3    3    0  502  0.71397961688E+03  0.55672182146E+03 -0.56740331650E+03  0.10684814474E+04  0.25500000920E-02 0. -1.
</event>
<event>
 5   0  0.5628936E-05  0.1901464E+04  0.7818609E-02  0.8654128E-01
       -1   -1    0    0    0  501  0.00000000000E+00  0.00000000000E+00  0.65685081804E+03  0.65685081806E+03  0.50400001928E-02 0. -1.
        1   -1    0    0  501    0  0.00000000000E+00  0.00000000000E+00 -0.13760986958E+04  0.13760986958E+04  0.50400001928E-02 0.  1.
    10030    2    1    2    0    0  0.00000000000E+00  0.00000000000E+00 -0.71924787777E+03  0.20329495139E+04  0.19014642296E+04 0.  0.
        5    1    3    3  502    0 -0.25886782097E+03  0.57914334002E+03  0.39747425694E+03  0.74861701287E+03  0.46999998093E+01 0. -1.
       -5    1    3    3    0  502  0.25886782097E+03 -0.57914334002E+03 -0.11167221347E+04  0.12843325010E+04  0.46999998093E+01 0.  1.
</event>
<event>
 5   0  0.5824956E-05  0.1901986E+04  0.7818609E-02  0.8653868E-01
       -1   -1    0    0    0  501  0.00000000000E+00  0.00000000000E+00  0.93875879767E+03  0.93875879768E+03  0.50400001928E-02 0.  1.
        1   -1    0    0  501    0  0.00000000000E+00  0.00000000000E+00 -0.96338659401E+03  0.96338659402E+03  0.50400001928E-02 0. -1.
    10030    2    1    2    0    0  0.00000000000E+00  0.00000000000E+00 -0.24627796343E+02  0.19021453917E+04  0.19019859523E+04 0.  0.
        2    1    3    3  502    0 -0.65273303519E+03 -0.61494238535E+03  0.30421395757E+03  0.94697448990E+03  0.25500000920E-02 0.  1.
       -2    1    3    3    0  502  0.65273303519E+03  0.61494238535E+03 -0.32884175392E+03  0.95517090181E+03  0.25500000920E-02 0. -1.
</event>
<event>
 5   0  0.5579109E-05  0.1900009E+04  0.7818609E-02  0.8654852E-01
       -1   -1    0    0    0  501  0.00000000000E+00  0.00000000000E+00  0.80505148721E+03  0.80505148723E+03  0.50400001928E-02 0.  1.
        1   -1    0    0  501    0  0.00000000000E+00  0.00000000000E+00 -0.11210572110E+04  0.11210572110E+04  0.50400001928E-02 0. -1.
    10030    2    1    2    0    0  0.00000000000E+00  0.00000000000E+00 -0.31600572374E+03  0.19261086982E+04  0.19000092368E+04 0.  0.
        3    1    3    3  502    0  0.50898793555E+03  0.50655405776E+03 -0.78851357471E+03  0.10664986637E+04  0.10100000352E+00 0. -1.
       -3    1    3    3    0  502 -0.50898793555E+03 -0.50655405776E+03  0.47250785098E+03  0.85961003449E+03  0.10100000352E+00 0.  1.
</event>
<event>
 5   0  0.5628936E-05  0.1906924E+04  0.7818609E-02  0.8651418E-01
        1   -1    0    0  501    0  0.00000000000E+00  0.00000000000E+00  0.12323478095E+04  0.12323478095E+04  0.50400001928E-02 0. -1.
       -1   -1    0    0    0  501  0.00000000000E+00  0.00000000000E+00 -0.73768926565E+03  0.73768926567E+03  0.50400001928E-02 0.  1.
    10030    2    1    2    0    0  0.00000000000E+00  0.00000000000E+00  0.49465854388E+03  0.19700370752E+04  0.19069239635E+04 0.  0.
        5    1    3    3  502    0 -0.19609468534E+03  0.91572458284E+03  0.43231714511E+03  0.10314673243E+04  0.46999998093E+01 0. -1.
       -5    1    3    3    0  502  0.19609468534E+03 -0.91572458284E+03  0.62341398769E+02  0.93856975086E+03  0.46999998093E+01 0.  1.
</event>
<event>
 5   0  0.5628936E-05  0.1897323E+04  0.7818609E-02  0.8656190E-01
        1   -1    0    0  501    0  0.00000000000E+00  0.00000000000E+00  0.11810673931E+04  0.11810673931E+04  0.50400001928E-02 0. -1.
       -1   -1    0    0    0  501  0.00000000000E+00  0.00000000000E+00 -0.76198750651E+03  0.76198750653E+03  0.50400001928E-02 0.  1.
    10030    2    1    2    0    0  0.00000000000E+00  0.00000000000E+00  0.41907988654E+03  0.19430548996E+04  0.18973229539E+04 0.  0.
        5    1    3    3  502    0  0.90092580524E+02 -0.93496622517E+03  0.73453621452E+02  0.94217622543E+03  0.46999998093E+01 0. -1.
       -5    1    3    3    0  502 -0.90092580524E+02  0.93496622517E+03  0.34562626509E+03  0.10008786742E+04  0.46999998093E+01 0.  1.
</event>
<event>
 5   0  0.5628936E-05  0.1906739E+04  0.7818609E-02  0.8651509E-01
        1   -1    0    0  501    0  0.00000000000E+00  0.00000000000E+00  0.20173467889E+04  0.20173467889E+04  0.50400001928E-02 0.  1.
       -1   -1    0    0    0  501  0.00000000000E+00  0.00000000000E+00 -0.45054878138E+03  0.45054878141E+03  0.50400001928E-02 0. -1.
    10030    2    1    2    0    0  0.00000000000E+00  0.00000000000E+00  0.15667980075E+04  0.24678955703E+04  0.19067387208E+04 0.  0.
        5    1    3    3  502    0  0.42284849131E+03  0.21949142871E+03  0.18522085019E+04  0.19125051002E+04  0.46999998093E+01 0.  1.
       -5    1    3    3    0  502 -0.42284849131E+03 -0.21949142871E+03 -0.28541049443E+03  0.55539047004E+03  0.46999998093E+01 0. -1.
</event>
<event>
 5   0  0.1101678E-04  0.1857556E+04  0.7818609E-02  0.8676277E-01
        2   -1    0    0  501    0  0.00000000000E+00  0.00000000000E+00  0.19887156791E+04  0.19887156791E+04  0.25500000920E-02 0. -1.
       -2   -1    0    0    0  501  0.00000000000E+00  0.00000000000E+00 -0.43376160661E+03  0.43376160662E+03  0.25500000920E-02 0.  1.
    10030    2    1    2    0    0  0.00000000000E+00  0.00000000000E+00  0.15549540725E+04  0.24224772857E+04  0.18575559298E+04 0.  0.
        4    1    3    3  502    0 -0.66411347760E+03 -0.62048188727E+03  0.10269100767E+04  0.13713462007E+04  0.12699999809E+01 0. -1.
       -4    1    3    3    0  502  0.66411347760E+03  0.62048188727E+03  0.52804399574E+03  0.10511310850E+04  0.12699999809E+01 0.  1.
</event>
<event>
 5   0  0.5614989E-05  0.1898633E+04  0.7818609E-02  0.8655537E-01
       -1   -1    0    0    0  501  0.00000000000E+00  0.00000000000E+00  0.10307037534E+04  0.10307037534E+04  0.50400001928E-02 0. -1.
        1   -1    0    0  501    0  0.00000000000E+00  0.00000000000E+00 -0.87435535802E+03  0.87435535804E+03  0.50400001928E-02 0.  1.
    10030    2    1    2    0    0  0.00000000000E+00  0.00000000000E+00  0.15634839541E+03  0.19050591115E+04  0.18986325072E+04 0.  0.
        4    1    3    3  502    0 -0.59757305517E+03  0.59227475793E+03  0.51934050032E+03  0.98873611915E+03  0.12699999809E+01 0. -1.
       -4    1    3    3    0  502  0.59757305517E+03 -0.59227475793E+03 -0.36299210490E+03  0.91632299233E+03  0.12699999809E+01 0.  1.
</event>
<event>
 5   0  0.1133638E-04  0.1912105E+04  0.7818609E-02  0.8648855E-01
        2   -1    0    0  501    0  0.00000000000E+00  0.00000000000E+00  0.10709297988E+04  0.10709297988E+04  0.25500000920E-02 0. -1.
       -2   -1    0    0    0  501  0.00000000000E+00  0.00000000000E+00 -0.85349756757E+03  0.85349756758E+03  0.25500000920E-02 0.  1.
    10030    2    1    2    0    0  0.00000000000E+00  0.00000000000E+00  0.21743223121E+03  0.19244273664E+04  0.19121045770E+04 0.  0.
        3    1    3    3  502    0 -0.20846983492E+03 -0.87189857132E+03  0.44307570705E+03  0.99999144153E+03  0.10100000352E+00 0. -1.
       -3    1    3    3    0  502  0.20846983492E+03  0.87189857132E+03 -0.22564347584E+03  0.92443592484E+03  0.10100000352E+00 0.  1.
</event>
<event>
 5   0  0.1118206E-04  0.1893159E+04  0.7818609E-02  0.8658269E-01
        2   -1    0    0  501    0  0.00000000000E+00  0.00000000000E+00  0.13893437078E+04  0.13893437078E+04  0.25500000920E-02 0.  1.
       -2   -1    0    0    0  501  0.00000000000E+00  0.00000000000E+00 -0.64491815068E+03  0.64491815068E+03  0.25500000920E-02 0. -1.
    10030    2    1    2    0    0  0.00000000000E+00  0.00000000000E+00  0.74442555715E+03  0.20342618585E+04  0.18931592376E+04 0.  0.
        1    1    3    3  502    0 -0.76204104192E+03  0.43463879976E+03  0.75423232475E+03  0.11569286216E+04  0.50400001928E-02 0.  1.
       -1    1    3    3    0  502  0.76204104192E+03 -0.43463879976E+03 -0.98067676032E+01  0.87733323688E+03  0.50400001928E-02 0. -1.
</event>
<event>
 5   0  0.5614989E-05  0.1900609E+04  0.7818609E-02  0.8654553E-01
        1   -1    0    0  501    0  0.00000000000E+00  0.00000000000E+00  0.24185988277E+04  0.24185988277E+04  0.50400001928E-02 0.  1.
       -1   -1    0    0    0  501  0.00000000000E+00  0.00000000000E+00 -0.37338925683E+03  0.37338925686E+03  0.50400001928E-02 0. -1.
    10030    2    1    2    0    0  0.00000000000E+00  0.00000000000E+00  0.20452095709E+04  0.27919880846E+04  0.19006091854E+04 0.  0.
        4    1    3    3  502    0  0.90048974255E+03 -0.30287541239E+03  0.10541767319E+04  0.14191213785E+04  0.12699999809E+01 0.  1.
       -4    1    3    3    0  502 -0.90048974255E+03  0.30287541239E+03  0.99103283894E+03  0.13728667061E+04  0.12699999809E+01 0. -1.
</event>
<event>
 5   0  0.1118206E-04  0.1896292E+04  0.7818609E-02  0.8656704E-01
       -2   -1    0    0    0  501  0.00000000000E+00  0.00000000000E+00  0.64899705256E+03  0.64899705257E+03  0.25500000920E-02 0.  1.
        2   -1    0    0  501    0  0.00000000000E+00  0.00000000000E+00 -0.13851848459E+04  0.13851848459E+04  0.25500000920E-02 0. -1.
    10030    2    1    2    0    0  0.00000000000E+00  0.00000000000E+00 -0.73618779334E+03  0.20341818985E+04  0.18962920474E+04 0.  0.
        1    1    3    3  502    0 -0.22282944239E+03 -0.73404374922E+03  0.22965770164E+03  0.80075954325E+03  0.50400001928E-02 0.  1.
       -1    1    3    3    0  502  0.22282944239E+03  0.73404374922E+03 -0.96584549498E+03  0.12334223552E+04  0.50400001928E-02 0. -1.
</event>
<event>
 5   0  0.1133638E-04  0.1916615E+04  0.7818609E-02  0.8646630E-01
       -2   -1    0    0    0  501  0.00000000000E+00  0.00000000000E+00  0.11995913504E+04  0.11995913504E+04  0.25500000920E-02 0.  1.
        2   -1    0    0  501    0  0.00000000000E+00  0.00000000000E+00 -0.76555547242E+03  0.76555547242E+03  0.25500000920E-02 0. -1.
    10030    2    1    2    0    0  0.00000000000E+00  0.00000000000E+00  0.43403587800E+03  0.19651468228E+04  0.19166154784E+04 0.  0.
        3    1    3    3  502    0 -0.65300262085E+03  0.46996681110E+03  0.75084763862E+03  0.11004787199E+04  0.10100000352E+00 0.  1.
       -3    1    3    3    0  502  0.65300262085E+03 -0.46996681110E+03 -0.31681176062E+03  0.86466810293E+03  0.10100000352E+00 0. -1.
</event>
<event>
 5   0  0.5824956E-05  0.1875441E+04  0.7818609E-02  0.8667178E-01
        1   -1    0    0  501    0  0.00000000000E+00  0.00000000000E+00  0.17294150341E+04  0.17294150341E+04  0.50400001928E-02 0. -1.
       -1   -1    0    0    0  501  0.00000000000E+00  0.00000000000E+00 -0.50844945704E+03  0.50844945707E+03  0.50400001928E-02 0.  1.
    10030    2    1    2    0    0  0.00000000000E+00  0.00000000000E+00  0.12209655770E+04  0.22378644911E+04  0.18754414255E+04 0.  0.
        2    1    3    3  502    0  0.58204293381E+03 -0.46868317821E+03 -0.65449384952E+02  0.75014766569E+03  0.25500000920E-02 0.  1.
       -2    1    3    3    0  502 -0.58204293381E+03  0.46868317821E+03  0.12864149620E+04  0.14877168255E+04  0.25500000920E-02 0. -1.
</event>
<event>
 5   0  0.1133638E-04  0.1883414E+04  0.7818609E-02  0.8663157E-01
        2   -1    0    0  501    0  0.00000000000E+00  0.00000000000E+00  0.19281548796E+04  0.19281548796E+04  0.25500000920E-02 0.  1.
       -2   -1    0    0    0  501  0.00000000000E+00  0.00000000000E+00 -0.45992774483E+03  0.45992774484E+03  0.25500000920E-02 0. -1.
    10030    2    1    2    0    0  0.00000000000E+00  0.00000000000E+00  0.14682271348E+04  0.23880826245E+04  0.18834138425E+04 0.  0.
        3    1    3    3  502    0  0.38087937150E+03 -0.24566825120E+03 -0.31253635654E+03  0.55054606496E+03  0.10100000352E+00 0. -1.
       -3    1    3    3    0  502 -0.38087937150E+03  0.24566825120E+03  0.17807634913E+04  0.18375365595E+04  0.10100000352E+00 0.  1.
</event>
<event>
 5   0  0.5841424E-05  0.1955305E+04  0.7818609E-02  0.8627807E-01
       -1   -1    0    0    0  501  0.00000000000E+00  0.00000000000E+00  0.10664417790E+04  0.10664417790E+04  0.50400001928E-02 0. -1.
        1   -1    0    0  501    0  0.00000000000E+00  0.00000000000E+00 -0.89625557029E+03  0.89625557030E+03  0.50400001928E-02 0.  1.
    10030    2    1    2    0    0  0.00000000000E+00  0.00000000000E+00  0.17018620870E+03  0.19626973493E+04  0.19553049735E+04 0.  0.
        1    1    3    3  502    0  0.78913110920E+03  0.21850633606E+03 -0.45109065963E+03  0.93485598336E+03  0.50400001928E-02 0.  1.
       -1    1    3    3    0  502 -0.78913110920E+03 -0.21850633606E+03  0.62127686832E+03  0.10278413659E+04  0.50400001928E-02 0. -1.
</event>
<event>
 5   0  0.5824956E-05  0.1909997E+04  0.7818609E-02  0.8649896E-01
        1   -1    0    0  501    0  0.00000000000E+00  0.00000000000E+00  0.10680953418E+04  0.10680953418E+04  0.50400001928E-02 0. -1.
       -1   -1    0    0    0  501  0.00000000000E+00  0.00000000000E+00 -0.85387746119E+03  0.85387746121E+03  0.50400001928E-02 0.  1.
    10030    2    1    2    0    0  0.00000000000E+00  0.00000000000E+00  0.21421788058E+03  0.19219728030E+04  0.19099974228E+04 0.  0.
        2    1    3    3  502    0 -0.28767728303E+03 -0.45932905327E+03  0.89834752285E+03  0.10491757099E+04  0.25500000920E-02 0. -1.
       -2    1    3    3    0  502  0.28767728303E+03  0.45932905327E+03 -0.68412964227E+03  0.87279709313E+03  0.25500000920E-02 0.  1.
</event>
<event>
 5   0  0.5841424E-05  0.2051533E+04  0.7818609E-02  0.8582899E-01
       -1   -1    0    0    0  501  0.00000000000E+00  0.00000000000E+00  0.73094287043E+03  0.73094287044E+03  0.50400001928E-02 0. -1.
        1   -1    0    0  501    0  0.00000000000E+00  0.00000000000E+00 -0.14395068436E+04  0.14395068436E+04  0.50400001928E-02 0.  1.
    10030    2    1    2    0    0  0.00000000000E+00  0.00000000000E+00 -0.70856397314E+03  0.21704497140E+04  0.20515333429E+04 0.  0.
        1    1    3    3  502    0  0.93277912379E+03  0.40934814870E+03 -0.48191683027E+03  0.11268924669E+04  0.50400001928E-02 0.  1.
       -1    1    3    3    0  502 -0.93277912379E+03 -0.40934814870E+03 -0.22664714287E+03  0.10435572471E+04  0.50400001928E-02 0. -1.
</event>
<event>
 5   0  0.1118206E-04  0.1897833E+04  0.7818609E-02  0.8655936E-01
       -2   -1    0    0    0  501  0.00000000000E+00  0.00000000000E+00  0.10102901617E+04  0.10102901617E+04  0.25500000920E-02 0. -1.
        2   -1    0    0  501    0  0.00000000000E+00  0.00000000000E+00 -0.89127142370E+03  0.89127142371E+03  0.25500000920E-02 0.  1.
    10030    2    1    2    0    0  0.00000000000E+00  0.00000000000E+00  0.11901873797E+03  0.19015615854E+04  0.18978332390E+04 0.  0.
        1    1    3    3  502    0 -0.11747744136E+03 -0.10473096477E+03 -0.87810311764E+03  0.89209562797E+03  0.50400001928E-02 0.  1.
       -1    1    3    3    0  502  0.11747744136E+03  0.10473096477E+03  0.99712185561E+03  0.10094659574E+04  0.50400001928E-02 0. -1.
</event>
<event>
 5   0  0.5841424E-05  0.1883144E+04  0.7818609E-02  0.8663292E-01
       -1   -1    0    0    0  501  0.00000000000E+00  0.00000000000E+00  0.10691953290E+04  0.10691953290E+04  0.50400001928E-02 0. -1.
        1   -1    0    0  501    0  0.00000000000E+00  0.00000000000E+00 -0.82918223507E+03  0.82918223509E+03  0.50400001928E-02 0.  1.
    10030    2    1    2    0    0  0.00000000000E+00  0.00000000000E+00  0.24001309396E+03  0.18983775641E+04  0.18831439379E+04 0.  0.
        1    1    3    3  502    0  0.29213720338E+03  0.10519418416E+03 -0.77608678690E+03  0.83589512668E+03  0.50400001928E-02 0.  1.
       -1    1    3    3    0  502 -0.29213720338E+03 -0.10519418416E+03  0.10160998809E+04  0.10624824375E+04  0.50400001928E-02 0. -1.
</event>
<event>
 5   0  0.5614989E-05  0.1915627E+04  0.7818609E-02  0.8647117E-01
        1   -1    0    0  501    0  0.00000000000E+00  0.00000000000E+00  0.78666815333E+03  0.78666815335E+03  0.50400001928E-02 0.  1.
       -1   -1    0    0    0  501  0.00000000000E+00  0.00000000000E+00 -0.11661925896E+04  0.11661925896E+04  0.50400001928E-02 0. -1.
    10030    2    1    2    0    0  0.00000000000E+00  0.00000000000E+00 -0.37952443624E+03  0.19528607429E+04  0.19156268644E+04 0.  0.
        4    1    3    3  502    0  0.86398176059E+03 -0.33728702147E+03 -0.43352904860E+03  0.10238047013E+04  0.12699999809E+01 0. -1.
       -4    1    3    3    0  502 -0.86398176059E+03  0.33728702147E+03  0.54004612356E+02  0.92905604165E+03  0.12699999809E+01 0.  1.
</event>
<event>
 5   0  0.1141890E-04  0.1742693E+04  0.7818609E-02  0.8737383E-01
       -2   -1    0    0    0  501  0.00000000000E+00  0.00000000000E+00  0.50223643852E+03  0.50223643852E+03  0.25500000920E-02 0.  1.
        2   -1    0    0  501    0  0.00000000000E+00  0.00000000000E+00 -0.15117275669E+04  0.15117275669E+04  0.25500000920E-02 0. -1.
    10030    2    1    2    0    0  0.00000000000E+00  0.00000000000E+00 -0.10094911284E+04  0.20139640054E+04  0.17426929382E+04 0.  0.
        2    1    3    3  502    0 -0.37882423756E+03 -0.42397024138E+03  0.25832931231E+03  0.62449387679E+03  0.25500000920E-02 0.  1.
       -2    1    3    3    0  502  0.37882423756E+03  0.42397024138E+03 -0.12678204407E+04  0.13894701286E+04  0.25500000920E-02 0. -1.
</event>
<event>
 5   0  0.1141890E-04  0.1900578E+04  0.7818609E-02  0.8654569E-01
        2   -1    0    0  501    0  0.00000000000E+00  0.00000000000E+00  0.14419218583E+04  0.14419218583E+04  0.25500000920E-02 0. -1.
       -2   -1    0    0    0  501  0.00000000000E+00  0.00000000000E+00 -0.62628154752E+03  0.62628154753E+03  0.25500000920E-02 0.  1.
    10030    2    1    2    0    0  0.00000000000E+00  0.00000000000E+00  0.81564031082E+03  0.20682034059E+04  0.19005778625E+04 0.  0.
        2    1    3    3  502    0  0.24039227705E+03  0.78489657773E+01 -0.59261068147E+03  0.63956037473E+03  0.25500000920E-02 0.  1.
       -2    1    3    3    0  502 -0.24039227705E+03 -0.78489657773E+01  0.14082509923E+04  0.14286430311E+04  0.25500000920E-02 0. -1.
</event>
<event>
 5   0  0.4061125E-05  0.1903777E+04  0.7818609E-02  0.8652979E-01
       -4   -1    0    0    0  501  0.00000000000E+00  0.00000000000E+00  0.78557563229E+03  0.78557665886E+03  0.12699999809E+01 0. -1.
        4   -1    0    0  501    0  0.00000000000E+00  0.00000000000E+00 -0.11534086721E+04  0.11534093713E+04  0.12699999809E+01 0.  1.
    10030    2    1    2    0    0  0.00000000000E+00  0.00000000000E+00 -0.36783303986E+03  0.19389860302E+04  0.19037766886E+04 0.  0.
        4    1    3    3  502    0  0.61575902317E+03 -0.55407871793E+03 -0.66155394919E+03  0.10601026558E+04  0.12699999809E+01 0.  1.
       -4    1    3    3    0  502 -0.61575902317E+03  0.55407871793E+03  0.29372090934E+03  0.87888337438E+03  0.12699999809E+01 0. -1.
</event>
<event>
 5   0  0.1118206E-04  0.1890044E+04  0.7818609E-02  0.8659828E-01
        2   -1    0    0  501    0  0.00000000000E+00  0.00000000000E+00  0.21129931344E+04  0.21129931344E+04  0.25500000920E-02 0.  1.
       -2   -1    0    0    0  501  0.00000000000E+00  0.00000000000E+00 -0.42265454870E+03  0.42265454871E+03  0.25500000920E-02 0. -1.
    10030    2    1    2    0    0  0.00000000000E+00  0.00000000000E+00  0.16903385857E+04  0.25356476831E+04  0.18900435547E+04 0.  0.
        1    1    3    3  502    0  0.32538689235E+03 -0.12646610036E+03  0.20233161832E+04  0.20532117965E+04  0.50400001928E-02 0.  1.
       -1    1    3    3    0  502 -0.32538689235E+03  0.12646610036E+03 -0.33297759746E+03  0.48243588661E+03  0.50400001928E-02 0. -1.
</event>
<event>
 5   0  0.5579109E-05  0.1890895E+04  0.7818609E-02  0.8659402E-01
       -1   -1    0    0    0  501  0.00000000000E+00  0.00000000000E+00  0.85806928376E+03  0.85806928377E+03  0.50400001928E-02 0. -1.
        1   -1    0    0  501    0  0.00000000000E+00  0.00000000000E+00 -0.10417230404E+04  0.10417230405E+04  0.50400001928E-02 0.  1.
    10030    2    1    2    0    0  0.00000000000E+00  0.00000000000E+00 -0.18365375668E+03  0.18997923242E+04  0.18908945430E+04 0.  0.
        3    1    3    3  502    0 -0.21162411504E+03  0.29398934452E+03  0.78558432405E+03  0.86507643660E+03  0.10100000352E+00 0. -1.
       -3    1    3    3    0  502  0.21162411504E+03 -0.29398934452E+03 -0.96923808074E+03  0.10347158876E+04  0.10100000352E+00 0.  1.
</event>
<event>
 5   0  0.1101678E-04  0.1896631E+04  0.7818609E-02  0.8656535E-01
        2   -1    0    0  501    0  0.00000000000E+00  0.00000000000E+00  0.10441527046E+04  0.10441527046E+04  0.25500000920E-02 0.  1.
       -2   -1    0    0    0  501  0.00000000000E+00  0.00000000000E+00 -0.86127478048E+03  0.86127478048E+03  0.25500000920E-02 0. -1.
    10030    2    1    2    0    0  0.00000000000E+00  0.00000000000E+00  0.18287792416E+03  0.19054274851E+04  0.18966311096E+04 0.  0.
        4    1    3    3  502    0  0.11737918179E+03  0.22899717084E+03  0.10084060423E+04  0.10407218339E+04  0.12699999809E+01 0.  1.
       -4    1    3    3    0  502 -0.11737918179E+03 -0.22899717084E+03 -0.82552811811E+03  0.86470565122E+03  0.12699999809E+01 0. -1.
</event>
<event>
 5   0  0.1182630E-04  0.1915871E+04  0.7818609E-02  0.8646996E-01
       -2   -1    0    0    0  501  0.00000000000E+00  0.00000000000E+00  0.86451171550E+03  0.86451171550E+03  0.25500000920E-02 0.  1.
        2   -1    0    0  501    0  0.00000000000E+00  0.00000000000E+00 -0.10614551944E+04  0.10614551944E+04  0.25500000920E-02 0. -1.
    10030    2    1    2    0    0  0.00000000000E+00  0.00000000000E+00 -0.19694347889E+03  0.19259669099E+04  0.19158710301E+04 0.  0.
        5    1    3    3  502    0 -0.33703790747E+03  0.67634164155E+03 -0.69028941169E+03  0.10235009180E+04  0.46999998093E+01 0. -1.
       -5    1    3    3    0  502  0.33703790747E+03 -0.67634164155E+03  0.49334593280E+03  0.90246599193E+03  0.46999998093E+01 0.  1.
</event>
<event>
 5   0  0.1118206E-04  0.1896538E+04  0.7818609E-02  0.8656582E-01
        2   -1    0    0  501    0  0.00000000000E+00  0.00000000000E+00  0.25923704366E+04  0.25923704366E+04  0.25500000920E-02 0. -1.
       -2   -1    0    0    0  501  0.00000000000E+00  0.00000000000E+00 -0.34686938322E+03  0.34686938323E+03  0.25500000920E-02 0.  1.
    10030    2    1    2    0    0  0.00000000000E+00  0.00000000000E+00  0.22455010533E+04  0.29392398198E+04  0.18965378292E+04 0.  0.
        1    1    3    3  502    0  0.14812197321E+03 -0.41682498100E+03 -0.17716477294E+03  0.47651919220E+03  0.50400001928E-02 0.  1.
       -1    1    3    3    0  502 -0.14812197321E+03  0.41682498100E+03  0.24226658263E+04  0.24627206276E+04  0.50400001928E-02 0. -1.
</event>
<event>
 5   0  0.5841424E-05  0.1926597E+04  0.7818609E-02  0.8641730E-01
       -1   -1    0    0    0  501  0.00000000000E+00  0.00000000000E+00  0.95445161083E+03  0.95445161084E+03  0.50400001928E-02 0.  1.
        1   -1    0    0  501    0  0.00000000000E+00  0.00000000000E+00 -0.97222718091E+03  0.97222718092E+03  0.50400001928E-02 0. -1.
    10030    2    1    2    0    0  0.00000000000E+00  0.00000000000E+00 -0.17775570080E+02  0.19266787918E+04  0.19265967912E+04 0.  0.
        1    1    3    3  502    0 -0.44058168359E+03  0.78986237391E+02 -0.86191456704E+03  0.97120943494E+03  0.50400001928E-02 0. -1.
       -1    1    3    3    0  502  0.44058168359E+03 -0.78986237391E+02  0.84413899696E+03  0.95546935683E+03  0.50400001928E-02 0.  1.
</event>
<event>
 5   0  0.5824956E-05  0.1917543E+04  0.7818609E-02  0.8646173E-01
       -1   -1    0    0    0  501  0.00000000000E+00  0.00000000000E+00  0.75075294656E+03  0.75075294658E+03  0.50400001928E-02 0. -1.
        1   -1    0    0  501    0  0.00000000000E+00  0.00000000000E+00 -0.12244272995E+04  0.12244272995E+04  0.50400001928E-02 0.  1.
    10030    2    1    2    0    0  0.00000000000E+00  0.00000000000E+00 -0.47367435290E+03  0.19751802461E+04  0.19175425971E+04 0.  0.
        2    1    3    3  502    0 -0.52999984680E+03  0.57262675789E+03  0.33708282841E+03  0.84995651341E+03  0.25500000920E-02 0. -1.
       -2    1    3    3    0  502  0.52999984680E+03 -0.57262675789E+03 -0.81075718132E+03  0.11252237327E+04  0.25500000920E-02 0.  1.
</event>
<event>
 5   0  0.5824956E-05  0.1906970E+04  0.7818609E-02  0.8651395E-01
        1   -1    0    0  501    0  0.00000000000E+00  0.00000000000E+00  0.14567233172E+04  0.14567233172E+04  0.50400001928E-02 0. -1.
       -1   -1    0    0    0  501  0.00000000000E+00  0.00000000000E+00 -0.62409471716E+03  0.62409471718E+03  0.50400001928E-02 0.  1.
    10030    2    1    2    0    0  0.00000000000E+00  0.00000000000E+00  0.83262860001E+03  0.20808180344E+04  0.19069696659E+04 0.  0.
        2    1    3    3  502    0  0.68123069157E+03 -0.66415844067E+03  0.48490715027E+03  0.10678560923E+04  0.25500000920E-02 0. -1.
       -2    1    3    3    0  502 -0.68123069157E+03  0.66415844067E+03  0.34772144974E+03  0.10129619421E+04  0.25500000920E-02 0.  1.
</event>
<event>
 5   0  0.1141890E-04  0.1906203E+04  0.7818609E-02  0.8651775E-01
        2   -1    0    0  501    0  0.00000000000E+00  0.00000000000E+00  0.81510357810E+03  0.81510357810E+03  0.25500000920E-02 0.  1.
       -2   -1    0    0    0  501  0.00000000000E+00  0.00000000000E+00 -0.11144628614E+04  0.11144628614E+04  0.25500000920E-02 0. -1.
    10030    2    1    2    0    0  0.00000000000E+00  0.00000000000E+00 -0.29935928334E+03  0.19295664395E+04  0.19062032064E+04 0.  0.
        2    1    3    3  502    0 -0.17567308112E+03  0.53820438288E+02 -0.10963667190E+04  0.11116553664E+04  0.25500000920E-02 0. -1.
       -2    1    3    3    0  502  0.17567308112E+03 -0.53820438288E+02  0.79700743570E+03  0.81791107315E+03  0.25500000920E-02 0.  1.
</event>
<event>
 5   0  0.1101678E-04  0.1898444E+04  0.7818609E-02  0.8655631E-01
       -2   -1    0    0    0  501  0.00000000000E+00  0.00000000000E+00  0.93012808214E+03  0.93012808214E+03  0.25500000920E-02 0. -1.
        2   -1    0    0  501    0  0.00000000000E+00  0.00000000000E+00 -0.96870828242E+03  0.96870828242E+03  0.25500000920E-02 0.  1.
    10030    2    1    2    0    0  0.00000000000E+00  0.00000000000E+00 -0.38580200278E+02  0.18988363646E+04  0.18984443915E+04 0.  0.
        4    1    3    3  502    0 -0.45869948611E+03 -0.73809553934E+03  0.36266689490E+03  0.94165765186E+03  0.12699999809E+01 0. -1.
       -4    1    3    3    0  502  0.45869948611E+03  0.73809553934E+03 -0.40124709518E+03  0.95717871270E+03  0.12699999809E+01 0.  1.
</event>
<event>
 5   0  0.1182630E-04  0.1944496E+04  0.7818609E-02  0.8633019E-01
        2   -1    0    0  501    0  0.00000000000E+00  0.00000000000E+00  0.84953566790E+03  0.84953566790E+03  0.25500000920E-02 0. -1.
       -2   -1    0    0    0  501  0.00000000000E+00  0.00000000000E+00 -0.11126858779E+04  0.11126858779E+04  0.25500000920E-02 0.  1.
    10030    2    1    2    0    0  0.00000000000E+00  0.00000000000E+00 -0.26315021004E+03  0.19622215458E+04  0.19444961717E+04 0.  0.
        5    1    3    3  502    0  0.37651369531E+02 -0.96721499159E+03 -0.39519721732E+02  0.96876538129E+03  0.46999998093E+01 0. -1.
       -5    1    3    3    0  502 -0.37651369531E+02  0.96721499159E+03 -0.22363048831E+03  0.99345616455E+03  0.46999998093E+01 0.  1.
</event>
<event>
 5   0  0.5841424E-05  0.1907572E+04  0.7818609E-02  0.8651097E-01
        1   -1    0    0  501    0  0.00000000000E+00  0.00000000000E+00  0.25463737953E+04  0.25463737953E+04  0.50400001928E-02 0.  1.
       -1   -1    0    0    0  501  0.00000000000E+00  0.00000000000E+00 -0.35725603360E+03  0.35725603364E+03  0.50400001928E-02 0. -1.
    10030    2    1    2    0    0  0.00000000000E+00  0.00000000000E+00  0.21891177617E+04  0.29036298289E+04  0.19075716524E+04 0.  0.
        1    1    3    3  502    0 -0.73672153102E+03  0.60215425383E+03  0.11950565392E+04  0.15275825646E+04  0.50400001928E-02 0.  1.
       -1    1    3    3    0  502  0.73672153102E+03 -0.60215425383E+03  0.99406122251E+03  0.13760472644E+04  0.50400001928E-02 0. -1.
</event>
<event>
 5   0  0.5614989E-05  0.1904048E+04  0.7818609E-02  0.8652844E-01
        1   -1    0    0  501    0  0.00000000000E+00  0.00000000000E+00  0.19887112331E+04  0.19887112332E+04  0.50400001928E-02 0. -1.
       -1   -1    0    0    0  501  0.00000000000E+00  0.00000000000E+00 -0.45574749432E+03  0.45574749435E+03  0.50400001928E-02 0.  1.
    10030    2    1    2    0    0  0.00000000000E+00  0.00000000000E+00  0.15329637388E+04  0.24444587275E+04  0.19040484883E+04 0.  0.
        4    1    3    3  502    0  0.53668101873E+03  0.74649075259E+03  0.44921010327E+03  0.10232625711E+04  0.12699999809E+01 0.  1.
       -4    1    3    3    0  502 -0.53668101873E+03 -0.74649075259E+03  0.10837536356E+04  0.14211961564E+04  0.12699999809E+01 0. -1.
</event>
<event>
 5   0  0.1141890E-04  0.1926364E+04  0.7818609E-02  0.8641843E-01
        2   -1    0    0  501    0  0.00000000000E+00  0.00000000000E+00  0.14305960165E+04  0.14305960165E+04  0.25500000920E-02 0.  1.
       -2   -1    0    0    0  501  0.00000000000E+00  0.00000000000E+00 -0.64848494171E+03  0.64848494171E+03  0.25500000920E-02 0. -1.
    10030    2    1    2    0    0  0.00000000000E+00  0.00000000000E+00  0.78211107483E+03  0.20790809583E+04  0.19263644249E+04 0.  0.
        2    1    3    3  502    0  0.88654218015E+03 -0.97421340259E+02  0.78358019549E+03  0.11872008581E+04  0.25500000920E-02 0.  1.
       -2    1    3    3    0  502 -0.88654218015E+03  0.97421340259E+02 -0.14691206542E+01  0.89188010015E+03  0.25500000920E-02 0. -1.
</event>
<event>
 5   0  0.1118206E-04  0.1901469E+04  0.7818609E-02  0.8654126E-01
       -2   -1    0    0    0  501  0.00000000000E+00  0.00000000000E+00  0.58413036805E+03  0.58413036806E+03  0.25500000920E-02 0. -1.
        2   -1    0    0  501    0  0.00000000000E+00  0.00000000000E+00 -0.15474216552E+04  0.15474216552E+04  0.25500000920E-02 0.  1.
    10030    2    1    2    0    0  0.00000000000E+00  0.00000000000E+00 -0.96329128714E+03  0.21315520233E+04  0.19014688859E+04 0.  0.
        1    1    3    3  502    0  0.20699965043E+02 -0.42745696094E+03  0.47005080348E+03  0.63568522076E+03  0.50400001928E-02 0. -1.
       -1    1    3    3    0  502 -0.20699965043E+02  0.42745696094E+03 -0.14333420906E+04  0.14958668025E+04  0.50400001928E-02 0.  1.
</event>
<event>
 5   0  0.1118206E-04  0.1899607E+04  0.7818609E-02  0.8655052E-01
       -2   -1    0    0    0  501  0.00000000000E+00  0.00000000000E+00  0.31429101375E+03  0.31429101376E+03  0.25500000920E-02 0.  1.
        2   -1    0    0  501    0  0.00000000000E+00  0.00000000000E+00 -0.28703547751E+04  0.28703547751E+04  0.25500000920E-02 0. -1.
    10030    2    1    2    0    0  0.00000000000E+00  0.00000000000E+00 -0.25560637613E+04  0.31846457888E+04  0.18996070247E+04 0.  0.
        1    1    3    3  502    0  0.17381828133E+03  0.65098532319E+03 -0.15575411384E+03  0.69155912974E+03  0.50400001928E-02 0.  1.
       -1    1    3    3    0  502 -0.17381828133E+03 -0.65098532319E+03 -0.24003096475E+04  0.24930866591E+04  0.50400001928E-02 0. -1.
</event>
<event>
 5   0  0.5824956E-05  0.1906024E+04  0.7818609E-02  0.8651864E-01
       -1   -1    0    0    0  501  0.00000000000E+00  0.00000000000E+00  0.10269745155E+04  0.10269745155E+04  0.50400001928E-02 0.  1.
        1   -1    0    0  501    0  0.00000000000E+00  0.00000000000E+00 -0.88437639907E+03  0.88437639909E+03  0.50400001928E-02 0. -1.
    10030    2    1    2    0    0  0.00000000000E+00  0.00000000000E+00  0.14259811640E+03  0.19113509146E+04  0.19060241593E+04 0.  0.
        2    1    3    3  502    0 -0.44941317986E+03  0.63629735830E+03  0.62181917973E+03  0.99674752405E+03  0.25500000920E-02 0.  1.
       -2    1    3    3    0  502  0.44941317986E+03 -0.63629735830E+03 -0.47922106333E+03  0.91460339052E+03  0.25500000920E-02 0. -1.
</event>
<event>
 5   0  0.1182630E-04  0.1884758E+04  0.7818609E-02  0.8662481E-01
       -2   -1    0    0    0  501  0.00000000000E+00  0.00000000000E+00  0.67235029322E+03  0.67235029323E+03  0.25500000920E-02 0.  1.
        2   -1    0    0  501    0  0.00000000000E+00  0.00000000000E+00 -0.13208562605E+04  0.13208562605E+04  0.25500000920E-02 0. -1.
    10030    2    1    2    0    0  0.00000000000E+00  0.00000000000E+00 -0.64850596728E+03  0.19932065537E+04  0.18847579092E+04 0.  0.
        5    1    3    3  502    0  0.44790960721E+03 -0.13389824769E+02 -0.12009616013E+04  0.12818475578E+04  0.46999998093E+01 0. -1.
       -5    1    3    3    0  502 -0.44790960721E+03  0.13389824769E+02  0.55245563398E+03  0.71135899597E+03  0.46999998093E+01 0.  1.
</event>
<event>
 5   0  0.5614989E-05  0.1800888E+04  0.7818609E-02  0.8705827E-01
        1   -1    0    0  501    0  0.00000000000E+00  0.00000000000E+00  0.24692242597E+04  0.24692242597E+04  0.50400001928E-02 0.  1.
       -1   -1    0    0    0  501  0.00000000000E+00  0.00000000000E+00 -0.32836216860E+03  0.32836216864E+03  0.50400001928E-02 0. -1.
    10030    2    1    2    0    0  0.00000000000E+00  0.00000000000E+00  0.21408620911E+04  0.27975864284E+04  0.18008884838E+04 0.  0.
        4    1    3    3  502    0  0.71574432867E+03  0.25682166926E+02  0.22262882922E+03  0.75000981742E+03  0.12699999809E+01 0. -1.
       -4    1    3    3    0  502 -0.71574432867E+03 -0.25682166926E+02  0.19182332619E+04  0.20475766109E+04  0.12699999809E+01 0.  1.
</event>
<event>
 5   0  0.5841424E-05  0.1909246E+04  0.7818609E-02  0.8650268E-01
       -1   -1    0    0    0  501  0.00000000000E+00  0.00000000000E+00  0.63407753707E+03  0.63407753709E+03  0.50400001928E-02 0. -1.
        1   -1    0    0  501    0  0.00000000000E+00  0.00000000000E+00 -0.14372138157E+04  0.14372138157E+04  0.50400001928E-02 0.  1.
    10030    2    1    2    0    0  0.00000000000E+00  0.00000000000E+00 -0.80313627860E+03  0.20712913528E+04  0.19092459208E+04 0.  0.
        1    1    3    3  502    0 -0.57910288843E+03 -0.69554591676E+03 -0.73091402869E+03  0.11633484410E+04  0.50400001928E-02 0.  1.
       -1    1    3    3    0  502  0.57910288843E+03  0.69554591676E+03 -0.72222249918E+02  0.90794291181E+03  0.50400001928E-02 0. -1.
</event>
<event>
 5   0  0.5841424E-05  0.1933399E+04  0.7818609E-02  0.8638408E-01
       -1   -1    0    0    0  501  0.00000000000E+00  0.00000000000E+00  0.71981478994E+03  0.71981478996E+03  0.50400001928E-02 0.  1.
        1   -1    0    0  501    0  0.00000000000E+00  0.00000000000E+00 -0.12982617181E+04  0.12982617181E+04  0.50400001928E-02 0. -1.
    10030    2    1    2    0    0  0.00000000000E+00  0.00000000000E+00 -0.57844692813E+03  0.20180765080E+04  0.19333990648E+04 0.  0.
        1    1    3    3  502    0  0.32559547500E+03 -0.52931585642E+03 -0.10621412191E+04  0.12305818374E+04  0.50400001928E-02 0. -1.
       -1    1    3    3    0  502 -0.32559547500E+03  0.52931585642E+03  0.48369429095E+03  0.78749467066E+03  0.50400001928E-02 0.  1.
</event>
<event>
 5   0  0.5824956E-05  0.1900547E+04  0.7818609E-02  0.8654584E-01
        1   -1    0    0  501    0  0.00000000000E+00  0.00000000000E+00  0.15627168069E+04  0.15627168069E+04  0.50400001928E-02 0. -1.
       -1   -1    0    0    0  501  0.00000000000E+00  0.00000000000E+00 -0.57785249875E+03  0.57785249877E+03  0.50400001928E-02 0.  1.
    10030    2    1    2    0    0  0.00000000000E+00  0.00000000000E+00  0.98486430813E+03  0.21405693057E+04  0.19005470915E+04 0.  0.
        2    1    3    3  502    0  0.70995014747E+03 -0.43340737531E+03 -0.25108904732E+02  0.83216682340E+03  0.25500000920E-02 0.  1.
       -2    1    3    3    0  502 -0.70995014747E+03  0.43340737531E+03  0.10099732129E+04  0.13084024823E+04  0.25500000920E-02 0. -1.
</event>
<event>
 5   0  0.5579109E-05  0.1889891E+04  0.7818609E-02  0.8659905E-01
       -1   -1    0    0    0  501  0.00000000000E+00  0.00000000000E+00  0.17875585484E+04  0.17875585484E+04  0.50400001928E-02 0.  1.
        1   -1    0    0  501    0  0.00000000000E+00  0.00000000000E+00 -0.49952048114E+03  0.49952048116E+03  0.50400001928E-02 0. -1.
    10030    2    1    2    0    0  0.00000000000E+00  0.00000000000E+00  0.12880380673E+04  0.22870790296E+04  0.18898911145E+04 0.  0.
        3    1    3    3  502    0  0.24793806775E+03  0.59384592064E+03  0.14813932218E+04  0.16151322394E+04  0.10100000352E+00 0.  1.
       -3    1    3    3    0  502 -0.24793806775E+03 -0.59384592064E+03 -0.19335515451E+03  0.67194679021E+03  0.10100000352E+00 0. -1.
</event>
<event>
 5   0  0.1133638E-04  0.1913598E+04  0.7818609E-02  0.8648117E-01
        2   -1    0    0  501    0  0.00000000000E+00  0.00000000000E+00  0.15468811055E+04  0.15468811055E+04  0.25500000920E-02 0.  1.
       -2   -1    0    0    0  501  0.00000000000E+00  0.00000000000E+00 -0.59181304337E+03  0.59181304338E+03  0.25500000920E-02 0. -1.
    10030    2    1    2    0    0  0.00000000000E+00  0.00000000000E+00  0.95506806217E+03  0.21386941489E+04  0.19135980924E+04 0.  0.
        3    1    3    3  502    0  0.47437649716E+03  0.92074501736E+02 -0.44541001928E+03  0.65719165424E+03  0.10100000352E+00 0. -1.
       -3    1    3    3    0  502 -0.47437649716E+03 -0.92074501736E+02  0.14004780814E+04  0.14815024947E+04  0.10100000352E+00 0.  1.
</event>
<event>
 5   0  0.5579109E-05  0.1901341E+04  0.7818609E-02  0.8654189E-01
       -1   -1    0    0    0  501  0.00000000000E+00  0.00000000000E+00  0.74570375319E+03  0.74570375321E+03  0.50400001928E-02 0.  1.
        1   -1    0    0  501    0  0.00000000000E+00  0.00000000000E+00 -0.12119751306E+04  0.12119751306E+04  0.50400001928E-02 0. -1.
    10030    2    1    2    0    0  0.00000000000E+00  0.00000000000E+00 -0.46627137736E+03  0.19576788838E+04  0.19013410043E+04 0.  0.
        3    1    3    3  502    0  0.49368298664E+02  0.87897858593E+03  0.13629056306E+03  0.89085111619E+03  0.10100000352E+00 0. -1.
       -3    1    3    3    0  502 -0.49368298664E+02 -0.87897858593E+03 -0.60256194042E+03  0.10668277676E+04  0.10100000352E+00 0.  1.
</event>
<event>
 5   0  0.1101678E-04  0.1889790E+04  0.7818609E-02  0.8659955E-01
       -2   -1    0    0    0  501  0.00000000000E+00  0.00000000000E+00  0.52173905931E+03  0.52173905931E+03  0.25500000920E-02 0.  1.
        2   -1    0    0  501    0  0.00000000000E+00  0.00000000000E+00 -0.17112513803E+04  0.17112513803E+04  0.25500000920E-02 0. -1.
    10030    2    1    2    0    0  0.00000000000E+00  0.00000000000E+00 -0.11895123210E+04  0.22329904396E+04  0.18897901316E+04 0.  0.
        4    1    3    3  502    0  0.79792820754E+03  0.93774915925E+02 -0.71015540703E+01  0.80345205471E+03  0.12699999809E+01 0.  1.
       -4    1    3    3    0  502 -0.79792820754E+03 -0.93774915925E+02 -0.11824107669E+04  0.14295383849E+04  0.12699999809E+01 0. -1.
</event>
<event>
 5   0  0.1133638E-04  0.1922510E+04  0.7818609E-02  0.8643732E-01
       -2   -1    0    0    0  501  0.00000000000E+00  0.00000000000E+00  0.78008585794E+03  0.78008585794E+03  0.25500000920E-02 0. -1.
        2   -1    0    0  501    0  0.00000000000E+00  0.00000000000E+00 -0.11844987674E+04  0.11844987674E+04  0.25500000920E-02 0.  1.
    10030    2    1    2    0    0  0.00000000000E+00  0.00000000000E+00 -0.40441290949E+03  0.19645846254E+04  0.19225095446E+04 0.  0.
        3    1    3    3  502    0  0.38948199305E+03 -0.63648257565E+01 -0.11002304503E+04  0.11671519986E+04  0.10100000352E+00 0.  1.
       -3    1    3    3    0  502 -0.38948199305E+03  0.63648257565E+01  0.69581754081E+03  0.79743262675E+03  0.10100000352E+00 0. -1.
</event>
<event>
 5   0  0.1141890E-04  0.1898171E+04  0.7818609E-02  0.8655767E-01
       -2   -1    0    0    0  501  0.00000000000E+00  0.00000000000E+00  0.64968672512E+03  0.64968672513E+03  0.25500000920E-02 0.  1.
        2   -1    0    0  501    0  0.00000000000E+00  0.00000000000E+00 -0.13864580609E+04  0.13864580609E+04  0.25500000920E-02 0. -1.
    10030    2    1    2    0    0  0.00000000000E+00  0.00000000000E+00 -0.73677133575E+03  0.20361447860E+04  0.18981711167E+04 0.  0.
        2    1    3    3  502    0  0.32635837483E+02  0.64168609757E+03  0.38091355733E+03  0.74694128542E+03  0.25500000920E-02 0.  1.
       -2    1    3    3    0  502 -0.32635837483E+02 -0.64168609757E+03 -0.11176848931E+04  0.12892035006E+04  0.25500000920E-02 0. -1.
</event>
<event>
 5   0  0.5628936E-05  0.1910481E+04  0.7818609E-02  0.8649657E-01
        1   -1    0    0  501    0  0.00000000000E+00  0.00000000000E+00  0.19090017394E+04  0.19090017394E+04  0.50400001928E-02 0. -1.
       -1   -1    0    0    0  501  0.00000000000E+00  0.00000000000E+00 -0.47799023717E+03  0.47799023719E+03  0.50400001928E-02 0.  1.
    10030    2    1    2    0    0  0.00000000000E+00  0.00000000000E+00  0.14310115022E+04  0.23869919766E+04  0.19104807711E+04 0.  0.
        5    1    3    3  502    0 -0.38252035162E+03  0.86924219067E+03  0.84388808343E+03  0.12704617243E+04  0.46999998093E+01 0. -1.
       -5    1    3    3    0  502  0.38252035162E+03 -0.86924219067E+03  0.58712341876E+03  0.11165302523E+04  0.46999998093E+01 0.  1.
</event>
<event>
 5   0  0.5841424E-05  0.1897909E+04  0.7818609E-02  0.8655898E-01
        1   -1    0    0  501    0  0.00000000000E+00  0.00000000000E+00  0.19148786929E+04  0.19148786930E+04  0.50400001928E-02 0.  1.
       -1   -1    0    0    0  501  0.00000000000E+00  0.00000000000E+00 -0.47027237909E+03  0.47027237912E+03  0.50400001928E-02 0. -1.
    10030    2    1    2    0    0  0.00000000000E+00  0.00000000000E+00  0.14446063139E+04  0.23851510721E+04  0.18979089110E+04 0.  0.
        1    1    3    3  502    0  0.72085083888E+03  0.39154488058E+03  0.13218301619E+04  0.15556890121E+04  0.50400001928E-02 0.  1.
       -1    1    3    3    0  502 -0.72085083888E+03 -0.39154488058E+03  0.12277615197E+03  0.82946205998E+03  0.50400001928E-02 0. -1.
</event>
<event>
 5   0  0.1101678E-04  0.1883201E+04  0.7818609E-02  0.8663264E-01
        2   -1    0    0  501    0  0.00000000000E+00  0.00000000000E+00  0.47232636813E+03  0.47232636814E+03  0.25500000920E-02 0. -1.
       -2   -1    0    0    0  501  0.00000000000E+00  0.00000000000E+00 -0.18771170543E+04  0.18771170543E+04  0.25500000920E-02 0.  1.
    10030    2    1    2    0    0  0.00000000000E+00  0.00000000000E+00 -0.14047906861E+04  0.23494434224E+04  0.18832014027E+04 0.  0.
        4    1    3    3  502    0  0.56013463039E+02 -0.49043970270E+03  0.29795932945E+03  0.57658475954E+03  0.12699999809E+01 0. -1.
       -4    1    3    3    0  502 -0.56013463039E+02  0.49043970270E+03 -0.17027500156E+04  0.17728586629E+04  0.12699999809E+01 0.  1.
</event>
<event>
 5   0  0.1101678E-04  0.1922805E+04  0.7818609E-02  0.8643587E-01
       -2   -1    0    0    0  501  0.00000000000E+00  0.00000000000E+00  0.77207368478E+03  0.77207368479E+03  0.25500000920E-02 0. -1.
        2   -1    0    0  501    0  0.00000000000E+00  0.00000000000E+00 -0.11971586775E+04  0.11971586775E+04  0.25500000920E-02 0.  1.
    10030    2    1    2    0    0  0.00000000000E+00  0.00000000000E+00 -0.42508499275E+03  0.19692323623E+04  0.19228049422E+04 0.  0.
        4    1    3    3  502    0  0.41437527039E+03  0.84369990973E+03 -0.41929997171E+03  0.10292475317E+04  0.12699999809E+01 0.  1.
       -4    1    3    3    0  502 -0.41437527039E+03 -0.84369990973E+03 -0.57850210346E+01  0.93998483060E+03  0.12699999809E+01 0. -1.
</event>
<event>
 5   0  0.1182630E-04  0.1900522E+04  0.7818609E-02  0.8654597E-01
        2   -1    0    0  501    0  0.00000000000E+00  0.00000000000E+00  0.13128331605E+04  0.13128331605E+04  0.25500000920E-02 0. -1.
       -2   -1    0    0    0  501  0.00000000000E+00  0.00000000000E+00 -0.68782242043E+03  0.68782242043E+03  0.25500000920E-02 0.  1.
    10030    2    1    2    0    0  0.00000000000E+00  0.00000000000E+00  0.62501074004E+03  0.20006555809E+04  0.19005221199E+04 0.  0.
        5    1    3    3  502    0  0.56239906494E+00 -0.56306809870E+03  0.11182947226E+04  0.12520587752E+04  0.46999998093E+01 0. -1.
       -5    1    3    3    0  502 -0.56239906494E+00  0.56306809870E+03 -0.49328398253E+03  0.74859680569E+03  0.46999998093E+01 0.  1.
</event>
<event>
 5   0  0.1133638E-04  0.1900814E+04  0.7818609E-02  0.8654451E-01
       -2   -1    0    0    0  501  0.00000000000E+00  0.00000000000E+00  0.44602217987E+03  0.44602217988E+03  0.25500000920E-02 0. -1.
        2   -1    0    0  501    0  0.00000000000E+00  0.00000000000E+00 -0.20251770352E+04  0.20251770352E+04  0.25500000920E-02 0.  1.
    10030    2    1    2    0    0  0.00000000000E+00  0.00000000000E+00 -0.15791548553E+04  0.24711992151E+04  0.19008144316E+04 0.  0.
        3    1    3    3  502    0 -0.31674734646E+03  0.81346102829E+03 -0.30100879502E+03  0.92339267429E+03  0.10100000352E+00 0.  1.
       -3    1    3    3    0  502  0.31674734646E+03 -0.81346102829E+03 -0.12781460603E+04  0.15478065408E+04  0.10100000352E+00 0. -1.
</event>
<event>
 5   0  0.1101678E-04  0.1904401E+04  0.7818609E-02  0.8652669E-01
       -2   -1    0    0    0  501  0.00000000000E+00  0.00000000000E+00  0.37082730614E+03  0.37082730615E+03  0.25500000920E-02 0. -1.
        2   -1    0    0  501    0  0.00000000000E+00  0.00000000000E+00 -0.24450350132E+04  0.24450350132E+04  0.25500000920E-02 0.  1.
    10030    2    1    2    0    0  0.00000000000E+00  0.00000000000E+00 -0.20742077071E+04  0.28158623193E+04  0.19044009529E+04 0.  0.
        4    1    3    3  502    0  0.34257817039E+03  0.85989543214E+03 -0.70679403990E+03  0.11646198456E+04  0.12699999809E+01 0. -1.
       -4    1    3    3    0  502 -0.34257817039E+03 -0.85989543214E+03 -0.13674136672E+04  0.16512424737E+04  0.12699999809E+01 0.  1.
</event>
<event>
 5   0  0.5628936E-05  0.1902669E+04  0.7818609E-02  0.8653529E-01
        1   -1    0    0  501    0  0.00000000000E+00  0.00000000000E+00  0.11657057151E+04  0.11657057151E+04  0.50400001928E-02 0. -1.
       -1   -1    0    0    0  501  0.00000000000E+00  0.00000000000E+00 -0.77638614790E+03  0.77638614792E+03  0.50400001928E-02 0.  1.
    10030    2    1    2    0    0  0.00000000000E+00  0.00000000000E+00  0.38931956716E+03  0.19420918630E+04  0.19026694613E+04 0.  0.
        5    1    3    3  502    0 -0.23726689115E+03 -0.27015752077E+02 -0.74528393683E+03  0.78262102258E+03  0.46999998093E+01 0.  1.
       -5    1    3    3    0  502  0.23726689115E+03  0.27015752077E+02  0.11346035040E+04  0.11594708404E+04  0.46999998093E+01 0. -1.
</event>
<event>
 5   0  0.5824956E-05  0.1936473E+04  0.7818609E-02  0.8636911E-01
        1   -1    0    0  501    0  0.00000000000E+00  0.00000000000E+00  0.11796674325E+04  0.11796674325E+04  0.50400001928E-02 0.  1.
       -1   -1    0    0    0  501  0.00000000000E+00  0.00000000000E+00 -0.79470052314E+03  0.79470052315E+03  0.50400001928E-02 0. -1.
    10030    2    1    2    0    0  0.00000000000E+00  0.00000000000E+00  0.38496690936E+03  0.19743679557E+04  0.19364734191E+04 0.  0.
        2    1    3    3  502    0 -0.14738058856E+03  0.62776892665E+03 -0.54391594972E+03  0.84359908933E+03  0.25500000920E-02 0. -1.
       -2    1    3    3    0  502  0.14738058856E+03 -0.62776892665E+03  0.92888285908E+03  0.11307688663E+04  0.25500000920E-02 0.  1.
</event>
<event>
 5   0  0.1101678E-04  0.1907104E+04  0.7818609E-02  0.8651329E-01
        2   -1    0    0  501    0  0.00000000000E+00  0.00000000000E+00  0.10163409447E+04  0.10163409447E+04  0.25500000920E-02 0.  1.
       -2   -1    0    0    0  501  0.00000000000E+00  0.00000000000E+00 -0.89464174330E+03  0.89464174330E+03  0.25500000920E-02 0. -1.
    10030    2    1    2    0    0  0.00000000000E+00  0.00000000000E+00  0.12169920137E+03  0.19109826880E+04  0.19071035992E+04 0.  0.
        4    1    3    3  502    0  0.90436612161E+03  0.29117856967E+03 -0.20533701746E+02  0.95030852209E+03  0.12699999809E+01 0.  1.
       -4    1    3    3    0  502 -0.90436612161E+03 -0.29117856967E+03  0.14223290312E+03  0.96067416588E+03  0.12699999809E+01 0. -1.
</event>
<event>
 5   0  0.1133638E-04  0.1904838E+04  0.7818609E-02  0.8652452E-01
       -2   -1    0    0    0  501  0.00000000000E+00  0.00000000000E+00  0.57640626307E+03  0.57640626308E+03  0.25500000920E-02 0. -1.
        2   -1    0    0  501    0  0.00000000000E+00  0.00000000000E+00 -0.15737193957E+04  0.15737193957E+04  0.25500000920E-02 0.  1.
    10030    2    1    2    0    0  0.00000000000E+00  0.00000000000E+00 -0.99731313264E+03  0.21501256588E+04  0.19048377527E+04 0.  0.
        3    1    3    3  502    0  0.31970547046E+03 -0.26810812047E+03 -0.14650639842E+04  0.15233207279E+04  0.10100000352E+00 0.  1.
       -3    1    3    3    0  502 -0.31970547046E+03  0.26810812047E+03  0.46775085153E+03  0.62680493091E+03  0.10100000352E+00 0. -1.
</event>
<event>
 5   0  0.1141890E-04  0.1909667E+04  0.7818609E-02  0.8650059E-01
        2   -1    0    0  501    0  0.00000000000E+00  0.00000000000E+00  0.11734325651E+04  0.11734325651E+04  0.25500000920E-02 0.  1.
       -2   -1    0    0    0  501  0.00000000000E+00  0.00000000000E+00 -0.77695768553E+03  0.77695768553E+03  0.25500000920E-02 0. -1.
    10030    2    1    2    0    0  0.00000000000E+00  0.00000000000E+00  0.39647487954E+03  0.19503902506E+04  0.19096674578E+04 0.  0.
        2    1    3    3  502    0  0.52606766487E+03  0.89612255813E+02 -0.61043615647E+03  0.81080814349E+03  0.25500000920E-02 0. -1.
       -2    1    3    3    0  502 -0.52606766487E+03 -0.89612255813E+02  0.10069110360E+04  0.11395821071E+04  0.25500000920E-02 0.  1.
</event>
<event>
 5   0  0.1101678E-04  0.1793165E+04  0.7818609E-02  0.8709942E-01
        2   -1    0    0  501    0  0.00000000000E+00  0.00000000000E+00  0.91088684665E+03  0.91088684665E+03  0.25500000920E-02 0.  1.
       -2   -1    0    0    0  501  0.00000000000E+00  0.00000000000E+00 -0.88250323071E+03  0.88250323072E+03  0.25500000920E-02 0. -1.
    10030    2    1    2    0    0  0.00000000000E+00  0.00000000000E+00  0.28383615932E+02  0.17933900774E+04  0.17931654525E+04 0.  0.
        4    1    3    3  502    0 -0.62950592429E+03 -0.46078358383E+03  0.45612921824E+03  0.90368949119E+03  0.12699999809E+01 0.  1.
       -4    1    3    3    0  502  0.62950592429E+03  0.46078358383E+03 -0.42774560231E+03  0.88970058618E+03  0.12699999809E+01 0. -1.
</event>
<event>
 5   0  0.5841424E-05  0.1909563E+04  0.7818609E-02  0.8650111E-01
       -1   -1    0    0    0  501  0.00000000000E+00  0.00000000000E+00  0.83111814949E+03  0.83111814950E+03  0.50400001928E-02 0.  1.
        1   -1    0    0  501    0  0.00000000000E+00  0.00000000000E+00 -0.10968445771E+04  0.10968445771E+04  0.50400001928E-02 0. -1.
    10030    2    1    2    0    0  0.00000000000E+00  0.00000000000E+00 -0.26572642763E+03  0.19279627266E+04  0.19095627093E+04 0.  0.
        1    1    3    3  502    0 -0.82880208102E+03  0.21223280775E+03 -0.56080083867E+03  0.10229629685E+04  0.50400001928E-02 0. -1.
       -1    1    3    3    0  502  0.82880208102E+03 -0.21223280775E+03  0.29507441104E+03  0.90499975816E+03  0.50400001928E-02 0.  1.
</event>
<event>
 5   0  0.1141890E-04  0.1891938E+04  0.7818609E-02  0.8658880E-01
       -2   -1    0    0    0  501  0.00000000000E+00  0.00000000000E+00  0.65760360323E+03  0.65760360323E+03  0.25500000920E-02 0.  1.
        2   -1    0    0  501    0  0.00000000000E+00  0.00000000000E+00 -0.13607852619E+04  0.13607852619E+04  0.25500000920E-02 0. -1.
    10030    2    1    2    0    0  0.00000000000E+00  0.00000000000E+00 -0.70318165871E+03  0.20183888652E+04  0.18919379392E+04 0.  0.
        2    1    3    3  502    0  0.70037376124E+03  0.44139857261E+03 -0.83989585996E+03  0.11793138517E+04  0.25500000920E-02 0.  1.
       -2    1    3    3    0  502 -0.70037376124E+03 -0.44139857261E+03  0.13671420125E+03  0.83907501343E+03  0.25500000920E-02 0. -1.
</event>
<event>
 5   0  0.5628936E-05  0.1900161E+04  0.7818609E-02  0.8654776E-01
       -1   -1    0    0    0  501  0.00000000000E+00  0.00000000000E+00  0.14069653076E+04  0.14069653076E+04  0.50400001928E-02 0. -1.
        1   -1    0    0  501    0  0.00000000000E+00  0.00000000000E+00 -0.64156028497E+03  0.64156028499E+03  0.50400001928E-02 0.  1.
    10030    2    1    2    0    0  0.00000000000E+00  0.00000000000E+00  0.76540502264E+03  0.20485255926E+04  0.19001611129E+04 0.  0.
        5    1    3    3  502    0  0.90346262753E+03  0.19012340529E+03  0.62434480700E+03  0.11145493065E+04  0.46999998093E+01 0. -1.
       -5    1    3    3    0  502 -0.90346262753E+03 -0.19012340529E+03  0.14106021564E+03  0.93397628611E+03  0.46999998093E+01 0.  1.
</event>
<event>
 5   0  0.5579109E-05  0.1901863E+04  0.7818609E-02  0.8653930E-01
       -1   -1    0    0    0  501  0.00000000000E+00  0.00000000000E+00  0.49847170495E+03  0.49847170497E+03  0.50400001928E-02 0.  1.
        1   -1    0    0  501    0  0.00000000000E+00  0.00000000000E+00 -0.18140866861E+04  0.18140866861E+04  0.50400001928E-02 0. -1.
    10030    2    1    2    0    0  0.00000000000E+00  0.00000000000E+00 -0.13156149812E+04  0.23125583911E+04  0.19018631742E+04 0.  0.
        3    1    3    3  502    0  0.42197951072E+03  0.48699050645E+03 -0.15081376613E+04  0.16400322181E+04  0.10100000352E+00 0. -1.
       -3    1    3    3    0  502 -0.42197951072E+03 -0.48699050645E+03  0.19252268009E+03  0.67252617301E+03  0.10100000352E+00 0.  1.
</event>
<event>
 5   0  0.1182630E-04  0.1897182E+04  0.7818609E-02  0.8656260E-01
       -2   -1    0    0    0  501  0.00000000000E+00  0.00000000000E+00  0.53445985859E+03  0.53445985860E+03  0.25500000920E-02 0.  1.
        2   -1    0    0  501    0  0.00000000000E+00  0.00000000000E+00 -0.16836161326E+04  0.16836161326E+04  0.25500000920E-02 0. -1.
    10030    2    1    2    0    0  0.00000000000E+00  0.00000000000E+00 -0.11491562740E+04  0.22180759912E+04  0.18971823741E+04 0.  0.
        5    1    3    3  502    0  0.75114996316E+03  0.26108347285E+03 -0.11791640616E+04  0.14222660866E+04  0.46999998093E+01 0. -1.
       -5    1    3    3    0  502 -0.75114996316E+03 -0.26108347285E+03  0.30007787582E+02  0.79580990460E+03  0.46999998093E+01 0.  1.
</event>
<event>
 5   0  0.5628936E-05  0.1910971E+04  0.7818609E-02  0.8649415E-01
       -1   -1    0    0    0  501  0.00000000000E+00  0.00000000000E+00  0.49222055443E+03  0.49222055445E+03  0.50400001928E-02 0.  1.
        1   -1    0    0  501    0  0.00000000000E+00  0.00000000000E+00 -0.18547634635E+04  0.18547634635E+04  0.50400001928E-02 0. -1.
    10030    2    1    2    0    0  0.00000000000E+00  0.00000000000E+00 -0.13625429090E+04  0.23469840179E+04  0.19109711671E+04 0.  0.
        5    1    3    3  502    0  0.43028491139E+03  0.77535878417E+03 -0.24427274002E+03  0.91979215624E+03  0.46999998093E+01 0.  1.
       -5    1    3    3    0  502 -0.43028491139E+03 -0.77535878417E+03 -0.11182701690E+04  0.14271918617E+04  0.46999998093E+01 0. -1.
</event>
<event>
 5   0  0.1133638E-04  0.1863295E+04  0.7818609E-02  0.8673346E-01
       -2   -1    0    0    0  501  0.00000000000E+00  0.00000000000E+00  0.50228795560E+03  0.50228795561E+03  0.25500000920E-02 0. -1.
        2   -1    0    0  501    0  0.00000000000E+00  0.00000000000E+00 -0.17280266075E+04  0.17280266075E+04  0.25500000920E-02 0.  1.
    10030    2    1    2    0    0  0.00000000000E+00  0.00000000000E+00 -0.12257386519E+04  0.22303145631E+04  0.18632948794E+04 0.  0.
        3    1    3    3  502    0 -0.29379069101E+03  0.85732721453E+03 -0.87138239916E+03  0.12572311715E+04  0.10100000352E+00 0.  1.
       -3    1    3    3    0  502  0.29379069101E+03 -0.85732721453E+03 -0.35435625272E+03  0.97308339157E+03  0.10100000352E+00 0. -1.
</event>
<event>
 5   0  0.5841424E-05  0.1897034E+04  0.7818609E-02  0.8656334E-01
       -1   -1    0    0    0  501  0.00000000000E+00  0.00000000000E+00  0.50664503608E+03  0.50664503611E+03  0.50400001928E-02 0.  1.
        1   -1    0    0  501    0  0.00000000000E+00  0.00000000000E+00 -0.17757688188E+04  0.17757688188E+04  0.50400001928E-02 0. -1.
    10030    2    1    2    0    0  0.00000000000E+00  0.00000000000E+00 -0.12691237827E+04  0.22824138549E+04  0.18970339558E+04 0.  0.
        1    1    3    3  502    0  0.63037089690E+03  0.56816061783E+03 -0.12480369079E+03  0.85775865870E+03  0.50400001928E-02 0.  1.
       -1    1    3    3    0  502 -0.63037089690E+03 -0.56816061783E+03 -0.11443200919E+04  0.14246551962E+04  0.50400001928E-02 0. -1.
</event>
<event>
 5   0  0.5628936E-05  0.1909943E+04  0.7818609E-02  0.8649923E-01
       -1   -1    0    0    0  501  0.00000000000E+00  0.00000000000E+00  0.15045305745E+04  0.15045305745E+04  0.50400001928E-02 0. -1.
        1   -1    0    0  501    0  0.00000000000E+00  0.00000000000E+00 -0.60614985934E+03  0.60614985937E+03  0.50400001928E-02 0.  1.
    10030    2    1    2    0    0  0.00000000000E+00  0.00000000000E+00  0.89838071516E+03  0.21106804339E+04  0.19099434506E+04 0.  0.
        5    1    3    3  502    0  0.84398316103E+03  0.16433940635E+03  0.90835136824E+03  0.12507754854E+04  0.46999998093E+01 0. -1.
       -5    1    3    3    0  502 -0.84398316103E+03 -0.16433940635E+03 -0.99706530857E+01  0.85990494852E+03  0.46999998093E+01 0.  1.
</event>
<event>
 5   0  0.1133638E-04  0.1900068E+04  0.7818609E-02  0.8654823E-01
        2   -1    0    0  501    0  0.00000000000E+00  0.00000000000E+00  0.95355704303E+03  0.95355704303E+03  0.25500000920E-02 0.  1.
       -2   -1    0    0    0  501  0.00000000000E+00  0.00000000000E+00 -0.94652402304E+03  0.94652402304E+03  0.25500000920E-02 0. -1.
    10030    2    1    2    0    0  0.00000000000E+00  0.00000000000E+00  0.70330199888E+01  0.19000810661E+04  0.19000680499E+04 0.  0.
        3    1    3    3  502    0  0.57288250785E+03  0.20737391520E+03 -0.72543726769E+03  0.94734236053E+03  0.10100000352E+00 0. -1.
       -3    1    3    3    0  502 -0.57288250785E+03 -0.20737391520E+03  0.73247028768E+03  0.95273870554E+03  0.10100000352E+00 0.  1.
</event>
<event>
 5   0  0.1182630E-04  0.1894857E+04  0.7818609E-02  0.8657421E-01
        2   -1    0    0  501    0  0.00000000000E+00  0.00000000000E+00  0.12368104796E+04  0.12368104796E+04  0.25500000920E-02 0.  1.
       -2   -1    0    0    0  501  0.00000000000E+00  0.00000000000E+00 -0.72575421400E+03  0.72575421401E+03  0.25500000920E-02 0. -1.
    10030    2    1    2    0    0  0.00000000000E+00  0.00000000000E+00  0.51105626555E+03  0.19625646936E+04  0.18948566357E+04 0.  0.
        5    1    3    3  502    0 -0.42846303610E+03 -0.21967744505E+03 -0.58956842950E+03  0.76121729896E+03  0.46999998093E+01 0. -1.
       -5    1    3    3    0  502  0.42846303610E+03  0.21967744505E+03  0.11006246951E+04  0.12013473946E+04  0.46999998093E+01 0.  1.
</event>
<event>
 5   0  0.1182630E-04  0.1891182E+04  0.7818609E-02  0.8659258E-01
        2   -1    0    0  501    0  0.00000000000E+00  0.00000000000E+00  0.14417005293E+04  0.14417005293E+04  0.25500000920E-02 0. -1.
       -2   -1    0    0    0  501  0.00000000000E+00  0.00000000000E+00 -0.62019947497E+03  0.62019947498E+03  0.25500000920E-02 0.  1.
    10030    2    1    2    0    0  0.00000000000E+00  0.00000000000E+00  0.82150105433E+03  0.20619000043E+04  0.18911815474E+04 0.  0.
        5    1    3    3  502    0 -0.74483373427E+03  0.49791165425E+03  0.74041371862E+03  0.11622942278E+04  0.46999998093E+01 0. -1.
       -5    1    3    3    0  502  0.74483373427E+03 -0.49791165425E+03  0.81087335707E+02  0.89960577652E+03  0.46999998093E+01 0.  1.
</event>
<event>
 5   0  0.5614989E-05  0.1938997E+04  0.7818609E-02  0.8635685E-01
       -1   -1    0    0    0  501  0.00000000000E+00  0.00000000000E+00  0.56148905441E+03  0.56148905443E+03  0.50400001928E-02 0.  1.
        1   -1    0    0  501    0  0.00000000000E+00  0.00000000000E+00 -0.16739899747E+04  0.16739899747E+04  0.50400001928E-02 0. -1.
    10030    2    1    2    0    0  0.00000000000E+00  0.00000000000E+00 -0.11125009203E+04  0.22354790291E+04  0.19389966973E+04 0.  0.
        4    1    3    3  502    0 -0.80338461124E+03 -0.51839844392E+03 -0.74129676176E+03  0.12098290301E+04  0.12699999809E+01 0. -1.
       -4    1    3    3    0  502  0.80338461124E+03  0.51839844392E+03 -0.37120415849E+03  0.10256499990E+04  0.12699999809E+01 0.  1.
</event>
<event>
 5   0  0.4061125E-05  0.1861435E+04  0.7818609E-02  0.8674294E-01
        3   -1    0    0  501    0  0.00000000000E+00  0.00000000000E+00  0.96842737686E+03  0.96842738213E+03  0.10100000352E+00 0. -1.
       -3   -1    0    0    0  501  0.00000000000E+00  0.00000000000E+00 -0.89447587536E+03  0.89447588106E+03  0.10100000352E+00 0.  1.
    10030    2    1    2    0    0  0.00000000000E+00  0.00000000000E+00  0.73951501503E+02  0.18629032632E+04  0.18614348615E+04 0.  0.
        3    1    3    3  502    0 -0.13894699817E+03 -0.49624174722E+03  0.81261796636E+03  0.96224223012E+03  0.10100000352E+00 0. -1.
       -3    1    3    3    0  502  0.13894699817E+03  0.49624174722E+03 -0.73866646486E+03  0.90066103307E+03  0.10100000352E+00 0.  1.
</event>
<event>
 5   0  0.5614989E-05  0.1839009E+04  0.7818609E-02  0.8685825E-01
        1   -1    0    0  501    0  0.00000000000E+00  0.00000000000E+00  0.13044586274E+04  0.13044586274E+04  0.50400001928E-02 0. -1.
       -1   -1    0    0    0  501  0.00000000000E+00  0.00000000000E+00 -0.64815314845E+03  0.64815314847E+03  0.50400001928E-02 0.  1.
    10030    2    1    2    0    0  0.00000000000E+00  0.00000000000E+00  0.65630547893E+03  0.19526117759E+04  0.18390094795E+04 0.  0.
        4    1    3    3  502    0  0.83336968627E+03 -0.19229510805E+03 -0.30351021469E+02  0.85580677724E+03  0.12699999809E+01 0.  1.
       -4    1    3    3    0  502 -0.83336968627E+03  0.19229510805E+03  0.68665650039E+03  0.10968049986E+04  0.12699999809E+01 0. -1.
</event>
<event>
 5   0  0.5579109E-05  0.1898288E+04  0.7818609E-02  0.8655709E-01
        1   -1    0    0  501    0  0.00000000000E+00  0.00000000000E+00  0.14804372335E+04  0.14804372335E+04  0.50400001928E-02 0.  1.
       -1   -1    0    0    0  501  0.00000000000E+00  0.00000000000E+00 -0.60851933351E+03  0.60851933353E+03  0.50400001928E-02 0. -1.
    10030    2    1    2    0    0  0.00000000000E+00  0.00000000000E+00  0.87191790002E+03  0.20889565671E+04  0.18982883645E+04 0.  0.
        3    1    3    3  502    0  0.45277229077E+03  0.64179757037E+03 -0.15045159717E+03  0.79971405009E+03  0.10100000352E+00 0. -1.
       -3    1    3    3    0  502 -0.45277229077E+03 -0.64179757037E+03  0.10223694972E+04  0.12892425170E+04  0.10100000352E+00 0.  1.
</event>
<event>
 5   0  0.5841424E-05  0.1860840E+04  0.7818609E-02  0.8674598E-01
       -1   -1    0    0    0  501  0.00000000000E+00  0.00000000000E+00  0.68982591850E+03  0.68982591852E+03  0.50400001928E-02 0.  1.
        1   -1    0    0  501    0  0.00000000000E+00  0.00000000000E+00 -0.12549278021E+04  0.12549278021E+04  0.50400001928E-02 0. -1.
    10030    2    1    2    0    0  0.00000000000E+00  0.00000000000E+00 -0.56510188358E+03  0.19447537206E+04  0.18608403733E+04 0.  0.
        1    1    3    3  502    0  0.25498811377E+03  0.70521114173E+03  0.29304848725E+03  0.80512055526E+03  0.50400001928E-02 0.  1.
       -1    1    3    3    0  502 -0.25498811377E+03 -0.70521114173E+03 -0.85815037084E+03  0.11396331654E+04  0.50400001928E-02 0. -1.
</event>
<event>
 5   0  0.1133638E-04  0.1906854E+04  0.7818609E-02  0.8651452E-01
       -2   -1    0    0    0  501  0.00000000000E+00  0.00000000000E+00  0.75015436210E+03  0.75015436211E+03  0.25500000920E-02 0.  1.
        2   -1    0    0  501    0  0.00000000000E+00  0.00000000000E+00 -0.12117812899E+04  0.12117812899E+04  0.25500000920E-02 0. -1.
    10030    2    1    2    0    0  0.00000000000E+00  0.00000000000E+00 -0.46162692778E+03  0.19619356520E+04  0.19068539750E+04 0.  0.
        3    1    3    3  502    0  0.49829399136E+02 -0.41242388842E+03 -0.11137671965E+04  0.11887193996E+04  0.10100000352E+00 0. -1.
       -3    1    3    3    0  502 -0.49829399136E+02  0.41242388842E+03  0.65214026870E+03  0.77321625242E+03  0.10100000352E+00 0.  1.
</event>
<event>
 5   0  0.1182630E-04  0.1838551E+04  0.7818609E-02  0.8686063E-01
        2   -1    0    0  501    0  0.00000000000E+00  0.00000000000E+00  0.14732739661E+04  0.14732739661E+04  0.25500000920E-02 0. -1.
       -2   -1    0    0    0  501  0.00000000000E+00  0.00000000000E+00 -0.57359860659E+03  0.57359860660E+03  0.25500000920E-02 0.  1.
    10030    2    1    2    0    0  0.00000000000E+00  0.00000000000E+00  0.89967535955E+03  0.20468725727E+04  0.18385514887E+04 0.  0.
        5    1    3    3  502    0  0.75442011121E+03  0.16310603565E+03 -0.10602771071E+03  0.77911311662E+03  0.46999998093E+01 0.  1.
       -5    1    3    3    0  502 -0.75442011121E+03 -0.16310603565E+03  0.10057030703E+04  0.12677594561E+04  0.46999998093E+01 0. -1.
</event>
<event>
 5   0  0.1182630E-04  0.1932365E+04  0.7818609E-02  0.8638912E-01
       -2   -1    0    0    0  501  0.00000000000E+00  0.00000000000E+00  0.35572586984E+03  0.35572586985E+03  0.25500000920E-02 0. -1.
        2   -1    0    0  501    0  0.00000000000E+00  0.00000000000E+00 -0.26242364216E+04  0.26242364216E+04  0.25500000920E-02 0.  1.
    10030    2    1    2    0    0  0.00000000000E+00  0.00000000000E+00 -0.22685105518E+04  0.29799622914E+04  0.19323651661E+04 0.  0.
        5    1    3    3  502    0  0.93370545540E+03  0.22161314390E+03 -0.96136837198E+03  0.13583701630E+04  0.46999998093E+01 0.  1.
       -5    1    3    3    0  502 -0.93370545540E+03 -0.22161314390E+03 -0.13071421798E+04  0.16215921285E+04  0.46999998093E+01 0. -1.
</event>
<event>
 5   0  0.5841424E-05  0.1915512E+04  0.7818609E-02  0.8647173E-01
        1   -1    0    0  501    0  0.00000000000E+00  0.00000000000E+00  0.97086323082E+03  0.97086323083E+03  0.50400001928E-02 0. -1.
       -1   -1    0    0    0  501  0.00000000000E+00  0.00000000000E+00 -0.94482575902E+03  0.94482575903E+03  0.50400001928E-02 0.  1.
    10030    2    1    2    0    0  0.00000000000E+00  0.00000000000E+00  0.26037471800E+02  0.19156889899E+04  0.19155120349E+04 0.  0.
        1    1    3    3  502    0  0.92345765133E+03 -0.10426068116E+02 -0.24080355215E+03  0.95439461831E+03  0.50400001928E-02 0.  1.
       -1    1    3    3    0  502 -0.92345765133E+03  0.10426068116E+02  0.26684102395E+03  0.96129437156E+03  0.50400001928E-02 0. -1.
</event>
<event>
 5   0  0.1118206E-04  0.1894624E+04  0.7818609E-02  0.8657537E-01
       -2   -1    0    0    0  501  0.00000000000E+00  0.00000000000E+00  0.11267562882E+04  0.11267562882E+04  0.25500000920E-02 0. -1.
        2   -1    0    0  501    0  0.00000000000E+00  0.00000000000E+00 -0.79644549978E+03  0.79644549978E+03  0.25500000920E-02 0.  1.
    10030    2    1    2    0    0  0.00000000000E+00  0.00000000000E+00  0.33031078845E+03  0.19232017880E+04  0.18946239470E+04 0.  0.
        1    1    3    3  502    0  0.27621921403E+03  0.24879879654E+03 -0.71930935058E+03  0.80969366876E+03  0.50400001928E-02 0.  1.
       -1    1    3    3    0  502 -0.27621921403E+03 -0.24879879654E+03  0.10496201390E+04  0.11135081193E+04  0.50400001928E-02 0. -1.
</event>
<event>
 5   0  0.1118206E-04  0.1905727E+04  0.7818609E-02  0.8652011E-01
       -2   -1    0    0    0  501  0.00000000000E+00  0.00000000000E+00  0.53873207313E+03  0.53873207313E+03  0.25500000920E-02 0. -1.
        2   -1    0    0  501    0  0.00000000000E+00  0.00000000000E+00 -0.16853446240E+04  0.16853446240E+04  0.25500000920E-02 0.  1.
    10030    2    1    2    0    0  0.00000000000E+00  0.00000000000E+00 -0.11466125508E+04  0.22240766971E+04  0.19057273711E+04 0.  0.
        1    1    3    3  502    0 -0.48824076833E+03 -0.70656952689E+03 -0.91653434003E+02  0.86372443301E+03  0.50400001928E-02 0.  1.
       -1    1    3    3    0  502  0.48824076833E+03  0.70656952689E+03 -0.10549591168E+04  0.13603522641E+04  0.50400001928E-02 0. -1.
</event>
<event>
 5   0  0.5579109E-05  0.1894360E+04  0.7818609E-02  0.8657669E-01
       -1   -1    0    0    0  501  0.00000000000E+00  0.00000000000E+00  0.95995305906E+03  0.95995305907E+03  0.50400001928E-02 0. -1.
        1   -1    0    0  501    0  0.00000000000E+00  0.00000000000E+00 -0.93457699819E+03  0.93457699820E+03  0.50400001928E-02 0.  1.
    10030    2    1    2    0    0  0.00000000000E+00  0.00000000000E+00  0.25376060872E+02  0.18945300573E+04  0.18943601013E+04 0.  0.
        3    1    3    3  502    0 -0.36230212929E+03  0.15459740717E+03  0.87415189523E+03  0.95880380544E+03  0.10100000352E+00 0. -1.
       -3    1    3    3    0  502  0.36230212929E+03 -0.15459740717E+03 -0.84877583435E+03  0.93572625184E+03  0.10100000352E+00 0.  1.
</event>
<event>
 5   0  0.1101678E-04  0.1897755E+04  0.7818609E-02  0.8655975E-01
        2   -1    0    0  501    0  0.00000000000E+00  0.00000000000E+00  0.18997527687E+04  0.18997527687E+04  0.25500000920E-02 0.  1.
       -2   -1    0    0    0  501  0.00000000000E+00  0.00000000000E+00 -0.47393961920E+03  0.47393961921E+03  0.25500000920E-02 0. -1.
    10030    2    1    2    0    0  0.00000000000E+00  0.00000000000E+00  0.14258131495E+04  0.23736923880E+04  0.18977545719E+04 0.  0.
        4    1    3    3  502    0  0.85841958768E+03 -0.33963239591E+03  0.43849528977E+03  0.10220147185E+04  0.12699999809E+01 0.  1.
       -4    1    3    3    0  502 -0.85841958768E+03  0.33963239591E+03  0.98731785978E+03  0.13516776694E+04  0.12699999809E+01 0. -1.
</event>
<event>
 5   0  0.5824956E-05  0.1879727E+04  0.7818609E-02  0.8665014E-01
       -1   -1    0    0    0  501  0.00000000000E+00  0.00000000000E+00  0.43232960344E+03  0.43232960347E+03  0.50400001928E-02 0.  1.
        1   -1    0    0  501    0  0.00000000000E+00  0.00000000000E+00 -0.20432168458E+04  0.20432168458E+04  0.50400001928E-02 0. -1.
    10030    2    1    2    0    0  0.00000000000E+00  0.00000000000E+00 -0.16108872423E+04  0.24755464493E+04  0.18797267128E+04 0.  0.
        2    1    3    3  502    0 -0.28405804814E+03  0.71084756851E+03 -0.87301738073E+02  0.77046403800E+03  0.25500000920E-02 0.  1.
       -2    1    3    3    0  502  0.28405804814E+03 -0.71084756851E+03 -0.15235855043E+04  0.17050824113E+04  0.25500000920E-02 0. -1.
</event>
<event>
 5   0  0.1141890E-04  0.1909297E+04  0.7818609E-02  0.8650243E-01
       -2   -1    0    0    0  501  0.00000000000E+00  0.00000000000E+00  0.93061689383E+03  0.93061689383E+03  0.25500000920E-02 0.  1.
        2   -1    0    0  501    0  0.00000000000E+00  0.00000000000E+00 -0.97930055222E+03  0.97930055222E+03  0.25500000920E-02 0. -1.
    10030    2    1    2    0    0  0.00000000000E+00  0.00000000000E+00 -0.48683658392E+02  0.19099174461E+04  0.19092968738E+04 0.  0.
        2    1    3    3  502    0  0.22098286964E+03  0.74976587533E+03  0.52389774493E+03  0.94098413570E+03  0.25500000920E-02 0.  1.
       -2    1    3    3    0  502 -0.22098286964E+03 -0.74976587533E+03 -0.57258140332E+03  0.96893331036E+03  0.25500000920E-02 0. -1.
</event>
<event>
 5   0  0.5579109E-05  0.1902840E+04  0.7818609E-02  0.8653444E-01
       -1   -1    0    0    0  501  0.00000000000E+00  0.00000000000E+00  0.12150861213E+04  0.12150861213E+04  0.50400001928E-02 0.  1.
        1   -1    0    0  501    0  0.00000000000E+00  0.00000000000E+00 -0.74496750106E+03  0.74496750108E+03  0.50400001928E-02 0. -1.
    10030    2    1    2    0    0  0.00000000000E+00  0.00000000000E+00  0.47011862022E+03  0.19600536224E+04  0.19028396374E+04 0.  0.
        3    1    3    3  502    0  0.70483033205E+03  0.40726989731E+03 -0.27223735974E+03  0.85835176733E+03  0.10100000352E+00 0. -1.
       -3    1    3    3    0  502 -0.70483033205E+03 -0.40726989731E+03  0.74235597996E+03  0.11017018550E+04  0.10100000352E+00 0.  1.
</event>
<event>
 5   0  0.1141890E-04  0.1908240E+04  0.7818609E-02  0.8650765E-01
       -2   -1    0    0    0  501  0.00000000000E+00  0.00000000000E+00  0.93686976924E+03  0.93686976924E+03  0.25500000920E-02 0.  1.
        2   -1    0    0  501    0  0.00000000000E+00  0.00000000000E+00 -0.97168817994E+03  0.97168817995E+03  0.25500000920E-02 0. -1.
    10030    2    1    2    0    0  0.00000000000E+00  0.00000000000E+00 -0.34818410704E+02  0.19085579492E+04  0.19082403213E+04 0.  0.
        2    1    3    3  502    0 -0.50747855569E+03 -0.59765626303E+03 -0.56120715262E+03  0.96419964810E+03  0.25500000920E-02 0. -1.
       -2    1    3    3    0  502  0.50747855569E+03  0.59765626303E+03  0.52638874192E+03  0.94435830110E+03  0.25500000920E-02 0.  1.
</event>
<event>
 5   0  0.1182630E-04  0.1859154E+04  0.7818609E-02  0.8675459E-01
        2   -1    0    0  501    0  0.00000000000E+00  0.00000000000E+00  0.13058603886E+04  0.13058603886E+04  0.25500000920E-02 0. -1.
       -2   -1    0    0    0  501  0.00000000000E+00  0.00000000000E+00 -0.66171972159E+03  0.66171972159E+03  0.25500000920E-02 0.  1.
    10030    2    1    2    0    0  0.00000000000E+00  0.00000000000E+00  0.64414066706E+03  0.19675801102E+04  0.18591541871E+04 0.  0.
        5    1    3    3  502    0 -0.31769294054E+03  0.13333457277E+03 -0.59163721721E+03  0.68466312852E+03  0.46999998093E+01 0.  1.
       -5    1    3    3    0  502  0.31769294054E+03 -0.13333457277E+03  0.12357778843E+04  0.12829169817E+04  0.46999998093E+01 0. -1.
</event>
<event>
 5   0  0.1182630E-04  0.1901530E+04  0.7818609E-02  0.8654095E-01
        2   -1    0    0  501    0  0.00000000000E+00  0.00000000000E+00  0.97177458815E+03  0.97177458815E+03  0.25500000920E-02 0. -1.
       -2   -1    0    0    0  501  0.00000000000E+00  0.00000000000E+00 -0.93020988892E+03  0.93020988892E+03  0.25500000920E-02 0.  1.
    10030    2    1    2    0    0  0.00000000000E+00  0.00000000000E+00  0.41564699226E+02  0.19019844771E+04  0.19015302592E+04 0.  0.
        5    1    3    3  502    0  0.32651780880E+03 -0.58755580652E+03 -0.65175950524E+03  0.93629495775E+03  0.46999998093E+01 0.  1.
       -5    1    3    3    0  502 -0.32651780880E+03  0.58755580652E+03  0.69332420447E+03  0.96568951932E+03  0.46999998093E+01 0. -1.
</event>
<event>
 5   0  0.4061125E-05  0.1925344E+04  0.7818609E-02  0.8642343E-01
        4   -1    0    0  501    0  0.00000000000E+00  0.00000000000E+00  0.50174317244E+03  0.50174477973E+03  0.12699999809E+01 0. -1.
       -4   -1    0    0    0  501  0.00000000000E+00  0.00000000000E+00 -0.18470301792E+04  0.18470306158E+04  0.12699999809E+01 0.  1.
    10030    2    1    2    0    0  0.00000000000E+00  0.00000000000E+00 -0.13452870067E+04  0.23487753955E+04  0.19253437948E+04 0.  0.
        4    1    3    3  502    0  0.93281710098E+03 -0.18350707262E+03 -0.85730399307E+03  0.12801540294E+04  0.12699999809E+01 0. -1.
       -4    1    3    3    0  502 -0.93281710098E+03  0.18350707262E+03 -0.48798301366E+03  0.10686213661E+04  0.12699999809E+01 0.  1.
</event>
<event>
 5   0  0.5579109E-05  0.1898027E+04  0.7818609E-02  0.8655839E-01
       -1   -1    0    0    0  501  0.00000000000E+00  0.00000000000E+00  0.37145400769E+03  0.37145400772E+03  0.50400001928E-02 0.  1.
        1   -1    0    0  501    0  0.00000000000E+00  0.00000000000E+00 -0.24245985618E+04  0.24245985619E+04  0.50400001928E-02 0. -1.
    10030    2    1    2    0    0  0.00000000000E+00  0.00000000000E+00 -0.20531445542E+04  0.27960525696E+04  0.18980272421E+04 0.  0.
        3    1    3    3  502    0 -0.25080656418E+02 -0.82800444693E+03 -0.34445067542E+03  0.89714362365E+03  0.10100000352E+00 0.  1.
       -3    1    3    3    0  502  0.25080656418E+02  0.82800444693E+03 -0.17086938787E+04  0.18989089459E+04  0.10100000352E+00 0. -1.
</event>
<event>
 5   0  0.5579109E-05  0.1896408E+04  0.7818609E-02  0.8656646E-01
       -1   -1    0    0    0  501  0.00000000000E+00  0.00000000000E+00  0.54425960283E+03  0.54425960285E+03  0.50400001928E-02 0.  1.
        1   -1    0    0  501    0  0.00000000000E+00  0.00000000000E+00 -0.16519526490E+04  0.16519526491E+04  0.50400001928E-02 0. -1.
    10030    2    1    2    0    0  0.00000000000E+00  0.00000000000E+00 -0.11076930462E+04  0.21962122519E+04  0.18964082817E+04 0.  0.
        3    1    3    3  502    0  0.36574170828E+03 -0.79476812379E+03 -0.97725127550E+03  0.13116567514E+04  0.10100000352E+00 0.  1.
       -3    1    3    3    0  502 -0.36574170828E+03  0.79476812379E+03 -0.13044177072E+03  0.88455550053E+03  0.10100000352E+00 0. -1.
</event>
<event>
 5   0  0.5628936E-05  0.1892517E+04  0.7818609E-02  0.8658590E-01
       -1   -1    0    0    0  501  0.00000000000E+00  0.00000000000E+00  0.85900400554E+03  0.85900400556E+03  0.50400001928E-02 0. -1.
        1   -1    0    0  501    0  0.00000000000E+00  0.00000000000E+00 -0.10423756565E+04  0.10423756565E+04  0.50400001928E-02 0.  1.
    10030    2    1    2    0    0  0.00000000000E+00  0.00000000000E+00 -0.18337165097E+03  0.19013796621E+04  0.18925166993E+04 0.  0.
        5    1    3    3  502    0 -0.24261791399E+03 -0.73802020186E+03 -0.63444306789E+03  0.10030340806E+04  0.46999998093E+01 0.  1.
       -5    1    3    3    0  502  0.24261791399E+03  0.73802020186E+03  0.45107141692E+03  0.89834558144E+03  0.46999998093E+01 0. -1.
</event>
<event>
 5   0  0.1118206E-04  0.1896707E+04  0.7818609E-02  0.8656497E-01
        2   -1    0    0  501    0  0.00000000000E+00  0.00000000000E+00  0.12100702957E+04  0.12100702957E+04  0.25500000920E-02 0. -1.
       -2   -1    0    0    0  501  0.00000000000E+00  0.00000000000E+00 -0.74324180554E+03  0.74324180555E+03  0.25500000920E-02 0.  1.
    10030    2    1    2    0    0  0.00000000000E+00  0.00000000000E+00  0.46682849012E+03  0.19533121012E+04  0.18967074960E+04 0.  0.
        1    1    3    3  502    0  0.94464530359E+03 -0.31706473197E+02  0.31328378843E+03  0.99574433574E+03  0.50400001928E-02 0.  1.
       -1    1    3    3    0  502 -0.94464530359E+03  0.31706473197E+02  0.15354470170E+03  0.95756776548E+03  0.50400001928E-02 0. -1.
</event>
<event>
 5   0  0.5628936E-05  0.1875915E+04  0.7818609E-02  0.8666939E-01
        1   -1    0    0  501    0  0.00000000000E+00  0.00000000000E+00  0.86557237683E+03  0.86557237685E+03  0.50400001928E-02 0. -1.
       -1   -1    0    0    0  501  0.00000000000E+00  0.00000000000E+00 -0.10163962470E+04  0.10163962470E+04  0.50400001928E-02 0.  1.
    10030    2    1    2    0    0  0.00000000000E+00  0.00000000000E+00 -0.15082387016E+03  0.18819686239E+04  0.18759152596E+04 0.  0.
        5    1    3    3  502    0 -0.30627743755E+03  0.47796752832E+02 -0.96350973269E+03  0.10121578401E+04  0.46999998093E+01 0.  1.
       -5    1    3    3    0  502  0.30627743755E+03 -0.47796752832E+02  0.81268586253E+03  0.86981078373E+03  0.46999998093E+01 0. -1.
</event>
<event>
 5   0  0.1118206E-04  0.1977360E+04  0.7818609E-02  0.8617279E-01
        2   -1    0    0  501    0  0.00000000000E+00  0.00000000000E+00  0.11184009447E+04  0.11184009447E+04  0.25500000920E-02 0. -1.
       -2   -1    0    0    0  501  0.00000000000E+00  0.00000000000E+00 -0.87400500649E+03  0.87400500650E+03  0.25500000920E-02 0.  1.
    10030    2    1    2    0    0  0.00000000000E+00  0.00000000000E+00  0.24439593824E+03  0.19924059512E+04  0.19773598812E+04 0.  0.
        1    1    3    3  502    0  0.28205007112E+01 -0.23125860974E+03  0.10907612172E+04  0.11150105528E+04  0.50400001928E-02 0. -1.
       -1    1    3    3    0  502 -0.28205007112E+01  0.23125860974E+03 -0.84636527896E+03  0.87739539847E+03  0.50400001928E-02 0.  1.
</event>
<event>
 5   0  0.1133638E-04  0.1902327E+04  0.7818609E-02  0.8653699E-01
       -2   -1    0    0    0  501  0.00000000000E+00  0.00000000000E+00  0.10184394576E+04  0.10184394577E+04  0.25500000920E-02 0.  1.
        2   -1    0    0  501    0  0.00000000000E+00  0.00000000000E+00 -0.88833173464E+03  0.88833173465E+03  0.25500000920E-02 0. -1.
    10030    2    1    2    0    0  0.00000000000E+00  0.00000000000E+00  0.13010772301E+03  0.19067711923E+04  0.19023270907E+04 0.  0.
        3    1    3    3  502    0  0.36651741823E+03 -0.49342756898E+03 -0.66252501741E+03  0.90373956016E+03  0.10100000352E+00 0. -1.
       -3    1    3    3    0  502 -0.36651741823E+03  0.49342756898E+03  0.79263274042E+03  0.10030316321E+04  0.10100000352E+00 0.  1.
</event>
<event>
 5   0  0.1141890E-04  0.1878448E+04  0.7818609E-02  0.8665659E-01
        2   -1    0    0  501    0  0.00000000000E+00  0.00000000000E+00  0.68168234507E+03  0.68168234507E+03  0.25500000920E-02 0. -1.
       -2   -1    0    0    0  501  0.00000000000E+00  0.00000000000E+00 -0.12940659977E+04  0.12940659977E+04  0.25500000920E-02 0.  1.
    10030    2    1    2    0    0  0.00000000000E+00  0.00000000000E+00 -0.61238365266E+03  0.19757483428E+04  0.18784482362E+04 0.  0.
        2    1    3    3  502    0 -0.21892951893E+03  0.60704931550E+03  0.41158078659E+03  0.76540038516E+03  0.25500000920E-02 0. -1.
       -2    1    3    3    0  502  0.21892951893E+03 -0.60704931550E+03 -0.10239644392E+04  0.12103479576E+04  0.25500000920E-02 0.  1.
</event>
<event>
 5   0  0.5824956E-05  0.1920127E+04  0.7818609E-02  0.8644902E-01
       -1   -1    0    0    0  501  0.00000000000E+00  0.00000000000E+00  0.11006363586E+04  0.11006363587E+04  0.50400001928E-02 0.  1.
        1   -1    0    0  501    0  0.00000000000E+00  0.00000000000E+00 -0.83744445535E+03  0.83744445537E+03  0.50400001928E-02 0. -1.
    10030    2    1    2    0    0  0.00000000000E+00  0.00000000000E+00  0.26319190330E+03  0.19380808140E+04  0.19201268874E+04 0.  0.
        2    1    3    3  502    0  0.79697703756E+03  0.85785385011E+02  0.66492115109E+03  0.10414661146E+04  0.25500000920E-02 0.  1.
       -2    1    3    3    0  502 -0.79697703756E+03 -0.85785385011E+02 -0.40172924779E+03  0.89661469942E+03  0.25500000920E-02 0. -1.
</event>
<event>
 5   0  0.1182630E-04  0.1902708E+04  0.7818609E-02  0.8653509E-01
       -2   -1    0    0    0  501  0.00000000000E+00  0.00000000000E+00  0.50201321283E+03  0.50201321284E+03  0.25500000920E-02 0. -1.
        2   -1    0    0  501    0  0.00000000000E+00  0.00000000000E+00 -0.18028901606E+04  0.18028901606E+04  0.25500000920E-02 0.  1.
    10030    2    1    2    0    0  0.00000000000E+00  0.00000000000E+00 -0.13008769478E+04  0.23049033735E+04  0.19027082613E+04 0.  0.
        5    1    3    3  502    0 -0.28518830461E+03  0.80738601248E+02  0.44463963565E+03  0.53439459803E+03  0.46999998093E+01 0. -1.
       -5    1    3    3    0  502  0.28518830461E+03 -0.80738601248E+02 -0.17455165834E+04  0.17705087754E+04  0.46999998093E+01 0.  1.
</event>
<event>
 5   0  0.1182630E-04  0.1894829E+04  0.7818609E-02  0.8657435E-01
        2   -1    0    0  501    0  0.00000000000E+00  0.00000000000E+00  0.11159942895E+04  0.11159942895E+04  0.25500000920E-02 0. -1.
       -2   -1    0    0    0  501  0.00000000000E+00  0.00000000000E+00 -0.80429977884E+03  0.80429977884E+03  0.25500000920E-02 0.  1.
    10030    2    1    2    0    0  0.00000000000E+00  0.00000000000E+00  0.31169451064E+03  0.19202940683E+04  0.18948287102E+04 0.  0.
        5    1    3    3  502    0  0.76444153999E+03  0.37229594548E+03 -0.26761610372E+03  0.89141214264E+03  0.46999998093E+01 0.  1.
       -5    1    3    3    0  502 -0.76444153999E+03 -0.37229594548E+03  0.57931061436E+03  0.10288819257E+04  0.46999998093E+01 0. -1.
</event>
<event>
 5   0  0.1118206E-04  0.1899970E+04  0.7818609E-02  0.8654871E-01
        2   -1    0    0  501    0  0.00000000000E+00  0.00000000000E+00  0.14927672409E+04  0.14927672409E+04  0.25500000920E-02 0. -1.
       -2   -1    0    0    0  501  0.00000000000E+00  0.00000000000E+00 -0.60456272892E+03  0.60456272893E+03  0.25500000920E-02 0.  1.
    10030    2    1    2    0    0  0.00000000000E+00  0.00000000000E+00  0.88820451202E+03  0.20973299699E+04  0.18999699333E+04 0.  0.
        1    1    3    3  502    0 -0.42728195630E+03 -0.82603572801E+03  0.65805637334E+03  0.11392730510E+04  0.50400001928E-02 0. -1.
       -1    1    3    3    0  502  0.42728195630E+03  0.82603572801E+03  0.23014813868E+03  0.95805691892E+03  0.50400001928E-02 0.  1.
</event>
<event>
 5   0  0.1101678E-04  0.1880018E+04  0.7818609E-02  0.8664867E-01
       -2   -1    0    0    0  501  0.00000000000E+00  0.00000000000E+00  0.82224104238E+03  0.82224104238E+03  0.25500000920E-02 0.  1.
        2   -1    0    0  501    0  0.00000000000E+00  0.00000000000E+00 -0.10746441833E+04  0.10746441833E+04  0.25500000920E-02 0. -1.
    10030    2    1    2    0    0  0.00000000000E+00  0.00000000000E+00 -0.25240314089E+03  0.18968852256E+04  0.18800176100E+04 0.  0.
        4    1    3    3  502    0 -0.58668678245E+03  0.25208120983E+03 -0.82222309730E+03  0.10410565555E+04  0.12699999809E+01 0. -1.
       -4    1    3    3    0  502  0.58668678245E+03 -0.25208120983E+03  0.56981995642E+03  0.85582867017E+03  0.12699999809E+01 0.  1.
</event>
<event>
 5   0  0.5824956E-05  0.1907060E+04  0.7818609E-02  0.8651350E-01
        1   -1    0    0  501    0  0.00000000000E+00  0.00000000000E+00  0.62342808026E+03  0.62342808028E+03  0.50400001928E-02 0. -1.
       -1   -1    0    0    0  501  0.00000000000E+00  0.00000000000E+00 -0.14584187025E+04  0.14584187025E+04  0.50400001928E-02 0.  1.
    10030    2    1    2    0    0  0.00000000000E+00  0.00000000000E+00 -0.83499062227E+03  0.20818467828E+04  0.19070596970E+04 0.  0.
        2    1    3    3  502    0  0.14886177627E+02 -0.72428184751E+03  0.25934111374E+03  0.76945669547E+03  0.25500000920E-02 0. -1.
       -2    1    3    3    0  502 -0.14886177627E+02  0.72428184751E+03 -0.10943317360E+04  0.13123900873E+04  0.25500000920E-02 0.  1.
</event>
<event>
 5   0  0.5824956E-05  0.1900429E+04  0.7818609E-02  0.8654643E-01
        1   -1    0    0  501    0  0.00000000000E+00  0.00000000000E+00  0.79655440877E+03  0.79655440878E+03  0.50400001928E-02 0. -1.
       -1   -1    0    0    0  501  0.00000000000E+00  0.00000000000E+00 -0.11335165572E+04  0.11335165572E+04  0.50400001928E-02 0.  1.
    10030    2    1    2    0    0  0.00000000000E+00  0.00000000000E+00 -0.33696214839E+03  0.19300709660E+04  0.19004290158E+04 0.  0.
        2    1    3    3  502    0  0.61187131050E+03  0.72469306036E+03 -0.22718470690E+03  0.97528427825E+03  0.25500000920E-02 0. -1.
       -2    1    3    3    0  502 -0.61187131050E+03 -0.72469306036E+03 -0.10977744149E+03  0.95478668770E+03  0.25500000920E-02 0.  1.
</event>
<event>
 5   0  0.1182630E-04  0.1898049E+04  0.7818609E-02  0.8655828E-01
        2   -1    0    0  501    0  0.00000000000E+00  0.00000000000E+00  0.81836187723E+03  0.81836187724E+03  0.25500000920E-02 0. -1.
       -2   -1    0    0    0  501  0.00000000000E+00  0.00000000000E+00 -0.11005494183E+04  0.11005494183E+04  0.25500000920E-02 0.  1.
    10030    2    1    2    0    0  0.00000000000E+00  0.00000000000E+00 -0.28218754105E+03  0.19189112955E+04  0.18980491963E+04 0.  0.
        5    1    3    3  502    0  0.47121697794E+02  0.53256290583E+02  0.81565285448E+03  0.81876025546E+03  0.46999998093E+01 0. -1.
       -5    1    3    3    0  502 -0.47121697794E+02 -0.53256290583E+02 -0.10978403955E+04  0.11001510401E+04  0.46999998093E+01 0.  1.
</event>
<event>
 5   0  0.1133638E-04  0.1879107E+04  0.7818609E-02  0.8665327E-01
        2   -1    0    0  501    0  0.00000000000E+00  0.00000000000E+00  0.23716276567E+04  0.23716276567E+04  0.25500000920E-02 0.  1.
       -2   -1    0    0    0  501  0.00000000000E+00  0.00000000000E+00 -0.37221722115E+03  0.37221722116E+03  0.25500000920E-02 0. -1.
    10030    2    1    2    0    0  0.00000000000E+00  0.00000000000E+00  0.19994104355E+04  0.27438448778E+04  0.18791068687E+04 0.  0.
        3    1    3    3  502    0  0.80175333181E+03 -0.79526383711E+01  0.17148817229E+04  0.18930639142E+04  0.10100000352E+00 0.  1.
       -3    1    3    3    0  502 -0.80175333181E+03  0.79526383711E+01  0.28452871258E+03  0.85078096359E+03  0.10100000352E+00 0. -1.
</event>
<event>
 5   0  0.5824956E-05  0.1899352E+04  0.7818609E-02  0.8655179E-01
       -1   -1    0    0    0  501  0.00000000000E+00  0.00000000000E+00  0.53637472857E+03  0.53637472859E+03  0.50400001928E-02 0. -1.
        1   -1    0    0  501    0  0.00000000000E+00  0.00000000000E+00 -0.16814447499E+04  0.16814447499E+04  0.50400001928E-02 0.  1.
    10030    2    1    2    0    0  0.00000000000E+00  0.00000000000E+00 -0.11450700213E+04  0.22178194785E+04  0.18993519646E+04 0.  0.
        2    1    3    3  502    0 -0.79795228538E+03  0.49144702780E+03 -0.75205457289E+03  0.12015964845E+04  0.25500000920E-02 0. -1.
       -2    1    3    3    0  502  0.79795228538E+03 -0.49144702780E+03 -0.39301544843E+03  0.10162229940E+04  0.25500000920E-02 0.  1.
</event>
<event>
 5   0  0.1101678E-04  0.1894519E+04  0.7818609E-02  0.8657589E-01
       -2   -1    0    0    0  501  0.00000000000E+00  0.00000000000E+00  0.10205592969E+04  0.10205592969E+04  0.25500000920E-02 0.  1.
        2   -1    0    0  501    0  0.00000000000E+00  0.00000000000E+00 -0.87922471886E+03  0.87922471886E+03  0.25500000920E-02 0. -1.
    10030    2    1    2    0    0  0.00000000000E+00  0.00000000000E+00  0.14133457806E+03  0.18997840158E+04  0.18945194229E+04 0.  0.
        4    1    3    3  502    0 -0.10320206535E+02  0.88875508164E+03 -0.25782084955E+03  0.92545410754E+03  0.12699999809E+01 0. -1.
       -4    1    3    3    0  502  0.10320206535E+02 -0.88875508164E+03  0.39915542761E+03  0.97432990824E+03  0.12699999809E+01 0.  1.
</event>
<event>
 5   0  0.5614989E-05  0.1923936E+04  0.7818609E-02  0.8643033E-01
       -1   -1    0    0    0  501  0.00000000000E+00  0.00000000000E+00  0.63501102572E+03  0.63501102574E+03  0.50400001928E-02 0.  1.
        1   -1    0    0  501    0  0.00000000000E+00  0.00000000000E+00 -0.14572697767E+04  0.14572697768E+04  0.50400001928E-02 0. -1.
    10030    2    1    2    0    0  0.00000000000E+00  0.00000000000E+00 -0.82225875102E+03  0.20922808025E+04  0.19239359404E+04 0.  0.
        4    1    3    3  502    0  0.32887983813E+03  0.80685554551E+03  0.32222671694E+02  0.87190465805E+03  0.12699999809E+01 0.  1.
       -4    1    3    3    0  502 -0.32887983813E+03 -0.80685554551E+03 -0.85448142272E+03  0.12203761444E+04  0.12699999809E+01 0. -1.
</event>
<event>
 5   0  0.5579109E-05  0.1897610E+04  0.7818609E-02  0.8656047E-01
        1   -1    0    0  501    0  0.00000000000E+00  0.00000000000E+00  0.15293462055E+04  0.15293462055E+04  0.50400001928E-02 0.  1.
       -1   -1    0    0    0  501  0.00000000000E+00  0.00000000000E+00 -0.58863802028E+03  0.58863802030E+03  0.50400001928E-02 0. -1.
    10030    2    1    2    0    0  0.00000000000E+00  0.00000000000E+00  0.94070818520E+03  0.21179842258E+04  0.18976104160E+04 0.  0.
        3    1    3    3  502    0  0.28065779841E+03  0.87155325862E+03  0.19275911631E+03  0.93569758445E+03  0.10100000352E+00 0. -1.
       -3    1    3    3    0  502 -0.28065779841E+03 -0.87155325862E+03  0.74794906889E+03  0.11822866413E+04  0.10100000352E+00 0.  1.
</event>
<event>
 5   0  0.1118206E-04  0.1880441E+04  0.7818609E-02  0.8664654E-01
        2   -1    0    0  501    0  0.00000000000E+00  0.00000000000E+00  0.89079226081E+03  0.89079226082E+03  0.25500000920E-02 0.  1.
       -2   -1    0    0    0  501  0.00000000000E+00  0.00000000000E+00 -0.99239173688E+03  0.99239173688E+03  0.25500000920E-02 0. -1.
    10030    2    1    2    0    0  0.00000000000E+00  0.00000000000E+00 -0.10159947606E+03  0.18831839977E+04  0.18804413087E+04 0.  0.
        1    1    3    3  502    0  0.73566140044E+03  0.33054280815E+03  0.43318418565E+03  0.91548062942E+03  0.50400001928E-02 0.  1.
       -1    1    3    3    0  502 -0.73566140044E+03 -0.33054280815E+03 -0.53478366171E+03  0.96770336828E+03  0.50400001928E-02 0. -1.
</event>
<event>
 5   0  0.5824956E-05  0.1914956E+04  0.7818609E-02  0.8647447E-01
       -1   -1    0    0    0  501  0.00000000000E+00  0.00000000000E+00  0.91496569092E+03  0.91496569093E+03  0.50400001928E-02 0. -1.
        1   -1    0    0  501    0  0.00000000000E+00  0.00000000000E+00 -0.10019657676E+04  0.10019657676E+04  0.50400001928E-02 0.  1.
    10030    2    1    2    0    0  0.00000000000E+00  0.00000000000E+00 -0.87000076668E+02  0.19169314585E+04  0.19149561884E+04 0.  0.
        2    1    3    3  502    0 -0.53418617566E+03  0.57615876071E+03  0.50428513471E+03  0.93360445849E+03  0.25500000920E-02 0. -1.
       -2    1    3    3    0  502  0.53418617566E+03 -0.57615876071E+03 -0.59128521138E+03  0.98332700004E+03  0.25500000920E-02 0.  1.
</event>
<event>
 5   0  0.1118206E-04  0.1911609E+04  0.7818609E-02  0.8649099E-01
        2   -1    0    0  501    0  0.00000000000E+00  0.00000000000E+00  0.16694675176E+04  0.16694675176E+04  0.25500000920E-02 0. -1.
       -2   -1    0    0    0  501  0.00000000000E+00  0.00000000000E+00 -0.54721794279E+03  0.54721794280E+03  0.25500000920E-02 0.  1.
    10030    2    1    2    0    0  0.00000000000E+00  0.00000000000E+00  0.11222495748E+04  0.22166854604E+04  0.19116093540E+04 0.  0.
        1    1    3    3  502    0  0.12801296975E+03 -0.63959168008E+03  0.13712615225E+04  0.15184936617E+04  0.50400001928E-02 0. -1.
       -1    1    3    3    0  502 -0.12801296975E+03  0.63959168008E+03 -0.24901194766E+03  0.69819179869E+03  0.50400001928E-02 0.  1.
</event>
<event>
 5   0  0.1133638E-04  0.1895414E+04  0.7818609E-02  0.8657143E-01
       -2   -1    0    0    0  501  0.00000000000E+00  0.00000000000E+00  0.71291976826E+03  0.71291976826E+03  0.25500000920E-02 0.  1.
        2   -1    0    0  501    0  0.00000000000E+00  0.00000000000E+00 -0.12598170872E+04  0.12598170872E+04  0.25500000920E-02 0. -1.
    10030    2    1    2    0    0  0.00000000000E+00  0.00000000000E+00 -0.54689731890E+03  0.19727368554E+04  0.18954139451E+04 0.  0.
        3    1    3    3  502    0 -0.56593236751E+03  0.40643916351E+03 -0.94205398022E+03  0.11717243490E+04  0.10100000352E+00 0. -1.
       -3    1    3    3    0  502  0.56593236751E+03 -0.40643916351E+03  0.39515666132E+03  0.80101250641E+03  0.10100000352E+00 0.  1.
</event>
<event>
 5   0  0.5579109E-05  0.1907032E+04  0.7818609E-02  0.8651364E-01
        1   -1    0    0  501    0  0.00000000000E+00  0.00000000000E+00  0.28472405140E+03  0.28472405145E+03  0.50400001928E-02 0.  1.
       -1   -1    0    0    0  501  0.00000000000E+00  0.00000000000E+00 -0.31932420970E+04  0.31932420971E+04  0.50400001928E-02 0. -1.
    10030    2    1    2    0    0  0.00000000000E+00  0.00000000000E+00 -0.29085180456E+04  0.34779661485E+04  0.19070320680E+04 0.  0.
        3    1    3    3  502    0  0.45513018409E+03  0.74727319239E+03 -0.76307590444E+03  0.11609675080E+04  0.10100000352E+00 0.  1.
       -3    1    3    3    0  502 -0.45513018409E+03 -0.74727319239E+03 -0.21454421412E+04  0.23169986405E+04  0.10100000352E+00 0. -1.
</event>
<event>
 5   0  0.5841424E-05  0.1886018E+04  0.7818609E-02  0.8661847E-01
        1   -1    0    0  501    0  0.00000000000E+00  0.00000000000E+00  0.18026360704E+04  0.18026360704E+04  0.50400001928E-02 0. -1.
       -1   -1    0    0    0  501  0.00000000000E+00  0.00000000000E+00 -0.49331428668E+03  0.49331428670E+03  0.50400001928E-02 0.  1.
    10030    2    1    2    0    0  0.00000000000E+00  0.00000000000E+00  0.13093217837E+04  0.22959503571E+04  0.18860181624E+04 0.  0.
        1    1    3    3  502    0 -0.87129670175E+03 -0.18092803805E+03  0.27478965526E+03  0.93134432521E+03  0.50400001928E-02 0. -1.
       -1    1    3    3    0  502  0.87129670175E+03  0.18092803805E+03  0.10345321284E+04  0.13646060319E+04  0.50400001928E-02 0.  1.
</event>
<event>
 5   0  0.1118206E-04  0.1908643E+04  0.7818609E-02  0.8650566E-01
        2   -1    0    0  501    0  0.00000000000E+00  0.00000000000E+00  0.14067621656E+04  0.14067621656E+04  0.25500000920E-02 0.  1.
       -2   -1    0    0    0  501  0.00000000000E+00  0.00000000000E+00 -0.64739412944E+03  0.64739412944E+03  0.25500000920E-02 0. -1.
    10030    2    1    2    0    0  0.00000000000E+00  0.00000000000E+00  0.75936803614E+03  0.20541562950E+04  0.19086430442E+04 0.  0.
        1    1    3    3  502    0  0.80686017080E+03  0.15386576607E+03  0.90255411808E+03  0.12203695937E+04  0.50400001928E-02 0.  1.
       -1    1    3    3    0  502 -0.80686017080E+03 -0.15386576607E+03 -0.14318608194E+03  0.83378670130E+03  0.50400001928E-02 0. -1.
</event>
<event>
 5   0  0.5824956E-05  0.1895958E+04  0.7818609E-02  0.8656871E-01
        1   -1    0    0  501    0  0.00000000000E+00  0.00000000000E+00  0.54743315155E+03  0.54743315157E+03  0.50400001928E-02 0. -1.
       -1   -1    0    0    0  501  0.00000000000E+00  0.00000000000E+00 -0.16415960828E+04  0.16415960828E+04  0.50400001928E-02 0.  1.
    10030    2    1    2    0    0  0.00000000000E+00  0.00000000000E+00 -0.10941629313E+04  0.21890292344E+04  0.18959579291E+04 0.  0.
        2    1    3    3  502    0  0.35676495428E+03  0.51655455271E+03  0.27303741844E+03  0.68458693415E+03  0.25500000920E-02 0. -1.
       -2    1    3    3    0  502 -0.35676495428E+03 -0.51655455271E+03 -0.13672003497E+04  0.15044423003E+04  0.25500000920E-02 0.  1.
</event>
<event>
 5   0  0.5841424E-05  0.1869301E+04  0.7818609E-02  0.8670290E-01
       -1   -1    0    0    0  501  0.00000000000E+00  0.00000000000E+00  0.54734192790E+03  0.54734192792E+03  0.50400001928E-02 0.  1.
        1   -1    0    0  501    0  0.00000000000E+00  0.00000000000E+00 -0.15960247629E+04  0.15960247629E+04  0.50400001928E-02 0. -1.
    10030    2    1    2    0    0  0.00000000000E+00  0.00000000000E+00 -0.10486828350E+04  0.21433666908E+04  0.18693006935E+04 0.  0.
        1    1    3    3  502    0 -0.27510952159E+03 -0.37309856149E+03 -0.14549256667E+04  0.15269893520E+04  0.50400001928E-02 0. -1.
       -1    1    3    3    0  502  0.27510952159E+03  0.37309856149E+03  0.40624283172E+03  0.61637733881E+03  0.50400001928E-02 0.  1.
</event>
<event>
 5   0  0.1133638E-04  0.1906861E+04  0.7818609E-02  0.8651449E-01
        2   -1    0    0  501    0  0.00000000000E+00  0.00000000000E+00  0.10744558028E+04  0.10744558028E+04  0.25500000920E-02 0.  1.
       -2   -1    0    0    0  501  0.00000000000E+00  0.00000000000E+00 -0.84603698365E+03  0.84603698365E+03  0.25500000920E-02 0. -1.
    10030    2    1    2    0    0  0.00000000000E+00  0.00000000000E+00  0.22841881917E+03  0.19204927865E+04  0.19068606100E+04 0.  0.
        3    1    3    3  502    0  0.52061136413E+02  0.19527907498E+03  0.10526350945E+04  0.10718605000E+04  0.10100000352E+00 0.  1.
       -3    1    3    3    0  502 -0.52061136413E+02 -0.19527907498E+03 -0.82421627530E+03  0.84863228652E+03  0.10100000352E+00 0. -1.
</event>
<event>
 5   0  0.5614989E-05  0.1900863E+04  0.7818609E-02  0.8654427E-01
       -1   -1    0    0    0  501  0.00000000000E+00  0.00000000000E+00  0.52772866335E+03  0.52772866338E+03  0.50400001928E-02 0. -1.
        1   -1    0    0  501    0  0.00000000000E+00  0.00000000000E+00 -0.17117123801E+04  0.17117123801E+04  0.50400001928E-02 0.  1.
    10030    2    1    2    0    0  0.00000000000E+00  0.00000000000E+00 -0.11839837168E+04  0.22394410435E+04  0.19008626320E+04 0.  0.
        4    1    3    3  502    0  0.67573010757E+03  0.44129730625E+03 -0.62390264293E+00  0.80706659758E+03  0.12699999809E+01 0. -1.
       -4    1    3    3    0  502 -0.67573010757E+03 -0.44129730625E+03 -0.11833598141E+04  0.14323744459E+04  0.12699999809E+01 0.  1.
</event>
<event>
 5   0  0.5841424E-05  0.1889497E+04  0.7818609E-02  0.8660102E-01
        1   -1    0    0  501    0  0.00000000000E+00  0.00000000000E+00  0.10611896750E+04  0.10611896750E+04  0.50400001928E-02 0. -1.
       -1   -1    0    0    0  501  0.00000000000E+00  0.00000000000E+00 -0.84108363091E+03  0.84108363092E+03  0.50400001928E-02 0.  1.
    10030    2    1    2    0    0  0.00000000000E+00  0.00000000000E+00  0.22010604409E+03  0.19022733059E+04  0.18894965096E+04 0.  0.
        1    1    3    3  502    0  0.38868293928E+03 -0.20636494162E+03 -0.73159541201E+03  0.85375216738E+03  0.50400001928E-02 0.  1.
       -1    1    3    3    0  502 -0.38868293928E+03  0.20636494162E+03  0.95170145609E+03  0.10485211385E+04  0.50400001928E-02 0. -1.
</event>
<event>
 5   0  0.5841424E-05  0.1903089E+04  0.7818609E-02  0.8653320E-01
       -1   -1    0    0    0  501  0.00000000000E+00  0.00000000000E+00  0.43331764436E+03  0.43331764439E+03  0.50400001928E-02 0. -1.
        1   -1    0    0  501    0  0.00000000000E+00  0.00000000000E+00 -0.20895459274E+04  0.20895459274E+04  0.50400001928E-02 0.  1.
    10030    2    1    2    0    0  0.00000000000E+00  0.00000000000E+00 -0.16562282831E+04  0.25228635718E+04  0.19030891930E+04 0.  0.
        1    1    3    3  502    0  0.12790007664E+03  0.80266235821E+03 -0.14840340630E+04  0.16920349852E+04  0.50400001928E-02 0.  1.
       -1    1    3    3    0  502 -0.12790007664E+03 -0.80266235821E+03 -0.17219422003E+03  0.83082858661E+03  0.50400001928E-02 0. -1.
</event>
<event>
 5   0  0.1141890E-04  0.1921300E+04  0.7818609E-02  0.8644326E-01
       -2   -1    0    0    0  501  0.00000000000E+00  0.00000000000E+00  0.95246722800E+03  0.95246722801E+03  0.25500000920E-02 0.  1.
        2   -1    0    0  501    0  0.00000000000E+00  0.00000000000E+00 -0.96890278052E+03  0.96890278052E+03  0.25500000920E-02 0. -1.
    10030    2    1    2    0    0  0.00000000000E+00  0.00000000000E+00 -0.16435552513E+02  0.19213700085E+04  0.19212997117E+04 0.  0.
        2    1    3    3  502    0  0.16965820740E+03  0.37450608421E+03 -0.87647153704E+03  0.96811211628E+03  0.25500000920E-02 0. -1.
       -2    1    3    3    0  502 -0.16965820740E+03 -0.37450608421E+03  0.86003598453E+03  0.95325789225E+03  0.25500000920E-02 0.  1.
</event>
<event>
 5   0  0.1101678E-04  0.1866954E+04  0.7818609E-02  0.8671483E-01
        2   -1    0    0  501    0  0.00000000000E+00  0.00000000000E+00  0.13914808646E+04  0.13914808646E+04  0.25500000920E-02 0.  1.
       -2   -1    0    0    0  501  0.00000000000E+00  0.00000000000E+00 -0.62622426744E+03  0.62622426744E+03  0.25500000920E-02 0. -1.
    10030    2    1    2    0    0  0.00000000000E+00  0.00000000000E+00  0.76525659715E+03  0.20177051320E+04  0.18669537596E+04 0.  0.
        4    1    3    3  502    0 -0.61196287895E+03  0.51772010337E+03 -0.13437660568E+03  0.81276771325E+03  0.12699999809E+01 0. -1.
       -4    1    3    3    0  502  0.61196287895E+03 -0.51772010337E+03  0.89963320284E+03  0.12049374188E+04  0.12699999809E+01 0.  1.
</event>
<event>
 5   0  0.1133638E-04  0.1896959E+04  0.7818609E-02  0.8656372E-01
       -2   -1    0    0    0  501  0.00000000000E+00  0.00000000000E+00  0.76798668587E+03  0.76798668587E+03  0.25500000920E-02 0.  1.
        2   -1    0    0  501    0  0.00000000000E+00  0.00000000000E+00 -0.11713913666E+04  0.11713913666E+04  0.25500000920E-02 0. -1.
    10030    2    1    2    0    0  0.00000000000E+00  0.00000000000E+00 -0.40340468073E+03  0.19393780525E+04  0.18969585905E+04 0.  0.
        3    1    3    3  502    0 -0.75353860503E+03 -0.46259246055E+03 -0.55259853031E+03  0.10426779751E+04  0.10100000352E+00 0. -1.
       -3    1    3    3    0  502  0.75353860503E+03  0.46259246055E+03  0.14919384958E+03  0.89670007739E+03  0.10100000352E+00 0.  1.
</event>
<event>
 5   0  0.5579109E-05  0.1897686E+04  0.7818609E-02  0.8656009E-01
       -1   -1    0    0    0  501  0.00000000000E+00  0.00000000000E+00  0.73654118804E+03  0.73654118806E+03  0.50400001928E-02 0. -1.
        1   -1    0    0  501    0  0.00000000000E+00  0.00000000000E+00 -0.12223384815E+04  0.12223384815E+04  0.50400001928E-02 0.  1.
    10030    2    1    2    0    0  0.00000000000E+00  0.00000000000E+00 -0.48579729345E+03  0.19588796696E+04  0.18976855771E+04 0.  0.
        3    1    3    3  502    0  0.49465711694E+03  0.73247512162E+03  0.11333439961E+03  0.89109492394E+03  0.10100000352E+00 0. -1.
       -3    1    3    3    0  502 -0.49465711694E+03 -0.73247512162E+03 -0.59913169306E+03  0.10677847456E+04  0.10100000352E+00 0.  1.
</event>
<event>
 5   0  0.1182630E-04  0.1902950E+04  0.7818609E-02  0.8653389E-01
       -2   -1    0    0    0  501  0.00000000000E+00  0.00000000000E+00  0.52280334612E+03  0.52280334613E+03  0.25500000920E-02 0.  1.
        2   -1    0    0  501    0  0.00000000000E+00  0.00000000000E+00 -0.17316356442E+04  0.17316356442E+04  0.25500000920E-02 0. -1.
    10030    2    1    2    0    0  0.00000000000E+00  0.00000000000E+00 -0.12088322980E+04  0.22544389903E+04  0.19029502453E+04 0.  0.
        5    1    3    3  502    0 -0.57961722198E+03 -0.56119491161E+03 -0.12019444525E+04  0.14476147311E+04  0.46999998093E+01 0. -1.
       -5    1    3    3    0  502  0.57961722198E+03  0.56119491161E+03 -0.68878455692E+01  0.80682425921E+03  0.46999998093E+01 0.  1.
</event>
<event>
 5   0  0.1141890E-04  0.1899355E+04  0.7818609E-02  0.8655178E-01
        2   -1    0    0  501    0  0.00000000000E+00  0.00000000000E+00  0.95719487596E+03  0.95719487597E+03  0.25500000920E-02 0.  1.
       -2   -1    0    0    0  501  0.00000000000E+00  0.00000000000E+00 -0.94221882566E+03  0.94221882566E+03  0.25500000920E-02 0. -1.
    10030    2    1    2    0    0  0.00000000000E+00  0.00000000000E+00  0.14976050308E+02  0.18994137016E+04  0.18993546609E+04 0.  0.
        2    1    3    3  502    0  0.16260521873E+03 -0.44831842427E+03  0.82876696462E+03  0.95618227779E+03  0.25500000920E-02 0.  1.
       -2    1    3    3    0  502 -0.16260521873E+03  0.44831842427E+03 -0.81379091431E+03  0.94323142384E+03  0.25500000920E-02 0. -1.
</event>
<event>
 5   0  0.5579109E-05  0.1905775E+04  0.7818609E-02  0.8651987E-01
       -1   -1    0    0    0  501  0.00000000000E+00  0.00000000000E+00  0.50423691148E+03  0.50423691151E+03  0.50400001928E-02 0.  1.
        1   -1    0    0  501    0  0.00000000000E+00  0.00000000000E+00 -0.18007304259E+04  0.18007304259E+04  0.50400001928E-02 0. -1.
    10030    2    1    2    0    0  0.00000000000E+00  0.00000000000E+00 -0.12964935144E+04  0.23049673374E+04  0.19057751687E+04 0.  0.
        3    1    3    3  502    0  0.41881242389E+03 -0.21486468007E+03  0.35380316982E+03  0.58885258794E+03  0.10100000352E+00 0.  1.
       -3    1    3    3    0  502 -0.41881242389E+03  0.21486468007E+03 -0.16502966843E+04  0.17161147495E+04  0.10100000352E+00 0. -1.
</event>
<event>
 5   0  0.1182630E-04  0.1883795E+04  0.7818609E-02  0.8662965E-01
        2   -1    0    0  501    0  0.00000000000E+00  0.00000000000E+00  0.15920694265E+04  0.15920694265E+04  0.25500000920E-02 0. -1.
       -2   -1    0    0    0  501  0.00000000000E+00  0.00000000000E+00 -0.55724397495E+03  0.55724397496E+03  0.25500000920E-02 0.  1.
    10030    2    1    2    0    0  0.00000000000E+00  0.00000000000E+00  0.10348254516E+04  0.21493134015E+04  0.18837952072E+04 0.  0.
        5    1    3    3  502    0  0.75219139081E+03 -0.56686667343E+03  0.51240140203E+03  0.10722439091E+04  0.46999998093E+01 0.  1.
       -5    1    3    3    0  502 -0.75219139081E+03  0.56686667343E+03  0.52242404956E+03  0.10770694924E+04  0.46999998093E+01 0. -1.
</event>
<event>
 5   0  0.4061125E-05  0.1890419E+04  0.7818609E-02  0.8659640E-01
        3   -1    0    0  501    0  0.00000000000E+00  0.00000000000E+00  0.75538028300E+03  0.75538028975E+03  0.10100000352E+00 0.  1.
       -3   -1    0    0    0  501  0.00000000000E+00  0.00000000000E+00 -0.11827427412E+04  0.11827427455E+04  0.10100000352E+00 0. -1.
    10030    2    1    2    0    0  0.00000000000E+00  0.00000000000E+00 -0.42736245824E+03  0.19381230353E+04  0.18904185328E+04 0.  0.
        5    1    3    3  502    0  0.13674290601E+03 -0.56857995500E+03  0.54763191241E+03  0.80118948387E+03  0.46999998093E+01 0.  1.
       -5    1    3    3    0  502 -0.13674290601E+03  0.56857995500E+03 -0.97499437064E+03  0.11369335514E+04  0.46999998093E+01 0. -1.
</event>
<event>
 5   0  0.1182630E-04  0.1901045E+04  0.7818609E-02  0.8654336E-01
       -2   -1    0    0    0  501  0.00000000000E+00  0.00000000000E+00  0.18294293942E+04  0.18294293942E+04  0.25500000920E-02 0. -1.
        2   -1    0    0  501    0  0.00000000000E+00  0.00000000000E+00 -0.49386601978E+03  0.49386601978E+03  0.25500000920E-02 0.  1.
    10030    2    1    2    0    0  0.00000000000E+00  0.00000000000E+00  0.13355633744E+04  0.23232954140E+04  0.19010449899E+04 0.  0.
        5    1    3    3  502    0 -0.47947675896E+01 -0.95010115940E+03  0.63418529484E+03  0.11423345749E+04  0.46999998093E+01 0. -1.
       -5    1    3    3    0  502  0.47947675896E+01  0.95010115940E+03  0.70137807961E+03  0.11809608391E+04  0.46999998093E+01 0.  1.
</event>
<event>
 5   0  0.1118206E-04  0.1942284E+04  0.7818609E-02  0.8634090E-01
        2   -1    0    0  501    0  0.00000000000E+00  0.00000000000E+00  0.13987699960E+04  0.13987699960E+04  0.25500000920E-02 0.  1.
       -2   -1    0    0    0  501  0.00000000000E+00  0.00000000000E+00 -0.67424731049E+03  0.67424731049E+03  0.25500000920E-02 0. -1.
    10030    2    1    2    0    0  0.00000000000E+00  0.00000000000E+00  0.72452268555E+03  0.20730173065E+04  0.19422841273E+04 0.  0.
        1    1    3    3  502    0 -0.45923721464E+03 -0.71729084004E+03 -0.13574089000E+03  0.86245611933E+03  0.50400001928E-02 0. -1.
       -1    1    3    3    0  502  0.45923721464E+03  0.71729084004E+03  0.86026357555E+03  0.12105611872E+04  0.50400001928E-02 0.  1.
</event>
<event>
 5   0  0.1101678E-04  0.1889381E+04  0.7818609E-02  0.8660160E-01
        2   -1    0    0  501    0  0.00000000000E+00  0.00000000000E+00  0.12466173540E+04  0.12466173540E+04  0.25500000920E-02 0. -1.
       -2   -1    0    0    0  501  0.00000000000E+00  0.00000000000E+00 -0.71588950325E+03  0.71588950326E+03  0.25500000920E-02 0.  1.
    10030    2    1    2    0    0  0.00000000000E+00  0.00000000000E+00  0.53072785078E+03  0.19625068573E+04  0.18893811456E+04 0.  0.
        4    1    3    3  502    0 -0.55590257240E+03 -0.72065211563E+03  0.24436177828E+01  0.91015093580E+03  0.12699999809E+01 0.  1.
       -4    1    3    3    0  502  0.55590257240E+03  0.72065211563E+03  0.52828423300E+03  0.10523559215E+04  0.12699999809E+01 0. -1.
</event>
<event>
 5   0  0.5579109E-05  0.1832353E+04  0.7818609E-02  0.8689281E-01
        1   -1    0    0  501    0  0.00000000000E+00  0.00000000000E+00  0.16658538308E+04  0.16658538308E+04  0.50400001928E-02 0.  1.
       -1   -1    0    0    0  501  0.00000000000E+00  0.00000000000E+00 -0.50387330439E+03  0.50387330442E+03  0.50400001928E-02 0. -1.
    10030    2    1    2    0    0  0.00000000000E+00  0.00000000000E+00  0.11619805264E+04  0.21697271352E+04  0.18323528856E+04 0.  0.
        3    1    3    3  502    0 -0.30337230503E+02  0.83363109938E+03  0.10295800197E+04  0.13251023299E+04  0.10100000352E+00 0. -1.
       -3    1    3    3    0  502  0.30337230503E+02 -0.83363109938E+03  0.13240050667E+03  0.84462480533E+03  0.10100000352E+00 0.  1.
</event>
<event>
 5   0  0.5614989E-05  0.1881167E+04  0.7818609E-02  0.8664288E-01
       -1   -1    0    0    0  501  0.00000000000E+00  0.00000000000E+00  0.87120673632E+03  0.87120673634E+03  0.50400001928E-02 0. -1.
        1   -1    0    0  501    0  0.00000000000E+00  0.00000000000E+00 -0.10154850218E+04  0.10154850218E+04  0.50400001928E-02 0.  1.
    10030    2    1    2    0    0  0.00000000000E+00  0.00000000000E+00 -0.14427828545E+03  0.18866917581E+04  0.18811670757E+04 0.  0.
        4    1    3    3  502    0  0.82552598131E+03 -0.41653114711E+03  0.10071677074E+03  0.93012731556E+03  0.12699999809E+01 0. -1.
       -4    1    3    3    0  502 -0.82552598131E+03  0.41653114711E+03 -0.24499505619E+03  0.95656444257E+03  0.12699999809E+01 0.  1.
</event>
<event>
 5   0  0.1118206E-04  0.1824075E+04  0.7818609E-02  0.8693600E-01
       -2   -1    0    0    0  501  0.00000000000E+00  0.00000000000E+00  0.27790528856E+03  0.27790528857E+03  0.25500000920E-02 0.  1.
        2   -1    0    0  501    0  0.00000000000E+00  0.00000000000E+00 -0.29931510325E+04  0.29931510325E+04  0.25500000920E-02 0. -1.
    10030    2    1    2    0    0  0.00000000000E+00  0.00000000000E+00 -0.27152457439E+04  0.32710563211E+04  0.18240751097E+04 0.  0.
        1    1    3    3  502    0  0.68828950583E+03 -0.15985524116E+03 -0.32354840900E+03  0.77716131849E+03  0.50400001928E-02 0.  1.
       -1    1    3    3    0  502 -0.68828950583E+03  0.15985524116E+03 -0.23916973349E+04  0.24938950026E+04  0.50400001928E-02 0. -1.
</event>
<event>
 5   0  0.5841424E-05  0.1937681E+04  0.7818609E-02  0.8636324E-01
        1   -1    0    0  501    0  0.00000000000E+00  0.00000000000E+00  0.10705684013E+04  0.10705684013E+04  0.50400001928E-02 0.  1.
       -1   -1    0    0    0  501  0.00000000000E+00  0.00000000000E+00 -0.87677899827E+03  0.87677899829E+03  0.50400001928E-02 0. -1.
    10030    2    1    2    0    0  0.00000000000E+00  0.00000000000E+00  0.19378940307E+03  0.19473473996E+04  0.19376809753E+04 0.  0.
        1    1    3    3  502    0  0.46528504507E+03 -0.49475262813E+03 -0.59748013938E+03  0.90457329896E+03  0.50400001928E-02 0. -1.
       -1    1    3    3    0  502 -0.46528504507E+03  0.49475262813E+03  0.79126954245E+03  0.10427741007E+04  0.50400001928E-02 0.  1.
</event>
<event>
 5   0  0.1101678E-04  0.1911089E+04  0.7818609E-02  0.8649356E-01
       -2   -1    0    0    0  501  0.00000000000E+00  0.00000000000E+00  0.42395080129E+03  0.42395080129E+03  0.25500000920E-02 0.  1.
        2   -1    0    0  501    0  0.00000000000E+00  0.00000000000E+00 -0.21537058647E+04  0.21537058647E+04  0.25500000920E-02 0. -1.
    10030    2    1    2    0    0  0.00000000000E+00  0.00000000000E+00 -0.17297550634E+04  0.25776566660E+04  0.19110890373E+04 0.  0.
        4    1    3    3  502    0 -0.50660605622E+03  0.18445203958E+03 -0.19289616538E+04  0.20028896439E+04  0.12699999809E+01 0. -1.
       -4    1    3    3    0  502  0.50660605622E+03 -0.18445203958E+03  0.19920659037E+03  0.57476702206E+03  0.12699999809E+01 0.  1.
</event>
<event>
 5   0  0.1182630E-04  0.1913926E+04  0.7818609E-02  0.8647955E-01
        2   -1    0    0  501    0  0.00000000000E+00  0.00000000000E+00  0.26514039702E+04  0.26514039702E+04  0.25500000920E-02 0.  1.
       -2   -1    0    0    0  501  0.00000000000E+00  0.00000000000E+00 -0.34539362442E+03  0.34539362443E+03  0.25500000920E-02 0. -1.
    10030    2    1    2    0    0  0.00000000000E+00  0.00000000000E+00  0.23060103458E+04  0.29967975946E+04  0.19139258367E+04 0.  0.
        5    1    3    3  502    0 -0.33127283096E+03 -0.53134743526E+03  0.22861019956E+04  0.23703071973E+04  0.46999998093E+01 0.  1.
       -5    1    3    3    0  502  0.33127283096E+03  0.53134743526E+03  0.19908350176E+02  0.62649039729E+03  0.46999998093E+01 0. -1.
</event>
<event>
 5   0  0.1182630E-04  0.1894912E+04  0.7818609E-02  0.8657393E-01
        2   -1    0    0  501    0  0.00000000000E+00  0.00000000000E+00  0.87349440371E+03  0.87349440371E+03  0.25500000920E-02 0. -1.
       -2   -1    0    0    0  501  0.00000000000E+00  0.00000000000E+00 -0.10276803743E+04  0.10276803744E+04  0.25500000920E-02 0.  1.
    10030    2    1    2    0    0  0.00000000000E+00  0.00000000000E+00 -0.15418597064E+03  0.19011747781E+04  0.18949121941E+04 0.  0.
        5    1    3    3  502    0 -0.14243209842E+03  0.17803716333E+03  0.84554770116E+03  0.87576089152E+03  0.46999998093E+01 0. -1.
       -5    1    3    3    0  502  0.14243209842E+03 -0.17803716333E+03 -0.99973367180E+03  0.10254138865E+04  0.46999998093E+01 0.  1.
</event>
<event>
 5   0  0.5614989E-05  0.1896283E+04  0.7818609E-02  0.8656709E-01
        1   -1    0    0  501    0  0.00000000000E+00  0.00000000000E+00  0.19519587663E+04  0.19519587663E+04  0.50400001928E-02 0. -1.
       -1   -1    0    0    0  501  0.00000000000E+00  0.00000000000E+00 -0.46054895122E+03  0.46054895125E+03  0.50400001928E-02 0.  1.
    10030    2    1    2    0    0  0.00000000000E+00  0.00000000000E+00  0.14914098150E+04  0.24125077175E+04  0.18962832728E+04 0.  0.
        4    1    3    3  502    0  0.83974775879E+03 -0.42450426396E+03  0.59738900852E+03  0.11145651210E+04  0.12699999809E+01 0.  1.
       -4    1    3    3    0  502 -0.83974775879E+03  0.42450426396E+03  0.89402080652E+03  0.12979425965E+04  0.12699999809E+01 0. -1.
</event>
<event>
 5   0  0.5614989E-05  0.1887129E+04  0.7818609E-02  0.8661290E-01
        1   -1    0    0  501    0  0.00000000000E+00  0.00000000000E+00  0.67760543979E+03  0.67760543981E+03  0.50400001928E-02 0.  1.
       -1   -1    0    0    0  501  0.00000000000E+00  0.00000000000E+00 -0.13139117066E+04  0.13139117067E+04  0.50400001928E-02 0. -1.
    10030    2    1    2    0    0  0.00000000000E+00  0.00000000000E+00 -0.63630626686E+03  0.19915171465E+04  0.18871287395E+04 0.  0.
        4    1    3    3  502    0  0.11332584239E+03 -0.93440274366E+03 -0.38784293749E+03  0.10180250444E+04  0.12699999809E+01 0. -1.
       -4    1    3    3    0  502 -0.11332584239E+03  0.93440274366E+03 -0.24846332937E+03  0.97349210210E+03  0.12699999809E+01 0.  1.
</event>
<event>
 5   0  0.5841424E-05  0.1898397E+04  0.7818609E-02  0.8655655E-01
       -1   -1    0    0    0  501  0.00000000000E+00  0.00000000000E+00  0.46650083824E+03  0.46650083826E+03  0.50400001928E-02 0. -1.
        1   -1    0    0  501    0  0.00000000000E+00  0.00000000000E+00 -0.19313536539E+04  0.19313536539E+04  0.50400001928E-02 0.  1.
    10030    2    1    2    0    0  0.00000000000E+00  0.00000000000E+00 -0.14648528157E+04  0.23978544922E+04  0.18983973225E+04 0.  0.
        1    1    3    3  502    0  0.42904062286E+03 -0.78125942991E+03 -0.11446983654E+04  0.14507847878E+04  0.50400001928E-02 0.  1.
       -1    1    3    3    0  502 -0.42904062286E+03  0.78125942991E+03 -0.32015445035E+03  0.94706970439E+03  0.50400001928E-02 0. -1.
</event>
<event>
 5   0  0.1182630E-04  0.1891447E+04  0.7818609E-02  0.8659125E-01
        2   -1    0    0  501    0  0.00000000000E+00  0.00000000000E+00  0.10224105274E+04  0.10224105274E+04  0.25500000920E-02 0. -1.
       -2   -1    0    0    0  501  0.00000000000E+00  0.00000000000E+00 -0.87478887091E+03  0.87478887091E+03  0.25500000920E-02 0.  1.
    10030    2    1    2    0    0  0.00000000000E+00  0.00000000000E+00  0.14762165652E+03  0.18971993983E+04  0.18914474361E+04 0.  0.
        5    1    3    3  502    0  0.23523839312E+02 -0.88589648033E+03  0.40497438689E+03  0.97436763539E+03  0.46999998093E+01 0. -1.
       -5    1    3    3    0  502 -0.23523839312E+02  0.88589648033E+03 -0.25735273037E+03  0.92283176294E+03  0.46999998093E+01 0.  1.
</event>
<event>
 5   0  0.1101678E-04  0.1888418E+04  0.7818609E-02  0.8660643E-01
        2   -1    0    0  501    0  0.00000000000E+00  0.00000000000E+00  0.15874159932E+04  0.15874159932E+04  0.25500000920E-02 0.  1.
       -2   -1    0    0    0  501  0.00000000000E+00  0.00000000000E+00 -0.56162399126E+03  0.56162399126E+03  0.25500000920E-02 0. -1.
    10030    2    1    2    0    0  0.00000000000E+00  0.00000000000E+00  0.10257920019E+04  0.21490399845E+04  0.18884182862E+04 0.  0.
        4    1    3    3  502    0  0.16388893837E+03 -0.46880616094E+03  0.14267762383E+04  0.15107385107E+04  0.12699999809E+01 0.  1.
       -4    1    3    3    0  502 -0.16388893837E+03  0.46880616094E+03 -0.40098423638E+03  0.63830147374E+03  0.12699999809E+01 0. -1.
</event>
<event>
 5   0  0.1118206E-04  0.1899801E+04  0.7818609E-02  0.8654956E-01
        2   -1    0    0  501    0  0.00000000000E+00  0.00000000000E+00  0.60883725266E+03  0.60883725267E+03  0.25500000920E-02 0. -1.
       -2   -1    0    0    0  501  0.00000000000E+00  0.00000000000E+00 -0.14820226561E+04  0.14820226561E+04  0.25500000920E-02 0.  1.
    10030    2    1    2    0    0  0.00000000000E+00  0.00000000000E+00 -0.87318540346E+03  0.20908599088E+04  0.18998006236E+04 0.  0.
        1    1    3    3  502    0  0.34634272059E+03  0.47201894766E+03  0.38667005456E+03  0.70161876983E+03  0.50400001928E-02 0. -1.
       -1    1    3    3    0  502 -0.34634272059E+03 -0.47201894766E+03 -0.12598554580E+04  0.13892411390E+04  0.50400001928E-02 0.  1.
</event>
<event>
 5   0  0.1118206E-04  0.1909421E+04  0.7818609E-02  0.8650181E-01
        2   -1    0    0  501    0  0.00000000000E+00  0.00000000000E+00  0.12254368609E+04  0.12254368609E+04  0.25500000920E-02 0.  1.
       -2   -1    0    0    0  501  0.00000000000E+00  0.00000000000E+00 -0.74379393257E+03  0.74379393258E+03  0.25500000920E-02 0. -1.
    10030    2    1    2    0    0  0.00000000000E+00  0.00000000000E+00  0.48164292829E+03  0.19692307934E+04  0.19094213803E+04 0.  0.
        1    1    3    3  502    0  0.57362663251E+03  0.71158800745E+03 -0.43620977057E+02  0.91504524234E+03  0.50400001928E-02 0. -1.
       -1    1    3    3    0  502 -0.57362663251E+03 -0.71158800745E+03  0.52526390535E+03  0.10541855511E+04  0.50400001928E-02 0.  1.
</event>
<event>
 5   0  0.5824956E-05  0.1826998E+04  0.7818609E-02  0.8692073E-01
        1   -1    0    0  501    0  0.00000000000E+00  0.00000000000E+00  0.10334582239E+04  0.10334582239E+04  0.50400001928E-02 0. -1.
       -1   -1    0    0    0  501  0.00000000000E+00  0.00000000000E+00 -0.80746387590E+03  0.80746387592E+03  0.50400001928E-02 0.  1.
    10030    2    1    2    0    0  0.00000000000E+00  0.00000000000E+00  0.22599434797E+03  0.18409220998E+04  0.18269977373E+04 0.  0.
        2    1    3    3  502    0 -0.33432834499E+03  0.27019457630E+02  0.96916398434E+03  0.10255653670E+04  0.25500000920E-02 0. -1.
       -2    1    3    3    0  502  0.33432834499E+03 -0.27019457630E+02 -0.74316963637E+03  0.81535673284E+03  0.25500000920E-02 0.  1.
</event>
<event>
 5   0  0.5628936E-05  0.1885608E+04  0.7818609E-02  0.8662054E-01
       -1   -1    0    0    0  501  0.00000000000E+00  0.00000000000E+00  0.62147187376E+03  0.62147187378E+03  0.50400001928E-02 0. -1.
        1   -1    0    0  501    0  0.00000000000E+00  0.00000000000E+00 -0.14302806570E+04  0.14302806570E+04  0.50400001928E-02 0.  1.
    10030    2    1    2    0    0  0.00000000000E+00  0.00000000000E+00 -0.80880878324E+03  0.20517525308E+04  0.18856078064E+04 0.  0.
        5    1    3    3  502    0 -0.45122801812E+03 -0.82779851205E+03 -0.40450785951E+03  0.10259170528E+04  0.46999998093E+01 0.  1.
       -5    1    3    3    0  502  0.45122801812E+03  0.82779851205E+03 -0.40430092373E+03  0.10258354779E+04  0.46999998093E+01 0. -1.
</event>
<event>
 5   0  0.1182630E-04  0.1935136E+04  0.7818609E-02  0.8637562E-01
        2   -1    0    0  501    0  0.00000000000E+00  0.00000000000E+00  0.11160559005E+04  0.11160559005E+04  0.25500000920E-02 0.  1.
       -2   -1    0    0    0  501  0.00000000000E+00  0.00000000000E+00 -0.83883560272E+03  0.83883560272E+03  0.25500000920E-02 0. -1.
    10030    2    1    2    0    0  0.00000000000E+00  0.00000000000E+00  0.27722029774E+03  0.19548915032E+04  0.19351355755E+04 0.  0.
        5    1    3    3  502    0 -0.15603379143E+03  0.81792645280E+03 -0.35918322817E+03  0.90685440267E+03  0.46999998093E+01 0. -1.
       -5    1    3    3    0  502  0.15603379143E+03 -0.81792645280E+03  0.63640352591E+03  0.10480371005E+04  0.46999998093E+01 0.  1.
</event>
<event>
 5   0  0.5614989E-05  0.1905261E+04  0.7818609E-02  0.8652242E-01
       -1   -1    0    0    0  501  0.00000000000E+00  0.00000000000E+00  0.96725203141E+03  0.96725203143E+03  0.50400001928E-02 0.  1.
        1   -1    0    0  501    0  0.00000000000E+00  0.00000000000E+00 -0.93822992899E+03  0.93822992900E+03  0.50400001928E-02 0. -1.
    10030    2    1    2    0    0  0.00000000000E+00  0.00000000000E+00  0.29022102424E+02  0.19054819604E+04  0.19052609320E+04 0.  0.
        4    1    3    3  502    0 -0.34139903392E+03 -0.22588147278E+03 -0.84577909692E+03  0.93963803340E+03  0.12699999809E+01 0. -1.
       -4    1    3    3    0  502  0.34139903392E+03  0.22588147278E+03  0.87480119935E+03  0.96584392703E+03  0.12699999809E+01 0.  1.
</event>
<event>
 5   0  0.1141890E-04  0.1893770E+04  0.7818609E-02  0.8657964E-01
       -2   -1    0    0    0  501  0.00000000000E+00  0.00000000000E+00  0.60303349746E+03  0.60303349747E+03  0.25500000920E-02 0. -1.
        2   -1    0    0  501    0  0.00000000000E+00  0.00000000000E+00 -0.14868019371E+04  0.14868019371E+04  0.25500000920E-02 0.  1.
    10030    2    1    2    0    0  0.00000000000E+00  0.00000000000E+00 -0.88376843963E+03  0.20898354346E+04  0.18937701784E+04 0.  0.
        2    1    3    3  502    0  0.60183644493E+03 -0.47771680727E+03  0.16872981654E+03  0.78669575147E+03  0.25500000920E-02 0. -1.
       -2    1    3    3    0  502 -0.60183644493E+03  0.47771680727E+03 -0.10524982562E+04  0.13031396831E+04  0.25500000920E-02 0.  1.
</event>
<event>
 5   0  0.5841424E-05  0.1908506E+04  0.7818609E-02  0.8650634E-01
       -1   -1    0    0    0  501  0.00000000000E+00  0.00000000000E+00  0.16574893908E+04  0.16574893908E+04  0.50400001928E-02 0.  1.
        1   -1    0    0  501    0  0.00000000000E+00  0.00000000000E+00 -0.54938427980E+03  0.54938427982E+03  0.50400001928E-02 0. -1.
    10030    2    1    2    0    0  0.00000000000E+00  0.00000000000E+00  0.11081051110E+04  0.22068736707E+04  0.19085058190E+04 0.  0.
        1    1    3    3  502    0  0.77689198546E+02 -0.46385561450E+03  0.15141602069E+04  0.15855216097E+04  0.50400001928E-02 0.  1.
       -1    1    3    3    0  502 -0.77689198546E+02  0.46385561450E+03 -0.40605509590E+03  0.62135206092E+03  0.50400001928E-02 0. -1.
</event>
<event>
 5   0  0.1133638E-04  0.1887355E+04  0.7818609E-02  0.8661176E-01
        2   -1    0    0  501    0  0.00000000000E+00  0.00000000000E+00  0.18549478179E+04  0.18549478179E+04  0.25500000920E-02 0. -1.
       -2   -1    0    0    0  501  0.00000000000E+00  0.00000000000E+00 -0.48008232022E+03  0.48008232023E+03  0.25500000920E-02 0.  1.
    10030    2    1    2    0    0  0.00000000000E+00  0.00000000000E+00  0.13748654977E+04  0.23350301381E+04  0.18873554539E+04 0.  0.
        3    1    3    3  502    0 -0.79792905273E+03 -0.44870437028E+03  0.97091354300E+03  0.13344285306E+04  0.10100000352E+00 0. -1.
       -3    1    3    3    0  502  0.79792905273E+03  0.44870437028E+03  0.40395195466E+03  0.10006016075E+04  0.10100000352E+00 0.  1.
</event>
<event>
 5   0  0.1182630E-04  0.1883951E+04  0.7818609E-02  0.8662887E-01
        2   -1    0    0  501    0  0.00000000000E+00  0.00000000000E+00  0.93654464119E+03  0.93654464120E+03  0.25500000920E-02 0.  1.
       -2   -1    0    0    0  501  0.00000000000E+00  0.00000000000E+00 -0.94743759403E+03  0.94743759403E+03  0.25500000920E-02 0. -1.
    10030    2    1    2    0    0  0.00000000000E+00  0.00000000000E+00 -0.10892952835E+02  0.18839822352E+04  0.18839507441E+04 0.  0.
        5    1    3    3  502    0 -0.23555145781E+03  0.36288156357E+03 -0.84219697641E+03  0.94682910577E+03  0.46999998093E+01 0. -1.
       -5    1    3    3    0  502  0.23555145781E+03 -0.36288156357E+03  0.83130402358E+03  0.93715312946E+03  0.46999998093E+01 0.  1.
</event>
<event>
 5   0  0.5841424E-05  0.1907786E+04  0.7818609E-02  0.8650991E-01
       -1   -1    0    0    0  501  0.00000000000E+00  0.00000000000E+00  0.11572308531E+04  0.11572308531E+04  0.50400001928E-02 0. -1.
        1   -1    0    0  501    0  0.00000000000E+00  0.00000000000E+00 -0.78628362153E+03  0.78628362155E+03  0.50400001928E-02 0.  1.
    10030    2    1    2    0    0  0.00000000000E+00  0.00000000000E+00  0.37094723152E+03  0.19435144746E+04  0.19077858015E+04 0.  0.
        1    1    3    3  502    0 -0.29045865170E+03 -0.78902993024E+03 -0.27349374630E+03  0.88415682345E+03  0.50400001928E-02 0.  1.
       -1    1    3    3    0  502  0.29045865170E+03  0.78902993024E+03  0.64444097782E+03  0.10593576512E+04  0.50400001928E-02 0. -1.
</event>
<event>
 5   0  0.5614989E-05  0.1870812E+04  0.7818609E-02  0.8669523E-01
        1   -1    0    0  501    0  0.00000000000E+00  0.00000000000E+00  0.11707174573E+04  0.11707174573E+04  0.50400001928E-02 0.  1.
       -1   -1    0    0    0  501  0.00000000000E+00  0.00000000000E+00 -0.74739142542E+03  0.74739142544E+03  0.50400001928E-02 0. -1.
    10030    2    1    2    0    0  0.00000000000E+00  0.00000000000E+00  0.42332603188E+03  0.19181088827E+04  0.18708117909E+04 0.  0.
        4    1    3    3  502    0 -0.63803577758E+03 -0.50540950065E+03  0.68424349397E+03  0.10633528054E+04  0.12699999809E+01 0.  1.
       -4    1    3    3    0  502  0.63803577758E+03  0.50540950065E+03 -0.26091746209E+03  0.85475607734E+03  0.12699999809E+01 0. -1.
</event>
<event>
 5   0  0.4061125E-05  0.1907951E+04  0.7818609E-02  0.8650909E-01
        3   -1    0    0  501    0  0.00000000000E+00  0.00000000000E+00  0.86291084446E+03  0.86291085037E+03  0.10100000352E+00 0. -1.
       -3   -1    0    0    0  501  0.00000000000E+00  0.00000000000E+00 -0.10546499729E+04  0.10546499777E+04  0.10100000352E+00 0.  1.
    10030    2    1    2    0    0  0.00000000000E+00  0.00000000000E+00 -0.19173912841E+03  0.19175608281E+04  0.19079506377E+04 0.  0.
        3    1    3    3  502    0 -0.57217453841E+03  0.62720861145E+03  0.34140183758E+03  0.91505714006E+03  0.10100000352E+00 0.  1.
       -3    1    3    3    0  502  0.57217453841E+03 -0.62720861145E+03 -0.53314096599E+03  0.10025036880E+04  0.10100000352E+00 0. -1.
</event>
<event>
 5   0  0.5628936E-05  0.1903651E+04  0.7818609E-02  0.8653041E-01
       -1   -1    0    0    0  501  0.00000000000E+00  0.00000000000E+00  0.76772160838E+03  0.76772160839E+03  0.50400001928E-02 0. -1.
        1   -1    0    0  501    0  0.00000000000E+00  0.00000000000E+00 -0.11800790879E+04  0.11800790879E+04  0.50400001928E-02 0.  1.
    10030    2    1    2    0    0  0.00000000000E+00  0.00000000000E+00 -0.41235747949E+03  0.19478006963E+04  0.19036514548E+04 0.  0.
        5    1    3    3  502    0  0.51819951611E+03  0.12435670319E+03 -0.10131099116E+04  0.11447310213E+04  0.46999998093E+01 0.  1.
       -5    1    3    3    0  502 -0.51819951611E+03 -0.12435670319E+03  0.60075243214E+03  0.80306967496E+03  0.46999998093E+01 0. -1.
</event>
<event>
 5   0  0.1182630E-04  0.1904528E+04  0.7818609E-02  0.8652606E-01
       -2   -1    0    0    0  501  0.00000000000E+00  0.00000000000E+00  0.13322083857E+04  0.13322083857E+04  0.25500000920E-02 0. -1.
        2   -1    0    0  501    0  0.00000000000E+00  0.00000000000E+00 -0.68067905547E+03  0.68067905548E+03  0.25500000920E-02 0.  1.
    10030    2    1    2    0    0  0.00000000000E+00  0.00000000000E+00  0.65152933027E+03  0.20128874412E+04  0.19045276010E+04 0.  0.
        5    1    3    3  502    0 -0.69854530018E+03  0.44120566432E+02  0.10081562015E+04  0.12273195091E+04  0.46999998093E+01 0. -1.
       -5    1    3    3    0  502  0.69854530018E+03 -0.44120566432E+02 -0.35662687119E+03  0.78556793216E+03  0.46999998093E+01 0.  1.
</event>
<event>
 5   0  0.1182630E-04  0.1900734E+04  0.7818609E-02  0.8654491E-01
       -2   -1    0    0    0  501  0.00000000000E+00  0.00000000000E+00  0.10548412918E+04  0.10548412918E+04  0.25500000920E-02 0. -1.
        2   -1    0    0  501    0  0.00000000000E+00  0.00000000000E+00 -0.85623992387E+03  0.85623992388E+03  0.25500000920E-02 0.  1.
    10030    2    1    2    0    0  0.00000000000E+00  0.00000000000E+00  0.19860136791E+03  0.19110812157E+04  0.19007337819E+04 0.  0.
        5    1    3    3  502    0 -0.31556825622E+03  0.38649805533E+02 -0.80117412636E+03  0.86196241365E+03  0.46999998093E+01 0.  1.
       -5    1    3    3    0  502  0.31556825622E+03 -0.38649805533E+02  0.99977549426E+03  0.10491188020E+04  0.46999998093E+01 0. -1.
</event>
<event>
 5   0  0.1133638E-04  0.1907510E+04  0.7818609E-02  0.8651127E-01
        2   -1    0    0  501    0  0.00000000000E+00  0.00000000000E+00  0.13885040271E+04  0.13885040271E+04  0.25500000920E-02 0. -1.
       -2   -1    0    0    0  501  0.00000000000E+00  0.00000000000E+00 -0.65512833475E+03  0.65512833476E+03  0.25500000920E-02 0.  1.
    10030    2    1    2    0    0  0.00000000000E+00  0.00000000000E+00  0.73337569232E+03  0.20436323618E+04  0.19075097180E+04 0.  0.
        3    1    3    3  502    0 -0.52157927023E+03 -0.79846150003E+03  0.37516574162E+03  0.10248585493E+04  0.10100000352E+00 0. -1.
       -3    1    3    3    0  502  0.52157927023E+03  0.79846150003E+03  0.35820995070E+03  0.10187738126E+04  0.10100000352E+00 0.  1.
</event>
<event>
 5   0  0.1182630E-04  0.1893516E+04  0.7818609E-02  0.8658091E-01
       -2   -1    0    0    0  501  0.00000000000E+00  0.00000000000E+00  0.69709572118E+03  0.69709572118E+03  0.25500000920E-02 0. -1.
        2   -1    0    0  501    0  0.00000000000E+00  0.00000000000E+00 -0.12858355523E+04  0.12858355523E+04  0.25500000920E-02 0.  1.
    10030    2    1    2    0    0  0.00000000000E+00  0.00000000000E+00 -0.58873983110E+03  0.19829312735E+04  0.18935157371E+04 0.  0.
        5    1    3    3  502    0 -0.97895337164E+02 -0.38317810814E+03  0.60643542852E+03  0.72401310662E+03  0.46999998093E+01 0. -1.
       -5    1    3    3    0  502  0.97895337164E+02  0.38317810814E+03 -0.11951752596E+04  0.12589181668E+04  0.46999998093E+01 0.  1.
</event>
<event>
 5   0  0.5824956E-05  0.1901237E+04  0.7818609E-02  0.8654241E-01
        1   -1    0    0  501    0  0.00000000000E+00  0.00000000000E+00  0.14093373221E+04  0.14093373221E+04  0.50400001928E-02 0.  1.
       -1   -1    0    0    0  501  0.00000000000E+00  0.00000000000E+00 -0.64120600627E+03  0.64120600629E+03  0.50400001928E-02 0. -1.
    10030    2    1    2    0    0  0.00000000000E+00  0.00000000000E+00  0.76813131579E+03  0.20505433284E+04  0.19012370245E+04 0.  0.
        2    1    3    3  502    0  0.35532410812E+03  0.84076319278E+03  0.97619508376E+02  0.91796924599E+03  0.25500000920E-02 0. -1.
       -2    1    3    3    0  502 -0.35532410812E+03 -0.84076319278E+03  0.67051180741E+03  0.11325740824E+04  0.25500000920E-02 0.  1.
</event>
<event>
 5   0  0.1133638E-04  0.1889418E+04  0.7818609E-02  0.8660141E-01
       -2   -1    0    0    0  501  0.00000000000E+00  0.00000000000E+00  0.48210187830E+03  0.48210187831E+03  0.25500000920E-02 0.  1.
        2   -1    0    0  501    0  0.00000000000E+00  0.00000000000E+00 -0.18512177117E+04  0.18512177117E+04  0.25500000920E-02 0. -1.
    10030    2    1    2    0    0  0.00000000000E+00  0.00000000000E+00 -0.13691158334E+04  0.23333195900E+04  0.18894184671E+04 0.  0.
        3    1    3    3  502    0 -0.51012054188E+02  0.61403533776E+03  0.19981296413E+03  0.64773980620E+03  0.10100000352E+00 0.  1.
       -3    1    3    3    0  502  0.51012054188E+02 -0.61403533776E+03 -0.15689287975E+04  0.16855797838E+04  0.10100000352E+00 0. -1.
</event>
<event>
 5   0  0.1101678E-04  0.1892201E+04  0.7818609E-02  0.8658748E-01
        2   -1    0    0  501    0  0.00000000000E+00  0.00000000000E+00  0.20777482247E+04  0.20777482247E+04  0.25500000920E-02 0.  1.
       -2   -1    0    0    0  501  0.00000000000E+00  0.00000000000E+00 -0.43080570858E+03  0.43080570859E+03  0.25500000920E-02 0. -1.
    10030    2    1    2    0    0  0.00000000000E+00  0.00000000000E+00  0.16469425161E+04  0.25085539332E+04  0.18922006196E+04 0.  0.
        4    1    3    3  502    0  0.49851260880E+03  0.16162773003E+03  0.18677470251E+04  0.19398760030E+04  0.12699999809E+01 0.  1.
       -4    1    3    3    0  502 -0.49851260880E+03 -0.16162773003E+03 -0.22080450905E+03  0.56867793026E+03  0.12699999809E+01 0. -1.
</event>
<event>
 5   0  0.1133638E-04  0.1899600E+04  0.7818609E-02  0.8655055E-01
        2   -1    0    0  501    0  0.00000000000E+00  0.00000000000E+00  0.79612215800E+03  0.79612215801E+03  0.25500000920E-02 0. -1.
       -2   -1    0    0    0  501  0.00000000000E+00  0.00000000000E+00 -0.11331429313E+04  0.11331429313E+04  0.25500000920E-02 0.  1.
    10030    2    1    2    0    0  0.00000000000E+00  0.00000000000E+00 -0.33702077332E+03  0.19292650893E+04  0.18996001641E+04 0.  0.
        3    1    3    3  502    0  0.53856900777E+03 -0.34900570662E+02 -0.96228173346E+03  0.11032954141E+04  0.10100000352E+00 0.  1.
       -3    1    3    3    0  502 -0.53856900777E+03  0.34900570662E+02  0.62526096014E+03  0.82596967526E+03  0.10100000352E+00 0. -1.
</event>
<event>
 5   0  0.5824956E-05  0.1887803E+04  0.7818609E-02  0.8660952E-01
        1   -1    0    0  501    0  0.00000000000E+00  0.00000000000E+00  0.58052447455E+03  0.58052447457E+03  0.50400001928E-02 0. -1.
       -1   -1    0    0    0  501  0.00000000000E+00  0.00000000000E+00 -0.15347327002E+04  0.15347327003E+04  0.50400001928E-02 0.  1.
    10030    2    1    2    0    0  0.00000000000E+00  0.00000000000E+00 -0.95420822570E+03  0.21152571748E+04  0.18878028440E+04 0.  0.
        2    1    3    3  502    0  0.41686004723E+03 -0.78210301106E+03 -0.11317459448E+03  0.89345727806E+03  0.25500000920E-02 0. -1.
       -2    1    3    3    0  502 -0.41686004723E+03  0.78210301106E+03 -0.84103363122E+03  0.12217998968E+04  0.25500000920E-02 0.  1.
</event>
<event>
 5   0  0.1141890E-04  0.1905682E+04  0.7818609E-02  0.8652033E-01
       -2   -1    0    0    0  501  0.00000000000E+00  0.00000000000E+00  0.60302738718E+03  0.60302738719E+03  0.25500000920E-02 0. -1.
        2   -1    0    0  501    0  0.00000000000E+00  0.00000000000E+00 -0.15055797769E+04  0.15055797769E+04  0.25500000920E-02 0.  1.
    10030    2    1    2    0    0  0.00000000000E+00  0.00000000000E+00 -0.90255238968E+03  0.21086071640E+04  0.19056818612E+04 0.  0.
        2    1    3    3  502    0  0.94711413408E+03  0.33228497037E+02 -0.56068127570E+03  0.11011325120E+04  0.25500000920E-02 0.  1.
       -2    1    3    3    0  502 -0.94711413408E+03 -0.33228497037E+02 -0.34187111398E+03  0.10074746521E+04  0.25500000920E-02 0. -1.
</event>
<event>
 5   0  0.5614989E-05  0.1899536E+04  0.7818609E-02  0.8655088E-01
        1   -1    0    0  501    0  0.00000000000E+00  0.00000000000E+00  0.16837441907E+04  0.16837441907E+04  0.50400001928E-02 0. -1.
       -1   -1    0    0    0  501  0.00000000000E+00  0.00000000000E+00 -0.53574577327E+03  0.53574577329E+03  0.50400001928E-02 0.  1.
    10030    2    1    2    0    0  0.00000000000E+00  0.00000000000E+00  0.11479984174E+04  0.22194899640E+04  0.18995355574E+04 0.  0.
        4    1    3    3  502    0  0.64766563931E+03 -0.23711390287E+03  0.13369486080E+04  0.15043692953E+04  0.12699999809E+01 0. -1.
       -4    1    3    3    0  502 -0.64766563931E+03  0.23711390287E+03 -0.18895019064E+03  0.71512066865E+03  0.12699999809E+01 0.  1.
</event>
<event>
 5   0  0.5614989E-05  0.1728308E+04  0.7818609E-02  0.8745382E-01
        1   -1    0    0  501    0  0.00000000000E+00  0.00000000000E+00  0.11194211116E+04  0.11194211116E+04  0.50400001928E-02 0. -1.
       -1   -1    0    0    0  501  0.00000000000E+00  0.00000000000E+00 -0.66709660201E+03  0.66709660203E+03  0.50400001928E-02 0.  1.
    10030    2    1    2    0    0  0.00000000000E+00  0.00000000000E+00  0.45232450962E+03  0.17865177137E+04  0.17283078659E+04 0.  0.
        4    1    3    3  502    0  0.71954264448E+03  0.35710306409E+03  0.55547693632E+03  0.97663732025E+03  0.12699999809E+01 0.  1.
       -4    1    3    3    0  502 -0.71954264448E+03 -0.35710306409E+03 -0.10315242670E+03  0.80988039342E+03  0.12699999809E+01 0. -1.
</event>
<event>
 5   0  0.1101678E-04  0.1892944E+04  0.7818609E-02  0.8658377E-01
        2   -1    0    0  501    0  0.00000000000E+00  0.00000000000E+00  0.11083358031E+04  0.11083358031E+04  0.25500000920E-02 0.  1.
       -2   -1    0    0    0  501  0.00000000000E+00  0.00000000000E+00 -0.80824725491E+03  0.80824725492E+03  0.25500000920E-02 0. -1.
    10030    2    1    2    0    0  0.00000000000E+00  0.00000000000E+00  0.30008854814E+03  0.19165830580E+04  0.18929441306E+04 0.  0.
        4    1    3    3  502    0 -0.63052264189E+03 -0.15227141182E+03  0.84789922732E+03  0.10675580066E+04  0.12699999809E+01 0.  1.
       -4    1    3    3    0  502  0.63052264189E+03  0.15227141182E+03 -0.54781067918E+03  0.84902505141E+03  0.12699999809E+01 0. -1.
</event>
<event>
 5   0  0.5628936E-05  0.1903987E+04  0.7818609E-02  0.8652874E-01
       -1   -1    0    0    0  501  0.00000000000E+00  0.00000000000E+00  0.10861438649E+04  0.10861438649E+04  0.50400001928E-02 0.  1.
        1   -1    0    0  501    0  0.00000000000E+00  0.00000000000E+00 -0.83441228154E+03  0.83441228155E+03  0.50400001928E-02 0. -1.
    10030    2    1    2    0    0  0.00000000000E+00  0.00000000000E+00  0.25173158333E+03  0.19205561464E+04  0.19039871642E+04 0.  0.
        5    1    3    3  502    0  0.92419224522E+03  0.18210549518E+03  0.26481786059E+03  0.97849083122E+03  0.46999998093E+01 0.  1.
       -5    1    3    3    0  502 -0.92419224522E+03 -0.18210549518E+03 -0.13086277253E+02  0.94206531522E+03  0.46999998093E+01 0. -1.
</event>
<event>
 5   0  0.5824956E-05  0.1895155E+04  0.7818609E-02  0.8657272E-01
       -1   -1    0    0    0  501  0.00000000000E+00  0.00000000000E+00  0.34785875382E+03  0.34785875385E+03  0.50400001928E-02 0.  1.
        1   -1    0    0  501    0  0.00000000000E+00  0.00000000000E+00 -0.25812285846E+04  0.25812285846E+04  0.50400001928E-02 0. -1.
    10030    2    1    2    0    0  0.00000000000E+00  0.00000000000E+00 -0.22333698308E+04  0.29290873385E+04  0.18951548315E+04 0.  0.
        2    1    3    3  502    0  0.13143952623E+03  0.83040345209E+03 -0.17922524635E+04  0.19796502557E+04  0.25500000920E-02 0. -1.
       -2    1    3    3    0  502 -0.13143952623E+03 -0.83040345209E+03 -0.44111736736E+03  0.94943708274E+03  0.25500000920E-02 0.  1.
</event>
<event>
 5   0  0.1118206E-04  0.1907566E+04  0.7818609E-02  0.8651099E-01
       -2   -1    0    0    0  501  0.00000000000E+00  0.00000000000E+00  0.94949165293E+03  0.94949165293E+03  0.25500000920E-02 0. -1.
        2   -1    0    0  501    0  0.00000000000E+00  0.00000000000E+00 -0.95809414465E+03  0.95809414466E+03  0.25500000920E-02 0.  1.
    10030    2    1    2    0    0  0.00000000000E+00  0.00000000000E+00 -0.86024917227E+01  0.19075857976E+04  0.19075664005E+04 0.  0.
        1    1    3    3  502    0  0.70813890185E+03 -0.60946050505E+03  0.18753287496E+03  0.95292779934E+03  0.50400001928E-02 0.  1.
       -1    1    3    3    0  502 -0.70813890185E+03  0.60946050505E+03 -0.19613536668E+03  0.95465799825E+03  0.50400001928E-02 0. -1.
</event>
<event>
 5   0  0.1133638E-04  0.1989326E+04  0.7818609E-02  0.8611627E-01
       -2   -1    0    0    0  501  0.00000000000E+00  0.00000000000E+00  0.16799248701E+04  0.16799248701E+04  0.25500000920E-02 0. -1.
        2   -1    0    0  501    0  0.00000000000E+00  0.00000000000E+00 -0.58892809409E+03  0.58892809409E+03  0.25500000920E-02 0.  1.
    10030    2    1    2    0    0  0.00000000000E+00  0.00000000000E+00  0.10909967760E+04  0.22688529642E+04  0.19893264709E+04 0.  0.
        3    1    3    3  502    0 -0.14739186477E+03  0.34190597802E+02  0.16667229111E+04  0.16735765986E+04  0.10100000352E+00 0. -1.
       -3    1    3    3    0  502  0.14739186477E+03 -0.34190597802E+02 -0.57572613502E+03  0.59527636567E+03  0.10100000352E+00 0.  1.
</event>
<event>
 5   0  0.1101678E-04  0.1882004E+04  0.7818609E-02  0.8663866E-01
        2   -1    0    0  501    0  0.00000000000E+00  0.00000000000E+00  0.11648281808E+04  0.11648281808E+04  0.25500000920E-02 0. -1.
       -2   -1    0    0    0  501  0.00000000000E+00  0.00000000000E+00 -0.76018525870E+03  0.76018525871E+03  0.25500000920E-02 0.  1.
    10030    2    1    2    0    0  0.00000000000E+00  0.00000000000E+00  0.40464292212E+03  0.19250134395E+04  0.18820044761E+04 0.  0.
        4    1    3    3  502    0  0.48475902132E+03 -0.55528194618E+03  0.80062846068E+03  0.10882724353E+04  0.12699999809E+01 0. -1.
       -4    1    3    3    0  502 -0.48475902132E+03  0.55528194618E+03 -0.39598553856E+03  0.83674100423E+03  0.12699999809E+01 0.  1.
</event>
<event>
 5   0  0.5841424E-05  0.1914199E+04  0.7818609E-02  0.8647821E-01
       -1   -1    0    0    0  501  0.00000000000E+00  0.00000000000E+00  0.88717768008E+03  0.88717768010E+03  0.50400001928E-02 0. -1.
        1   -1    0    0  501    0  0.00000000000E+00  0.00000000000E+00 -0.10325317127E+04  0.10325317127E+04  0.50400001928E-02 0.  1.
    10030    2    1    2    0    0  0.00000000000E+00  0.00000000000E+00 -0.14535403257E+03  0.19197093928E+04  0.19141986203E+04 0.  0.
        1    1    3    3  502    0  0.15076171399E+03 -0.66764524983E+02  0.87282691392E+03  0.88826427255E+03  0.50400001928E-02 0. -1.
       -1    1    3    3    0  502 -0.15076171399E+03  0.66764524983E+02 -0.10181809465E+04  0.10314451202E+04  0.50400001928E-02 0.  1.
</event>
<event>
 5   0  0.1101678E-04  0.1997994E+04  0.7818609E-02  0.8607559E-01
       -2   -1    0    0    0  501  0.00000000000E+00  0.00000000000E+00  0.51596761353E+03  0.51596761353E+03  0.25500000920E-02 0.  1.
        2   -1    0    0  501    0  0.00000000000E+00  0.00000000000E+00 -0.19342207865E+04  0.19342207865E+04  0.25500000920E-02 0. -1.
    10030    2    1    2    0    0  0.00000000000E+00  0.00000000000E+00 -0.14182531729E+04  0.24501884000E+04  0.19979942775E+04 0.  0.
        4    1    3    3  502    0 -0.66139934236E+03 -0.33875781276E+03  0.10965730916E+03  0.75115396833E+03  0.12699999809E+01 0.  1.
       -4    1    3    3    0  502  0.66139934236E+03  0.33875781276E+03 -0.15279104821E+04  0.16990344317E+04  0.12699999809E+01 0. -1.
</event>
<event>
 5   0  0.5579109E-05  0.1899818E+04  0.7818609E-02  0.8654947E-01
        1   -1    0    0  501    0  0.00000000000E+00  0.00000000000E+00  0.16192921523E+04  0.16192921523E+04  0.50400001928E-02 0.  1.
       -1   -1    0    0    0  501  0.00000000000E+00  0.00000000000E+00 -0.55723555241E+03  0.55723555243E+03  0.50400001928E-02 0. -1.
    10030    2    1    2    0    0  0.00000000000E+00  0.00000000000E+00  0.10620565999E+04  0.21765277047E+04  0.18998180513E+04 0.  0.
        3    1    3    3  502    0 -0.73730814815E+03  0.68190631110E+01 -0.15507901957E+03  0.75347151072E+03  0.10100000352E+00 0. -1.
       -3    1    3    3    0  502  0.73730814815E+03 -0.68190631110E+01  0.12171356194E+04  0.14230561940E+04  0.10100000352E+00 0.  1.
</event>
<event>
 5   0  0.1133638E-04  0.1881473E+04  0.7818609E-02  0.8664134E-01
       -2   -1    0    0    0  501  0.00000000000E+00  0.00000000000E+00  0.62571328935E+03  0.62571328936E+03  0.25500000920E-02 0. -1.
        2   -1    0    0  501    0  0.00000000000E+00  0.00000000000E+00 -0.14143622973E+04  0.14143622973E+04  0.25500000920E-02 0.  1.
    10030    2    1    2    0    0  0.00000000000E+00  0.00000000000E+00 -0.78864900790E+03  0.20400755866E+04  0.18814731307E+04 0.  0.
        3    1    3    3  502    0  0.12768509236E+03 -0.94603280914E+02 -0.13997034517E+04  0.14086955053E+04  0.10100000352E+00 0.  1.
       -3    1    3    3    0  502 -0.12768509236E+03  0.94603280914E+02  0.61105444384E+03  0.63138008134E+03  0.10100000352E+00 0. -1.
</event>
<event>
 5   0  0.1133638E-04  0.1888829E+04  0.7818609E-02  0.8660437E-01
       -2   -1    0    0    0  501  0.00000000000E+00  0.00000000000E+00  0.67717214332E+03  0.67717214333E+03  0.25500000920E-02 0.  1.
        2   -1    0    0  501    0  0.00000000000E+00  0.00000000000E+00 -0.13171230061E+04  0.13171230061E+04  0.25500000920E-02 0. -1.
    10030    2    1    2    0    0  0.00000000000E+00  0.00000000000E+00 -0.63995086276E+03  0.19942951494E+04  0.18888292766E+04 0.  0.
        3    1    3    3  502    0  0.19669933106E+03  0.10033679871E+03  0.64953381726E+03  0.68604102646E+03  0.10100000352E+00 0.  1.
       -3    1    3    3    0  502 -0.19669933106E+03 -0.10033679871E+03 -0.12894846800E+04  0.13082541230E+04  0.10100000352E+00 0. -1.
</event>
<event>
 5   0  0.5841424E-05  0.1911962E+04  0.7818609E-02  0.8648925E-01
        1   -1    0    0  501    0  0.00000000000E+00  0.00000000000E+00  0.99567799183E+03  0.99567799185E+03  0.50400001928E-02 0. -1.
       -1   -1    0    0    0  501  0.00000000000E+00  0.00000000000E+00 -0.91786687349E+03  0.91786687350E+03  0.50400001928E-02 0.  1.
    10030    2    1    2    0    0  0.00000000000E+00  0.00000000000E+00  0.77811118346E+02  0.19135448653E+04  0.19119621810E+04 0.  0.
        1    1    3    3  502    0 -0.41041734610E+03 -0.76080901849E+03 -0.36963215038E+03  0.94015992641E+03  0.50400001928E-02 0.  1.
       -1    1    3    3    0  502  0.41041734610E+03  0.76080901849E+03  0.44744326873E+03  0.97338493894E+03  0.50400001928E-02 0. -1.
</event>
<event>
 5   0  0.5841424E-05  0.1904616E+04  0.7818609E-02  0.8652562E-01
        1   -1    0    0  501    0  0.00000000000E+00  0.00000000000E+00  0.20709723500E+04  0.20709723500E+04  0.50400001928E-02 0. -1.
       -1   -1    0    0    0  501  0.00000000000E+00  0.00000000000E+00 -0.43790587459E+03  0.43790587462E+03  0.50400001928E-02 0.  1.
    10030    2    1    2    0    0  0.00000000000E+00  0.00000000000E+00  0.16330664754E+04  0.25088782247E+04  0.19046164530E+04 0.  0.
        1    1    3    3  502    0  0.43777939100E+03  0.75780196875E+03  0.32194342711E+03  0.93250318461E+03  0.50400001928E-02 0. -1.
       -1    1    3    3    0  502 -0.43777939100E+03 -0.75780196875E+03  0.13111230483E+04  0.15763750401E+04  0.50400001928E-02 0.  1.
</event>
<event>
 5   0  0.1118206E-04  0.1876293E+04  0.7818609E-02  0.8666748E-01
        2   -1    0    0  501    0  0.00000000000E+00  0.00000000000E+00  0.15610709352E+04  0.15610709352E+04  0.25500000920E-02 0.  1.
       -2   -1    0    0    0  501  0.00000000000E+00  0.00000000000E+00 -0.56379146360E+03  0.56379146361E+03  0.25500000920E-02 0. -1.
    10030    2    1    2    0    0  0.00000000000E+00  0.00000000000E+00  0.99727947162E+03  0.21248623988E+04  0.18762925863E+04 0.  0.
        1    1    3    3  502    0 -0.61551234847E+03 -0.31367366271E+03 -0.22016960158E+03  0.72506639095E+03  0.50400001928E-02 0. -1.
       -1    1    3    3    0  502  0.61551234847E+03  0.31367366271E+03  0.12174490732E+04  0.13997960079E+04  0.50400001928E-02 0.  1.
</event>
<event>
 5   0  0.5614989E-05  0.1893880E+04  0.7818609E-02  0.8657909E-01
        1   -1    0    0  501    0  0.00000000000E+00  0.00000000000E+00  0.12978849326E+04  0.12978849326E+04  0.50400001928E-02 0. -1.
       -1   -1    0    0    0  501  0.00000000000E+00  0.00000000000E+00 -0.69088958236E+03  0.69088958238E+03  0.50400001928E-02 0.  1.
    10030    2    1    2    0    0  0.00000000000E+00  0.00000000000E+00  0.60699535021E+03  0.19887745150E+04  0.18938798051E+04 0.  0.
        4    1    3    3  502    0  0.71208365199E+03  0.20730836575E+03 -0.31477640591E+03  0.80568336495E+03  0.12699999809E+01 0.  1.
       -4    1    3    3    0  502 -0.71208365199E+03 -0.20730836575E+03  0.92177175612E+03  0.11830911500E+04  0.12699999809E+01 0. -1.
</event>
<event>
 5   0  0.1182630E-04  0.1893685E+04  0.7818609E-02  0.8658006E-01
       -2   -1    0    0    0  501  0.00000000000E+00  0.00000000000E+00  0.50616538413E+03  0.50616538413E+03  0.25500000920E-02 0. -1.
        2   -1    0    0  501    0  0.00000000000E+00  0.00000000000E+00 -0.17711815831E+04  0.17711815831E+04  0.25500000920E-02 0.  1.
    10030    2    1    2    0    0  0.00000000000E+00  0.00000000000E+00 -0.12650161989E+04  0.22773469672E+04  0.18936850914E+04 0.  0.
        5    1    3    3  502    0 -0.23876730737E+03 -0.12388671449E+03 -0.17242489492E+04  0.17451115362E+04  0.46999998093E+01 0.  1.
       -5    1    3    3    0  502  0.23876730737E+03  0.12388671449E+03  0.45923275024E+03  0.53223543098E+03  0.46999998093E+01 0. -1.
</event>
<event>
 5   0  0.5824956E-05  0.1896773E+04  0.7818609E-02  0.8656464E-01
       -1   -1    0    0    0  501  0.00000000000E+00  0.00000000000E+00  0.58212123599E+03  0.58212123601E+03  0.50400001928E-02 0.  1.
        1   -1    0    0  501    0  0.00000000000E+00  0.00000000000E+00 -0.15451029279E+04  0.15451029279E+04  0.50400001928E-02 0. -1.
    10030    2    1    2    0    0  0.00000000000E+00  0.00000000000E+00 -0.96298169186E+03  0.21272241639E+04  0.18967732876E+04 0.  0.
        2    1    3    3  502    0  0.61900924439E+03 -0.10550867984E+03  0.31558669935E+03  0.70277983109E+03  0.25500000920E-02 0.  1.
       -2    1    3    3    0  502 -0.61900924439E+03  0.10550867984E+03 -0.12785683912E+04  0.14244443328E+04  0.25500000920E-02 0. -1.
</event>
<event>
 5   0  0.5628936E-05  0.1901729E+04  0.7818609E-02  0.8653996E-01
       -1   -1    0    0    0  501  0.00000000000E+00  0.00000000000E+00  0.52818047620E+03  0.52818047622E+03  0.50400001928E-02 0. -1.
        1   -1    0    0  501    0  0.00000000000E+00  0.00000000000E+00 -0.17118074430E+04  0.17118074430E+04  0.50400001928E-02 0.  1.
    10030    2    1    2    0    0  0.00000000000E+00  0.00000000000E+00 -0.11836269668E+04  0.22399879193E+04  0.19017289717E+04 0.  0.
        5    1    3    3  502    0 -0.22925758521E+03  0.90479846609E+03 -0.80546569019E+03  0.12328894406E+04  0.46999998093E+01 0.  1.
       -5    1    3    3    0  502  0.22925758521E+03 -0.90479846609E+03 -0.37816127665E+03  0.10070984787E+04  0.46999998093E+01 0. -1.
</event>
<event>
 5   0  0.5579109E-05  0.1899450E+04  0.7818609E-02  0.8655130E-01
       -1   -1    0    0    0  501  0.00000000000E+00  0.00000000000E+00  0.15104167345E+04  0.15104167345E+04  0.50400001928E-02 0.  1.
        1   -1    0    0  501    0  0.00000000000E+00  0.00000000000E+00 -0.59717150481E+03  0.59717150483E+03  0.50400001928E-02 0. -1.
    10030    2    1    2    0    0  0.00000000000E+00  0.00000000000E+00  0.91324522969E+03  0.21075882393E+04  0.18994502723E+04 0.  0.
        3    1    3    3  502    0 -0.77062596764E+03 -0.53732067573E+03  0.30207654730E+03  0.98682731073E+03  0.10100000352E+00 0. -1.
       -3    1    3    3    0  502  0.77062596764E+03  0.53732067573E+03  0.61116868239E+03  0.11207609286E+04  0.10100000352E+00 0.  1.
</event>
<event>
 5   0  0.1182630E-04  0.1900329E+04  0.7818609E-02  0.8654693E-01
       -2   -1    0    0    0  501  0.00000000000E+00  0.00000000000E+00  0.10047052662E+04  0.10047052662E+04  0.25500000920E-02 0. -1.
        2   -1    0    0  501    0  0.00000000000E+00  0.00000000000E+00 -0.89858429547E+03  0.89858429547E+03  0.25500000920E-02 0.  1.
    10030    2    1    2    0    0  0.00000000000E+00  0.00000000000E+00  0.10612097074E+03  0.19032895617E+04  0.19003287861E+04 0.  0.
        5    1    3    3  502    0  0.37709383294E+03 -0.51793693751E+03  0.75581733359E+03  0.99082811921E+03  0.46999998093E+01 0. -1.
       -5    1    3    3    0  502 -0.37709383294E+03  0.51793693751E+03 -0.64969636285E+03  0.91246144246E+03  0.46999998093E+01 0.  1.
</event>
<event>
 5   0  0.5824956E-05  0.1896883E+04  0.7818609E-02  0.8656410E-01
        1   -1    0    0  501    0  0.00000000000E+00  0.00000000000E+00  0.67283850699E+03  0.67283850701E+03  0.50400001928E-02 0. -1.
       -1   -1    0    0    0  501  0.00000000000E+00  0.00000000000E+00 -0.13369346423E+04  0.13369346423E+04  0.50400001928E-02 0.  1.
    10030    2    1    2    0    0  0.00000000000E+00  0.00000000000E+00 -0.66409613533E+03  0.20097731493E+04  0.18968828205E+04 0.  0.
        2    1    3    3  502    0 -0.26555591856E+03  0.45481466167E+03 -0.11677650934E+04  0.12810353764E+04  0.25500000920E-02 0.  1.
       -2    1    3    3    0  502  0.26555591856E+03 -0.45481466167E+03  0.50366895804E+03  0.72873777290E+03  0.25500000920E-02 0. -1.
</event>
<event>
 5   0  0.5579109E-05  0.1901389E+04  0.7818609E-02  0.8654165E-01
       -1   -1    0    0    0  501  0.00000000000E+00  0.00000000000E+00  0.57547763520E+03  0.57547763522E+03  0.50400001928E-02 0.  1.
        1   -1    0    0  501    0  0.00000000000E+00  0.00000000000E+00 -0.15705569025E+04  0.15705569025E+04  0.50400001928E-02 0. -1.
    10030    2    1    2    0    0  0.00000000000E+00  0.00000000000E+00 -0.99507926731E+03  0.21460345377E+04  0.19013893575E+04 0.  0.
        3    1    3    3  502    0  0.29536849671E+03 -0.71694269168E+03  0.12329979635E+03  0.78514471404E+03  0.10100000352E+00 0.  1.
       -3    1    3    3    0  502 -0.29536849671E+03  0.71694269168E+03 -0.11183790637E+04  0.13608898237E+04  0.10100000352E+00 0. -1.
</event>
<event>
 5   0  0.1133638E-04  0.1911745E+04  0.7818609E-02  0.8649032E-01
       -2   -1    0    0    0  501  0.00000000000E+00  0.00000000000E+00  0.64275689412E+03  0.64275689413E+03  0.25500000920E-02 0. -1.
        2   -1    0    0  501    0  0.00000000000E+00  0.00000000000E+00 -0.14215200862E+04  0.14215200862E+04  0.25500000920E-02 0.  1.
    10030    2    1    2    0    0  0.00000000000E+00  0.00000000000E+00 -0.77876319209E+03  0.20642769803E+04  0.19117445808E+04 0.  0.
        3    1    3    3  502    0 -0.23769245236E+03 -0.18753042438E+03  0.58961459314E+03  0.66280520564E+03  0.10100000352E+00 0. -1.
       -3    1    3    3    0  502  0.23769245236E+03  0.18753042438E+03 -0.13683777852E+04  0.14014717747E+04  0.10100000352E+00 0.  1.
</event>
<event>
 5   0  0.1182630E-04  0.1903564E+04  0.7818609E-02  0.8653085E-01
        2   -1    0    0  501    0  0.00000000000E+00  0.00000000000E+00  0.69180917979E+03  0.69180917980E+03  0.25500000920E-02 0. -1.
       -2   -1    0    0    0  501  0.00000000000E+00  0.00000000000E+00 -0.13094488673E+04  0.13094488673E+04  0.25500000920E-02 0.  1.
    10030    2    1    2    0    0  0.00000000000E+00  0.00000000000E+00 -0.61763968751E+03  0.20012580471E+04  0.19035637598E+04 0.  0.
        5    1    3    3  502    0  0.28044674371E+03  0.83312466828E+03  0.74760737415E+02  0.88224619399E+03  0.46999998093E+01 0.  1.
       -5    1    3    3    0  502 -0.28044674371E+03 -0.83312466828E+03 -0.69240042492E+03  0.11190118531E+04  0.46999998093E+01 0. -1.
</event>
<event>
 5   0  0.1118206E-04  0.1915415E+04  0.7818609E-02  0.8647221E-01
        2   -1    0    0  501    0  0.00000000000E+00  0.00000000000E+00  0.13507681100E+04  0.13507681100E+04  0.25500000920E-02 0. -1.
       -2   -1    0    0    0  501  0.00000000000E+00  0.00000000000E+00 -0.67902352093E+03  0.67902352094E+03  0.25500000920E-02 0.  1.
    10030    2    1    2    0    0  0.00000000000E+00  0.00000000000E+00  0.67174458903E+03  0.20297916309E+04  0.19154146475E+04 0.  0.
        1    1    3    3  502    0  0.78733850424E+01  0.87124654740E+02  0.13465253445E+04  0.13493639980E+04  0.50400001928E-02 0. -1.
       -1    1    3    3    0  502 -0.78733850424E+01 -0.87124654740E+02 -0.67478075547E+03  0.68042763291E+03  0.50400001928E-02 0.  1.
</event>
<event>
 5   0  0.5614989E-05  0.1908485E+04  0.7818609E-02  0.8650644E-01
        1   -1    0    0  501    0  0.00000000000E+00  0.00000000000E+00  0.76248521505E+03  0.76248521507E+03  0.50400001928E-02 0.  1.
       -1   -1    0    0    0  501  0.00000000000E+00  0.00000000000E+00 -0.11942253653E+04  0.11942253654E+04  0.50400001928E-02 0. -1.
    10030    2    1    2    0    0  0.00000000000E+00  0.00000000000E+00 -0.43174015029E+03  0.19567105804E+04  0.19084854566E+04 0.  0.
        4    1    3    3  502    0  0.63175659992E+03  0.34046542240E+02  0.51653505062E+03  0.81675310835E+03  0.12699999809E+01 0.  1.
       -4    1    3    3    0  502 -0.63175659992E+03 -0.34046542240E+02 -0.94827520091E+03  0.11399574721E+04  0.12699999809E+01 0. -1.
</event>
<event>
 5   0  0.5628936E-05  0.1893907E+04  0.7818609E-02  0.8657895E-01
       -1   -1    0    0    0  501  0.00000000000E+00  0.00000000000E+00  0.81297217626E+03  0.81297217628E+03  0.50400001928E-02 0.  1.
        1   -1    0    0  501    0  0.00000000000E+00  0.00000000000E+00 -0.11030153860E+04  0.11030153860E+04  0.50400001928E-02 0. -1.
    10030    2    1    2    0    0  0.00000000000E+00  0.00000000000E+00 -0.29004320975E+03  0.19159875623E+04  0.18939068814E+04 0.  0.
        5    1    3    3  502    0 -0.23308575271E+03  0.13713541314E+03 -0.10631060842E+04  0.10969738948E+04  0.46999998093E+01 0. -1.
       -5    1    3    3    0  502  0.23308575271E+03 -0.13713541314E+03  0.77306287446E+03  0.81901366748E+03  0.46999998093E+01 0.  1.
</event>
<event>
 5   0  0.5579109E-05  0.1895390E+04  0.7818609E-02  0.8657155E-01
       -1   -1    0    0    0  501  0.00000000000E+00  0.00000000000E+00  0.69054285794E+03  0.69054285796E+03  0.50400001928E-02 0.  1.
        1   -1    0    0  501    0  0.00000000000E+00  0.00000000000E+00 -0.13006076968E+04  0.13006076969E+04  0.50400001928E-02 0. -1.
    10030    2    1    2    0    0  0.00000000000E+00  0.00000000000E+00 -0.61006483890E+03  0.19911505548E+04  0.18953895178E+04 0.  0.
        3    1    3    3  502    0 -0.10242669885E+03  0.55099534793E+03  0.49780252565E+03  0.74959620251E+03  0.10100000352E+00 0.  1.
       -3    1    3    3    0  502  0.10242669885E+03 -0.55099534793E+03 -0.11078673646E+04  0.12415543523E+04  0.10100000352E+00 0. -1.
</event>
<event>
 5   0  0.1141890E-04  0.1899066E+04  0.7818609E-02  0.8655321E-01
       -2   -1    0    0    0  501  0.00000000000E+00  0.00000000000E+00  0.53574927868E+03  0.53574927869E+03  0.25500000920E-02 0. -1.
        2   -1    0    0  501    0  0.00000000000E+00  0.00000000000E+00 -0.16829012028E+04  0.16829012028E+04  0.25500000920E-02 0.  1.
    10030    2    1    2    0    0  0.00000000000E+00  0.00000000000E+00 -0.11471519241E+04  0.22186504815E+04  0.18990661974E+04 0.  0.
        2    1    3    3  502    0 -0.33336066576E+03 -0.52594457049E+03  0.26390272340E+03  0.67630737991E+03  0.25500000920E-02 0. -1.
       -2    1    3    3    0  502  0.33336066576E+03  0.52594457049E+03 -0.14110546475E+04  0.15423431016E+04  0.25500000920E-02 0.  1.
</event>
<event>
 5   0  0.5579109E-05  0.1780581E+04  0.7818609E-02  0.8716695E-01
        1   -1    0    0  501    0  0.00000000000E+00  0.00000000000E+00  0.85908295015E+03  0.85908295017E+03  0.50400001928E-02 0. -1.
       -1   -1    0    0    0  501  0.00000000000E+00  0.00000000000E+00 -0.92263136761E+03  0.92263136762E+03  0.50400001928E-02 0.  1.
    10030    2    1    2    0    0  0.00000000000E+00  0.00000000000E+00 -0.63548417455E+02  0.17817143178E+04  0.17805806662E+04 0.  0.
        3    1    3    3  502    0  0.72796504073E+03 -0.29208613317E+03 -0.45319488059E+03  0.90588797305E+03  0.10100000352E+00 0.  1.
       -3    1    3    3    0  502 -0.72796504073E+03  0.29208613317E+03  0.38964646314E+03  0.87582634475E+03  0.10100000352E+00 0. -1.
</event>
<event>
 5   0  0.5824956E-05  0.1908273E+04  0.7818609E-02  0.8650750E-01
       -1   -1    0    0    0  501  0.00000000000E+00  0.00000000000E+00  0.24827983787E+04  0.24827983787E+04  0.50400001928E-02 0. -1.
        1   -1    0    0  501    0  0.00000000000E+00  0.00000000000E+00 -0.36667337012E+03  0.36667337016E+03  0.50400001928E-02 0.  1.
    10030    2    1    2    0    0  0.00000000000E+00  0.00000000000E+00  0.21161250086E+04  0.28494717489E+04  0.19082725685E+04 0.  0.
        2    1    3    3  502    0  0.22591465306E+03 -0.79940247036E+03  0.35721168246E+03  0.90425766581E+03  0.25500000920E-02 0.  1.
       -2    1    3    3    0  502 -0.22591465306E+03  0.79940247036E+03  0.17589133261E+04  0.19452140831E+04  0.25500000920E-02 0. -1.
</event>
<event>
 5   0  0.5614989E-05  0.1897894E+04  0.7818609E-02  0.8655905E-01
       -1   -1    0    0    0  501  0.00000000000E+00  0.00000000000E+00  0.16399921841E+04  0.16399921841E+04  0.50400001928E-02 0.  1.
        1   -1    0    0  501    0  0.00000000000E+00  0.00000000000E+00 -0.54908825254E+03  0.54908825257E+03  0.50400001928E-02 0. -1.
    10030    2    1    2    0    0  0.00000000000E+00  0.00000000000E+00  0.10909039316E+04  0.21890804367E+04  0.18978940356E+04 0.  0.
        4    1    3    3  502    0  0.24034087372E+03  0.82328545409E+03  0.77018739692E+02  0.86110172086E+03  0.12699999809E+01 0. -1.
       -4    1    3    3    0  502 -0.24034087372E+03 -0.82328545409E+03  0.10138851919E+04  0.13279787158E+04  0.12699999809E+01 0.  1.
</event>
<event>
 5   0  0.1118206E-04  0.1901181E+04  0.7818609E-02  0.8654269E-01
       -2   -1    0    0    0  501  0.00000000000E+00  0.00000000000E+00  0.76451118225E+03  0.76451118225E+03  0.25500000920E-02 0.  1.
        2   -1    0    0  501    0  0.00000000000E+00  0.00000000000E+00 -0.11819607603E+04  0.11819607603E+04  0.25500000920E-02 0. -1.
    10030    2    1    2    0    0  0.00000000000E+00  0.00000000000E+00 -0.41744957806E+03  0.19464719426E+04  0.19011809154E+04 0.  0.
        1    1    3    3  502    0  0.71747273526E+03 -0.59110082950E+03 -0.41208930855E+03  0.10168504879E+04  0.50400001928E-02 0. -1.
       -1    1    3    3    0  502 -0.71747273526E+03  0.59110082950E+03 -0.53602695119E+01  0.92962145467E+03  0.50400001928E-02 0.  1.
</event>
<event>
 5   0  0.1133638E-04  0.1898026E+04  0.7818609E-02  0.8655840E-01
        2   -1    0    0  501    0  0.00000000000E+00  0.00000000000E+00  0.23451316611E+04  0.23451316611E+04  0.25500000920E-02 0.  1.
       -2   -1    0    0    0  501  0.00000000000E+00  0.00000000000E+00 -0.38404042255E+03  0.38404042255E+03  0.25500000920E-02 0. -1.
    10030    2    1    2    0    0  0.00000000000E+00  0.00000000000E+00  0.19610912385E+04  0.27291720836E+04  0.18980256627E+04 0.  0.
        3    1    3    3  502    0  0.35330178991E+03 -0.56543134417E+03  0.94669971876E+01  0.66680161514E+03  0.10100000352E+00 0. -1.
       -3    1    3    3    0  502 -0.35330178991E+03  0.56543134417E+03  0.19516242413E+04  0.20623704685E+04  0.10100000352E+00 0.  1.
</event>
<event>
 5   0  0.5824956E-05  0.1895724E+04  0.7818609E-02  0.8656988E-01
       -1   -1    0    0    0  501  0.00000000000E+00  0.00000000000E+00  0.63942731110E+03  0.63942731112E+03  0.50400001928E-02 0. -1.
        1   -1    0    0  501    0  0.00000000000E+00  0.00000000000E+00 -0.14050729823E+04  0.14050729823E+04  0.50400001928E-02 0.  1.
    10030    2    1    2    0    0  0.00000000000E+00  0.00000000000E+00 -0.76564567119E+03  0.20445002934E+04  0.18957236497E+04 0.  0.
        2    1    3    3  502    0  0.30999652865E+02  0.92796270700E+03 -0.58848838872E+03  0.10992699158E+04  0.25500000920E-02 0.  1.
       -2    1    3    3    0  502 -0.30999652865E+02 -0.92796270700E+03 -0.17715728247E+03  0.94523037764E+03  0.25500000920E-02 0. -1.
</event>
<event>
 5   0  0.5628936E-05  0.1863229E+04  0.7818609E-02  0.8673379E-01
        1   -1    0    0  501    0  0.00000000000E+00  0.00000000000E+00  0.12119764862E+04  0.12119764862E+04  0.50400001928E-02 0. -1.
       -1   -1    0    0    0  501  0.00000000000E+00  0.00000000000E+00 -0.71610763612E+03  0.71610763614E+03  0.50400001928E-02 0.  1.
    10030    2    1    2    0    0  0.00000000000E+00  0.00000000000E+00  0.49586885006E+03  0.19280841223E+04  0.18632290429E+04 0.  0.
        5    1    3    3  502    0  0.72906762740E+03 -0.57039773783E+03  0.13945051359E+03  0.93614193389E+03  0.46999998093E+01 0.  1.
       -5    1    3    3    0  502 -0.72906762740E+03  0.57039773783E+03  0.35641833647E+03  0.99194218845E+03  0.46999998093E+01 0. -1.
</event>
<event>
 5   0  0.1182630E-04  0.1768058E+04  0.7818609E-02  0.8723473E-01
        2   -1    0    0  501    0  0.00000000000E+00  0.00000000000E+00  0.17311938281E+04  0.17311938281E+04  0.25500000920E-02 0. -1.
       -2   -1    0    0    0  501  0.00000000000E+00  0.00000000000E+00 -0.45142680591E+03  0.45142680592E+03  0.25500000920E-02 0.  1.
    10030    2    1    2    0    0  0.00000000000E+00  0.00000000000E+00  0.12797670222E+04  0.21826206341E+04  0.17680580310E+04 0.  0.
        5    1    3    3  502    0  0.71940469912E+03  0.38384327012E+03  0.10614275932E+04  0.13384802587E+04  0.46999998093E+01 0. -1.
       -5    1    3    3    0  502 -0.71940469912E+03 -0.38384327012E+03  0.21833942899E+03  0.84414037540E+03  0.46999998093E+01 0.  1.
</event>
<event>
 5   0  0.1118206E-04  0.1903442E+04  0.7818609E-02  0.8653145E-01
        2   -1    0    0  501    0  0.00000000000E+00  0.00000000000E+00  0.86459951899E+03  0.86459951899E+03  0.25500000920E-02 0.  1.
       -2   -1    0    0    0  501  0.00000000000E+00  0.00000000000E+00 -0.10476208420E+04  0.10476208420E+04  0.25500000920E-02 0. -1.
    10030    2    1    2    0    0  0.00000000000E+00  0.00000000000E+00 -0.18302132298E+03  0.19122203610E+04  0.19034415946E+04 0.  0.
        1    1    3    3  502    0  0.17316738404E+03  0.85117356444E+03 -0.48226355005E+03  0.99350969367E+03  0.50400001928E-02 0. -1.
       -1    1    3    3    0  502 -0.17316738404E+03 -0.85117356444E+03  0.29924222708E+03  0.91871066728E+03  0.50400001928E-02 0.  1.
</event>
<event>
 5   0  0.4061125E-05  0.1901660E+04  0.7818609E-02  0.8654031E-01
       -3   -1    0    0    0  501  0.00000000000E+00  0.00000000000E+00  0.12913920049E+04  0.12913920089E+04  0.10100000352E+00 0.  1.
        3   -1    0    0  501    0  0.00000000000E+00  0.00000000000E+00 -0.70007971831E+03  0.70007972560E+03  0.10100000352E+00 0. -1.
    10030    2    1    2    0    0  0.00000000000E+00  0.00000000000E+00  0.59131228659E+03  0.19914717344E+04  0.19016596564E+04 0.  0.
        3    1    3    3  502    0  0.83212113624E+03  0.37378054402E+03  0.14772672680E+02  0.91233531255E+03  0.10100000352E+00 0. -1.
       -3    1    3    3    0  502 -0.83212113624E+03 -0.37378054402E+03  0.57653961391E+03  0.10791364219E+04  0.10100000352E+00 0.  1.
</event>
<event>
 5   0  0.5614989E-05  0.1897812E+04  0.7818609E-02  0.8655946E-01
       -1   -1    0    0    0  501  0.00000000000E+00  0.00000000000E+00  0.12942817339E+04  0.12942817339E+04  0.50400001928E-02 0. -1.
        1   -1    0    0  501    0  0.00000000000E+00  0.00000000000E+00 -0.69569310112E+03  0.69569310114E+03  0.50400001928E-02 0.  1.
    10030    2    1    2    0    0  0.00000000000E+00  0.00000000000E+00  0.59858863280E+03  0.19899748351E+04  0.18978122913E+04 0.  0.
        4    1    3    3  502    0  0.70127058764E+02  0.61008640921E+03  0.10578175346E+04  0.12231528034E+04  0.12699999809E+01 0. -1.
       -4    1    3    3    0  502 -0.70127058764E+02 -0.61008640921E+03 -0.45922890181E+03  0.76682203166E+03  0.12699999809E+01 0.  1.
</event>
<event>
 5   0  0.1101678E-04  0.1850718E+04  0.7818609E-02  0.8679784E-01
       -2   -1    0    0    0  501  0.00000000000E+00  0.00000000000E+00  0.17139642748E+04  0.17139642748E+04  0.25500000920E-02 0.  1.
        2   -1    0    0  501    0  0.00000000000E+00  0.00000000000E+00 -0.49959568979E+03  0.49959568979E+03  0.25500000920E-02 0. -1.
    10030    2    1    2    0    0  0.00000000000E+00  0.00000000000E+00  0.12143685850E+04  0.22135599646E+04  0.18507178760E+04 0.  0.
        4    1    3    3  502    0  0.73311127711E+03  0.44179575189E+03  0.10277670887E+04  0.13375135261E+04  0.12699999809E+01 0.  1.
       -4    1    3    3    0  502 -0.73311127711E+03 -0.44179575189E+03  0.18660149628E+03  0.87604643846E+03  0.12699999809E+01 0. -1.
</event>
<event>
 5   0  0.1118206E-04  0.1873712E+04  0.7818609E-02  0.8668053E-01
        2   -1    0    0  501    0  0.00000000000E+00  0.00000000000E+00  0.13103825024E+04  0.13103825024E+04  0.25500000920E-02 0.  1.
       -2   -1    0    0    0  501  0.00000000000E+00  0.00000000000E+00 -0.66980408205E+03  0.66980408206E+03  0.25500000920E-02 0. -1.
    10030    2    1    2    0    0  0.00000000000E+00  0.00000000000E+00  0.64057842030E+03  0.19801865844E+04  0.18737124103E+04 0.  0.
        1    1    3    3  502    0  0.35792997751E+03  0.60115421755E+03  0.97875095318E+03  0.12031016958E+04  0.50400001928E-02 0.  1.
       -1    1    3    3    0  502 -0.35792997751E+03 -0.60115421755E+03 -0.33817253287E+03  0.77708488861E+03  0.50400001928E-02 0. -1.
</event>
<event>
 5   0  0.1182630E-04  0.1894035E+04  0.7818609E-02  0.8657831E-01
       -2   -1    0    0    0  501  0.00000000000E+00  0.00000000000E+00  0.12210808124E+04  0.12210808124E+04  0.25500000920E-02 0. -1.
        2   -1    0    0  501    0  0.00000000000E+00  0.00000000000E+00 -0.73446621322E+03  0.73446621322E+03  0.25500000920E-02 0.  1.
    10030    2    1    2    0    0  0.00000000000E+00  0.00000000000E+00  0.48661459920E+03  0.19555470256E+04  0.18940354805E+04 0.  0.
        5    1    3    3  502    0 -0.93745155004E+02 -0.88695683996E+03 -0.85370547023E+02  0.89598594315E+03  0.46999998093E+01 0. -1.
       -5    1    3    3    0  502  0.93745155004E+02  0.88695683996E+03  0.57198514622E+03  0.10595610825E+04  0.46999998093E+01 0.  1.
</event>
<event>
 5   0  0.1182630E-04  0.1900511E+04  0.7818609E-02  0.8654602E-01
       -2   -1    0    0    0  501  0.00000000000E+00  0.00000000000E+00  0.62750103548E+03  0.62750103548E+03  0.25500000920E-02 0.  1.
        2   -1    0    0  501    0  0.00000000000E+00  0.00000000000E+00 -0.14390186207E+04  0.14390186207E+04  0.25500000920E-02 0. -1.
    10030    2    1    2    0    0  0.00000000000E+00  0.00000000000E+00 -0.81151758525E+03  0.20665196562E+04  0.19005111677E+04 0.  0.
        5    1    3    3  502    0  0.12836748517E+03 -0.11709221667E+03  0.61006927950E+03  0.63434644655E+03  0.46999998093E+01 0.  1.
       -5    1    3    3    0  502 -0.12836748517E+03  0.11709221667E+03 -0.14215868648E+04  0.14321732097E+04  0.46999998093E+01 0. -1.
</event>
<event>
 5   0  0.1182630E-04  0.1906948E+04  0.7818609E-02  0.8651406E-01
        2   -1    0    0  501    0  0.00000000000E+00  0.00000000000E+00  0.10599664573E+04  0.10599664573E+04  0.25500000920E-02 0.  1.
       -2   -1    0    0    0  501  0.00000000000E+00  0.00000000000E+00 -0.85768023495E+03  0.85768023495E+03  0.25500000920E-02 0. -1.
    10030    2    1    2    0    0  0.00000000000E+00  0.00000000000E+00  0.20228622238E+03  0.19176466923E+04  0.19069475925E+04 0.  0.
        5    1    3    3  502    0  0.47669503510E+03 -0.73127388485E+02  0.92825670140E+03  0.10460728297E+04  0.46999998093E+01 0.  1.
       -5    1    3    3    0  502 -0.47669503510E+03  0.73127388485E+02 -0.72597047902E+03  0.87157386253E+03  0.46999998093E+01 0. -1.
</event>
<event>
 5   0  0.5628936E-05  0.1904723E+04  0.7818609E-02  0.8652509E-01
        1   -1    0    0  501    0  0.00000000000E+00  0.00000000000E+00  0.11061725911E+04  0.11061725911E+04  0.50400001928E-02 0. -1.
       -1   -1    0    0    0  501  0.00000000000E+00  0.00000000000E+00 -0.81993794960E+03  0.81993794962E+03  0.50400001928E-02 0.  1.
    10030    2    1    2    0    0  0.00000000000E+00  0.00000000000E+00  0.28623464149E+03  0.19261105407E+04  0.19047234826E+04 0.  0.
        5    1    3    3  502    0 -0.24215640163E+03  0.45941289153E+02  0.10733488075E+04  0.11012947278E+04  0.46999998093E+01 0. -1.
       -5    1    3    3    0  502  0.24215640163E+03 -0.45941289153E+02 -0.78711416602E+03  0.82481581292E+03  0.46999998093E+01 0.  1.
</event>
<event>
 5   0  0.1118206E-04  0.1938167E+04  0.7818609E-02  0.8636088E-01
        2   -1    0    0  501    0  0.00000000000E+00  0.00000000000E+00  0.10904204856E+04  0.10904204856E+04  0.25500000920E-02 0.  1.
       -2   -1    0    0    0  501  0.00000000000E+00  0.00000000000E+00 -0.86124850096E+03  0.86124850097E+03  0.25500000920E-02 0. -1.
    10030    2    1    2    0    0  0.00000000000E+00  0.00000000000E+00  0.22917198460E+03  0.19516689865E+04  0.19381671843E+04 0.  0.
        1    1    3    3  502    0  0.98829258712E+02 -0.65693028633E+03 -0.59587733673E+03  0.89240933653E+03  0.50400001928E-02 0. -1.
       -1    1    3    3    0  502 -0.98829258712E+02  0.65693028633E+03  0.82504932133E+03  0.10592596500E+04  0.50400001928E-02 0.  1.
</event>
<event>
 5   0  0.5824956E-05  0.1892674E+04  0.7818609E-02  0.8658512E-01
        1   -1    0    0  501    0  0.00000000000E+00  0.00000000000E+00  0.13539087009E+04  0.13539087009E+04  0.50400001928E-02 0.  1.
       -1   -1    0    0    0  501  0.00000000000E+00  0.00000000000E+00 -0.66145810772E+03  0.66145810774E+03  0.50400001928E-02 0. -1.
    10030    2    1    2    0    0  0.00000000000E+00  0.00000000000E+00  0.69245059318E+03  0.20153668086E+04  0.18926741794E+04 0.  0.
        2    1    3    3  502    0  0.51897616879E+03 -0.70991097634E+03 -0.26073877276E+02  0.87976684706E+03  0.25500000920E-02 0. -1.
       -2    1    3    3    0  502 -0.51897616879E+03  0.70991097634E+03  0.71852447046E+03  0.11355999616E+04  0.25500000920E-02 0.  1.
</event>
<event>
 5   0  0.5614989E-05  0.1922323E+04  0.7818609E-02  0.8643824E-01
       -1   -1    0    0    0  501  0.00000000000E+00  0.00000000000E+00  0.11703800809E+04  0.11703800809E+04  0.50400001928E-02 0. -1.
        1   -1    0    0  501    0  0.00000000000E+00  0.00000000000E+00 -0.78934279432E+03  0.78934279434E+03  0.50400001928E-02 0.  1.
    10030    2    1    2    0    0  0.00000000000E+00  0.00000000000E+00  0.38103728656E+03  0.19597228752E+04  0.19223226404E+04 0.  0.
        4    1    3    3  502    0 -0.63008465360E+03 -0.49078055158E+03  0.73567230948E+03  0.10858579927E+04  0.12699999809E+01 0. -1.
       -4    1    3    3    0  502  0.63008465360E+03  0.49078055158E+03 -0.35463502292E+03  0.87386488251E+03  0.12699999809E+01 0.  1.
</event>
<event>
 5   0  0.5579109E-05  0.1915775E+04  0.7818609E-02  0.8647044E-01
        1   -1    0    0  501    0  0.00000000000E+00  0.00000000000E+00  0.30223505870E+04  0.30223505870E+04  0.50400001928E-02 0. -1.
       -1   -1    0    0    0  501  0.00000000000E+00  0.00000000000E+00 -0.30358776604E+03  0.30358776608E+03  0.50400001928E-02 0.  1.
    10030    2    1    2    0    0  0.00000000000E+00  0.00000000000E+00  0.27187628209E+04  0.33259383530E+04  0.19157752091E+04 0.  0.
        3    1    3    3  502    0  0.56494383449E+03  0.20626057888E+03  0.26537142979E+04  0.27210116773E+04  0.10100000352E+00 0. -1.
       -3    1    3    3    0  502 -0.56494383449E+03 -0.20626057888E+03  0.65048522988E+02  0.60492667578E+03  0.10100000352E+00 0.  1.
</event>
<event>
 5   0  0.1118206E-04  0.1895579E+04  0.7818609E-02  0.8657060E-01
        2   -1    0    0  501    0  0.00000000000E+00  0.00000000000E+00  0.24533217045E+04  0.24533217045E+04  0.25500000920E-02 0. -1.
       -2   -1    0    0    0  501  0.00000000000E+00  0.00000000000E+00 -0.36615858762E+03  0.36615858763E+03  0.25500000920E-02 0.  1.
    10030    2    1    2    0    0  0.00000000000E+00  0.00000000000E+00  0.20871631169E+04  0.28194802922E+04  0.18955788671E+04 0.  0.
        1    1    3    3  502    0  0.81849460230E+03 -0.32950722411E+03  0.15583940337E+04  0.17908379014E+04  0.50400001928E-02 0. -1.
       -1    1    3    3    0  502 -0.81849460230E+03  0.32950722411E+03  0.52876908322E+03  0.10286423908E+04  0.50400001928E-02 0.  1.
</event>
<event>
 5   0  0.5614989E-05  0.1904002E+04  0.7818609E-02  0.8652867E-01
       -1   -1    0    0    0  501  0.00000000000E+00  0.00000000000E+00  0.96999875156E+03  0.96999875157E+03  0.50400001928E-02 0. -1.
        1   -1    0    0  501    0  0.00000000000E+00  0.00000000000E+00 -0.93433742515E+03  0.93433742517E+03  0.50400001928E-02 0.  1.
    10030    2    1    2    0    0  0.00000000000E+00  0.00000000000E+00  0.35661326404E+02  0.19043361767E+04  0.19040022437E+04 0.  0.
        4    1    3    3  502    0  0.28768259685E+03 -0.80579041795E+03 -0.39966924589E+03  0.94434982565E+03  0.12699999809E+01 0.  1.
       -4    1    3    3    0  502 -0.28768259685E+03  0.80579041795E+03  0.43533057230E+03  0.95998635109E+03  0.12699999809E+01 0. -1.
</event>
<event>
 5   0  0.5614989E-05  0.1921846E+04  0.7818609E-02  0.8644058E-01
        1   -1    0    0  501    0  0.00000000000E+00  0.00000000000E+00  0.95380445671E+03  0.95380445672E+03  0.50400001928E-02 0. -1.
       -1   -1    0    0    0  501  0.00000000000E+00  0.00000000000E+00 -0.96809454038E+03  0.96809454040E+03  0.50400001928E-02 0.  1.
    10030    2    1    2    0    0  0.00000000000E+00  0.00000000000E+00 -0.14290083677E+02  0.19218989971E+04  0.19218458702E+04 0.  0.
        4    1    3    3  502    0  0.27238273772E+02  0.35062130526E+03  0.88713582268E+03  0.95430016454E+03  0.12699999809E+01 0. -1.
       -4    1    3    3    0  502 -0.27238273772E+02 -0.35062130526E+03 -0.90142590636E+03  0.96759883258E+03  0.12699999809E+01 0.  1.
</event>
<event>
 5   0  0.5628936E-05  0.1892740E+04  0.7818609E-02  0.8658478E-01
       -1   -1    0    0    0  501  0.00000000000E+00  0.00000000000E+00  0.60468212815E+03  0.60468212817E+03  0.50400001928E-02 0. -1.
        1   -1    0    0  501    0  0.00000000000E+00  0.00000000000E+00 -0.14811358836E+04  0.14811358836E+04  0.50400001928E-02 0.  1.
    10030    2    1    2    0    0  0.00000000000E+00  0.00000000000E+00 -0.87645375546E+03  0.20858180118E+04  0.18927402339E+04 0.  0.
        5    1    3    3  502    0  0.53252138060E+03 -0.44468692754E+02  0.42249686037E+03  0.68123576863E+03  0.46999998093E+01 0. -1.
       -5    1    3    3    0  502 -0.53252138060E+03  0.44468692754E+02 -0.12989506158E+04  0.14045822432E+04  0.46999998093E+01 0.  1.
</event>
<event>
 5   0  0.1141890E-04  0.1922849E+04  0.7818609E-02  0.8643566E-01
       -2   -1    0    0    0  501  0.00000000000E+00  0.00000000000E+00  0.10628757470E+04  0.10628757470E+04  0.25500000920E-02 0.  1.
        2   -1    0    0  501    0  0.00000000000E+00  0.00000000000E+00 -0.86965719764E+03  0.86965719764E+03  0.25500000920E-02 0. -1.
    10030    2    1    2    0    0  0.00000000000E+00  0.00000000000E+00  0.19321854935E+03  0.19325329446E+04  0.19228494934E+04 0.  0.
        2    1    3    3  502    0 -0.18779714628E+03 -0.61148343506E+03  0.81796876079E+03  0.10383894516E+04  0.25500000920E-02 0.  1.
       -2    1    3    3    0  502  0.18779714628E+03  0.61148343506E+03 -0.62475021144E+03  0.89414349307E+03  0.25500000920E-02 0. -1.
</event>
<event>
 5   0  0.1101678E-04  0.1906751E+04  0.7818609E-02  0.8651503E-01
        2   -1    0    0  501    0  0.00000000000E+00  0.00000000000E+00  0.23109918402E+04  0.23109918402E+04  0.25500000920E-02 0. -1.
       -2   -1    0    0    0  501  0.00000000000E+00  0.00000000000E+00 -0.39330500804E+03  0.39330500805E+03  0.25500000920E-02 0.  1.
    10030    2    1    2    0    0  0.00000000000E+00  0.00000000000E+00  0.19176868321E+04  0.27042968482E+04  0.19067508115E+04 0.  0.
        4    1    3    3  502    0 -0.86414992289E+03 -0.40263400665E+03  0.94843876365E+03  0.13447702160E+04  0.12699999809E+01 0. -1.
       -4    1    3    3    0  502  0.86414992289E+03  0.40263400665E+03  0.96924806847E+03  0.13595266322E+04  0.12699999809E+01 0.  1.
</event>
<event>
 5   0  0.1182630E-04  0.1891250E+04  0.7818609E-02  0.8659224E-01
       -2   -1    0    0    0  501  0.00000000000E+00  0.00000000000E+00  0.82698143169E+03  0.82698143169E+03  0.25500000920E-02 0.  1.
        2   -1    0    0  501    0  0.00000000000E+00  0.00000000000E+00 -0.10812901563E+04  0.10812901564E+04  0.25500000920E-02 0. -1.
    10030    2    1    2    0    0  0.00000000000E+00  0.00000000000E+00 -0.25430872466E+03  0.19082715880E+04  0.18912502548E+04 0.  0.
        5    1    3    3  502    0  0.36966011319E+03 -0.80175376007E+03 -0.46891669366E+03  0.99968127254E+03  0.46999998093E+01 0. -1.
       -5    1    3    3    0  502 -0.36966011319E+03  0.80175376007E+03  0.21460796900E+03  0.90859031551E+03  0.46999998093E+01 0.  1.
</event>
<event>
 5   0  0.1133638E-04  0.1890463E+04  0.7818609E-02  0.8659618E-01
        2   -1    0    0  501    0  0.00000000000E+00  0.00000000000E+00  0.10456713440E+04  0.10456713440E+04  0.25500000920E-02 0. -1.
       -2   -1    0    0    0  501  0.00000000000E+00  0.00000000000E+00 -0.85443881430E+03  0.85443881430E+03  0.25500000920E-02 0.  1.
    10030    2    1    2    0    0  0.00000000000E+00  0.00000000000E+00  0.19123252973E+03  0.19001101583E+04  0.18904625713E+04 0.  0.
        3    1    3    3  502    0 -0.44276444994E+03 -0.72695168872E+03  0.50876514135E+03  0.99163556568E+03  0.10100000352E+00 0. -1.
       -3    1    3    3    0  502  0.44276444994E+03  0.72695168872E+03 -0.31753261162E+03  0.90847459266E+03  0.10100000352E+00 0.  1.
</event>
<event>
 5   0  0.1182630E-04  0.1890719E+04  0.7818609E-02  0.8659490E-01
        2   -1    0    0  501    0  0.00000000000E+00  0.00000000000E+00  0.18712341343E+04  0.18712341343E+04  0.25500000920E-02 0. -1.
       -2   -1    0    0    0  501  0.00000000000E+00  0.00000000000E+00 -0.47760173776E+03  0.47760173777E+03  0.25500000920E-02 0.  1.
    10030    2    1    2    0    0  0.00000000000E+00  0.00000000000E+00  0.13936323965E+04  0.23488358721E+04  0.18907190953E+04 0.  0.
        5    1    3    3  502    0  0.70662178452E+03  0.62500087711E+03  0.62082106740E+03  0.11293278224E+04  0.46999998093E+01 0. -1.
       -5    1    3    3    0  502 -0.70662178452E+03 -0.62500087711E+03  0.77281132914E+03  0.12195080497E+04  0.46999998093E+01 0.  1.
</event>
<event>
 5   0  0.1141890E-04  0.1805858E+04  0.7818609E-02  0.8703190E-01
       -2   -1    0    0    0  501  0.00000000000E+00  0.00000000000E+00  0.10785799095E+04  0.10785799095E+04  0.25500000920E-02 0.  1.
        2   -1    0    0  501    0  0.00000000000E+00  0.00000000000E+00 -0.75588362987E+03  0.75588362988E+03  0.25500000920E-02 0. -1.
    10030    2    1    2    0    0  0.00000000000E+00  0.00000000000E+00  0.32269627963E+03  0.18344635394E+04  0.18058581308E+04 0.  0.
        2    1    3    3  502    0 -0.52501687135E+03  0.50145213384E+03 -0.38398305606E+03  0.82130380803E+03  0.25500000920E-02 0. -1.
       -2    1    3    3    0  502  0.52501687135E+03 -0.50145213384E+03  0.70667933569E+03  0.10131597313E+04  0.25500000920E-02 0.  1.
</event>
<event>
 5   0  0.5841424E-05  0.1700813E+04  0.7818609E-02  0.8760901E-01
       -1   -1    0    0    0  501  0.00000000000E+00  0.00000000000E+00  0.66733869500E+03  0.66733869502E+03  0.50400001928E-02 0. -1.
        1   -1    0    0  501    0  0.00000000000E+00  0.00000000000E+00 -0.10836945401E+04  0.10836945402E+04  0.50400001928E-02 0.  1.
    10030    2    1    2    0    0  0.00000000000E+00  0.00000000000E+00 -0.41635584514E+03  0.17510332352E+04  0.17008130999E+04 0.  0.
        1    1    3    3  502    0  0.81149491114E+03  0.20772335709E+03 -0.35920052181E+03  0.91142635401E+03  0.50400001928E-02 0.  1.
       -1    1    3    3    0  502 -0.81149491114E+03 -0.20772335709E+03 -0.57155323327E+02  0.83960688116E+03  0.50400001928E-02 0. -1.
</event>
<event>
 5   0  0.5614989E-05  0.1928469E+04  0.7818609E-02  0.8640814E-01
       -1   -1    0    0    0  501  0.00000000000E+00  0.00000000000E+00  0.65183400309E+03  0.65183400311E+03  0.50400001928E-02 0. -1.
        1   -1    0    0  501    0  0.00000000000E+00  0.00000000000E+00 -0.14263573122E+04  0.14263573122E+04  0.50400001928E-02 0.  1.
    10030    2    1    2    0    0  0.00000000000E+00  0.00000000000E+00 -0.77452330908E+03  0.20781913153E+04  0.19284690266E+04 0.  0.
        4    1    3    3  502    0  0.23851638960E+03  0.93417936523E+03 -0.40112215661E+03  0.10442613427E+04  0.12699999809E+01 0. -1.
       -4    1    3    3    0  502 -0.23851638960E+03 -0.93417936523E+03 -0.37340115246E+03  0.10339299725E+04  0.12699999809E+01 0.  1.
</event>
<event>
 5   0  0.1101678E-04  0.1926883E+04  0.7818609E-02  0.8641589E-01
        2   -1    0    0  501    0  0.00000000000E+00  0.00000000000E+00  0.13858222242E+04  0.13858222242E+04  0.25500000920E-02 0. -1.
       -2   -1    0    0    0  501  0.00000000000E+00  0.00000000000E+00 -0.66979725340E+03  0.66979725340E+03  0.25500000920E-02 0.  1.
    10030    2    1    2    0    0  0.00000000000E+00  0.00000000000E+00  0.71602497080E+03  0.20556194776E+04  0.19268834106E+04 0.  0.
        4    1    3    3  502    0  0.29723867503E+03 -0.23140341801E+03  0.13040033216E+04  0.13573226026E+04  0.12699999809E+01 0. -1.
       -4    1    3    3    0  502 -0.29723867503E+03  0.23140341801E+03 -0.58797835079E+03  0.69829687505E+03  0.12699999809E+01 0.  1.
</event>
<event>
 5   0  0.1101678E-04  0.1897213E+04  0.7818609E-02  0.8656245E-01
       -2   -1    0    0    0  501  0.00000000000E+00  0.00000000000E+00  0.62996373286E+03  0.62996373286E+03  0.25500000920E-02 0.  1.
        2   -1    0    0  501    0  0.00000000000E+00  0.00000000000E+00 -0.14284220790E+04  0.14284220790E+04  0.25500000920E-02 0. -1.
    10030    2    1    2    0    0  0.00000000000E+00  0.00000000000E+00 -0.79845834615E+03  0.20583858119E+04  0.18972128030E+04 0.  0.
        4    1    3    3  502    0  0.77402210016E+03 -0.47374901062E+02  0.19353421611E+03  0.79925696649E+03  0.12699999809E+01 0.  1.
       -4    1    3    3    0  502 -0.77402210016E+03  0.47374901062E+02 -0.99199256226E+03  0.12591288454E+04  0.12699999809E+01 0. -1.
</event>
<event>
 5   0  0.5824956E-05  0.1909406E+04  0.7818609E-02  0.8650188E-01
       -1   -1    0    0    0  501  0.00000000000E+00  0.00000000000E+00  0.88268457488E+03  0.88268457489E+03  0.50400001928E-02 0. -1.
        1   -1    0    0  501    0  0.00000000000E+00  0.00000000000E+00 -0.10325976586E+04  0.10325976586E+04  0.50400001928E-02 0.  1.
    10030    2    1    2    0    0  0.00000000000E+00  0.00000000000E+00 -0.14991308373E+03  0.19152822335E+04  0.19094062170E+04 0.  0.
        2    1    3    3  502    0  0.17976591400E+03 -0.41455940582E+03  0.76863259387E+03  0.89161165827E+03  0.25500000920E-02 0. -1.
       -2    1    3    3    0  502 -0.17976591400E+03  0.41455940582E+03 -0.91854567760E+03  0.10236705753E+04  0.25500000920E-02 0.  1.
</event>
<event>
 5   0  0.5824956E-05  0.1901294E+04  0.7818609E-02  0.8654213E-01
        1   -1    0    0  501    0  0.00000000000E+00  0.00000000000E+00  0.13011796000E+04  0.13011796000E+04  0.50400001928E-02 0.  1.
       -1   -1    0    0    0  501  0.00000000000E+00  0.00000000000E+00 -0.69454619613E+03  0.69454619615E+03  0.50400001928E-02 0. -1.
    10030    2    1    2    0    0  0.00000000000E+00  0.00000000000E+00  0.60663340383E+03  0.19957257961E+04  0.19012936035E+04 0.  0.
        2    1    3    3  502    0 -0.42265158983E+03  0.95066947704E+02  0.11915469469E+04  0.12678549671E+04  0.25500000920E-02 0.  1.
       -2    1    3    3    0  502  0.42265158983E+03 -0.95066947704E+02 -0.58491354304E+03  0.72787082904E+03  0.25500000920E-02 0. -1.
</event>
<event>
 5   0  0.1141890E-04  0.1884258E+04  0.7818609E-02  0.8662732E-01
        2   -1    0    0  501    0  0.00000000000E+00  0.00000000000E+00  0.70949251926E+03  0.70949251927E+03  0.25500000920E-02 0.  1.
       -2   -1    0    0    0  501  0.00000000000E+00  0.00000000000E+00 -0.12510446119E+04  0.12510446119E+04  0.25500000920E-02 0. -1.
    10030    2    1    2    0    0  0.00000000000E+00  0.00000000000E+00 -0.54155209265E+03  0.19605371312E+04  0.18842577249E+04 0.  0.
        2    1    3    3  502    0  0.70204414369E+03 -0.45245851249E+03  0.18278613319E+03  0.85498272246E+03  0.25500000920E-02 0.  1.
       -2    1    3    3    0  502 -0.70204414369E+03  0.45245851249E+03 -0.72433822584E+03  0.11055544087E+04  0.25500000920E-02 0. -1.
</event>
<event>
 5   0  0.1133638E-04  0.2054423E+04  0.7818609E-02  0.8581591E-01
        2   -1    0    0  501    0  0.00000000000E+00  0.00000000000E+00  0.96020650885E+03  0.96020650885E+03  0.25500000920E-02 0. -1.
       -2   -1    0    0    0  501  0.00000000000E+00  0.00000000000E+00 -0.10988920761E+04  0.10988920762E+04  0.25500000920E-02 0.  1.
    10030    2    1    2    0    0  0.00000000000E+00  0.00000000000E+00 -0.13868556730E+03  0.20590985850E+04  0.20544228621E+04 0.  0.
        3    1    3    3  502    0 -0.93791821162E+03  0.48155732804E+02 -0.48640733050E+03  0.10576396587E+04  0.10100000352E+00 0.  1.
       -3    1    3    3    0  502  0.93791821162E+03 -0.48155732804E+02  0.34772176320E+03  0.10014589263E+04  0.10100000352E+00 0. -1.
</event>
<event>
 5   0  0.1141890E-04  0.1908435E+04  0.7818609E-02  0.8650669E-01
        2   -1    0    0  501    0  0.00000000000E+00  0.00000000000E+00  0.13454773558E+04  0.13454773558E+04  0.25500000920E-02 0. -1.
       -2   -1    0    0    0  501  0.00000000000E+00  0.00000000000E+00 -0.67673471346E+03  0.67673471346E+03  0.25500000920E-02 0.  1.
    10030    2    1    2    0    0  0.00000000000E+00  0.00000000000E+00  0.66874264238E+03  0.20222120693E+04  0.19084352050E+04 0.  0.
        2    1    3    3  502    0 -0.19698057343E+03 -0.62155216143E+03 -0.40387351184E+03  0.76696952303E+03  0.25500000920E-02 0.  1.
       -2    1    3    3    0  502  0.19698057343E+03  0.62155216143E+03  0.10726161542E+04  0.12552425463E+04  0.25500000920E-02 0. -1.
</event>
<event>
 5   0  0.1118206E-04  0.1899245E+04  0.7818609E-02  0.8655232E-01
        2   -1    0    0  501    0  0.00000000000E+00  0.00000000000E+00  0.26724441289E+04  0.26724441289E+04  0.25500000920E-02 0.  1.
       -2   -1    0    0    0  501  0.00000000000E+00  0.00000000000E+00 -0.33743746195E+03  0.33743746196E+03  0.25500000920E-02 0. -1.
    10030    2    1    2    0    0  0.00000000000E+00  0.00000000000E+00  0.23350066669E+04  0.30098815909E+04  0.18992448648E+04 0.  0.
        1    1    3    3  502    0 -0.51151898967E+03  0.36380023531E+03  0.22967958471E+04  0.23810236142E+04  0.50400001928E-02 0.  1.
       -1    1    3    3    0  502  0.51151898967E+03 -0.36380023531E+03  0.38210819797E+02  0.62885797664E+03  0.50400001928E-02 0. -1.
</event>
<event>
 5   0  0.5628936E-05  0.1921038E+04  0.7818609E-02  0.8644455E-01
       -1   -1    0    0    0  501  0.00000000000E+00  0.00000000000E+00  0.71084774222E+03  0.71084774224E+03  0.50400001928E-02 0. -1.
        1   -1    0    0  501    0  0.00000000000E+00  0.00000000000E+00 -0.12978817783E+04  0.12978817783E+04  0.50400001928E-02 0.  1.
    10030    2    1    2    0    0  0.00000000000E+00  0.00000000000E+00 -0.58703403608E+03  0.20087295205E+04  0.19210375653E+04 0.  0.
        5    1    3    3  502    0 -0.79152457489E+03 -0.51117785136E+03 -0.48846885044E+03  0.10613377673E+04  0.46999998093E+01 0.  1.
       -5    1    3    3    0  502  0.79152457489E+03  0.51117785136E+03 -0.98565185640E+02  0.94739175328E+03  0.46999998093E+01 0. -1.
</event>
<event>
 5   0  0.1182630E-04  0.1875882E+04  0.7818609E-02  0.8666956E-01
       -2   -1    0    0    0  501  0.00000000000E+00  0.00000000000E+00  0.95176548840E+03  0.95176548840E+03  0.25500000920E-02 0.  1.
        2   -1    0    0  501    0  0.00000000000E+00  0.00000000000E+00 -0.92431697570E+03  0.92431697571E+03  0.25500000920E-02 0. -1.
    10030    2    1    2    0    0  0.00000000000E+00  0.00000000000E+00  0.27448512697E+02  0.18760824641E+04  0.18758816571E+04 0.  0.
        5    1    3    3  502    0  0.69176334636E+03  0.63107994022E+03 -0.40249006254E+02  0.93725156219E+03  0.46999998093E+01 0. -1.
       -5    1    3    3    0  502 -0.69176334636E+03 -0.63107994022E+03  0.67697518951E+02  0.93883090192E+03  0.46999998093E+01 0.  1.
</event>
<event>
 5   0  0.1101678E-04  0.1893927E+04  0.7818609E-02  0.8657885E-01
       -2   -1    0    0    0  501  0.00000000000E+00  0.00000000000E+00  0.11265307749E+04  0.11265307749E+04  0.25500000920E-02 0.  1.
        2   -1    0    0  501    0  0.00000000000E+00  0.00000000000E+00 -0.79601926112E+03  0.79601926112E+03  0.25500000920E-02 0. -1.
    10030    2    1    2    0    0  0.00000000000E+00  0.00000000000E+00  0.33051151380E+03  0.19225500360E+04  0.18939273429E+04 0.  0.
        4    1    3    3  502    0 -0.43190027735E+03 -0.58036622932E+03 -0.45502370934E+03  0.85464085947E+03  0.12699999809E+01 0. -1.
       -4    1    3    3    0  502  0.43190027735E+03  0.58036622932E+03  0.78553522314E+03  0.10679091766E+04  0.12699999809E+01 0.  1.
</event>
<event>
 5   0  0.1141890E-04  0.1894102E+04  0.7818609E-02  0.8657798E-01
        2   -1    0    0  501    0  0.00000000000E+00  0.00000000000E+00  0.10005842439E+04  0.10005842439E+04  0.25500000920E-02 0.  1.
       -2   -1    0    0    0  501  0.00000000000E+00  0.00000000000E+00 -0.89638208308E+03  0.89638208308E+03  0.25500000920E-02 0. -1.
    10030    2    1    2    0    0  0.00000000000E+00  0.00000000000E+00  0.10420216078E+03  0.18969663269E+04  0.18941022030E+04 0.  0.
        2    1    3    3  502    0 -0.53957793264E+03 -0.54671409824E+03  0.60689282353E+03  0.97895840048E+03  0.25500000920E-02 0.  1.
       -2    1    3    3    0  502  0.53957793264E+03  0.54671409824E+03 -0.50269066276E+03  0.91800792646E+03  0.25500000920E-02 0. -1.
</event>
<event>
 5   0  0.5628936E-05  0.1910850E+04  0.7818609E-02  0.8649474E-01
        1   -1    0    0  501    0  0.00000000000E+00  0.00000000000E+00  0.18328411434E+04  0.18328411434E+04  0.50400001928E-02 0.  1.
       -1   -1    0    0    0  501  0.00000000000E+00  0.00000000000E+00 -0.49804469837E+03  0.49804469840E+03  0.50400001928E-02 0. -1.
    10030    2    1    2    0    0  0.00000000000E+00  0.00000000000E+00  0.13347964450E+04  0.23308858418E+04  0.19108498784E+04 0.  0.
        5    1    3    3  502    0  0.51029880934E+03 -0.55607954456E+03  0.13819913418E+04  0.15746591674E+04  0.46999998093E+01 0.  1.
       -5    1    3    3    0  502 -0.51029880934E+03  0.55607954456E+03 -0.47194896831E+02  0.75622667434E+03  0.46999998093E+01 0. -1.
</event>
<event>
 5   0  0.5628936E-05  0.1914927E+04  0.7818609E-02  0.8647462E-01
        1   -1    0    0  501    0  0.00000000000E+00  0.00000000000E+00  0.79314378034E+03  0.79314378036E+03  0.50400001928E-02 0.  1.
       -1   -1    0    0    0  501  0.00000000000E+00  0.00000000000E+00 -0.11558266732E+04  0.11558266732E+04  0.50400001928E-02 0. -1.
    10030    2    1    2    0    0  0.00000000000E+00  0.00000000000E+00 -0.36268289287E+03  0.19489704536E+04  0.19149274002E+04 0.  0.
        5    1    3    3  502    0 -0.65935328791E+03 -0.47288161525E+03  0.33597692688E+03  0.87821772113E+03  0.46999998093E+01 0.  1.
       -5    1    3    3    0  502  0.65935328791E+03  0.47288161525E+03 -0.69865981974E+03  0.10707527324E+04  0.46999998093E+01 0. -1.
</event>
<event>
 5   0  0.1118206E-04  0.1908091E+04  0.7818609E-02  0.8650840E-01
       -2   -1    0    0    0  501  0.00000000000E+00  0.00000000000E+00  0.82346637905E+03  0.82346637905E+03  0.25500000920E-02 0. -1.
        2   -1    0    0  501    0  0.00000000000E+00  0.00000000000E+00 -0.11053306206E+04  0.11053306206E+04  0.25500000920E-02 0.  1.
    10030    2    1    2    0    0  0.00000000000E+00  0.00000000000E+00 -0.28186424155E+03  0.19287969997E+04  0.19080907775E+04 0.  0.
        1    1    3    3  502    0  0.42556052942E+03 -0.44451004049E+03  0.59602783279E+03  0.85670305111E+03  0.50400001928E-02 0. -1.
       -1    1    3    3    0  502 -0.42556052942E+03  0.44451004049E+03 -0.87789207434E+03  0.10720939485E+04  0.50400001928E-02 0.  1.
</event>
<event>
 5   0  0.1182630E-04  0.1902879E+04  0.7818609E-02  0.8653425E-01
        2   -1    0    0  501    0  0.00000000000E+00  0.00000000000E+00  0.11653500178E+04  0.11653500178E+04  0.25500000920E-02 0. -1.
       -2   -1    0    0    0  501  0.00000000000E+00  0.00000000000E+00 -0.77679419988E+03  0.77679419988E+03  0.25500000920E-02 0.  1.
    10030    2    1    2    0    0  0.00000000000E+00  0.00000000000E+00  0.38855581792E+03  0.19421442177E+04  0.19028790131E+04 0.  0.
        5    1    3    3  502    0 -0.52658878979E+03 -0.28629916595E+03 -0.55985442486E+03  0.82019633807E+03  0.46999998093E+01 0.  1.
       -5    1    3    3    0  502  0.52658878979E+03  0.28629916595E+03  0.94841024278E+03  0.11219478796E+04  0.46999998093E+01 0. -1.
</event>
<event>
 5   0  0.1182630E-04  0.1901123E+04  0.7818609E-02  0.8654297E-01
        2   -1    0    0  501    0  0.00000000000E+00  0.00000000000E+00  0.24243936039E+04  0.24243936039E+04  0.25500000920E-02 0.  1.
       -2   -1    0    0    0  501  0.00000000000E+00  0.00000000000E+00 -0.37269835721E+03  0.37269835722E+03  0.25500000920E-02 0. -1.
    10030    2    1    2    0    0  0.00000000000E+00  0.00000000000E+00  0.20516952467E+04  0.27970919612E+04  0.19011233663E+04 0.  0.
        5    1    3    3  502    0  0.73731596497E+02 -0.31070174435E+03 -0.29140211569E+03  0.43232997270E+03  0.46999998093E+01 0. -1.
       -5    1    3    3    0  502 -0.73731596497E+02  0.31070174435E+03  0.23430973624E+04  0.23647619885E+04  0.46999998093E+01 0.  1.
</event>
<event>
 5   0  0.5614989E-05  0.1901211E+04  0.7818609E-02  0.8654254E-01
        1   -1    0    0  501    0  0.00000000000E+00  0.00000000000E+00  0.11645015829E+04  0.11645015829E+04  0.50400001928E-02 0.  1.
       -1   -1    0    0    0  501  0.00000000000E+00  0.00000000000E+00 -0.77599777316E+03  0.77599777318E+03  0.50400001928E-02 0. -1.
    10030    2    1    2    0    0  0.00000000000E+00  0.00000000000E+00  0.38850380975E+03  0.19404993561E+04  0.19012108092E+04 0.  0.
        4    1    3    3  502    0 -0.82032600626E+03 -0.22551527891E+03  0.62711150247E+03  0.10569117026E+04  0.12699999809E+01 0.  1.
       -4    1    3    3    0  502  0.82032600626E+03  0.22551527891E+03 -0.23860769272E+03  0.88358765354E+03  0.12699999809E+01 0. -1.
</event>
<event>
 5   0  0.5614989E-05  0.1902910E+04  0.7818609E-02  0.8653409E-01
       -1   -1    0    0    0  501  0.00000000000E+00  0.00000000000E+00  0.82485806959E+03  0.82485806961E+03  0.50400001928E-02 0.  1.
        1   -1    0    0  501    0  0.00000000000E+00  0.00000000000E+00 -0.10974817548E+04  0.10974817548E+04  0.50400001928E-02 0. -1.
    10030    2    1    2    0    0  0.00000000000E+00  0.00000000000E+00 -0.27262368522E+03  0.19223398244E+04  0.19029100680E+04 0.  0.
        4    1    3    3  502    0  0.46071709011E+03  0.46549901187E+02 -0.97596512291E+03  0.10802484272E+04  0.12699999809E+01 0. -1.
       -4    1    3    3    0  502 -0.46071709011E+03 -0.46549901187E+02  0.70334143769E+03  0.84209139723E+03  0.12699999809E+01 0.  1.
</event>
<event>
 5   0  0.5824956E-05  0.1902521E+04  0.7818609E-02  0.8653602E-01
        1   -1    0    0  501    0  0.00000000000E+00  0.00000000000E+00  0.16354550583E+04  0.16354550583E+04  0.50400001928E-02 0.  1.
       -1   -1    0    0    0  501  0.00000000000E+00  0.00000000000E+00 -0.55329969226E+03  0.55329969228E+03  0.50400001928E-02 0. -1.
    10030    2    1    2    0    0  0.00000000000E+00  0.00000000000E+00  0.10821553660E+04  0.21887547506E+04  0.19025212540E+04 0.  0.
        2    1    3    3  502    0 -0.32436494961E+03  0.79509179234E+03  0.10119380147E+04  0.13271782565E+04  0.25500000920E-02 0.  1.
       -2    1    3    3    0  502  0.32436494961E+03 -0.79509179234E+03  0.70217351316E+02  0.86157649412E+03  0.25500000920E-02 0. -1.
</event>
<event>
 5   0  0.1118206E-04  0.1907787E+04  0.7818609E-02  0.8650990E-01
       -2   -1    0    0    0  501  0.00000000000E+00  0.00000000000E+00  0.69732420167E+03  0.69732420167E+03  0.25500000920E-02 0. -1.
        2   -1    0    0  501    0  0.00000000000E+00  0.00000000000E+00 -0.13048636013E+04  0.13048636013E+04  0.25500000920E-02 0.  1.
    10030    2    1    2    0    0  0.00000000000E+00  0.00000000000E+00 -0.60753939965E+03  0.20021878030E+04  0.19077871675E+04 0.  0.
        1    1    3    3  502    0  0.57165776659E+03  0.61048339720E+03 -0.78519522946E+03  0.11471765901E+04  0.50400001928E-02 0.  1.
       -1    1    3    3    0  502 -0.57165776659E+03 -0.61048339720E+03  0.17765582981E+03  0.85501121294E+03  0.50400001928E-02 0. -1.
</event>
<event>
 5   0  0.1182630E-04  0.1899362E+04  0.7818609E-02  0.8655174E-01
        2   -1    0    0  501    0  0.00000000000E+00  0.00000000000E+00  0.12355368685E+04  0.12355368685E+04  0.25500000920E-02 0.  1.
       -2   -1    0    0    0  501  0.00000000000E+00  0.00000000000E+00 -0.72996103553E+03  0.72996103553E+03  0.25500000920E-02 0. -1.
    10030    2    1    2    0    0  0.00000000000E+00  0.00000000000E+00  0.50557583295E+03  0.19654979040E+04  0.18993617580E+04 0.  0.
        5    1    3    3  502    0 -0.59149356723E+03  0.74100118975E+03  0.30874747432E+03  0.99714316734E+03  0.46999998093E+01 0.  1.
       -5    1    3    3    0  502  0.59149356723E+03 -0.74100118975E+03  0.19682835863E+03  0.96835473667E+03  0.46999998093E+01 0. -1.
</event>
<event>
 5   0  0.1133638E-04  0.1867049E+04  0.7818609E-02  0.8671434E-01
       -2   -1    0    0    0  501  0.00000000000E+00  0.00000000000E+00  0.65931648495E+03  0.65931648496E+03  0.25500000920E-02 0.  1.
        2   -1    0    0  501    0  0.00000000000E+00  0.00000000000E+00 -0.13217754779E+04  0.13217754779E+04  0.25500000920E-02 0. -1.
    10030    2    1    2    0    0  0.00000000000E+00  0.00000000000E+00 -0.66245899292E+03  0.19810919628E+04  0.18670493962E+04 0.  0.
        3    1    3    3  502    0 -0.18483453976E+03 -0.17450360228E+03  0.62188713325E+03  0.67183251707E+03  0.10100000352E+00 0.  1.
       -3    1    3    3    0  502  0.18483453976E+03  0.17450360228E+03 -0.12843461262E+04  0.13092594458E+04  0.10100000352E+00 0. -1.
</event>
<event>
 5   0  0.5841424E-05  0.1901082E+04  0.7818609E-02  0.8654318E-01
       -1   -1    0    0    0  501  0.00000000000E+00  0.00000000000E+00  0.39320988975E+03  0.39320988978E+03  0.50400001928E-02 0.  1.
        1   -1    0    0  501    0  0.00000000000E+00  0.00000000000E+00 -0.22978272144E+04  0.22978272144E+04  0.50400001928E-02 0. -1.
    10030    2    1    2    0    0  0.00000000000E+00  0.00000000000E+00 -0.19046173246E+04  0.26910371042E+04  0.19010822031E+04 0.  0.
        1    1    3    3  502    0 -0.81009774950E+03  0.38991736694E+03 -0.51547522724E+03  0.10363438747E+04  0.50400001928E-02 0.  1.
       -1    1    3    3    0  502  0.81009774950E+03 -0.38991736694E+03 -0.13891420974E+04  0.16546932294E+04  0.50400001928E-02 0. -1.
</event>
<event>
 5   0  0.1118206E-04  0.1942185E+04  0.7818609E-02  0.8634138E-01
       -2   -1    0    0    0  501  0.00000000000E+00  0.00000000000E+00  0.47410802427E+03  0.47410802427E+03  0.25500000920E-02 0. -1.
        2   -1    0    0  501    0  0.00000000000E+00  0.00000000000E+00 -0.19890419157E+04  0.19890419157E+04  0.25500000920E-02 0.  1.
    10030    2    1    2    0    0  0.00000000000E+00  0.00000000000E+00 -0.15149338915E+04  0.24631499400E+04  0.19421850920E+04 0.  0.
        1    1    3    3  502    0 -0.84027230550E+03  0.89740734028E+02 -0.13642485602E+04  0.16047694790E+04  0.50400001928E-02 0.  1.
       -1    1    3    3    0  502  0.84027230550E+03 -0.89740734028E+02 -0.15068533126E+03  0.85838046099E+03  0.50400001928E-02 0. -1.
</event>
<event>
 5   0  0.5614989E-05  0.1912657E+04  0.7818609E-02  0.8648582E-01
        1   -1    0    0  501    0  0.00000000000E+00  0.00000000000E+00  0.12115456929E+04  0.12115456930E+04  0.50400001928E-02 0.  1.
       -1   -1    0    0    0  501  0.00000000000E+00  0.00000000000E+00 -0.75487399307E+03  0.75487399309E+03  0.50400001928E-02 0. -1.
    10030    2    1    2    0    0  0.00000000000E+00  0.00000000000E+00  0.45667169987E+03  0.19664196860E+04  0.19126571413E+04 0.  0.
        4    1    3    3  502    0 -0.78094919785E+03  0.36072976286E+03  0.65787758929E+03  0.10829645178E+04  0.12699999809E+01 0.  1.
       -4    1    3    3    0  502  0.78094919785E+03 -0.36072976286E+03 -0.20120588943E+03  0.88345516823E+03  0.12699999809E+01 0. -1.
</event>
<event>
 5   0  0.1133638E-04  0.1901099E+04  0.7818609E-02  0.8654310E-01
        2   -1    0    0  501    0  0.00000000000E+00  0.00000000000E+00  0.15275621039E+04  0.15275621039E+04  0.25500000920E-02 0.  1.
       -2   -1    0    0    0  501  0.00000000000E+00  0.00000000000E+00 -0.59149408725E+03  0.59149408726E+03  0.25500000920E-02 0. -1.
    10030    2    1    2    0    0  0.00000000000E+00  0.00000000000E+00  0.93606801664E+03  0.21190561911E+04  0.19010985796E+04 0.  0.
        3    1    3    3  502    0 -0.36349973597E+03 -0.62881318460E+03  0.11515286971E+04  0.13614537927E+04  0.10100000352E+00 0.  1.
       -3    1    3    3    0  502  0.36349973597E+03  0.62881318460E+03 -0.21546068043E+03  0.75760239849E+03  0.10100000352E+00 0. -1.
</event>
<event>
 5   0  0.1101678E-04  0.1889825E+04  0.7818609E-02  0.8659938E-01
       -2   -1    0    0    0  501  0.00000000000E+00  0.00000000000E+00  0.42250203391E+03  0.42250203392E+03  0.25500000920E-02 0.  1.
        2   -1    0    0  501    0  0.00000000000E+00  0.00000000000E+00 -0.21132666435E+04  0.21132666435E+04  0.25500000920E-02 0. -1.
    10030    2    1    2    0    0  0.00000000000E+00  0.00000000000E+00 -0.16907646096E+04  0.25357686775E+04  0.18898248121E+04 0.  0.
        4    1    3    3  502    0  0.22852603607E+03 -0.15354686503E+02 -0.20754544171E+04  0.20880547325E+04  0.12699999809E+01 0. -1.
       -4    1    3    3    0  502 -0.22852603607E+03  0.15354686503E+02  0.38468980752E+03  0.44771394491E+03  0.12699999809E+01 0.  1.
</event>
<event>
 5   0  0.5579109E-05  0.1782699E+04  0.7818609E-02  0.8715554E-01
       -1   -1    0    0    0  501  0.00000000000E+00  0.00000000000E+00  0.68680113708E+03  0.68680113709E+03  0.50400001928E-02 0. -1.
        1   -1    0    0  501    0  0.00000000000E+00  0.00000000000E+00 -0.11568179086E+04  0.11568179086E+04  0.50400001928E-02 0.  1.
    10030    2    1    2    0    0  0.00000000000E+00  0.00000000000E+00 -0.47001677149E+03  0.18436190457E+04  0.17826989146E+04 0.  0.
        3    1    3    3  502    0  0.85240160428E+03 -0.25028958345E+03 -0.15992946274E+03  0.90266871765E+03  0.10100000352E+00 0. -1.
       -3    1    3    3    0  502 -0.85240160428E+03  0.25028958345E+03 -0.31008730875E+03  0.94095032802E+03  0.10100000352E+00 0.  1.
</event>
<event>
 5   0  0.1118206E-04  0.1891365E+04  0.7818609E-02  0.8659167E-01
       -2   -1    0    0    0  501  0.00000000000E+00  0.00000000000E+00  0.10829962806E+04  0.10829962806E+04  0.25500000920E-02 0. -1.
        2   -1    0    0  501    0  0.00000000000E+00  0.00000000000E+00 -0.82577860625E+03  0.82577860625E+03  0.25500000920E-02 0.  1.
    10030    2    1    2    0    0  0.00000000000E+00  0.00000000000E+00  0.25721767432E+03  0.19087748868E+04  0.18913647550E+04 0.  0.
        1    1    3    3  502    0  0.82478427572E+03 -0.45425105198E+03  0.40039725372E+02  0.94245227960E+03  0.50400001928E-02 0.  1.
       -1    1    3    3    0  502 -0.82478427572E+03  0.45425105198E+03  0.21717794894E+03  0.96632260722E+03  0.50400001928E-02 0. -1.
</event>
<event>
 5   0  0.5628936E-05  0.1885124E+04  0.7818609E-02  0.8662297E-01
       -1   -1    0    0    0  501  0.00000000000E+00  0.00000000000E+00  0.12111949066E+04  0.12111949066E+04  0.50400001928E-02 0. -1.
        1   -1    0    0  501    0  0.00000000000E+00  0.00000000000E+00 -0.73350932125E+03  0.73350932127E+03  0.50400001928E-02 0.  1.
    10030    2    1    2    0    0  0.00000000000E+00  0.00000000000E+00  0.47768558538E+03  0.19447042279E+04  0.18851236075E+04 0.  0.
        5    1    3    3  502    0  0.83095554469E+03 -0.81971417832E+02  0.68992024703E+03  0.10831520982E+04  0.46999998093E+01 0.  1.
       -5    1    3    3    0  502 -0.83095554469E+03  0.81971417832E+02 -0.21223466165E+03  0.86155212970E+03  0.46999998093E+01 0. -1.
</event>
<event>
 5   0  0.5628936E-05  0.1916263E+04  0.7818609E-02  0.8646804E-01
       -1   -1    0    0    0  501  0.00000000000E+00  0.00000000000E+00  0.74554070750E+03  0.74554070752E+03  0.50400001928E-02 0. -1.
        1   -1    0    0  501    0  0.00000000000E+00  0.00000000000E+00 -0.12313420163E+04  0.12313420163E+04  0.50400001928E-02 0.  1.
    10030    2    1    2    0    0  0.00000000000E+00  0.00000000000E+00 -0.48580130877E+03  0.19768827238E+04  0.19162626104E+04 0.  0.
        5    1    3    3  502    0 -0.40998834258E+02  0.78236870836E+03 -0.81190281262E+03  0.11282685706E+04  0.46999998093E+01 0.  1.
       -5    1    3    3    0  502  0.40998834258E+02 -0.78236870836E+03  0.32610150385E+03  0.84861415322E+03  0.46999998093E+01 0. -1.
</event>
<event>
 5   0  0.5841424E-05  0.1892295E+04  0.7818609E-02  0.8658701E-01
        1   -1    0    0  501    0  0.00000000000E+00  0.00000000000E+00  0.19179489425E+04  0.19179489425E+04  0.50400001928E-02 0. -1.
       -1   -1    0    0    0  501  0.00000000000E+00  0.00000000000E+00 -0.46674583918E+03  0.46674583921E+03  0.50400001928E-02 0.  1.
    10030    2    1    2    0    0  0.00000000000E+00  0.00000000000E+00  0.14512031033E+04  0.23846947817E+04  0.18922945740E+04 0.  0.
        1    1    3    3  502    0 -0.47007623805E+03 -0.50462361091E+03 -0.90699633954E+02  0.69558829913E+03  0.50400001928E-02 0.  1.
       -1    1    3    3    0  502  0.47007623805E+03  0.50462361091E+03  0.15419027372E+04  0.16891064826E+04  0.50400001928E-02 0. -1.
</event>
<event>
 5   0  0.5579109E-05  0.1908485E+04  0.7818609E-02  0.8650645E-01
       -1   -1    0    0    0  501  0.00000000000E+00  0.00000000000E+00  0.11423354082E+04  0.11423354082E+04  0.50400001928E-02 0. -1.
        1   -1    0    0  501    0  0.00000000000E+00  0.00000000000E+00 -0.79711999192E+03  0.79711999193E+03  0.50400001928E-02 0.  1.
    10030    2    1    2    0    0  0.00000000000E+00  0.00000000000E+00  0.34521541624E+03  0.19394554001E+04  0.19084846254E+04 0.  0.
        3    1    3    3  502    0  0.61070778248E+03 -0.36089308969E+03 -0.47600574628E+03  0.85427706188E+03  0.10100000352E+00 0.  1.
       -3    1    3    3    0  502 -0.61070778248E+03  0.36089308969E+03  0.82122116252E+03  0.10851783382E+04  0.10100000352E+00 0. -1.
</event>
<event>
 5   0  0.5579109E-05  0.1899617E+04  0.7818609E-02  0.8655047E-01
       -1   -1    0    0    0  501  0.00000000000E+00  0.00000000000E+00  0.70032310493E+03  0.70032310494E+03  0.50400001928E-02 0. -1.
        1   -1    0    0  501    0  0.00000000000E+00  0.00000000000E+00 -0.12881711296E+04  0.12881711296E+04  0.50400001928E-02 0.  1.
    10030    2    1    2    0    0  0.00000000000E+00  0.00000000000E+00 -0.58784802463E+03  0.19884942345E+04  0.18996168089E+04 0.  0.
        3    1    3    3  502    0  0.10470235917E+03  0.92938797035E+03 -0.46723417582E+03  0.10454818835E+04  0.10100000352E+00 0.  1.
       -3    1    3    3    0  502 -0.10470235917E+03 -0.92938797035E+03 -0.12061384880E+03  0.94301235102E+03  0.10100000352E+00 0. -1.
</event>
<event>
 5   0  0.5614989E-05  0.2044539E+04  0.7818609E-02  0.8586076E-01
       -1   -1    0    0    0  501  0.00000000000E+00  0.00000000000E+00  0.11878685541E+04  0.11878685541E+04  0.50400001928E-02 0.  1.
        1   -1    0    0  501    0  0.00000000000E+00  0.00000000000E+00 -0.87975671897E+03  0.87975671898E+03  0.50400001928E-02 0. -1.
    10030    2    1    2    0    0  0.00000000000E+00  0.00000000000E+00  0.30811183512E+03  0.20676252731E+04  0.20445394022E+04 0.  0.
        4    1    3    3  502    0  0.23608830087E+03 -0.57568580453E+03 -0.66620178172E+03  0.91158008876E+03  0.12699999809E+01 0. -1.
       -4    1    3    3    0  502 -0.23608830087E+03  0.57568580453E+03  0.97431361684E+03  0.11560451843E+04  0.12699999809E+01 0.  1.
</event>
<event>
 5   0  0.5579109E-05  0.1890032E+04  0.7818609E-02  0.8659834E-01
        1   -1    0    0  501    0  0.00000000000E+00  0.00000000000E+00  0.72615549021E+03  0.72615549023E+03  0.50400001928E-02 0. -1.
       -1   -1    0    0    0  501  0.00000000000E+00  0.00000000000E+00 -0.12298398572E+04  0.12298398573E+04  0.50400001928E-02 0.  1.
    10030    2    1    2    0    0  0.00000000000E+00  0.00000000000E+00 -0.50368436703E+03  0.19559953475E+04  0.18900317081E+04 0.  0.
        3    1    3    3  502    0  0.21342562563E+02  0.52118374651E+03 -0.10673590939E+04  0.11879997677E+04  0.10100000352E+00 0.  1.
       -3    1    3    3    0  502 -0.21342562563E+02 -0.52118374651E+03  0.56367472687E+03  0.76799557975E+03  0.10100000352E+00 0. -1.
</event>
<event>
 5   0  0.5841424E-05  0.1898116E+04  0.7818609E-02  0.8655795E-01
       -1   -1    0    0    0  501  0.00000000000E+00  0.00000000000E+00  0.55670458989E+03  0.55670458991E+03  0.50400001928E-02 0. -1.
        1   -1    0    0  501    0  0.00000000000E+00  0.00000000000E+00 -0.16179330795E+04  0.16179330795E+04  0.50400001928E-02 0.  1.
    10030    2    1    2    0    0  0.00000000000E+00  0.00000000000E+00 -0.10612284896E+04  0.21746376694E+04  0.18981156672E+04 0.  0.
        1    1    3    3  502    0 -0.26728123781E+03  0.19835781704E+03  0.48764263085E+03  0.59040699446E+03  0.50400001928E-02 0. -1.
       -1    1    3    3    0  502  0.26728123781E+03 -0.19835781704E+03 -0.15488711204E+04  0.15842306749E+04  0.50400001928E-02 0.  1.
</event>
<event>
 5   0  0.5628936E-05  0.1882011E+04  0.7818609E-02  0.8663863E-01
        1   -1    0    0  501    0  0.00000000000E+00  0.00000000000E+00  0.60779751859E+03  0.60779751861E+03  0.50400001928E-02 0. -1.
       -1   -1    0    0    0  501  0.00000000000E+00  0.00000000000E+00 -0.14568859303E+04  0.14568859303E+04  0.50400001928E-02 0.  1.
    10030    2    1    2    0    0  0.00000000000E+00  0.00000000000E+00 -0.84908841166E+03  0.20646834489E+04  0.18820113212E+04 0.  0.
        5    1    3    3  502    0 -0.26201396915E+03 -0.48361562918E+03 -0.12621525596E+04  0.13768030253E+04  0.46999998093E+01 0.  1.
       -5    1    3    3    0  502  0.26201396915E+03  0.48361562918E+03  0.41306414793E+03  0.68788042356E+03  0.46999998093E+01 0. -1.
</event>
<event>
 5   0  0.1133638E-04  0.1897501E+04  0.7818609E-02  0.8656101E-01
        2   -1    0    0  501    0  0.00000000000E+00  0.00000000000E+00  0.10741085359E+04  0.10741085359E+04  0.25500000920E-02 0. -1.
       -2   -1    0    0    0  501  0.00000000000E+00  0.00000000000E+00 -0.83802262721E+03  0.83802262721E+03  0.25500000920E-02 0.  1.
    10030    2    1    2    0    0  0.00000000000E+00  0.00000000000E+00  0.23608590868E+03  0.19121311631E+04  0.18975007322E+04 0.  0.
        3    1    3    3  502    0 -0.43088515601E+03  0.82848396780E+03  0.28690449824E+03  0.97691448136E+03  0.10100000352E+00 0. -1.
       -3    1    3    3    0  502  0.43088515601E+03 -0.82848396780E+03 -0.50818589554E+02  0.93521668175E+03  0.10100000352E+00 0.  1.
</event>
<event>
 5   0  0.1141890E-04  0.1879114E+04  0.7818609E-02  0.8665323E-01
       -2   -1    0    0    0  501  0.00000000000E+00  0.00000000000E+00  0.14969319349E+04  0.14969319349E+04  0.25500000920E-02 0.  1.
        2   -1    0    0  501    0  0.00000000000E+00  0.00000000000E+00 -0.58971747457E+03  0.58971747458E+03  0.25500000920E-02 0. -1.
    10030    2    1    2    0    0  0.00000000000E+00  0.00000000000E+00  0.90721446038E+03  0.20866494095E+04  0.18791135360E+04 0.  0.
        2    1    3    3  502    0 -0.36321192843E+02 -0.24210422946E+03 -0.55367779566E+03  0.60538647853E+03  0.25500000920E-02 0. -1.
       -2    1    3    3    0  502  0.36321192843E+02  0.24210422946E+03  0.14608922560E+04  0.14812629310E+04  0.25500000920E-02 0.  1.
</event>
<event>
 5   0  0.5628936E-05  0.1902531E+04  0.7818609E-02  0.8653597E-01
        1   -1    0    0  501    0  0.00000000000E+00  0.00000000000E+00  0.84145968470E+03  0.84145968471E+03  0.50400001928E-02 0.  1.
       -1   -1    0    0    0  501  0.00000000000E+00  0.00000000000E+00 -0.10754008882E+04  0.10754008882E+04  0.50400001928E-02 0. -1.
    10030    2    1    2    0    0  0.00000000000E+00  0.00000000000E+00 -0.23394120348E+03  0.19168605729E+04  0.19025314634E+04 0.  0.
        5    1    3    3  502    0 -0.12348209403E+03  0.93672928608E+03 -0.22814119929E+03  0.97199798342E+03  0.46999998093E+01 0.  1.
       -5    1    3    3    0  502  0.12348209403E+03 -0.93672928608E+03 -0.58000041881E+01  0.94486258948E+03  0.46999998093E+01 0. -1.
</event>
<event>
 5   0  0.1133638E-04  0.1881280E+04  0.7818609E-02  0.8664231E-01
       -2   -1    0    0    0  501  0.00000000000E+00  0.00000000000E+00  0.11575061089E+04  0.11575061090E+04  0.25500000920E-02 0.  1.
        2   -1    0    0  501    0  0.00000000000E+00  0.00000000000E+00 -0.76440483080E+03  0.76440483081E+03  0.25500000920E-02 0. -1.
    10030    2    1    2    0    0  0.00000000000E+00  0.00000000000E+00  0.39310127815E+03  0.19219109398E+04  0.18812796298E+04 0.  0.
        3    1    3    3  502    0  0.11247436345E+03  0.63576161161E+03  0.89540108240E+03  0.11038960177E+04  0.10100000352E+00 0.  1.
       -3    1    3    3    0  502 -0.11247436345E+03 -0.63576161161E+03 -0.50229980425E+03  0.81801492210E+03  0.10100000352E+00 0. -1.
</event>
<event>
 5   0  0.1118206E-04  0.1901015E+04  0.7818609E-02  0.8654352E-01
        2   -1    0    0  501    0  0.00000000000E+00  0.00000000000E+00  0.20240610948E+04  0.20240610948E+04  0.25500000920E-02 0. -1.
       -2   -1    0    0    0  501  0.00000000000E+00  0.00000000000E+00 -0.44636204033E+03  0.44636204033E+03  0.25500000920E-02 0.  1.
    10030    2    1    2    0    0  0.00000000000E+00  0.00000000000E+00  0.15776990544E+04  0.24704231351E+04  0.19010145081E+04 0.  0.
        1    1    3    3  502    0 -0.47363764535E+03 -0.52730327522E+03  0.16118552723E+04  0.17608119666E+04  0.50400001928E-02 0.  1.
       -1    1    3    3    0  502  0.47363764535E+03  0.52730327522E+03 -0.34156217827E+02  0.70961116845E+03  0.50400001928E-02 0. -1.
</event>
<event>
 5   0  0.1101678E-04  0.1659712E+04  0.7818609E-02  0.8784682E-01
       -2   -1    0    0    0  501  0.00000000000E+00  0.00000000000E+00  0.45610881247E+03  0.45610881248E+03  0.25500000920E-02 0. -1.
        2   -1    0    0  501    0  0.00000000000E+00  0.00000000000E+00 -0.15098614648E+04  0.15098614648E+04  0.25500000920E-02 0.  1.
    10030    2    1    2    0    0  0.00000000000E+00  0.00000000000E+00 -0.10537526523E+04  0.19659702773E+04  0.16597121675E+04 0.  0.
        4    1    3    3  502    0 -0.36130738661E+03  0.72005180400E+03 -0.29103425278E+03  0.85657467698E+03  0.12699999809E+01 0.  1.
       -4    1    3    3    0  502  0.36130738661E+03 -0.72005180400E+03 -0.76271839955E+03  0.11093956003E+04  0.12699999809E+01 0. -1.
</event>
<event>
 5   0  0.1141890E-04  0.1903397E+04  0.7818609E-02  0.8653167E-01
       -2   -1    0    0    0  501  0.00000000000E+00  0.00000000000E+00  0.52503656924E+03  0.52503656925E+03  0.25500000920E-02 0.  1.
        2   -1    0    0  501    0  0.00000000000E+00  0.00000000000E+00 -0.17250794802E+04  0.17250794802E+04  0.25500000920E-02 0. -1.
    10030    2    1    2    0    0  0.00000000000E+00  0.00000000000E+00 -0.12000429110E+04  0.22501160495E+04  0.19033967657E+04 0.  0.
        2    1    3    3  502    0  0.64619213670E+03 -0.10064369822E+03  0.21732477687E+03  0.68914692931E+03  0.25500000920E-02 0.  1.
       -2    1    3    3    0  502 -0.64619213670E+03  0.10064369822E+03 -0.14173676878E+04  0.15609691202E+04  0.25500000920E-02 0. -1.
</event>
<event>
 5   0  0.5628936E-05  0.1899274E+04  0.7818609E-02  0.8655218E-01
       -1   -1    0    0    0  501  0.00000000000E+00  0.00000000000E+00  0.77547635814E+03  0.77547635815E+03  0.50400001928E-02 0.  1.
        1   -1    0    0  501    0  0.00000000000E+00  0.00000000000E+00 -0.11629113519E+04  0.11629113519E+04  0.50400001928E-02 0. -1.
    10030    2    1    2    0    0  0.00000000000E+00  0.00000000000E+00 -0.38743499373E+03  0.19383877100E+04  0.18992738191E+04 0.  0.
        5    1    3    3  502    0  0.69077147624E+03 -0.43851053681E+03 -0.68565175111E+03  0.10675191507E+04  0.46999998093E+01 0. -1.
       -5    1    3    3    0  502 -0.69077147624E+03  0.43851053681E+03  0.29821675738E+03  0.87086855935E+03  0.46999998093E+01 0.  1.
</event>
<event>
 5   0  0.1141890E-04  0.1928927E+04  0.7818609E-02  0.8640590E-01
       -2   -1    0    0    0  501  0.00000000000E+00  0.00000000000E+00  0.60894495394E+03  0.60894495394E+03  0.25500000920E-02 0.  1.
        2   -1    0    0  501    0  0.00000000000E+00  0.00000000000E+00 -0.15275434337E+04  0.15275434337E+04  0.25500000920E-02 0. -1.
    10030    2    1    2    0    0  0.00000000000E+00  0.00000000000E+00 -0.91859847980E+03  0.21364883877E+04  0.19289270239E+04 0.  0.
        2    1    3    3  502    0 -0.79340825700E+03 -0.66987931533E+02  0.14351226634E+03  0.80906107053E+03  0.25500000920E-02 0.  1.
       -2    1    3    3    0  502  0.79340825700E+03  0.66987931533E+02 -0.10621107461E+04  0.13274273172E+04  0.25500000920E-02 0. -1.
</event>
<event>
 5   0  0.5628936E-05  0.1902380E+04  0.7818609E-02  0.8653673E-01
        1   -1    0    0  501    0  0.00000000000E+00  0.00000000000E+00  0.15929946137E+04  0.15929946137E+04  0.50400001928E-02 0. -1.
       -1   -1    0    0    0  501  0.00000000000E+00  0.00000000000E+00 -0.56796322080E+03  0.56796322082E+03  0.50400001928E-02 0.  1.
    10030    2    1    2    0    0  0.00000000000E+00  0.00000000000E+00  0.10250313929E+04  0.21609578346E+04  0.19023799322E+04 0.  0.
        5    1    3    3  502    0 -0.94868644151E+03 -0.72057297116E+01  0.59024452458E+03  0.11173489051E+04  0.46999998093E+01 0.  1.
       -5    1    3    3    0  502  0.94868644151E+03  0.72057297116E+01  0.43478686835E+03  0.10436089295E+04  0.46999998093E+01 0. -1.
</event>
<event>
 5   0  0.5614989E-05  0.1906141E+04  0.7818609E-02  0.8651806E-01
       -1   -1    0    0    0  501  0.00000000000E+00  0.00000000000E+00  0.34829722812E+03  0.34829722815E+03  0.50400001928E-02 0. -1.
        1   -1    0    0  501    0  0.00000000000E+00  0.00000000000E+00 -0.26079544188E+04  0.26079544188E+04  0.50400001928E-02 0.  1.
    10030    2    1    2    0    0  0.00000000000E+00  0.00000000000E+00 -0.22596571907E+04  0.29562516470E+04  0.19061409131E+04 0.  0.
        4    1    3    3  502    0 -0.30641051950E+03 -0.75543009571E+03 -0.18955752678E+04  0.20634362711E+04  0.12699999809E+01 0.  1.
       -4    1    3    3    0  502  0.30641051950E+03  0.75543009571E+03 -0.36408192288E+03  0.89281537589E+03  0.12699999809E+01 0. -1.
</event>
<event>
 5   0  0.5824956E-05  0.1898966E+04  0.7818609E-02  0.8655371E-01
        1   -1    0    0  501    0  0.00000000000E+00  0.00000000000E+00  0.32870219654E+03  0.32870219658E+03  0.50400001928E-02 0. -1.
       -1   -1    0    0    0  501  0.00000000000E+00  0.00000000000E+00 -0.27426582143E+04  0.27426582143E+04  0.50400001928E-02 0.  1.
    10030    2    1    2    0    0  0.00000000000E+00  0.00000000000E+00 -0.24139560177E+04  0.30713604108E+04  0.18989658022E+04 0.  0.
        2    1    3    3  502    0  0.11327160861E+03  0.56457721534E+03 -0.24280131567E+04  0.24953608513E+04  0.25500000920E-02 0.  1.
       -2    1    3    3    0  502 -0.11327160861E+03 -0.56457721534E+03  0.14057138944E+02  0.57599955951E+03  0.25500000920E-02 0. -1.
</event>
<event>
 5   0  0.5614989E-05  0.1917047E+04  0.7818609E-02  0.8646417E-01
       -1   -1    0    0    0  501  0.00000000000E+00  0.00000000000E+00  0.55174498690E+03  0.55174498693E+03  0.50400001928E-02 0. -1.
        1   -1    0    0  501    0  0.00000000000E+00  0.00000000000E+00 -0.16652028549E+04  0.16652028549E+04  0.50400001928E-02 0.  1.
    10030    2    1    2    0    0  0.00000000000E+00  0.00000000000E+00 -0.11134578680E+04  0.22169478418E+04  0.19170470285E+04 0.  0.
        4    1    3    3  502    0 -0.32672982549E+02  0.42535746616E+03  0.43590346130E+03  0.60992617445E+03  0.12699999809E+01 0. -1.
       -4    1    3    3    0  502  0.32672982549E+02 -0.42535746616E+03 -0.15493613293E+04  0.16070216674E+04  0.12699999809E+01 0.  1.
</event>
<event>
 5   0  0.1118206E-04  0.1891990E+04  0.7818609E-02  0.8658854E-01
       -2   -1    0    0    0  501  0.00000000000E+00  0.00000000000E+00  0.57244888241E+03  0.57244888242E+03  0.25500000920E-02 0.  1.
        2   -1    0    0  501    0  0.00000000000E+00  0.00000000000E+00 -0.15632950335E+04  0.15632950335E+04  0.25500000920E-02 0. -1.
    10030    2    1    2    0    0  0.00000000000E+00  0.00000000000E+00 -0.99084615109E+03  0.21357439159E+04  0.18919899522E+04 0.  0.
        1    1    3    3  502    0 -0.50558027450E+03  0.47005461357E+01  0.40713161681E+03  0.64914533236E+03  0.50400001928E-02 0.  1.
       -1    1    3    3    0  502  0.50558027450E+03 -0.47005461357E+01 -0.13979777679E+04  0.14865985836E+04  0.50400001928E-02 0. -1.
</event>
<event>
 5   0  0.1101678E-04  0.1898718E+04  0.7818609E-02  0.8655495E-01
        2   -1    0    0  501    0  0.00000000000E+00  0.00000000000E+00  0.17720093490E+04  0.17720093490E+04  0.25500000920E-02 0. -1.
       -2   -1    0    0    0  501  0.00000000000E+00  0.00000000000E+00 -0.50862161383E+03  0.50862161383E+03  0.25500000920E-02 0.  1.
    10030    2    1    2    0    0  0.00000000000E+00  0.00000000000E+00  0.12633877351E+04  0.22806309628E+04  0.18987177303E+04 0.  0.
        4    1    3    3  502    0  0.35365920493E+03 -0.63547350324E+03  0.13646657893E+04  0.15463556305E+04  0.12699999809E+01 0. -1.
       -4    1    3    3    0  502 -0.35365920493E+03  0.63547350324E+03 -0.10127805412E+03  0.73427533235E+03  0.12699999809E+01 0.  1.
</event>
<event>
 5   0  0.5579109E-05  0.1891462E+04  0.7818609E-02  0.8659118E-01
        1   -1    0    0  501    0  0.00000000000E+00  0.00000000000E+00  0.12363648020E+04  0.12363648020E+04  0.50400001928E-02 0.  1.
       -1   -1    0    0    0  501  0.00000000000E+00  0.00000000000E+00 -0.72341719926E+03  0.72341719928E+03  0.50400001928E-02 0. -1.
    10030    2    1    2    0    0  0.00000000000E+00  0.00000000000E+00  0.51294760273E+03  0.19597820013E+04  0.18914624631E+04 0.  0.
        3    1    3    3  502    0 -0.67799735970E+03 -0.25873286262E+03  0.88483117018E+03  0.11443554185E+04  0.10100000352E+00 0.  1.
       -3    1    3    3    0  502  0.67799735970E+03  0.25873286262E+03 -0.37188356744E+03  0.81542658278E+03  0.10100000352E+00 0. -1.
</event>
<event>
 5   0  0.1133638E-04  0.1897826E+04  0.7818609E-02  0.8655939E-01
       -2   -1    0    0    0  501  0.00000000000E+00  0.00000000000E+00  0.51323929628E+03  0.51323929628E+03  0.25500000920E-02 0.  1.
        2   -1    0    0  501    0  0.00000000000E+00  0.00000000000E+00 -0.17544171005E+04  0.17544171005E+04  0.25500000920E-02 0. -1.
    10030    2    1    2    0    0  0.00000000000E+00  0.00000000000E+00 -0.12411778042E+04  0.22676563967E+04  0.18978259120E+04 0.  0.
        3    1    3    3  502    0 -0.78131766657E+03  0.53623674686E+03 -0.67947363673E+03  0.11660581366E+04  0.10100000352E+00 0.  1.
       -3    1    3    3    0  502  0.78131766657E+03 -0.53623674686E+03 -0.56170416745E+03  0.11015982601E+04  0.10100000352E+00 0. -1.
</event>
<event>
 5   0  0.5579109E-05  0.1907122E+04  0.7818609E-02  0.8651319E-01
       -1   -1    0    0    0  501  0.00000000000E+00  0.00000000000E+00  0.78235457735E+03  0.78235457737E+03  0.50400001928E-02 0.  1.
        1   -1    0    0  501    0  0.00000000000E+00  0.00000000000E+00 -0.11622331688E+04  0.11622331688E+04  0.50400001928E-02 0. -1.
    10030    2    1    2    0    0  0.00000000000E+00  0.00000000000E+00 -0.37987859144E+03  0.19445877462E+04  0.19071218520E+04 0.  0.
        3    1    3    3  502    0 -0.71710746144E+03  0.24944250740E+03  0.39829417855E+03  0.85738144289E+03  0.10100000352E+00 0.  1.
       -3    1    3    3    0  502  0.71710746144E+03 -0.24944250740E+03 -0.77817276999E+03  0.10872063033E+04  0.10100000352E+00 0. -1.
</event>
<event>
 5   0  0.5824956E-05  0.1901264E+04  0.7818609E-02  0.8654227E-01
       -1   -1    0    0    0  501  0.00000000000E+00  0.00000000000E+00  0.14224655978E+04  0.14224655978E+04  0.50400001928E-02 0.  1.
        1   -1    0    0  501    0  0.00000000000E+00  0.00000000000E+00 -0.63530649945E+03  0.63530649947E+03  0.50400001928E-02 0. -1.
    10030    2    1    2    0    0  0.00000000000E+00  0.00000000000E+00  0.78715909837E+03  0.20577720973E+04  0.19012644630E+04 0.  0.
        2    1    3    3  502    0  0.76770573262E+03  0.45695542126E+03  0.74516005813E+03  0.11633760618E+04  0.25500000920E-02 0.  1.
       -2    1    3    3    0  502 -0.76770573262E+03 -0.45695542126E+03  0.41999040240E+02  0.89439603549E+03  0.25500000920E-02 0. -1.
</event>
<event>
 5   0  0.1141890E-04  0.1901623E+04  0.7818609E-02  0.8654049E-01
       -2   -1    0    0    0  501  0.00000000000E+00  0.00000000000E+00  0.55744489934E+03  0.55744489934E+03  0.25500000920E-02 0. -1.
        2   -1    0    0  501    0  0.00000000000E+00  0.00000000000E+00 -0.16217611935E+04  0.16217611935E+04  0.25500000920E-02 0.  1.
    10030    2    1    2    0    0  0.00000000000E+00  0.00000000000E+00 -0.10643162941E+04  0.21792060928E+04  0.19016229966E+04 0.  0.
        2    1    3    3  502    0 -0.49400375050E+03 -0.58914237543E+01 -0.14631274322E+04  0.15442850440E+04  0.25500000920E-02 0.  1.
       -2    1    3    3    0  502  0.49400375050E+03  0.58914237543E+01  0.39881113804E+03  0.63492104880E+03  0.25500000920E-02 0. -1.
</event>
<event>
 5   0  0.4061125E-05  0.1884451E+04  0.7818609E-02  0.8662635E-01
        3   -1    0    0  501    0  0.00000000000E+00  0.00000000000E+00  0.74018820381E+03  0.74018821070E+03  0.10100000352E+00 0. -1.
       -3   -1    0    0    0  501  0.00000000000E+00  0.00000000000E+00 -0.11994097212E+04  0.11994097255E+04  0.10100000352E+00 0.  1.
    10030    2    1    2    0    0  0.00000000000E+00  0.00000000000E+00 -0.45922151743E+03  0.19395979362E+04  0.18844510479E+04 0.  0.
        1    1    3    3  502    0 -0.28471815297E+03 -0.75523012681E+01  0.69481944358E+03  0.75092977241E+03  0.50400001928E-02 0. -1.
       -1    1    3    3    0  502  0.28471815297E+03  0.75523012681E+01 -0.11540409610E+04  0.11886681638E+04  0.50400001928E-02 0.  1.
</event>
<event>
 5   0  0.5841424E-05  0.1912396E+04  0.7818609E-02  0.8648711E-01
       -1   -1    0    0    0  501  0.00000000000E+00  0.00000000000E+00  0.12477078443E+04  0.12477078443E+04  0.50400001928E-02 0. -1.
        1   -1    0    0  501    0  0.00000000000E+00  0.00000000000E+00 -0.73279545730E+03  0.73279545731E+03  0.50400001928E-02 0.  1.
    10030    2    1    2    0    0  0.00000000000E+00  0.00000000000E+00  0.51491238698E+03  0.19805033016E+04  0.19123960263E+04 0.  0.
        1    1    3    3  502    0 -0.10803476107E+03 -0.90503295443E+03 -0.41903281997E+02  0.91242097919E+03  0.50400001928E-02 0. -1.
       -1    1    3    3    0  502  0.10803476107E+03  0.90503295443E+03  0.55681566897E+03  0.10680823224E+04  0.50400001928E-02 0.  1.
</event>
<event>
 5   0  0.1101678E-04  0.1904852E+04  0.7818609E-02  0.8652445E-01
        2   -1    0    0  501    0  0.00000000000E+00  0.00000000000E+00  0.10688828781E+04  0.10688828781E+04  0.25500000920E-02 0.  1.
       -2   -1    0    0    0  501  0.00000000000E+00  0.00000000000E+00 -0.84865726031E+03  0.84865726032E+03  0.25500000920E-02 0. -1.
    10030    2    1    2    0    0  0.00000000000E+00  0.00000000000E+00  0.22022561779E+03  0.19175401384E+04  0.19048519259E+04 0.  0.
        4    1    3    3  502    0 -0.75427161158E+03 -0.10665775235E+03 -0.46536990180E+03  0.89267704046E+03  0.12699999809E+01 0. -1.
       -4    1    3    3    0  502  0.75427161158E+03  0.10665775235E+03  0.68559551958E+03  0.10248630980E+04  0.12699999809E+01 0.  1.
</event>
<event>
 5   0  0.5841424E-05  0.1907092E+04  0.7818609E-02  0.8651334E-01
        1   -1    0    0  501    0  0.00000000000E+00  0.00000000000E+00  0.10269416977E+04  0.10269416977E+04  0.50400001928E-02 0.  1.
       -1   -1    0    0    0  501  0.00000000000E+00  0.00000000000E+00 -0.88539575260E+03  0.88539575261E+03  0.50400001928E-02 0. -1.
    10030    2    1    2    0    0  0.00000000000E+00  0.00000000000E+00  0.14154594509E+03  0.19123374503E+04  0.19070918356E+04 0.  0.
        1    1    3    3  502    0  0.47877983256E+03  0.22372079790E+03  0.86666179805E+03  0.10150782215E+04  0.50400001928E-02 0.  1.
       -1    1    3    3    0  502 -0.47877983256E+03 -0.22372079790E+03 -0.72511585297E+03  0.89725922883E+03  0.50400001928E-02 0. -1.
</event>
<event>
 5   0  0.1101678E-04  0.1884955E+04  0.7818609E-02  0.8662382E-01
       -2   -1    0    0    0  501  0.00000000000E+00  0.00000000000E+00  0.97957799978E+03  0.97957799978E+03  0.25500000920E-02 0. -1.
        2   -1    0    0  501    0  0.00000000000E+00  0.00000000000E+00 -0.90678238232E+03  0.90678238232E+03  0.25500000920E-02 0.  1.
    10030    2    1    2    0    0  0.00000000000E+00  0.00000000000E+00  0.72795617461E+02  0.18863603821E+04  0.18849552486E+04 0.  0.
        4    1    3    3  502    0  0.70598143025E+03  0.62158635731E+03 -0.22663809818E+02  0.94090097281E+03  0.12699999809E+01 0.  1.
       -4    1    3    3    0  502 -0.70598143025E+03 -0.62158635731E+03  0.95459427278E+02  0.94545940929E+03  0.12699999809E+01 0. -1.
</event>
<event>
 5   0  0.1182630E-04  0.1901523E+04  0.7818609E-02  0.8654099E-01
        2   -1    0    0  501    0  0.00000000000E+00  0.00000000000E+00  0.19602696904E+04  0.19602696904E+04  0.25500000920E-02 0. -1.
       -2   -1    0    0    0  501  0.00000000000E+00  0.00000000000E+00 -0.46113418801E+03  0.46113418802E+03  0.25500000920E-02 0.  1.
    10030    2    1    2    0    0  0.00000000000E+00  0.00000000000E+00  0.14991355024E+04  0.24214038784E+04  0.19015229391E+04 0.  0.
        5    1    3    3  502    0  0.27775825451E+03 -0.14493549293E+03  0.18926330301E+04  0.19183945949E+04  0.46999998093E+01 0. -1.
       -5    1    3    3    0  502 -0.27775825451E+03  0.14493549293E+03 -0.39349752768E+03  0.50300928356E+03  0.46999998093E+01 0.  1.
</event>
<event>
 5   0  0.5614989E-05  0.1903420E+04  0.7818609E-02  0.8653156E-01
        1   -1    0    0  501    0  0.00000000000E+00  0.00000000000E+00  0.13100064835E+04  0.13100064835E+04  0.50400001928E-02 0.  1.
       -1   -1    0    0    0  501  0.00000000000E+00  0.00000000000E+00 -0.69141016033E+03  0.69141016035E+03  0.50400001928E-02 0. -1.
    10030    2    1    2    0    0  0.00000000000E+00  0.00000000000E+00  0.61859632312E+03  0.20014166438E+04  0.19034198620E+04 0.  0.
        4    1    3    3  502    0 -0.17081238453E+03 -0.31321210868E+03 -0.61843752926E+03  0.71396448527E+03  0.12699999809E+01 0. -1.
       -4    1    3    3    0  502  0.17081238453E+03  0.31321210868E+03  0.12370338524E+04  0.12874521585E+04  0.12699999809E+01 0.  1.
</event>
<event>
 5   0  0.1182630E-04  0.1990786E+04  0.7818609E-02  0.8610941E-01
       -2   -1    0    0    0  501  0.00000000000E+00  0.00000000000E+00  0.40174050675E+03  0.40174050675E+03  0.25500000920E-02 0. -1.
        2   -1    0    0  501    0  0.00000000000E+00  0.00000000000E+00 -0.24662867351E+04  0.24662867351E+04  0.25500000920E-02 0.  1.
    10030    2    1    2    0    0  0.00000000000E+00  0.00000000000E+00 -0.20645462284E+04  0.28680272419E+04  0.19907860586E+04 0.  0.
        5    1    3    3  502    0  0.84285858736E+03 -0.21818338778E+03 -0.33721239087E+03  0.93367493034E+03  0.46999998093E+01 0. -1.
       -5    1    3    3    0  502 -0.84285858736E+03  0.21818338778E+03 -0.17273338375E+04  0.19343523115E+04  0.46999998093E+01 0.  1.
</event>
<event>
 5   0  0.5824956E-05  0.1900619E+04  0.7818609E-02  0.8654548E-01
        1   -1    0    0  501    0  0.00000000000E+00  0.00000000000E+00  0.99808882678E+03  0.99808882680E+03  0.50400001928E-02 0.  1.
       -1   -1    0    0    0  501  0.00000000000E+00  0.00000000000E+00 -0.90481756798E+03  0.90481756799E+03  0.50400001928E-02 0. -1.
    10030    2    1    2    0    0  0.00000000000E+00  0.00000000000E+00  0.93271258809E+02  0.19029063948E+04  0.19006191674E+04 0.  0.
        2    1    3    3  502    0 -0.18155412301E+03  0.84254304466E+03 -0.35415551698E+03  0.93180835577E+03  0.25500000920E-02 0. -1.
       -2    1    3    3    0  502  0.18155412301E+03 -0.84254304466E+03  0.44742677578E+03  0.97109803901E+03  0.25500000920E-02 0.  1.
</event>
<event>
 5   0  0.1141890E-04  0.1893377E+04  0.7818609E-02  0.8658160E-01
        2   -1    0    0  501    0  0.00000000000E+00  0.00000000000E+00  0.94745498578E+03  0.94745498578E+03  0.25500000920E-02 0.  1.
       -2   -1    0    0    0  501  0.00000000000E+00  0.00000000000E+00 -0.94592240794E+03  0.94592240794E+03  0.25500000920E-02 0. -1.
    10030    2    1    2    0    0  0.00000000000E+00  0.00000000000E+00  0.15325778442E+01  0.18933773937E+04  0.18933767735E+04 0.  0.
        2    1    3    3  502    0  0.69250308252E+03 -0.53018512095E+03 -0.36742144663E+03  0.94639067050E+03  0.25500000920E-02 0. -1.
       -2    1    3    3    0  502 -0.69250308252E+03  0.53018512095E+03  0.36895402447E+03  0.94698672322E+03  0.25500000920E-02 0.  1.
</event>
<event>
 5   0  0.5628936E-05  0.1900863E+04  0.7818609E-02  0.8654427E-01
        1   -1    0    0  501    0  0.00000000000E+00  0.00000000000E+00  0.10146689669E+04  0.10146689669E+04  0.50400001928E-02 0.  1.
       -1   -1    0    0    0  501  0.00000000000E+00  0.00000000000E+00 -0.89026086325E+03  0.89026086327E+03  0.50400001928E-02 0. -1.
    10030    2    1    2    0    0  0.00000000000E+00  0.00000000000E+00  0.12440810362E+03  0.19049298302E+04  0.19008630360E+04 0.  0.
        5    1    3    3  502    0  0.10151516944E+03 -0.84077694306E+03 -0.37009663043E+03  0.92423200738E+03  0.46999998093E+01 0.  1.
       -5    1    3    3    0  502 -0.10151516944E+03  0.84077694306E+03  0.49450473405E+03  0.98069782278E+03  0.46999998093E+01 0. -1.
</event>
</LesHouchesEvents>
